<event>
 8    1  0.1010879E+005  0.1043930E+01  0.7957747E-01            NaN
         13   -1    0    0    0    0  0.00000000000E+00  0.00000000000E+00  0.74505805969E-08  0.10566000000E+00  0.10566000000E+00 0.  1.
     999900   -1    0    0    0    0 -0.00000000000E+00 -0.00000000000E+00 -0.74505805969E-08  0.93827000000E+00  0.93827000000E+00 0.  1.
     999902    2    1    2    0    0 -0.11567122786E-01  0.12597428772E-01 -0.16748180053E-01  0.10199926844E+01  0.10197117638E+01 0.  0.
     999903    2    3    3    0    0  0.56006621019E-01 -0.40825205074E-01  0.10510675439E+00  0.12742962577E+00  0.19683514343E-01 0.  0.
         14    1    1    2    0    0  0.11567122786E-01 -0.12597428772E-01  0.16748180053E-01  0.23937315562E-01  0.00000000000E+00 0.  1.
     999901    1    3    3    0    0 -0.67573743805E-01  0.53422633846E-01 -0.12185493444E+00  0.89256305867E+00  0.88000000000E+00 0.  1.
        -11    1    4    4    0    0  0.28909101740E-01 -0.14551700914E-01  0.63350276252E-01  0.71140753335E-01  0.51100000000E-03 0.  1.
         11    1    4    4    0    0  0.27097519279E-01 -0.26273504160E-01  0.41756478138E-01  0.56288872430E-01  0.51100000000E-03 0. -1.
</event>
<event>
 8    1  0.1010879E+005  0.1043930E+01  0.7957747E-01            NaN
         13   -1    0    0    0    0  0.00000000000E+00  0.00000000000E+00  0.74505805969E-08  0.10566000000E+00  0.10566000000E+00 0. -1.
     999900   -1    0    0    0    0 -0.00000000000E+00 -0.00000000000E+00 -0.74505805969E-08  0.93827000000E+00  0.93827000000E+00 0. -1.
     999902    2    1    2    0    0  0.32418364002E-03 -0.73004484203E-02  0.22740676998E-01  0.10200440202E+01  0.10197643174E+01 0.  0.
     999903    2    3    3    0    0 -0.79476494202E-01 -0.28955298216E-02  0.10432410485E+00  0.13266393971E+00  0.19781426211E-01 0.  0.
         14    1    1    2    0    0 -0.32418364002E-03  0.73004484203E-02 -0.22740676998E-01  0.23885979831E-01  0.00000000000E+00 0.  1.
     999901    1    3    3    0    0  0.79800677842E-01 -0.44049185988E-02 -0.81583427855E-01  0.88738008046E+00  0.88000000000E+00 0. -1.
        -11    1    4    4    0    0 -0.60044724104E-01  0.30313108343E-03  0.63849732219E-01  0.87649929872E-01  0.51100000000E-03 0.  1.
         11    1    4    4    0    0 -0.19431770098E-01 -0.31986609050E-02  0.40474372634E-01  0.45014009840E-01  0.51100000000E-03 0. -1.
</event>
<event>
 8    1  0.1010879E+005  0.1043930E+01  0.7957747E-01            NaN
         13   -1    0    0    0    0  0.00000000000E+00  0.00000000000E+00  0.74505805969E-08  0.10566000000E+00  0.10566000000E+00 0.  1.
     999900   -1    0    0    0    0 -0.00000000000E+00 -0.00000000000E+00 -0.74505805969E-08  0.93827000000E+00  0.93827000000E+00 0.  1.
     999902    2    1    2    0    0 -0.63187970045E-04 -0.71071868497E-02  0.13965778989E-01  0.10282596752E+01  0.10281402630E+01 0.  0.
     999903    2    3    3    0    0  0.35140101265E-01 -0.13174867970E+00 -0.13155472982E-01  0.13836623457E+00  0.19483507897E-01 0.  0.
         14    1    1    2    0    0  0.63187970045E-04  0.71071868497E-02 -0.13965778989E-01  0.15670324834E-01  0.00000000000E+00 0. -1.
     999901    1    3    3    0    0 -0.35203289235E-01  0.12464149285E+00  0.27121251971E-01  0.88989344060E+00  0.88000000000E+00 0. -1.
        -11    1    4    4    0    0  0.26420288270E-01 -0.82686186450E-01 -0.16732538576E-01  0.88404049851E-01  0.51100000000E-03 0. -1.
         11    1    4    4    0    0  0.87198129951E-02 -0.49062493247E-01  0.35770655935E-02  0.49962184716E-01  0.51100000000E-03 0.  1.
</event>
<event>
 8    1  0.1010879E+005  0.1043930E+01  0.7957747E-01            NaN
         13   -1    0    0    0    0  0.00000000000E+00  0.00000000000E+00  0.74505805969E-08  0.10566000000E+00  0.10566000000E+00 0. -1.
     999900   -1    0    0    0    0 -0.00000000000E+00 -0.00000000000E+00 -0.74505805969E-08  0.93827000000E+00  0.93827000000E+00 0. -1.
     999902    2    1    2    0    0  0.46258611521E-02  0.13761517838E-01 -0.16968195274E-01  0.10215984614E+01  0.10213543551E+01 0.  0.
     999903    2    3    3    0    0 -0.63350501635E-01  0.91646460788E-01 -0.70180819432E-01  0.13395076463E+00  0.24598782434E-01 0.  0.
         14    1    1    2    0    0 -0.46258611521E-02 -0.13761517838E-01  0.16968195274E-01  0.22331538582E-01  0.00000000000E+00 0. -1.
     999901    1    3    3    0    0  0.67976362787E-01 -0.77884942950E-01  0.53212624158E-01  0.88764769678E+00  0.88000000000E+00 0. -1.
        -11    1    4    4    0    0 -0.56526921389E-01  0.66338708889E-01 -0.47362098404E-01  0.99194488884E-01  0.51100000000E-03 0. -1.
         11    1    4    4    0    0 -0.68235802459E-02  0.25307751900E-01 -0.22818721028E-01  0.34756275749E-01  0.51100000000E-03 0.  1.
</event>
<event>
 8    1  0.1010879E+005  0.1043930E+01  0.7957747E-01            NaN
         13   -1    0    0    0    0  0.00000000000E+00  0.00000000000E+00  0.74505805969E-08  0.10566000000E+00  0.10566000000E+00 0. -1.
     999900   -1    0    0    0    0 -0.00000000000E+00 -0.00000000000E+00 -0.74505805969E-08  0.93827000000E+00  0.93827000000E+00 0. -1.
     999902    2    1    2    0    0 -0.27039241206E-02  0.12679539687E-01 -0.19746472279E-01  0.10203078684E+01  0.10200343824E+01 0.  0.
     999903    2    3    3    0    0  0.12419874793E+00  0.26641676059E-01  0.20852270329E-01  0.13016884147E+00  0.19339137036E-01 0.  0.
         14    1    1    2    0    0  0.27039241206E-02 -0.12679539687E-01  0.19746472279E-01  0.23622131567E-01  0.00000000000E+00 0. -1.
     999901    1    3    3    0    0 -0.12690267205E+00 -0.13962136372E-01 -0.40598742607E-01  0.89013902696E+00  0.88000000000E+00 0.  1.
        -11    1    4    4    0    0  0.45115831609E-01  0.19222496491E-01  0.88631889888E-02  0.49837334130E-01  0.51100000000E-03 0. -1.
         11    1    4    4    0    0  0.79082916317E-01  0.74191795687E-02  0.11989081340E-01  0.80331507337E-01  0.51100000000E-03 0.  1.
</event>
<event>
 8    1  0.1010879E+005  0.1043930E+01  0.7957747E-01            NaN
         13   -1    0    0    0    0  0.00000000000E+00  0.00000000000E+00  0.74505805969E-08  0.10566000000E+00  0.10566000000E+00 0.  1.
     999900   -1    0    0    0    0 -0.00000000000E+00 -0.00000000000E+00 -0.74505805969E-08  0.93827000000E+00  0.93827000000E+00 0. -1.
     999902    2    1    2    0    0  0.18094174115E-01 -0.11998495677E-01 -0.77267248695E-02  0.10208851456E+01  0.10206250121E+01 0.  0.
     999903    2    3    3    0    0 -0.57923922599E-01 -0.41540282179E-01  0.10658431635E+00  0.12975188831E+00  0.19863538812E-01 0.  0.
         14    1    1    2    0    0 -0.18094174115E-01  0.11998495677E-01  0.77267248695E-02  0.23044854363E-01  0.00000000000E+00 0.  1.
     999901    1    3    3    0    0  0.76018096714E-01  0.29541786502E-01 -0.11431104122E+00  0.89113325733E+00  0.88000000000E+00 0. -1.
        -11    1    4    4    0    0 -0.41692674601E-01 -0.27777946500E-01  0.89036762202E-01  0.10216506042E+00  0.51100000000E-03 0. -1.
         11    1    4    4    0    0 -0.16231247998E-01 -0.13762335679E-01  0.17547554148E-01  0.27586827880E-01  0.51100000000E-03 0.  1.
</event>
<event>
 8    1  0.1010879E+005  0.1043930E+01  0.7957747E-01            NaN
         13   -1    0    0    0    0  0.00000000000E+00  0.00000000000E+00  0.74505805969E-08  0.10566000000E+00  0.10566000000E+00 0. -1.
     999900   -1    0    0    0    0 -0.00000000000E+00 -0.00000000000E+00 -0.74505805969E-08  0.93827000000E+00  0.93827000000E+00 0.  1.
     999902    2    1    2    0    0  0.20452647775E-01  0.11377196697E-01  0.53677446660E-02  0.10199182510E+01  0.10196355597E+01 0.  0.
     999903    2    3    3    0    0 -0.75253253611E-01  0.74358529289E-01 -0.71356975021E-01  0.12918094384E+00  0.20091174926E-01 0.  0.
         14    1    1    2    0    0 -0.20452647775E-01 -0.11377196697E-01 -0.53677446660E-02  0.24011748968E-01  0.00000000000E+00 0. -1.
     999901    1    3    3    0    0  0.95705901386E-01 -0.62981332592E-01  0.76724719687E-01  0.89073730719E+00  0.88000000000E+00 0. -1.
        -11    1    4    4    0    0 -0.15408437614E-01  0.59782183541E-02 -0.14467890596E-01  0.21971345514E-01  0.51100000000E-03 0.  1.
         11    1    4    4    0    0 -0.59844815997E-01  0.68380310935E-01 -0.56889084424E-01  0.10720959832E+00  0.51100000000E-03 0. -1.
</event>
<event>
 8    1  0.1010879E+005  0.1043930E+01  0.7957747E-01            NaN
         13   -1    0    0    0    0  0.00000000000E+00  0.00000000000E+00  0.74505805969E-08  0.10566000000E+00  0.10566000000E+00 0.  1.
     999900   -1    0    0    0    0 -0.00000000000E+00 -0.00000000000E+00 -0.74505805969E-08  0.93827000000E+00  0.93827000000E+00 0.  1.
     999902    2    1    2    0    0 -0.69054513505E-02 -0.16203478198E-02 -0.22086355863E-01  0.10207326316E+01  0.10204690036E+01 0.  0.
     999903    2    3    3    0    0  0.85650649828E-01  0.70154118136E-01  0.62794063066E-01  0.12892385650E+00  0.20509322532E-01 0.  0.
         14    1    1    2    0    0  0.69054513505E-02  0.16203478198E-02  0.22086355863E-01  0.23197368401E-01  0.00000000000E+00 0.  1.
     999901    1    3    3    0    0 -0.92556101179E-01 -0.71774465956E-01 -0.84880418929E-01  0.89180877510E+00  0.88000000000E+00 0.  1.
        -11    1    4    4    0    0  0.11779684305E-01  0.10470554670E-01  0.13854485127E-02  0.15829531452E-01  0.51100000000E-03 0.  1.
         11    1    4    4    0    0  0.73870965524E-01  0.59683563466E-01  0.61408614553E-01  0.11309432505E+00  0.51100000000E-03 0. -1.
</event>
<event>
 8    1  0.1010879E+005  0.1043930E+01  0.7957747E-01            NaN
         13   -1    0    0    0    0  0.00000000000E+00  0.00000000000E+00  0.74505805969E-08  0.10566000000E+00  0.10566000000E+00 0.  1.
     999900   -1    0    0    0    0 -0.00000000000E+00 -0.00000000000E+00 -0.74505805969E-08  0.93827000000E+00  0.93827000000E+00 0. -1.
     999902    2    1    2    0    0  0.36045670613E-02  0.23117214518E-01  0.39033748524E-02  0.10202100749E+01  0.10199342930E+01 0.  0.
     999903    2    3    3    0    0  0.94397778346E-01  0.31954243674E-01 -0.83021565841E-01  0.13123457153E+00  0.19947885233E-01 0.  0.
         14    1    1    2    0    0 -0.36045670613E-02 -0.23117214518E-01 -0.39033748524E-02  0.23719925084E-01  0.00000000000E+00 0.  1.
     999901    1    3    3    0    0 -0.90793211285E-01 -0.88370291562E-02  0.86924940693E-01  0.88897550338E+00  0.88000000000E+00 0.  1.
        -11    1    4    4    0    0  0.45175205495E-01  0.24976976218E-01 -0.37281209758E-01  0.63677297796E-01  0.51100000000E-03 0. -1.
         11    1    4    4    0    0  0.49222572851E-01  0.69772674559E-02 -0.45740356083E-01  0.67557273737E-01  0.51100000000E-03 0.  1.
</event>
<event>
 8    1  0.1010879E+005  0.1043930E+01  0.7957747E-01            NaN
         13   -1    0    0    0    0  0.00000000000E+00  0.00000000000E+00  0.74505805969E-08  0.10566000000E+00  0.10566000000E+00 0. -1.
     999900   -1    0    0    0    0 -0.00000000000E+00 -0.00000000000E+00 -0.74505805969E-08  0.93827000000E+00  0.93827000000E+00 0.  1.
     999902    2    1    2    0    0 -0.13889285081E-01 -0.17744632342E-02  0.19224367947E-01  0.10201468698E+01  0.10198695988E+01 0.  0.
     999903    2    3    3    0    0  0.11695882175E+00 -0.50465542374E-01  0.32852356456E-02  0.12899811442E+00  0.20089395208E-01 0.  0.
         14    1    1    2    0    0  0.13889285081E-01  0.17744632342E-02 -0.19224367947E-01  0.23783130214E-01  0.00000000000E+00 0.  1.
     999901    1    3    3    0    0 -0.13084810683E+00  0.48691079140E-01  0.15939132301E-01  0.89114875536E+00  0.88000000000E+00 0. -1.
        -11    1    4    4    0    0  0.59156539816E-01 -0.18747006220E-01 -0.62710686338E-02  0.62374144227E-01  0.51100000000E-03 0. -1.
         11    1    4    4    0    0  0.57802281930E-01 -0.31718536154E-01  0.95563042794E-02  0.66623970195E-01  0.51100000000E-03 0.  1.
</event>
<event>
 8    1  0.1010879E+005  0.1043930E+01  0.7957747E-01            NaN
         13   -1    0    0    0    0  0.00000000000E+00  0.00000000000E+00  0.74505805969E-08  0.10566000000E+00  0.10566000000E+00 0. -1.
     999900   -1    0    0    0    0 -0.00000000000E+00 -0.00000000000E+00 -0.74505805969E-08  0.93827000000E+00  0.93827000000E+00 0. -1.
     999902    2    1    2    0    0  0.74809575272E-02 -0.74421905259E-02  0.21289927643E-01  0.10201684356E+01  0.10198916732E+01 0.  0.
     999903    2    3    3    0    0 -0.18088813260E-01  0.11053494864E+00  0.64677877319E-01  0.13086818665E+00  0.19951802590E-01 0.  0.
         14    1    1    2    0    0 -0.74809575272E-02  0.74421905259E-02 -0.21289927643E-01  0.23761564435E-01  0.00000000000E+00 0.  1.
     999901    1    3    3    0    0  0.25569770787E-01 -0.11797713917E+00 -0.43387949676E-01  0.88930024892E+00  0.88000000000E+00 0. -1.
        -11    1    4    4    0    0 -0.57395161533E-02  0.82587989551E-01  0.42131099150E-01  0.92892457715E-01  0.51100000000E-03 0. -1.
         11    1    4    4    0    0 -0.12349297107E-01  0.27946959089E-01  0.22546778169E-01  0.37975728935E-01  0.51100000000E-03 0.  1.
</event>
<event>
 8    1  0.1010879E+005  0.1043930E+01  0.7957747E-01            NaN
         13   -1    0    0    0    0  0.00000000000E+00  0.00000000000E+00  0.74505805969E-08  0.10566000000E+00  0.10566000000E+00 0. -1.
     999900   -1    0    0    0    0 -0.00000000000E+00 -0.00000000000E+00 -0.74505805969E-08  0.93827000000E+00  0.93827000000E+00 0.  1.
     999902    2    1    2    0    0  0.10604226026E-01  0.18406482321E-01  0.10946621908E-01  0.10200327882E+01  0.10197528192E+01 0.  0.
     999903    2    3    3    0    0  0.90652329190E-01  0.51544293926E-01  0.80402086491E-01  0.13305484318E+00  0.19090226752E-01 0.  0.
         14    1    1    2    0    0 -0.10604226026E-01 -0.18406482321E-01 -0.10946621908E-01  0.23897211809E-01  0.00000000000E+00 0.  1.
     999901    1    3    3    0    0 -0.80048103164E-01 -0.33137811604E-01 -0.69455464583E-01  0.88697794501E+00  0.88000000000E+00 0.  1.
        -11    1    4    4    0    0  0.10131662482E-01  0.11837856313E-02  0.13293271900E-01  0.16763774392E-01  0.51100000000E-03 0. -1.
         11    1    4    4    0    0  0.80520666707E-01  0.50360508294E-01  0.67108814591E-01  0.11629106879E+00  0.51100000000E-03 0.  1.
</event>
<event>
 8    1  0.1010879E+005  0.1043930E+01  0.7957747E-01            NaN
         13   -1    0    0    0    0  0.00000000000E+00  0.00000000000E+00  0.74505805969E-08  0.10566000000E+00  0.10566000000E+00 0. -1.
     999900   -1    0    0    0    0 -0.00000000000E+00 -0.00000000000E+00 -0.74505805969E-08  0.93827000000E+00  0.93827000000E+00 0. -1.
     999902    2    1    2    0    0 -0.64024077355E-02 -0.14625454155E-01  0.17304794290E-01  0.10203853480E+01  0.10201136739E+01 0.  0.
     999903    2    3    3    0    0 -0.11439785317E+00 -0.55242072278E-01 -0.28325810385E-01  0.13168130387E+00  0.19976458580E-01 0.  0.
         14    1    1    2    0    0  0.64024077355E-02  0.14625454155E-01 -0.17304794290E-01  0.23544652035E-01  0.00000000000E+00 0.  1.
     999901    1    3    3    0    0  0.10799544543E+00  0.40616618123E-01  0.45630604675E-01  0.88870404409E+00  0.88000000000E+00 0.  1.
        -11    1    4    4    0    0 -0.87819634005E-01 -0.33338470117E-01 -0.24100276637E-01  0.96978482982E-01  0.51100000000E-03 0.  1.
         11    1    4    4    0    0 -0.26578219160E-01 -0.21903602161E-01 -0.42255337485E-02  0.34702820891E-01  0.51100000000E-03 0. -1.
</event>
<event>
 8    1  0.1010879E+005  0.1043930E+01  0.7957747E-01            NaN
         13   -1    0    0    0    0  0.00000000000E+00  0.00000000000E+00  0.74505805969E-08  0.10566000000E+00  0.10566000000E+00 0.  1.
     999900   -1    0    0    0    0 -0.00000000000E+00 -0.00000000000E+00 -0.74505805969E-08  0.93827000000E+00  0.93827000000E+00 0. -1.
     999902    2    1    2    0    0  0.18285788095E-01 -0.79020198913E-02  0.12262996995E-01  0.10205378419E+01  0.10202697162E+01 0.  0.
     999903    2    3    3    0    0 -0.50572313149E-01 -0.11716595046E+00 -0.21105831431E-01  0.13048530226E+00  0.17191253085E-01 0.  0.
         14    1    1    2    0    0 -0.18285788095E-01  0.79020198913E-02 -0.12262996995E-01  0.23392158085E-01  0.00000000000E+00 0.  1.
     999901    1    3    3    0    0  0.68858101244E-01  0.10926393057E+00  0.33368828426E-01  0.89005253965E+00  0.88000000000E+00 0.  1.
        -11    1    4    4    0    0 -0.28245498811E-01 -0.45867366106E-01 -0.54105148550E-02  0.54140172410E-01  0.51100000000E-03 0. -1.
         11    1    4    4    0    0 -0.22326814338E-01 -0.71298584350E-01 -0.15695316576E-01  0.76345129853E-01  0.51100000000E-03 0.  1.
</event>
<event>
 8    1  0.1010879E+005  0.1043930E+01  0.7957747E-01            NaN
         13   -1    0    0    0    0  0.00000000000E+00  0.00000000000E+00  0.74505805969E-08  0.10566000000E+00  0.10566000000E+00 0. -1.
     999900   -1    0    0    0    0 -0.00000000000E+00 -0.00000000000E+00 -0.74505805969E-08  0.93827000000E+00  0.93827000000E+00 0. -1.
     999902    2    1    2    0    0  0.16772865881E-01  0.13284653021E-01  0.88769866495E-02  0.10207651143E+01  0.10205022326E+01 0.  0.
     999903    2    3    3    0    0 -0.11534804529E+00 -0.13218488951E-01 -0.51318555716E-01  0.12847488407E+00  0.19806606815E-01 0.  0.
         14    1    1    2    0    0 -0.16772865881E-01 -0.13284653021E-01 -0.88769866495E-02  0.23164885662E-01  0.00000000000E+00 0.  1.
     999901    1    3    3    0    0  0.13212091118E+00  0.26503141972E-01  0.60195542366E-01  0.89229023026E+00  0.88000000000E+00 0.  1.
        -11    1    4    4    0    0 -0.10525280364E-01  0.26401480412E-02 -0.41650322314E-03  0.10871361661E-01  0.51100000000E-03 0. -1.
         11    1    4    4    0    0 -0.10482276493E+00 -0.15858636992E-01 -0.50902052493E-01  0.11760352241E+00  0.51100000000E-03 0.  1.
</event>
<event>
 8    1  0.1010879E+005  0.1043930E+01  0.7957747E-01            NaN
         13   -1    0    0    0    0  0.00000000000E+00  0.00000000000E+00  0.74505805969E-08  0.10566000000E+00  0.10566000000E+00 0.  1.
     999900   -1    0    0    0    0 -0.00000000000E+00 -0.00000000000E+00 -0.74505805969E-08  0.93827000000E+00  0.93827000000E+00 0.  1.
     999902    2    1    2    0    0 -0.14137650274E-01 -0.18236008895E-01 -0.57591040840E-02  0.10201478122E+01  0.10198705635E+01 0.  0.
     999903    2    3    3    0    0  0.61488801534E-01  0.10250243337E+00 -0.41170401736E-01  0.12798690092E+00  0.19950520466E-01 0.  0.
         14    1    1    2    0    0  0.14137650274E-01  0.18236008895E-01  0.57591040840E-02  0.23782187779E-01  0.00000000000E+00 0. -1.
     999901    1    3    3    0    0 -0.75626451808E-01 -0.12073844227E+00  0.35411297652E-01  0.89216091130E+00  0.88000000000E+00 0. -1.
        -11    1    4    4    0    0  0.21439883758E-01  0.54656240216E-01 -0.22191608719E-01  0.62767044128E-01  0.51100000000E-03 0.  1.
         11    1    4    4    0    0  0.40048917776E-01  0.47846193155E-01 -0.18978793017E-01  0.65219856791E-01  0.51100000000E-03 0. -1.
</event>
<event>
 7    1  0.1010879E+005  0.1043930E+01  0.7957747E-01            NaN
         13   -1    0    0    0    0  0.00000000000E+00  0.00000000000E+00  0.74505805969E-08  0.10566000000E+00  0.10566000000E+00 0. -1.
     999900   -1    0    0    0    0 -0.00000000000E+00 -0.00000000000E+00 -0.74505805969E-08  0.93827000000E+00  0.93827000000E+00 0.  1.
     999902    2    1    2    0    0  0.24301473434E-02  0.55898123039E-02 -0.22600195990E-01  0.10205222988E+01  0.10202538125E+01 0.  0.
         14    1    1    2    0    0 -0.24301473434E-02 -0.55898123039E-02  0.22600195990E-01  0.23407701222E-01  0.00000000000E+00 0. -1.
     999901    1    3    3    0    0 -0.10437114127E+00 -0.28181650191E-01  0.26101516802E-01  0.88699990401E+00  0.88000000000E+00 0. -1.
        -11    1    3    3    0    0  0.83936572697E-01  0.73595103788E-02 -0.16197870393E-01  0.85802929760E-01  0.51100000000E-03 0.  1.
         11    1    3    3    0    0  0.22864715920E-01  0.26411952116E-01 -0.32503842400E-01  0.47719465005E-01  0.51100000000E-03 0. -1.
</event>
<event>
 8    1  0.1010879E+005  0.1043930E+01  0.7957747E-01            NaN
         13   -1    0    0    0    0  0.00000000000E+00  0.00000000000E+00  0.74505805969E-08  0.10566000000E+00  0.10566000000E+00 0. -1.
     999900   -1    0    0    0    0 -0.00000000000E+00 -0.00000000000E+00 -0.74505805969E-08  0.93827000000E+00  0.93827000000E+00 0.  1.
     999902    2    1    2    0    0 -0.14433551202E-03  0.19164579122E-01  0.13683542032E-01  0.10203813005E+01  0.10201095319E+01 0.  0.
     999903    2    3    3    0    0 -0.55982834914E-01  0.11757915199E+00  0.19411068353E-01  0.13311799644E+00  0.19613174487E-01 0.  0.
         14    1    1    2    0    0  0.14433551202E-03 -0.19164579122E-01 -0.13683542032E-01  0.23548699501E-01  0.00000000000E+00 0.  1.
     999901    1    3    3    0    0  0.55838499402E-01 -0.98414572872E-01 -0.57275263212E-02  0.88726330406E+00  0.88000000000E+00 0.  1.
        -11    1    4    4    0    0 -0.10207580374E-01  0.42903352350E-01  0.67010402093E-02  0.44610059413E-01  0.51100000000E-03 0.  1.
         11    1    4    4    0    0 -0.45775254540E-01  0.74675799644E-01  0.12710028144E-01  0.88507937029E-01  0.51100000000E-03 0. -1.
</event>
<event>
 8    1  0.1010879E+005  0.1043930E+01  0.7957747E-01            NaN
         13   -1    0    0    0    0  0.00000000000E+00  0.00000000000E+00  0.74505805969E-08  0.10566000000E+00  0.10566000000E+00 0. -1.
     999900   -1    0    0    0    0 -0.00000000000E+00 -0.00000000000E+00 -0.74505805969E-08  0.93827000000E+00  0.93827000000E+00 0. -1.
     999902    2    1    2    0    0 -0.21285244221E-01  0.44343748919E-02  0.96441996662E-02  0.10201447968E+01  0.10198674770E+01 0.  0.
     999903    2    3    3    0    0 -0.11452003033E+00  0.54820532667E-01  0.34992169774E-01  0.13342386564E+00  0.21385692108E-01 0.  0.
         14    1    1    2    0    0  0.21285244221E-01 -0.44343748919E-02 -0.96441996662E-02  0.23785203162E-01  0.00000000000E+00 0.  1.
     999901    1    3    3    0    0  0.93234786113E-01 -0.50386157775E-01 -0.25347970108E-01  0.88672093120E+00  0.88000000000E+00 0. -1.
        -11    1    4    4    0    0 -0.46329168528E-01  0.11742125822E-01  0.17419179803E-01  0.50871979727E-01  0.51100000000E-03 0. -1.
         11    1    4    4    0    0 -0.68190861807E-01  0.43078406844E-01  0.17572989972E-01  0.82551885913E-01  0.51100000000E-03 0.  1.
</event>
<event>
 8    1  0.1010879E+005  0.1043930E+01  0.7957747E-01            NaN
         13   -1    0    0    0    0  0.00000000000E+00  0.00000000000E+00  0.74505805969E-08  0.10566000000E+00  0.10566000000E+00 0. -1.
     999900   -1    0    0    0    0 -0.00000000000E+00 -0.00000000000E+00 -0.74505805969E-08  0.93827000000E+00  0.93827000000E+00 0.  1.
     999902    2    1    2    0    0  0.21012123527E-01  0.96247251789E-02 -0.41732236343E-02  0.10204446755E+01  0.10201743848E+01 0.  0.
     999903    2    3    3    0    0  0.65756858029E-01 -0.10912873636E+00  0.22995782185E-01  0.13092647405E+00  0.19490770374E-01 0.  0.
         14    1    1    2    0    0 -0.21012123527E-01 -0.96247251789E-02  0.41732236343E-02  0.23485324469E-01  0.00000000000E+00 0. -1.
     999901    1    3    3    0    0 -0.44744734502E-01  0.11875346154E+00 -0.27169005819E-01  0.88951820148E+00  0.88000000000E+00 0.  1.
        -11    1    4    4    0    0  0.25782428490E-01 -0.43488684850E-01 -0.49120604652E-03  0.50561860460E-01  0.51100000000E-03 0.  1.
         11    1    4    4    0    0  0.39974429539E-01 -0.65640051515E-01  0.23486988231E-01  0.80364613587E-01  0.51100000000E-03 0. -1.
</event>
<event>
 8    1  0.1010879E+005  0.1043930E+01  0.7957747E-01            NaN
         13   -1    0    0    0    0  0.00000000000E+00  0.00000000000E+00  0.74505805969E-08  0.10566000000E+00  0.10566000000E+00 0. -1.
     999900   -1    0    0    0    0 -0.00000000000E+00 -0.00000000000E+00 -0.74505805969E-08  0.93827000000E+00  0.93827000000E+00 0.  1.
     999902    2    1    2    0    0 -0.13399397902E-01  0.15823379630E-01  0.30061428644E-01  0.10074113377E+01  0.10067492193E+01 0.  0.
     999903    2    3    3    0    0  0.53416792117E-01  0.74739555952E-01  0.77317374015E-01  0.12165254236E+00  0.19545071851E-01 0.  0.
         14    1    1    2    0    0  0.13399397902E-01 -0.15823379630E-01 -0.30061428644E-01  0.36518662341E-01  0.00000000000E+00 0.  1.
     999901    1    3    3    0    0 -0.66816190019E-01 -0.58916176321E-01 -0.47255945371E-01  0.88575879530E+00  0.88000000000E+00 0.  1.
        -11    1    4    4    0    0  0.95295925606E-02  0.24044043238E-01  0.13937106489E-01  0.29384234002E-01  0.51100000000E-03 0. -1.
         11    1    4    4    0    0  0.43887199556E-01  0.50695512714E-01  0.63380267526E-01  0.92268308356E-01  0.51100000000E-03 0.  1.
</event>
<event>
 8    1  0.1010879E+005  0.1043930E+01  0.7957747E-01            NaN
         13   -1    0    0    0    0  0.00000000000E+00  0.00000000000E+00  0.74505805969E-08  0.10566000000E+00  0.10566000000E+00 0.  1.
     999900   -1    0    0    0    0 -0.00000000000E+00 -0.00000000000E+00 -0.74505805969E-08  0.93827000000E+00  0.93827000000E+00 0. -1.
     999902    2    1    2    0    0 -0.14082415126E-03  0.17871657298E-01  0.15932635818E-01  0.10199870501E+01  0.10197059956E+01 0.  0.
     999903    2    3    3    0    0  0.11687545895E+00 -0.43631682654E-01  0.30717676430E-01  0.12999038226E+00  0.19756700115E-01 0.  0.
         14    1    1    2    0    0  0.14082415126E-03 -0.17871657298E-01 -0.15932635818E-01  0.23942949904E-01  0.00000000000E+00 0. -1.
     999901    1    3    3    0    0 -0.11701628310E+00  0.61503339952E-01 -0.14785040613E-01  0.88999666784E+00  0.88000000000E+00 0.  1.
        -11    1    4    4    0    0  0.57333254296E-01 -0.18247886949E-01  0.51314723236E-02  0.60387751701E-01  0.51100000000E-03 0. -1.
         11    1    4    4    0    0  0.59542204650E-01 -0.25383795705E-01  0.25586204107E-01  0.69602630558E-01  0.51100000000E-03 0.  1.
</event>
<event>
 8    1  0.1010879E+005  0.1043930E+01  0.7957747E-01            NaN
         13   -1    0    0    0    0  0.00000000000E+00  0.00000000000E+00  0.74505805969E-08  0.10566000000E+00  0.10566000000E+00 0. -1.
     999900   -1    0    0    0    0 -0.00000000000E+00 -0.00000000000E+00 -0.74505805969E-08  0.93827000000E+00  0.93827000000E+00 0. -1.
     999902    2    1    2    0    0  0.14556446946E-01  0.53805274756E-03 -0.18614269196E-01  0.10202937849E+01  0.10200199688E+01 0.  0.
     999903    2    3    3    0    0  0.57847871485E-01 -0.21335156702E-01  0.11198446984E+00  0.12933440567E+00  0.19629107393E-01 0.  0.
         14    1    1    2    0    0 -0.14556446946E-01 -0.53805274756E-03  0.18614269196E-01  0.23636215140E-01  0.00000000000E+00 0. -1.
     999901    1    3    3    0    0 -0.43291424539E-01  0.21873209449E-01 -0.13059873904E+00  0.89095937919E+00  0.88000000000E+00 0. -1.
        -11    1    4    4    0    0  0.47596615379E-01 -0.92052605589E-02  0.89725877540E-01  0.10198612081E+00  0.51100000000E-03 0. -1.
         11    1    4    4    0    0  0.10251256106E-01 -0.12129896143E-01  0.22258592302E-01  0.27348284854E-01  0.51100000000E-03 0.  1.
</event>
<event>
 8    1  0.1010879E+005  0.1043930E+01  0.7957747E-01            NaN
         13   -1    0    0    0    0  0.00000000000E+00  0.00000000000E+00  0.74505805969E-08  0.10566000000E+00  0.10566000000E+00 0. -1.
     999900   -1    0    0    0    0 -0.00000000000E+00 -0.00000000000E+00 -0.74505805969E-08  0.93827000000E+00  0.93827000000E+00 0.  1.
     999902    2    1    2    0    0  0.14433912848E-01  0.66962117472E-02  0.17871598361E-01  0.10200015416E+01  0.10197208313E+01 0.  0.
     999903    2    3    3    0    0 -0.25781633290E-01  0.84370943895E-01 -0.91852833961E-01  0.12888420637E+00  0.19774902145E-01 0.  0.
         14    1    1    2    0    0 -0.14433912848E-01 -0.66962117472E-02 -0.17871598361E-01  0.23928458367E-01  0.00000000000E+00 0.  1.
     999901    1    3    3    0    0  0.40215546138E-01 -0.77674732148E-01  0.10972443232E+00  0.89111733527E+00  0.88000000000E+00 0. -1.
        -11    1    4    4    0    0 -0.17570490141E-01  0.35334522215E-01 -0.30286580417E-01  0.49747247746E-01  0.51100000000E-03 0. -1.
         11    1    4    4    0    0 -0.82111431484E-02  0.49036421680E-01 -0.61566253544E-01  0.79136958619E-01  0.51100000000E-03 0.  1.
</event>
<event>
 8    1  0.1048481E+005  0.1043930E+01  0.7957747E-01            NaN
         13   -1    0    0    0    0  0.00000000000E+00  0.00000000000E+00  0.74505805969E-08  0.10566000000E+00  0.10566000000E+00 0. -1.
     999900   -1    0    0    0    0 -0.00000000000E+00 -0.00000000000E+00 -0.74505805969E-08  0.93827000000E+00  0.93827000000E+00 0.  1.
     999902    2    1    2    0    0 -0.18892171420E-01 -0.54072811734E-02 -0.11721215459E-01  0.10210490096E+01  0.10207926039E+01 0.  0.
     999903    2    3    3    0    0 -0.40806124380E-01  0.51017596096E-01 -0.11417708531E+00  0.13303932868E+00  0.19877657524E-01 0.  0.
         14    1    1    2    0    0  0.18892171420E-01  0.54072811734E-02  0.11721215459E-01  0.22880990418E-01  0.00000000000E+00 0. -1.
     999901    1    3    3    0    0  0.21913952960E-01 -0.56424877269E-01  0.10245586985E+00  0.88800968090E+00  0.88000000000E+00 0. -1.
        -11    1    4    4    0    0 -0.16416232019E-01  0.33847979509E-01 -0.53233659441E-01  0.65186363674E-01  0.51100000000E-03 0. -1.
         11    1    4    4    0    0 -0.24389892361E-01  0.17169616587E-01 -0.60943425864E-01  0.67852965006E-01  0.51100000000E-03 0.  1.
</event>
<event>
 8    1  0.1010879E+005  0.1043930E+01  0.7957747E-01            NaN
         13   -1    0    0    0    0  0.00000000000E+00  0.00000000000E+00  0.74505805969E-08  0.10566000000E+00  0.10566000000E+00 0. -1.
     999900   -1    0    0    0    0 -0.00000000000E+00 -0.00000000000E+00 -0.74505805969E-08  0.93827000000E+00  0.93827000000E+00 0.  1.
     999902    2    1    2    0    0 -0.16238452358E-01  0.79050442931E-02  0.13682039175E-01  0.10212722142E+01  0.10210208422E+01 0.  0.
     999903    2    3    3    0    0  0.10725569346E+00 -0.10665834660E-01  0.70221482518E-01  0.13065872328E+00  0.22871413471E-01 0.  0.
         14    1    1    2    0    0  0.16238452358E-01 -0.79050442931E-02 -0.13682039175E-01  0.22657785775E-01  0.00000000000E+00 0. -1.
     999901    1    3    3    0    0 -0.12349414582E+00  0.18570878953E-01 -0.56539443343E-01  0.89061349094E+00  0.88000000000E+00 0.  1.
        -11    1    4    4    0    0  0.90856024769E-01 -0.14491997374E-01  0.51368569655E-01  0.10537469475E+00  0.51100000000E-03 0. -1.
         11    1    4    4    0    0  0.16399668691E-01  0.38261627143E-02  0.18852912862E-01  0.25284028529E-01  0.51100000000E-03 0.  1.
</event>
<event>
 8    1  0.1010879E+005  0.1043930E+01  0.7957747E-01            NaN
         13   -1    0    0    0    0  0.00000000000E+00  0.00000000000E+00  0.74505805969E-08  0.10566000000E+00  0.10566000000E+00 0.  1.
     999900   -1    0    0    0    0 -0.00000000000E+00 -0.00000000000E+00 -0.74505805969E-08  0.93827000000E+00  0.93827000000E+00 0. -1.
     999902    2    1    2    0    0  0.68761497505E-02  0.10048750230E-01  0.21307869079E-01  0.10193885228E+01  0.10190930656E+01 0.  0.
     999903    2    3    3    0    0  0.11578823212E+00  0.56672803341E-01 -0.10690823382E-01  0.13087315418E+00  0.19868755526E-01 0.  0.
         14    1    1    2    0    0 -0.68761497505E-02 -0.10048750230E-01 -0.21307869079E-01  0.24541477162E-01  0.00000000000E+00 0. -1.
     999901    1    3    3    0    0 -0.10891208237E+00 -0.46624053111E-01  0.31998692461E-01  0.88851536865E+00  0.88000000000E+00 0. -1.
        -11    1    4    4    0    0  0.17855120723E-01  0.95370426726E-02  0.55093795112E-02  0.20985111450E-01  0.51100000000E-03 0. -1.
         11    1    4    4    0    0  0.97933111395E-01  0.47135760669E-01 -0.16200202893E-01  0.10988804273E+00  0.51100000000E-03 0.  1.
</event>
<event>
 8    1  0.1010879E+005  0.1043930E+01  0.7957747E-01            NaN
         13   -1    0    0    0    0  0.00000000000E+00  0.00000000000E+00  0.74505805969E-08  0.10566000000E+00  0.10566000000E+00 0.  1.
     999900   -1    0    0    0    0 -0.00000000000E+00 -0.00000000000E+00 -0.74505805969E-08  0.93827000000E+00  0.93827000000E+00 0. -1.
     999902    2    1    2    0    0  0.18544242419E-01  0.14034424680E-01  0.30660425960E-03  0.10206717110E+01  0.10204066805E+01 0.  0.
     999903    2    3    3    0    0 -0.43003092276E-01  0.10644364183E+00 -0.61148610670E-01  0.13156863411E+00  0.19789847491E-01 0.  0.
         14    1    1    2    0    0 -0.18544242419E-01 -0.14034424680E-01 -0.30660425960E-03  0.23258289042E-01  0.00000000000E+00 0. -1.
     999901    1    3    3    0    0  0.61547334695E-01 -0.92409217146E-01  0.61455214929E-01  0.88910307685E+00  0.88000000000E+00 0.  1.
        -11    1    4    4    0    0 -0.14914668906E-02  0.11334879401E-01 -0.12530354196E-01  0.16969822091E-01  0.51100000000E-03 0.  1.
         11    1    4    4    0    0 -0.41511625385E-01  0.95108762425E-01 -0.48618256474E-01  0.11459881202E+00  0.51100000000E-03 0. -1.
</event>
<event>
 8    1  0.1010879E+005  0.1043930E+01  0.7957747E-01            NaN
         13   -1    0    0    0    0  0.00000000000E+00  0.00000000000E+00  0.74505805969E-08  0.10566000000E+00  0.10566000000E+00 0. -1.
     999900   -1    0    0    0    0 -0.00000000000E+00 -0.00000000000E+00 -0.74505805969E-08  0.93827000000E+00  0.93827000000E+00 0. -1.
     999902    2    1    2    0    0 -0.11734928145E-01  0.14171474769E-01 -0.14197125570E-02  0.10254758726E+01  0.10253098119E+01 0.  0.
     999903    2    3    3    0    0  0.47729245211E-01  0.46881093642E-01  0.11556728835E+00  0.13514342597E+00  0.20785323102E-01 0.  0.
         14    1    1    2    0    0  0.11734928145E-01 -0.14171474769E-01  0.14197125570E-02  0.18454127436E-01  0.00000000000E+00 0.  1.
     999901    1    3    3    0    0 -0.59464173355E-01 -0.32709618874E-01 -0.11698700091E+00  0.89033244660E+00  0.88000000000E+00 0. -1.
        -11    1    4    4    0    0  0.19375756523E-02  0.78702182924E-02  0.58257575901E-02  0.99947540178E-02  0.51100000000E-03 0. -1.
         11    1    4    4    0    0  0.45791669558E-01  0.39010875350E-01  0.10974153076E+00  0.12514867195E+00  0.51100000000E-03 0.  1.
</event>
<event>
 8    1  0.1010879E+005  0.1043930E+01  0.7957747E-01            NaN
         13   -1    0    0    0    0  0.00000000000E+00  0.00000000000E+00  0.74505805969E-08  0.10566000000E+00  0.10566000000E+00 0.  1.
     999900   -1    0    0    0    0 -0.00000000000E+00 -0.00000000000E+00 -0.74505805969E-08  0.93827000000E+00  0.93827000000E+00 0.  1.
     999902    2    1    2    0    0 -0.12206495935E-01  0.65369253556E-02  0.16126152368E-01  0.10226748188E+01  0.10224539121E+01 0.  0.
     999903    2    3    3    0    0  0.35662256748E-01 -0.18666872671E-01 -0.12221397891E+00  0.13022614197E+00  0.20058482494E-01 0.  0.
         14    1    1    2    0    0  0.12206495935E-01 -0.65369253556E-02 -0.16126152368E-01  0.21255181164E-01  0.00000000000E+00 0. -1.
     999901    1    3    3    0    0 -0.47868752683E-01  0.25203798026E-01  0.13834013128E+00  0.89244867687E+00  0.88000000000E+00 0. -1.
        -11    1    4    4    0    0  0.14037834846E-01 -0.14111620438E-01 -0.35129383429E-01  0.40379863047E-01  0.51100000000E-03 0. -1.
         11    1    4    4    0    0  0.21624421902E-01 -0.45552522328E-02 -0.87084595479E-01  0.89846278923E-01  0.51100000000E-03 0.  1.
</event>
<event>
 8    1  0.1010879E+005  0.1043930E+01  0.7957747E-01            NaN
         13   -1    0    0    0    0  0.00000000000E+00  0.00000000000E+00  0.74505805969E-08  0.10566000000E+00  0.10566000000E+00 0. -1.
     999900   -1    0    0    0    0 -0.00000000000E+00 -0.00000000000E+00 -0.74505805969E-08  0.93827000000E+00  0.93827000000E+00 0. -1.
     999902    2    1    2    0    0 -0.60958934516E-02 -0.10281846824E-01  0.19822669554E-01  0.10207823323E+01  0.10205198457E+01 0.  0.
     999903    2    3    3    0    0 -0.54674668247E-01  0.10829746498E+00  0.46078893357E-01  0.13111366374E+00  0.18704762464E-01 0.  0.
         14    1    1    2    0    0  0.60958934516E-02  0.10281846824E-01 -0.19822669554E-01  0.23147667686E-01  0.00000000000E+00 0.  1.
     999901    1    3    3    0    0  0.48578774796E-01 -0.11857931180E+00 -0.26256223803E-01  0.88966866857E+00  0.88000000000E+00 0. -1.
        -11    1    4    4    0    0 -0.24424890723E-01  0.31200243092E-01  0.10649486629E-01  0.41032951908E-01  0.51100000000E-03 0.  1.
         11    1    4    4    0    0 -0.30249777524E-01  0.77097221884E-01  0.35429406728E-01  0.90080711835E-01  0.51100000000E-03 0. -1.
</event>
<event>
 8    1  0.1010879E+005  0.1043930E+01  0.7957747E-01            NaN
         13   -1    0    0    0    0  0.00000000000E+00  0.00000000000E+00  0.74505805969E-08  0.10566000000E+00  0.10566000000E+00 0. -1.
     999900   -1    0    0    0    0 -0.00000000000E+00 -0.00000000000E+00 -0.74505805969E-08  0.93827000000E+00  0.93827000000E+00 0.  1.
     999902    2    1    2    0    0 -0.13172285237E-01  0.16761943940E-01  0.12871203102E-01  0.10190273951E+01  0.10187230694E+01 0.  0.
     999903    2    3    3    0    0 -0.50194266149E-01  0.11658506033E+00  0.31926900670E-01  0.13240549073E+00  0.20008656723E-01 0.  0.
         14    1    1    2    0    0  0.13172285237E-01 -0.16761943940E-01 -0.12871203102E-01  0.24902604931E-01  0.00000000000E+00 0. -1.
     999901    1    3    3    0    0  0.37021980912E-01 -0.99823116390E-01 -0.19055697568E-01  0.88662190433E+00  0.88000000000E+00 0.  1.
        -11    1    4    4    0    0 -0.33784104759E-01  0.59889342590E-01  0.24098462429E-01  0.72863544400E-01  0.51100000000E-03 0.  1.
         11    1    4    4    0    0 -0.16410161390E-01  0.56695717741E-01  0.78284382415E-02  0.59541946334E-01  0.51100000000E-03 0. -1.
</event>
<event>
 8    1  0.1010879E+005  0.1043930E+01  0.7957747E-01            NaN
         13   -1    0    0    0    0  0.00000000000E+00  0.00000000000E+00  0.74505805969E-08  0.10566000000E+00  0.10566000000E+00 0.  1.
     999900   -1    0    0    0    0 -0.00000000000E+00 -0.00000000000E+00 -0.74505805969E-08  0.93827000000E+00  0.93827000000E+00 0. -1.
     999902    2    1    2    0    0  0.14130836838E-01 -0.14763865296E-01  0.11726655310E-01  0.10203680240E+01  0.10200959453E+01 0.  0.
     999903    2    3    3    0    0 -0.10227275047E+00  0.71017328080E-01 -0.21259148442E-01  0.12795765230E+00  0.20445855657E-01 0.  0.
         14    1    1    2    0    0 -0.14130836838E-01  0.14763865296E-01 -0.11726655310E-01  0.23561975999E-01  0.00000000000E+00 0. -1.
     999901    1    3    3    0    0  0.11640358730E+00 -0.85781193375E-01  0.32985803752E-01  0.89241037170E+00  0.88000000000E+00 0. -1.
        -11    1    4    4    0    0 -0.33190205339E-01  0.33938105880E-01 -0.37515197327E-02  0.47620581501E-01  0.51100000000E-03 0. -1.
         11    1    4    4    0    0 -0.69082545128E-01  0.37079222200E-01 -0.17507628710E-01  0.80337070797E-01  0.51100000000E-03 0.  1.
</event>
<event>
 8    1  0.1010879E+005  0.1043930E+01  0.7957747E-01            NaN
         13   -1    0    0    0    0  0.00000000000E+00  0.00000000000E+00  0.74505805969E-08  0.10566000000E+00  0.10566000000E+00 0. -1.
     999900   -1    0    0    0    0 -0.00000000000E+00 -0.00000000000E+00 -0.74505805969E-08  0.93827000000E+00  0.93827000000E+00 0.  1.
     999902    2    1    2    0    0 -0.21230887628E-01  0.29816201750E-02  0.86605287483E-02  0.10208075995E+01  0.10205456921E+01 0.  0.
     999903    2    3    3    0    0  0.33976075593E-01  0.67021852414E-01 -0.10283716068E+00  0.12975165572E+00  0.24773133251E-01 0.  0.
         14    1    1    2    0    0  0.21230887628E-01 -0.29816201750E-02 -0.86605287483E-02  0.23122400536E-01  0.00000000000E+00 0.  1.
     999901    1    3    3    0    0 -0.55206963221E-01 -0.64040232239E-01  0.11149768943E+00  0.89105594374E+00  0.88000000000E+00 0. -1.
        -11    1    4    4    0    0  0.24601733415E-02  0.11511482047E-02 -0.16248148226E-01  0.16481536240E-01  0.51100000000E-03 0. -1.
         11    1    4    4    0    0  0.31515902252E-01  0.65870704209E-01 -0.86589012457E-01  0.11327011948E+00  0.51100000000E-03 0.  1.
</event>
<event>
 8    1  0.1010879E+005  0.1043930E+01  0.7957747E-01            NaN
         13   -1    0    0    0    0  0.00000000000E+00  0.00000000000E+00  0.74505805969E-08  0.10566000000E+00  0.10566000000E+00 0. -1.
     999900   -1    0    0    0    0 -0.00000000000E+00 -0.00000000000E+00 -0.74505805969E-08  0.93827000000E+00  0.93827000000E+00 0. -1.
     999902    2    1    2    0    0  0.17967271615E-01 -0.52611300045E-02 -0.14371158305E-01  0.10203284634E+01  0.10200554596E+01 0.  0.
     999903    2    3    3    0    0 -0.96836048379E-01  0.27625847402E-01  0.75875454766E-01  0.12768866667E+00  0.20171842973E-01 0.  0.
         14    1    1    2    0    0 -0.17967271615E-01  0.52611300045E-02  0.14371158305E-01  0.23601536587E-01  0.00000000000E+00 0.  1.
     999901    1    3    3    0    0  0.11480331999E+00 -0.32886977407E-01 -0.90246613071E-01  0.89263979675E+00  0.88000000000E+00 0. -1.
        -11    1    4    4    0    0 -0.45161525075E-01  0.23334861171E-01  0.36725729952E-01  0.62714587254E-01  0.51100000000E-03 0. -1.
         11    1    4    4    0    0 -0.51674523304E-01  0.42909862313E-02  0.39149724814E-01  0.64974079413E-01  0.51100000000E-03 0.  1.
</event>
<event>
 8    1  0.1010879E+005  0.1043930E+01  0.7957747E-01            NaN
         13   -1    0    0    0    0  0.00000000000E+00  0.00000000000E+00  0.74505805969E-08  0.10566000000E+00  0.10566000000E+00 0.  1.
     999900   -1    0    0    0    0 -0.00000000000E+00 -0.00000000000E+00 -0.74505805969E-08  0.93827000000E+00  0.93827000000E+00 0. -1.
     999902    2    1    2    0    0  0.87943155907E-02 -0.20990468485E-01  0.59528022963E-02  0.10204060631E+01  0.10201348724E+01 0.  0.
     999903    2    3    3    0    0 -0.31951718486E-01  0.98394565012E-01  0.74164792048E-01  0.12879745999E+00  0.19646032257E-01 0.  0.
         14    1    1    2    0    0 -0.87943155907E-02  0.20990468485E-01 -0.59528022963E-02  0.23523936939E-01  0.00000000000E+00 0. -1.
     999901    1    3    3    0    0  0.40746034077E-01 -0.11938503350E+00 -0.68211989752E-01  0.89160860307E+00  0.88000000000E+00 0. -1.
        -11    1    4    4    0    0 -0.24405447516E-01  0.48678503541E-01  0.45152018125E-01  0.70740288643E-01  0.51100000000E-03 0.  1.
         11    1    4    4    0    0 -0.75462709707E-02  0.49716061470E-01  0.29012773923E-01  0.58057171352E-01  0.51100000000E-03 0. -1.
</event>
<event>
 8    1  0.1010879E+005  0.1043930E+01  0.7957747E-01            NaN
         13   -1    0    0    0    0  0.00000000000E+00  0.00000000000E+00  0.74505805969E-08  0.10566000000E+00  0.10566000000E+00 0.  1.
     999900   -1    0    0    0    0 -0.00000000000E+00 -0.00000000000E+00 -0.74505805969E-08  0.93827000000E+00  0.93827000000E+00 0. -1.
     999902    2    1    2    0    0 -0.83450146285E-02  0.17766732822E-01  0.93630504002E-02  0.10221822926E+01  0.10219509169E+01 0.  0.
     999903    2    3    3    0    0 -0.28608477080E-02  0.12796496900E+00 -0.34965535565E-01  0.13418524819E+00  0.19996860121E-01 0.  0.
         14    1    1    2    0    0  0.83450146285E-02 -0.17766732822E-01 -0.93630504002E-02  0.21747707399E-01  0.00000000000E+00 0. -1.
     999901    1    3    3    0    0 -0.54841669204E-02 -0.11019823618E+00  0.44328585965E-01  0.88799704441E+00  0.88000000000E+00 0.  1.
        -11    1    4    4    0    0  0.69450637405E-02  0.60319380193E-01 -0.22186412520E-01  0.64646419536E-01  0.51100000000E-03 0.  1.
         11    1    4    4    0    0 -0.98059114485E-02  0.67645588806E-01 -0.12779123045E-01  0.69538828657E-01  0.51100000000E-03 0. -1.
</event>
<event>
 8    1  0.1010879E+005  0.1043930E+01  0.7957747E-01            NaN
         13   -1    0    0    0    0  0.00000000000E+00  0.00000000000E+00  0.74505805969E-08  0.10566000000E+00  0.10566000000E+00 0.  1.
     999900   -1    0    0    0    0 -0.00000000000E+00 -0.00000000000E+00 -0.74505805969E-08  0.93827000000E+00  0.93827000000E+00 0. -1.
     999902    2    1    2    0    0 -0.68739789648E-02 -0.17723199115E-01  0.16227475492E-01  0.10189361141E+01  0.10186295255E+01 0.  0.
     999903    2    3    3    0    0  0.42345912329E-01  0.11487722968E+00  0.29642185608E-01  0.12754090100E+00  0.19951643315E-01 0.  0.
         14    1    1    2    0    0  0.68739789648E-02  0.17723199115E-01 -0.16227475492E-01  0.24993885943E-01  0.00000000000E+00 0. -1.
     999901    1    3    3    0    0 -0.49219891294E-01 -0.13260042879E+00 -0.13414710116E-01  0.89139521306E+00  0.88000000000E+00 0. -1.
        -11    1    4    4    0    0  0.27602260573E-01  0.49425618898E-01  0.18286308511E-01  0.59493081885E-01  0.51100000000E-03 0. -1.
         11    1    4    4    0    0  0.14743651756E-01  0.65451610778E-01  0.11355877096E-01  0.68047819114E-01  0.51100000000E-03 0.  1.
</event>
<event>
 8    1  0.1010879E+005  0.1043930E+01  0.7957747E-01            NaN
         13   -1    0    0    0    0  0.00000000000E+00  0.00000000000E+00  0.74505805969E-08  0.10566000000E+00  0.10566000000E+00 0.  1.
     999900   -1    0    0    0    0 -0.00000000000E+00 -0.00000000000E+00 -0.74505805969E-08  0.93827000000E+00  0.93827000000E+00 0.  1.
     999902    2    1    2    0    0  0.19786212603E-01 -0.10328908579E-01  0.95072425786E-02  0.10196695750E+01  0.10193809268E+01 0.  0.
     999903    2    3    3    0    0 -0.26696052302E-01  0.94782948096E-01 -0.77323209672E-01  0.12795850583E+00  0.26419954640E-01 0.  0.
         14    1    1    2    0    0 -0.19786212603E-01  0.10328908579E-01 -0.95072425786E-02  0.24260425039E-01  0.00000000000E+00 0. -1.
     999901    1    3    3    0    0  0.46482264905E-01 -0.10511185668E+00  0.86830452251E-01  0.89171106913E+00  0.88000000000E+00 0.  1.
        -11    1    4    4    0    0 -0.17907194890E-01  0.58059270359E-01 -0.31059283856E-01  0.68238454980E-01  0.51100000000E-03 0.  1.
         11    1    4    4    0    0 -0.87888574124E-02  0.36723677736E-01 -0.46263925816E-01  0.59720050854E-01  0.51100000000E-03 0. -1.
</event>
<event>
 8    1  0.1010879E+005  0.1043930E+01  0.7957747E-01            NaN
         13   -1    0    0    0    0  0.00000000000E+00  0.00000000000E+00  0.74505805969E-08  0.10566000000E+00  0.10566000000E+00 0. -1.
     999900   -1    0    0    0    0 -0.00000000000E+00 -0.00000000000E+00 -0.74505805969E-08  0.93827000000E+00  0.93827000000E+00 0.  1.
     999902    2    1    2    0    0 -0.15319079499E-01  0.64749486998E-02 -0.16858471387E-01  0.10202486315E+01  0.10199737560E+01 0.  0.
     999903    2    3    3    0    0 -0.37370189058E-01 -0.54658554483E-01 -0.11385944621E+00  0.13253654654E+00  0.14760557837E-01 0.  0.
         14    1    1    2    0    0  0.15319079499E-01 -0.64749486998E-02  0.16858471387E-01  0.23681368518E-01  0.00000000000E+00 0. -1.
     999901    1    3    3    0    0  0.22051109559E-01  0.61133503183E-01  0.97000974824E-01  0.88771208495E+00  0.88000000000E+00 0. -1.
        -11    1    4    4    0    0 -0.15107371027E-01 -0.34816355675E-01 -0.66402646655E-01  0.76485187361E-01  0.51100000000E-03 0. -1.
         11    1    4    4    0    0 -0.22262818031E-01 -0.19842198808E-01 -0.47456799556E-01  0.56051359174E-01  0.51100000000E-03 0.  1.
</event>
<event>
 8    1  0.1010879E+005  0.1043930E+01  0.7957747E-01            NaN
         13   -1    0    0    0    0  0.00000000000E+00  0.00000000000E+00  0.74505805969E-08  0.10566000000E+00  0.10566000000E+00 0.  1.
     999900   -1    0    0    0    0 -0.00000000000E+00 -0.00000000000E+00 -0.74505805969E-08  0.93827000000E+00  0.93827000000E+00 0.  1.
     999902    2    1    2    0    0  0.13442808559E-01 -0.58829240728E-03 -0.19733347875E-01  0.10200456912E+01  0.10197660280E+01 0.  0.
     999903    2    3    3    0    0 -0.36239029237E-01 -0.20434906477E-01  0.11901163707E+00  0.12757028874E+00  0.19482201350E-01 0.  0.
         14    1    1    2    0    0 -0.13442808559E-01  0.58829240728E-03  0.19733347875E-01  0.23884308830E-01  0.00000000000E+00 0.  1.
     999901    1    3    3    0    0  0.49681837796E-01  0.19846614070E-01 -0.13874498494E+00  0.89247540243E+00  0.88000000000E+00 0.  1.
        -11    1    4    4    0    0 -0.10367572097E-01 -0.86627272806E-02  0.17276429538E-01  0.21937765012E-01  0.51100000000E-03 0.  1.
         11    1    4    4    0    0 -0.25871457141E-01 -0.11772179196E-01  0.10173520753E+00  0.10563252373E+00  0.51100000000E-03 0. -1.
</event>
<event>
 8    1  0.1010879E+005  0.1043930E+01  0.7957747E-01            NaN
         13   -1    0    0    0    0  0.00000000000E+00  0.00000000000E+00  0.74505805969E-08  0.10566000000E+00  0.10566000000E+00 0.  1.
     999900   -1    0    0    0    0 -0.00000000000E+00 -0.00000000000E+00 -0.74505805969E-08  0.93827000000E+00  0.93827000000E+00 0.  1.
     999902    2    1    2    0    0 -0.78671089752E-02  0.13157887662E-01  0.18852404378E-01  0.10196311407E+01  0.10193415662E+01 0.  0.
     999903    2    3    3    0    0 -0.10898360422E+00  0.13017489067E-01  0.71459292419E-01  0.13227999828E+00  0.18565733540E-01 0.  0.
         14    1    1    2    0    0  0.78671089752E-02 -0.13157887662E-01 -0.18852404378E-01  0.24298859278E-01  0.00000000000E+00 0. -1.
     999901    1    3    3    0    0  0.10111649524E+00  0.14039859575E-03 -0.52606888041E-01  0.88735114244E+00  0.88000000000E+00 0.  1.
        -11    1    4    4    0    0 -0.51083621976E-01  0.11172213573E-01  0.24707166161E-01  0.57836493419E-01  0.51100000000E-03 0. -1.
         11    1    4    4    0    0 -0.57899982243E-01  0.18452754937E-02  0.46752126258E-01  0.74443504862E-01  0.51100000000E-03 0.  1.
</event>
<event>
 8    1  0.1010879E+005  0.1043930E+01  0.7957747E-01            NaN
         13   -1    0    0    0    0  0.00000000000E+00  0.00000000000E+00  0.74505805969E-08  0.10566000000E+00  0.10566000000E+00 0. -1.
     999900   -1    0    0    0    0 -0.00000000000E+00 -0.00000000000E+00 -0.74505805969E-08  0.93827000000E+00  0.93827000000E+00 0. -1.
     999902    2    1    2    0    0 -0.12202485922E-01 -0.18318159502E-01  0.75827854138E-02  0.10206500888E+01  0.10203845596E+01 0.  0.
     999903    2    3    3    0    0 -0.96655536608E-01  0.15696185065E-01 -0.84950378874E-01  0.13112680081E+00  0.19723286673E-01 0.  0.
         14    1    1    2    0    0  0.12202485922E-01  0.18318159502E-01 -0.75827854138E-02  0.23279911187E-01  0.00000000000E+00 0. -1.
     999901    1    3    3    0    0  0.84453050686E-01 -0.34014344567E-01  0.92533164288E-01  0.88952328800E+00  0.88000000000E+00 0.  1.
        -11    1    4    4    0    0 -0.61603499451E-01  0.82974298260E-02 -0.41188818631E-01  0.74569554025E-01  0.51100000000E-03 0.  1.
         11    1    4    4    0    0 -0.35052037158E-01  0.73987552393E-02 -0.43761560243E-01  0.56557246785E-01  0.51100000000E-03 0. -1.
</event>
<event>
 8    1  0.1010879E+005  0.1043930E+01  0.7957747E-01            NaN
         13   -1    0    0    0    0  0.00000000000E+00  0.00000000000E+00  0.74505805969E-08  0.10566000000E+00  0.10566000000E+00 0.  1.
     999900   -1    0    0    0    0 -0.00000000000E+00 -0.00000000000E+00 -0.74505805969E-08  0.93827000000E+00  0.93827000000E+00 0.  1.
     999902    2    1    2    0    0 -0.26104751181E-01  0.39980091340E-03 -0.77045962792E-02  0.10167090765E+01  0.10163446106E+01 0.  0.
     999903    2    3    3    0    0  0.34189030188E-03  0.12541383573E+00  0.97255642146E-02  0.12730942262E+00  0.19604984200E-01 0.  0.
         14    1    1    2    0    0  0.26104751181E-01 -0.39980091340E-03  0.77045962792E-02  0.27220923548E-01  0.00000000000E+00 0. -1.
     999901    1    3    3    0    0 -0.26446641483E-01 -0.12501403482E+00 -0.17430160494E-01  0.88939965384E+00  0.88000000000E+00 0.  1.
        -11    1    4    4    0    0 -0.84674178929E-02  0.34468698139E-01  0.85286802603E-03  0.35507419253E-01  0.51100000000E-03 0. -1.
         11    1    4    4    0    0  0.88093081948E-02  0.90945137594E-01  0.88726961886E-02  0.91802003363E-01  0.51100000000E-03 0.  1.
</event>
<event>
 8    1  0.1010879E+005  0.1043930E+01  0.7957747E-01            NaN
         13   -1    0    0    0    0  0.00000000000E+00  0.00000000000E+00  0.74505805969E-08  0.10566000000E+00  0.10566000000E+00 0.  1.
     999900   -1    0    0    0    0 -0.00000000000E+00 -0.00000000000E+00 -0.74505805969E-08  0.93827000000E+00  0.93827000000E+00 0.  1.
     999902    2    1    2    0    0 -0.65601490940E-02  0.19790974535E-01 -0.10478251270E-01  0.10205952195E+01  0.10203284227E+01 0.  0.
     999903    2    3    3    0    0  0.87573770617E-03  0.26317949973E-01 -0.12839122173E+00  0.13267553713E+00  0.20617733351E-01 0.  0.
         14    1    1    2    0    0  0.65601490940E-02 -0.19790974535E-01  0.10478251270E-01  0.23334780455E-01  0.00000000000E+00 0.  1.
     999901    1    3    3    0    0 -0.74358868001E-02 -0.65269754374E-02  0.11791297046E+00  0.88791968242E+00  0.88000000000E+00 0. -1.
        -11    1    4    4    0    0 -0.20769026541E-02 -0.31570210135E-02 -0.15274687985E-01  0.15743491365E-01  0.51100000000E-03 0.  1.
         11    1    4    4    0    0  0.29526403602E-02  0.29474970986E-01 -0.11311653374E+00  0.11693204576E+00  0.51100000000E-03 0. -1.
</event>
<event>
 8    1  0.1010879E+005  0.1043930E+01  0.7957747E-01            NaN
         13   -1    0    0    0    0  0.00000000000E+00  0.00000000000E+00  0.74505805969E-08  0.10566000000E+00  0.10566000000E+00 0. -1.
     999900   -1    0    0    0    0 -0.00000000000E+00 -0.00000000000E+00 -0.74505805969E-08  0.93827000000E+00  0.93827000000E+00 0. -1.
     999902    2    1    2    0    0  0.11144707400E-01 -0.71892683058E-02 -0.19250526504E-01  0.10205532412E+01  0.10202854724E+01 0.  0.
     999903    2    3    3    0    0  0.12789951891E+00 -0.25481084366E-01  0.95649511123E-02  0.13218585756E+00  0.19340115066E-01 0.  0.
         14    1    1    2    0    0 -0.11144707400E-01  0.71892683058E-02  0.19250526504E-01  0.23376758811E-01  0.00000000000E+00 0. -1.
     999901    1    3    3    0    0 -0.11675481151E+00  0.18291816060E-01 -0.28815477616E-01  0.88836738363E+00  0.88000000000E+00 0. -1.
        -11    1    4    4    0    0  0.81790558617E-01 -0.24461324594E-01  0.10761897040E-01  0.86047262761E-01  0.51100000000E-03 0. -1.
         11    1    4    4    0    0  0.46108960296E-01 -0.10197597716E-02 -0.11969459274E-02  0.46138594800E-01  0.51100000000E-03 0.  1.
</event>
<event>
 8    1  0.1010879E+005  0.1043930E+01  0.7957747E-01            NaN
         13   -1    0    0    0    0  0.00000000000E+00  0.00000000000E+00  0.74505805969E-08  0.10566000000E+00  0.10566000000E+00 0. -1.
     999900   -1    0    0    0    0 -0.00000000000E+00 -0.00000000000E+00 -0.74505805969E-08  0.93827000000E+00  0.93827000000E+00 0.  1.
     999902    2    1    2    0    0 -0.78489954882E-02  0.26487241134E-02  0.22287932274E-01  0.10201523972E+01  0.10198752567E+01 0.  0.
     999903    2    3    3    0    0  0.98763166296E-02 -0.69307959419E-01 -0.10510279670E+00  0.12789663296E+00  0.20243912173E-01 0.  0.
         14    1    1    2    0    0  0.78489954882E-02 -0.26487241134E-02 -0.22287932274E-01  0.23777602794E-01  0.00000000000E+00 0.  1.
     999901    1    3    3    0    0 -0.17725312118E-01  0.71956683532E-01  0.12739072897E+00  0.89225576424E+00  0.88000000000E+00 0. -1.
        -11    1    4    4    0    0 -0.43734863422E-02 -0.39743420348E-01 -0.60424104292E-01  0.72456886106E-01  0.51100000000E-03 0.  1.
         11    1    4    4    0    0  0.14249802972E-01 -0.29564539071E-01 -0.44678692409E-01  0.55439746858E-01  0.51100000000E-03 0. -1.
</event>
<event>
 8    1  0.1010879E+005  0.1043930E+01  0.7957747E-01            NaN
         13   -1    0    0    0    0  0.00000000000E+00  0.00000000000E+00  0.74505805969E-08  0.10566000000E+00  0.10566000000E+00 0. -1.
     999900   -1    0    0    0    0 -0.00000000000E+00 -0.00000000000E+00 -0.74505805969E-08  0.93827000000E+00  0.93827000000E+00 0. -1.
     999902    2    1    2    0    0  0.16084427882E-02  0.10222514247E-01  0.20014088251E-01  0.10213988967E+01  0.10211503590E+01 0.  0.
     999903    2    3    3    0    0 -0.16582533136E-01 -0.12148419365E+00 -0.36545242290E-01  0.12961611692E+00  0.20770010054E-01 0.  0.
         14    1    1    2    0    0 -0.16084427882E-02 -0.10222514247E-01 -0.20014088251E-01  0.22531103263E-01  0.00000000000E+00 0.  1.
     999901    1    3    3    0    0  0.18190975924E-01  0.13170670790E+00  0.56559330541E-01  0.89178277982E+00  0.88000000000E+00 0.  1.
        -11    1    4    4    0    0 -0.17632989685E-01 -0.81815670772E-01 -0.17109523406E-01  0.85426712575E-01  0.51100000000E-03 0. -1.
         11    1    4    4    0    0  0.10504565494E-02 -0.39668522882E-01 -0.19435718884E-01  0.44189404342E-01  0.51100000000E-03 0.  1.
</event>
<event>
 8    1  0.1010879E+005  0.1043930E+01  0.7957747E-01            NaN
         13   -1    0    0    0    0  0.00000000000E+00  0.00000000000E+00  0.74505805969E-08  0.10566000000E+00  0.10566000000E+00 0. -1.
     999900   -1    0    0    0    0 -0.00000000000E+00 -0.00000000000E+00 -0.74505805969E-08  0.93827000000E+00  0.93827000000E+00 0. -1.
     999902    2    1    2    0    0  0.15833079814E-02 -0.22672920326E-01  0.21736514222E-01  0.10124809264E+01  0.10119923824E+01 0.  0.
     999903    2    3    3    0    0  0.10776301946E+00  0.10676763461E-01 -0.53127531628E-01  0.12231748191E+00  0.20301973361E-01 0.  0.
         14    1    1    2    0    0 -0.15833079814E-02  0.22672920326E-01 -0.21736514222E-01  0.31449073608E-01  0.00000000000E+00 0.  1.
     999901    1    3    3    0    0 -0.10617971148E+00 -0.33349683787E-01  0.74864045850E-01  0.89016344449E+00  0.88000000000E+00 0.  1.
        -11    1    4    4    0    0  0.87576566988E-01  0.17934335097E-02 -0.37517586723E-01  0.95292717055E-01  0.51100000000E-03 0.  1.
         11    1    4    4    0    0  0.20186452470E-01  0.88833299516E-02 -0.15609944905E-01  0.27024764852E-01  0.51100000000E-03 0. -1.
</event>
<event>
 8    1  0.1010879E+005  0.1043930E+01  0.7957747E-01            NaN
         13   -1    0    0    0    0  0.00000000000E+00  0.00000000000E+00  0.74505805969E-08  0.10566000000E+00  0.10566000000E+00 0. -1.
     999900   -1    0    0    0    0 -0.00000000000E+00 -0.00000000000E+00 -0.74505805969E-08  0.93827000000E+00  0.93827000000E+00 0.  1.
     999902    2    1    2    0    0 -0.13380372949E-01  0.15392909004E-01 -0.12374872375E-01  0.10200739003E+01  0.10197949051E+01 0.  0.
     999903    2    3    3    0    0 -0.66072904743E-01  0.11272717141E+00 -0.15498921514E-01  0.13313522075E+00  0.20291045373E-01 0.  0.
         14    1    1    2    0    0  0.13380372949E-01 -0.15392909004E-01  0.12374872375E-01  0.23856099726E-01  0.00000000000E+00 0. -1.
     999901    1    3    3    0    0  0.52692531794E-01 -0.97334262405E-01  0.31240491387E-02  0.88693867952E+00  0.88000000000E+00 0.  1.
        -11    1    4    4    0    0 -0.45885044286E-01  0.90789150230E-01 -0.17622812611E-01  0.10324210253E+00  0.51100000000E-03 0.  1.
         11    1    4    4    0    0 -0.20187860456E-01  0.21938021178E-01  0.21238910969E-02  0.29893118228E-01  0.51100000000E-03 0. -1.
</event>
<event>
 8    1  0.1010879E+005  0.1043930E+01  0.7957747E-01            NaN
         13   -1    0    0    0    0  0.00000000000E+00  0.00000000000E+00  0.74505805969E-08  0.10566000000E+00  0.10566000000E+00 0. -1.
     999900   -1    0    0    0    0 -0.00000000000E+00 -0.00000000000E+00 -0.74505805969E-08  0.93827000000E+00  0.93827000000E+00 0. -1.
     999902    2    1    2    0    0  0.19958411850E-01  0.60377309812E-02 -0.10780043077E-01  0.10204565740E+01  0.10201865602E+01 0.  0.
     999903    2    3    3    0    0 -0.58362663400E-01 -0.76072170611E-01 -0.86051940348E-01  0.12998361805E+00  0.17251924654E-01 0.  0.
         14    1    1    2    0    0 -0.19958411850E-01 -0.60377309812E-02  0.10780043077E-01  0.23473425991E-01  0.00000000000E+00 0. -1.
     999901    1    3    3    0    0  0.78321075250E-01  0.82109901593E-01  0.75271897271E-01  0.89047295595E+00  0.88000000000E+00 0. -1.
        -11    1    4    4    0    0 -0.16322290287E-02 -0.10802795591E-01 -0.10034169885E-01  0.14842851831E-01  0.51100000000E-03 0.  1.
         11    1    4    4    0    0 -0.56730434371E-01 -0.65269375020E-01 -0.76017770463E-01  0.11514076622E+00  0.51100000000E-03 0. -1.
</event>
<event>
 8    1  0.1010879E+005  0.1043930E+01  0.7957747E-01            NaN
         13   -1    0    0    0    0  0.00000000000E+00  0.00000000000E+00  0.74505805969E-08  0.10566000000E+00  0.10566000000E+00 0. -1.
     999900   -1    0    0    0    0 -0.00000000000E+00 -0.00000000000E+00 -0.74505805969E-08  0.93827000000E+00  0.93827000000E+00 0.  1.
     999902    2    1    2    0    0 -0.16253948053E-02 -0.15485214204E-01  0.17628309825E-01  0.10204099857E+01  0.10201388865E+01 0.  0.
     999903    2    3    3    0    0 -0.48958597187E-01 -0.11990762914E+00 -0.19673545151E-01  0.13218934800E+00  0.17668943990E-01 0.  0.
         14    1    1    2    0    0  0.16253948053E-02  0.15485214204E-01 -0.17628309825E-01  0.23520014339E-01  0.00000000000E+00 0.  1.
     999901    1    3    3    0    0  0.47333202381E-01  0.10442241493E+00  0.37301854975E-01  0.88822063766E+00  0.88000000000E+00 0. -1.
        -11    1    4    4    0    0 -0.26910300169E-01 -0.82156816225E-01 -0.73514109534E-02  0.86765264198E-01  0.51100000000E-03 0. -1.
         11    1    4    4    0    0 -0.22048297017E-01 -0.37750812911E-01 -0.12322134198E-01  0.45424083799E-01  0.51100000000E-03 0.  1.
</event>
<event>
 8    1  0.1010879E+005  0.1043930E+01  0.7957747E-01            NaN
         13   -1    0    0    0    0  0.00000000000E+00  0.00000000000E+00  0.74505805969E-08  0.10566000000E+00  0.10566000000E+00 0. -1.
     999900   -1    0    0    0    0 -0.00000000000E+00 -0.00000000000E+00 -0.74505805969E-08  0.93827000000E+00  0.93827000000E+00 0. -1.
     999902    2    1    2    0    0 -0.99106279458E-02 -0.63682016939E-02 -0.21090462709E-01  0.10197725548E+01  0.10194863812E+01 0.  0.
     999903    2    3    3    0    0  0.48230500499E-01  0.32707819728E-01  0.11151536878E+00  0.12708468509E+00  0.17856569109E-01 0.  0.
         14    1    1    2    0    0  0.99106279458E-02  0.63682016939E-02  0.21090462709E-01  0.24157445154E-01  0.00000000000E+00 0. -1.
     999901    1    3    3    0    0 -0.58141128445E-01 -0.39076021422E-01 -0.13260583149E+00  0.89268786976E+00  0.88000000000E+00 0. -1.
        -11    1    4    4    0    0  0.21242846479E-01  0.23267373083E-01  0.47863670375E-01  0.57304635410E-01  0.51100000000E-03 0.  1.
         11    1    4    4    0    0  0.26987654020E-01  0.94404466448E-02  0.63651698405E-01  0.69780049679E-01  0.51100000000E-03 0. -1.
</event>
<event>
 8    1  0.1010879E+005  0.1043930E+01  0.7957747E-01            NaN
         13   -1    0    0    0    0  0.00000000000E+00  0.00000000000E+00  0.74505805969E-08  0.10566000000E+00  0.10566000000E+00 0.  1.
     999900   -1    0    0    0    0 -0.00000000000E+00 -0.00000000000E+00 -0.74505805969E-08  0.93827000000E+00  0.93827000000E+00 0.  1.
     999902    2    1    2    0    0  0.18672188718E-01  0.17823957330E-02  0.75227942664E-02  0.10237205963E+01  0.10235210986E+01 0.  0.
     999903    2    3    3    0    0 -0.31803192354E-01  0.56025136188E-01  0.11578635615E+00  0.13399533652E+00  0.19950213235E-01 0.  0.
         14    1    1    2    0    0 -0.18672188718E-01 -0.17823957330E-02 -0.75227942664E-02  0.20209403743E-01  0.00000000000E+00 0.  1.
     999901    1    3    3    0    0  0.50475381073E-01 -0.54242740455E-01 -0.10826356189E+00  0.88972525974E+00  0.88000000000E+00 0.  1.
        -11    1    4    4    0    0 -0.22844448586E-01  0.20272218096E-01  0.50403804666E-01  0.58937562755E-01  0.51100000000E-03 0.  1.
         11    1    4    4    0    0 -0.89587437682E-02  0.35752918092E-01  0.65382551488E-01  0.75057773761E-01  0.51100000000E-03 0. -1.
</event>
<event>
 8    1  0.1010879E+005  0.1043930E+01  0.7957747E-01            NaN
         13   -1    0    0    0    0  0.00000000000E+00  0.00000000000E+00  0.74505805969E-08  0.10566000000E+00  0.10566000000E+00 0. -1.
     999900   -1    0    0    0    0 -0.00000000000E+00 -0.00000000000E+00 -0.74505805969E-08  0.93827000000E+00  0.93827000000E+00 0. -1.
     999902    2    1    2    0    0  0.66246789572E-02 -0.92067136152E-02 -0.20662620419E-01  0.10203589621E+01  0.10200866716E+01 0.  0.
     999903    2    3    3    0    0 -0.12248250485E+00  0.20984468016E-02  0.35416252768E-01  0.12910068772E+00  0.20157111318E-01 0.  0.
         14    1    1    2    0    0 -0.66246789572E-02  0.92067136152E-02  0.20662620419E-01  0.23571037937E-01  0.00000000000E+00 0. -1.
     999901    1    3    3    0    0  0.12910718381E+00 -0.11305160417E-01 -0.56078873187E-01  0.89125827434E+00  0.88000000000E+00 0. -1.
        -11    1    4    4    0    0 -0.33435367617E-01  0.89720001876E-02  0.13308154062E-01  0.37091625478E-01  0.51100000000E-03 0.  1.
         11    1    4    4    0    0 -0.89047137233E-01 -0.68735533860E-02  0.22108098706E-01  0.92009062244E-01  0.51100000000E-03 0. -1.
</event>
<event>
 8    1  0.1010879E+005  0.1043930E+01  0.7957747E-01            NaN
         13   -1    0    0    0    0  0.00000000000E+00  0.00000000000E+00  0.74505805969E-08  0.10566000000E+00  0.10566000000E+00 0. -1.
     999900   -1    0    0    0    0 -0.00000000000E+00 -0.00000000000E+00 -0.74505805969E-08  0.93827000000E+00  0.93827000000E+00 0.  1.
     999902    2    1    2    0    0  0.48686089439E-02  0.17072031068E-03 -0.23611345120E-01  0.10198213269E+01  0.10195363215E+01 0.  0.
     999903    2    3    3    0    0  0.11309035210E+00 -0.13653307000E-01 -0.63777350393E-01  0.13217479965E+00  0.20658816750E-01 0.  0.
         14    1    1    2    0    0 -0.48686089439E-02 -0.17072031068E-03  0.23611345120E-01  0.24108673063E-01  0.00000000000E+00 0. -1.
     999901    1    3    3    0    0 -0.10822174316E+00  0.13824027311E-01  0.40166005272E-01  0.88764652729E+00  0.88000000000E+00 0. -1.
        -11    1    4    4    0    0  0.12412943027E-01 -0.50396328480E-02 -0.14516410645E-01  0.19760221477E-01  0.51100000000E-03 0.  1.
         11    1    4    4    0    0  0.10067740907E+00 -0.86136741523E-02 -0.49260939748E-01  0.11241457817E+00  0.51100000000E-03 0. -1.
</event>
<event>
 8    1  0.1010879E+005  0.1043930E+01  0.7957747E-01            NaN
         13   -1    0    0    0    0  0.00000000000E+00  0.00000000000E+00  0.74505805969E-08  0.10566000000E+00  0.10566000000E+00 0.  1.
     999900   -1    0    0    0    0 -0.00000000000E+00 -0.00000000000E+00 -0.74505805969E-08  0.93827000000E+00  0.93827000000E+00 0. -1.
     999902    2    1    2    0    0  0.10149793699E-01 -0.14532777154E-01  0.16103748388E-01  0.10199810828E+01  0.10196998865E+01 0.  0.
     999903    2    3    3    0    0 -0.49316273326E-01  0.10835481187E+00  0.45316868394E-01  0.12897548288E+00  0.20203874744E-01 0.  0.
         14    1    1    2    0    0 -0.10149793699E-01  0.14532777154E-01 -0.16103748388E-01  0.23948917222E-01  0.00000000000E+00 0. -1.
     999901    1    3    3    0    0  0.59466067026E-01 -0.12288758902E+00 -0.29213120006E-01  0.89100559989E+00  0.88000000000E+00 0. -1.
        -11    1    4    4    0    0 -0.39023536481E-01  0.73341630042E-01  0.23034406808E-01  0.86212969528E-01  0.51100000000E-03 0.  1.
         11    1    4    4    0    0 -0.10292736845E-01  0.35013181824E-01  0.22282461586E-01  0.42762513356E-01  0.51100000000E-03 0. -1.
</event>
<event>
 8    1  0.1010879E+005  0.1043930E+01  0.7957747E-01            NaN
         13   -1    0    0    0    0  0.00000000000E+00  0.00000000000E+00  0.74505805969E-08  0.10566000000E+00  0.10566000000E+00 0.  1.
     999900   -1    0    0    0    0 -0.00000000000E+00 -0.00000000000E+00 -0.74505805969E-08  0.93827000000E+00  0.93827000000E+00 0.  1.
     999902    2    1    2    0    0 -0.24488539970E-01 -0.34643398862E-02  0.87799481207E-02  0.10176854248E+01  0.10173469644E+01 0.  0.
     999903    2    3    3    0    0 -0.11971675219E+00  0.48872852215E-01  0.69607916581E-02  0.13100007842E+00  0.19796754426E-01 0.  0.
         14    1    1    2    0    0  0.24488539970E-01  0.34643398862E-02 -0.87799481207E-02  0.26244575243E-01  0.00000000000E+00 0. -1.
     999901    1    3    3    0    0  0.95228212224E-01 -0.52337192101E-01  0.18191564626E-02  0.88668534634E+00  0.88000000000E+00 0. -1.
        -11    1    4    4    0    0 -0.10065929376E+00  0.36936872682E-01  0.12170567182E-01  0.10791204664E+00  0.51100000000E-03 0.  1.
         11    1    4    4    0    0 -0.19057458435E-01  0.11935979533E-01 -0.52097755234E-02  0.23088031778E-01  0.51100000000E-03 0. -1.
</event>
<event>
 8    1  0.1010879E+005  0.1043930E+01  0.7957747E-01            NaN
         13   -1    0    0    0    0  0.00000000000E+00  0.00000000000E+00  0.74505805969E-08  0.10566000000E+00  0.10566000000E+00 0.  1.
     999900   -1    0    0    0    0 -0.00000000000E+00 -0.00000000000E+00 -0.74505805969E-08  0.93827000000E+00  0.93827000000E+00 0.  1.
     999902    2    1    2    0    0 -0.13413702544E-01 -0.19068978281E-01 -0.49971582034E-02  0.10200862390E+01  0.10198075358E+01 0.  0.
     999903    2    3    3    0    0 -0.21714466200E-01 -0.88321951145E-01 -0.94284048542E-01  0.13282245313E+00  0.21909750099E-01 0.  0.
         14    1    1    2    0    0  0.13413702544E-01  0.19068978281E-01  0.49971582034E-02  0.23843761002E-01  0.00000000000E+00 0.  1.
     999901    1    3    3    0    0  0.83007636561E-02  0.69252972864E-01  0.89286890338E-01  0.88726378587E+00  0.88000000000E+00 0. -1.
        -11    1    4    4    0    0 -0.24651641402E-01 -0.75391832621E-01 -0.73352410780E-01  0.10803920186E+00  0.51100000000E-03 0. -1.
         11    1    4    4    0    0  0.29371752018E-02 -0.12930118524E-01 -0.20931637762E-01  0.24783251272E-01  0.51100000000E-03 0.  1.
</event>
<event>
 8    1  0.1010879E+005  0.1043930E+01  0.7957747E-01            NaN
         13   -1    0    0    0    0  0.00000000000E+00  0.00000000000E+00  0.74505805969E-08  0.10566000000E+00  0.10566000000E+00 0.  1.
     999900   -1    0    0    0    0 -0.00000000000E+00 -0.00000000000E+00 -0.74505805969E-08  0.93827000000E+00  0.93827000000E+00 0.  1.
     999902    2    1    2    0    0  0.16841268250E-01  0.52467171565E-02 -0.16395322549E-01  0.10198475799E+01  0.10195632022E+01 0.  0.
     999903    2    3    3    0    0  0.63934419778E-01  0.30633636176E-01 -0.11101649714E+00  0.13315968256E+00  0.19514321028E-01 0.  0.
         14    1    1    2    0    0 -0.16841268250E-01 -0.52467171565E-02  0.16395322549E-01  0.24082420116E-01  0.00000000000E+00 0.  1.
     999901    1    3    3    0    0 -0.47093151529E-01 -0.25386919019E-01  0.94621174590E-01  0.88668789732E+00  0.88000000000E+00 0. -1.
        -11    1    4    4    0    0  0.33803254832E-01  0.24649372751E-01 -0.74433427861E-01  0.85386462149E-01  0.51100000000E-03 0.  1.
         11    1    4    4    0    0  0.30131164946E-01  0.59842634244E-02 -0.36583069277E-01  0.47773220412E-01  0.51100000000E-03 0. -1.
</event>
<event>
 8    1  0.1010879E+005  0.1043930E+01  0.7957747E-01            NaN
         13   -1    0    0    0    0  0.00000000000E+00  0.00000000000E+00  0.74505805969E-08  0.10566000000E+00  0.10566000000E+00 0. -1.
     999900   -1    0    0    0    0 -0.00000000000E+00 -0.00000000000E+00 -0.74505805969E-08  0.93827000000E+00  0.93827000000E+00 0.  1.
     999902    2    1    2    0    0  0.11647938559E-01 -0.16472513179E-01 -0.12271317415E-01  0.10203163727E+01  0.10200430859E+01 0.  0.
     999903    2    3    3    0    0  0.71316018367E-01 -0.98403732068E-01 -0.52374858694E-01  0.13359133167E+00  0.18282481019E-01 0.  0.
         14    1    1    2    0    0 -0.11647938559E-01  0.16472513179E-01  0.12271317415E-01  0.23613627299E-01  0.00000000000E+00 0. -1.
     999901    1    3    3    0    0 -0.59668079808E-01  0.81931218889E-01  0.40103541279E-01  0.88672504104E+00  0.88000000000E+00 0. -1.
        -11    1    4    4    0    0  0.43113673952E-01 -0.53186821258E-01 -0.20404625985E-01  0.71443941099E-01  0.51100000000E-03 0.  1.
         11    1    4    4    0    0  0.28202344415E-01 -0.45216910810E-01 -0.31970232709E-01  0.62147390566E-01  0.51100000000E-03 0. -1.
</event>
<event>
 8    1  0.1010879E+005  0.1043930E+01  0.7957747E-01            NaN
         13   -1    0    0    0    0  0.00000000000E+00  0.00000000000E+00  0.74505805969E-08  0.10566000000E+00  0.10566000000E+00 0.  1.
     999900   -1    0    0    0    0 -0.00000000000E+00 -0.00000000000E+00 -0.74505805969E-08  0.93827000000E+00  0.93827000000E+00 0. -1.
     999902    2    1    2    0    0 -0.96591949814E-02 -0.18592511336E-01  0.93771024639E-02  0.10209754454E+01  0.10207173696E+01 0.  0.
     999903    2    3    3    0    0  0.42935132649E-01  0.69554842222E-01 -0.97277898696E-01  0.12861262206E+00  0.19922732898E-01 0.  0.
         14    1    1    2    0    0  0.96591949814E-02  0.18592511336E-01 -0.93771024639E-02  0.22954554583E-01  0.00000000000E+00 0. -1.
     999901    1    3    3    0    0 -0.52594327630E-01 -0.88147353558E-01  0.10665500116E+00  0.89236282336E+00  0.88000000000E+00 0.  1.
        -11    1    4    4    0    0  0.18951701301E-01  0.40204516576E-01 -0.39241471214E-01  0.59293543657E-01  0.51100000000E-03 0. -1.
         11    1    4    4    0    0  0.23983431348E-01  0.29350325647E-01 -0.58036427482E-01  0.69319078403E-01  0.51100000000E-03 0.  1.
</event>
<event>
 8    1  0.1010879E+005  0.1043930E+01  0.7957747E-01            NaN
         13   -1    0    0    0    0  0.00000000000E+00  0.00000000000E+00  0.74505805969E-08  0.10566000000E+00  0.10566000000E+00 0. -1.
     999900   -1    0    0    0    0 -0.00000000000E+00 -0.00000000000E+00 -0.74505805969E-08  0.93827000000E+00  0.93827000000E+00 0. -1.
     999902    2    1    2    0    0  0.29726844712E-02 -0.60197310468E-02 -0.24721626195E-01  0.10183129585E+01  0.10179906918E+01 0.  0.
     999903    2    3    3    0    0 -0.82413526714E-01 -0.84616598751E-01  0.44982328789E-01  0.12796082925E+00  0.19965113308E-01 0.  0.
         14    1    1    2    0    0 -0.29726844712E-02  0.60197310468E-02  0.24721626195E-01  0.25617041527E-01  0.00000000000E+00 0. -1.
     999901    1    3    3    0    0  0.85386211185E-01  0.78596867704E-01 -0.69703954984E-01  0.89035212922E+00  0.88000000000E+00 0.  1.
        -11    1    4    4    0    0 -0.55614010351E-01 -0.69519125256E-01  0.33150457628E-01  0.95000215187E-01  0.51100000000E-03 0. -1.
         11    1    4    4    0    0 -0.26799516362E-01 -0.15097473495E-01  0.11831871161E-01  0.32960614062E-01  0.51100000000E-03 0.  1.
</event>
<event>
 8    1  0.1010879E+005  0.1043930E+01  0.7957747E-01            NaN
         13   -1    0    0    0    0  0.00000000000E+00  0.00000000000E+00  0.74505805969E-08  0.10566000000E+00  0.10566000000E+00 0.  1.
     999900   -1    0    0    0    0 -0.00000000000E+00 -0.00000000000E+00 -0.74505805969E-08  0.93827000000E+00  0.93827000000E+00 0. -1.
     999902    2    1    2    0    0 -0.32578567872E-02 -0.23772152669E-01  0.45067237254E-02  0.10195160812E+01  0.10192237244E+01 0.  0.
     999903    2    3    3    0    0  0.34778198256E-01 -0.11950691988E+00  0.41409395943E-01  0.13273894212E+00  0.20333757913E-01 0.  0.
         14    1    1    2    0    0  0.32578567872E-02  0.23772152669E-01 -0.45067237254E-02  0.24413918819E-01  0.00000000000E+00 0.  1.
     999901    1    3    3    0    0 -0.38036055044E-01  0.95734767210E-01 -0.36902672218E-01  0.88677713906E+00  0.88000000000E+00 0. -1.
        -11    1    4    4    0    0  0.21667549073E-01 -0.76071338172E-01  0.15883165501E-01  0.80677551038E-01  0.51100000000E-03 0.  1.
         11    1    4    4    0    0  0.13110649183E-01 -0.43435581708E-01  0.25526230442E-01  0.52061391087E-01  0.51100000000E-03 0. -1.
</event>
<event>
 8    1  0.1010879E+005  0.1043930E+01  0.7957747E-01            NaN
         13   -1    0    0    0    0  0.00000000000E+00  0.00000000000E+00  0.74505805969E-08  0.10566000000E+00  0.10566000000E+00 0.  1.
     999900   -1    0    0    0    0 -0.00000000000E+00 -0.00000000000E+00 -0.74505805969E-08  0.93827000000E+00  0.93827000000E+00 0. -1.
     999902    2    1    2    0    0 -0.76348286701E-02 -0.17200214272E-02  0.22618747322E-01  0.10199955726E+01  0.10197147206E+01 0.  0.
     999903    2    3    3    0    0  0.10389955120E+00 -0.54437157429E-01  0.55108835894E-01  0.13079670840E+00  0.17671284169E-01 0.  0.
         14    1    1    2    0    0  0.76348286701E-02  0.17200214272E-02 -0.22618747322E-01  0.23934427357E-01  0.00000000000E+00 0. -1.
     999901    1    3    3    0    0 -0.11153437987E+00  0.52717136002E-01 -0.32490088573E-01  0.88919886425E+00  0.88000000000E+00 0.  1.
        -11    1    4    4    0    0  0.25683450131E-01 -0.54099578934E-02  0.10556505655E-01  0.28295020545E-01  0.51100000000E-03 0. -1.
         11    1    4    4    0    0  0.78216101074E-01 -0.49027199535E-01  0.44552330239E-01  0.10250168785E+00  0.51100000000E-03 0.  1.
</event>
<event>
 8    1  0.1010879E+005  0.1043930E+01  0.7957747E-01            NaN
         13   -1    0    0    0    0  0.00000000000E+00  0.00000000000E+00  0.74505805969E-08  0.10566000000E+00  0.10566000000E+00 0.  1.
     999900   -1    0    0    0    0 -0.00000000000E+00 -0.00000000000E+00 -0.74505805969E-08  0.93827000000E+00  0.93827000000E+00 0. -1.
     999902    2    1    2    0    0 -0.11914835616E-01  0.20270420704E-01  0.25750324054E-02  0.10202765847E+01  0.10200023653E+01 0.  0.
     999903    2    3    3    0    0  0.12000263210E+00 -0.19977237346E-01  0.37547552287E-01  0.12884786102E+00  0.19804819699E-01 0.  0.
         14    1    1    2    0    0  0.11914835616E-01 -0.20270420704E-01 -0.25750324054E-02  0.23653415296E-01  0.00000000000E+00 0. -1.
     999901    1    3    3    0    0 -0.13191746771E+00  0.40247658051E-01 -0.34972519882E-01  0.89142872369E+00  0.88000000000E+00 0.  1.
        -11    1    4    4    0    0  0.39862263662E-01 -0.12012507815E-01  0.20985770722E-01  0.46625787951E-01  0.51100000000E-03 0.  1.
         11    1    4    4    0    0  0.80140368436E-01 -0.79647295316E-02  0.16561781565E-01  0.82222073066E-01  0.51100000000E-03 0. -1.
</event>
<event>
 8    1  0.1010879E+005  0.1043930E+01  0.7957747E-01            NaN
         13   -1    0    0    0    0  0.00000000000E+00  0.00000000000E+00  0.74505805969E-08  0.10566000000E+00  0.10566000000E+00 0.  1.
     999900   -1    0    0    0    0 -0.00000000000E+00 -0.00000000000E+00 -0.74505805969E-08  0.93827000000E+00  0.93827000000E+00 0.  1.
     999902    2    1    2    0    0  0.87940804711E-02 -0.12810581282E-01 -0.17963057556E-01  0.10201788257E+01  0.10199023081E+01 0.  0.
     999903    2    3    3    0    0  0.82293060658E-01 -0.81637032891E-01 -0.62926168339E-01  0.13329616048E+00  0.19272020254E-01 0.  0.
         14    1    1    2    0    0 -0.87940804711E-02  0.12810581282E-01  0.17963057556E-01  0.23751174305E-01  0.00000000000E+00 0.  1.
     999901    1    3    3    0    0 -0.73498980187E-01  0.68826451609E-01  0.44963110784E-01  0.88688266522E+00  0.88000000000E+00 0.  1.
        -11    1    4    4    0    0  0.34321447945E-01 -0.46357700010E-01 -0.35529259287E-01  0.67746494564E-01  0.51100000000E-03 0. -1.
         11    1    4    4    0    0  0.47971612714E-01 -0.35279332881E-01 -0.27396909053E-01  0.65549665915E-01  0.51100000000E-03 0.  1.
</event>
<event>
 8    1  0.1010879E+005  0.1043930E+01  0.7957747E-01            NaN
         13   -1    0    0    0    0  0.00000000000E+00  0.00000000000E+00  0.74505805969E-08  0.10566000000E+00  0.10566000000E+00 0.  1.
     999900   -1    0    0    0    0 -0.00000000000E+00 -0.00000000000E+00 -0.74505805969E-08  0.93827000000E+00  0.93827000000E+00 0. -1.
     999902    2    1    2    0    0 -0.16552150720E-01  0.59174496120E-03  0.18948150148E-01  0.10187634299E+01  0.10184525369E+01 0.  0.
     999903    2    3    3    0    0 -0.11970066105E+00 -0.48902036259E-01  0.51999741820E-02  0.13125102893E+00  0.21911993517E-01 0.  0.
         14    1    1    2    0    0  0.16552150720E-01 -0.59174496120E-03 -0.18948150148E-01  0.25166570080E-01  0.00000000000E+00 0. -1.
     999901    1    3    3    0    0  0.10314851033E+00  0.49493781220E-01  0.13748175966E-01  0.88751240099E+00  0.88000000000E+00 0.  1.
        -11    1    4    4    0    0 -0.71567000511E-01 -0.18680298915E-01 -0.17725092026E-02  0.73987783043E-01  0.51100000000E-03 0.  1.
         11    1    4    4    0    0 -0.48133660534E-01 -0.30221737343E-01  0.69724833847E-02  0.57263245891E-01  0.51100000000E-03 0. -1.
</event>
<event>
 8    1  0.1010879E+005  0.1043930E+01  0.7957747E-01            NaN
         13   -1    0    0    0    0  0.00000000000E+00  0.00000000000E+00  0.74505805969E-08  0.10566000000E+00  0.10566000000E+00 0.  1.
     999900   -1    0    0    0    0 -0.00000000000E+00 -0.00000000000E+00 -0.74505805969E-08  0.93827000000E+00  0.93827000000E+00 0.  1.
     999902    2    1    2    0    0 -0.43354323190E-02  0.20306594496E-01  0.92545880184E-02  0.10211967391E+01  0.10209436707E+01 0.  0.
     999903    2    3    3    0    0 -0.16299767770E-01  0.11416545837E+00 -0.63722869084E-01  0.13312109989E+00  0.19004969785E-01 0.  0.
         14    1    1    2    0    0  0.43354323190E-02 -0.20306594496E-01 -0.92545880184E-02  0.22733260937E-01  0.00000000000E+00 0. -1.
     999901    1    3    3    0    0  0.11964335451E-01 -0.93858863876E-01  0.72977457103E-01  0.88807563917E+00  0.88000000000E+00 0. -1.
        -11    1    4    4    0    0 -0.14436185118E-01  0.46834360408E-01 -0.33006232256E-01  0.59089197357E-01  0.51100000000E-03 0.  1.
         11    1    4    4    0    0 -0.18635826522E-02  0.67331097964E-01 -0.30716636828E-01  0.74031902531E-01  0.51100000000E-03 0. -1.
</event>
<event>
 8    1  0.1010879E+005  0.1043930E+01  0.7957747E-01            NaN
         13   -1    0    0    0    0  0.00000000000E+00  0.00000000000E+00  0.74505805969E-08  0.10566000000E+00  0.10566000000E+00 0.  1.
     999900   -1    0    0    0    0 -0.00000000000E+00 -0.00000000000E+00 -0.74505805969E-08  0.93827000000E+00  0.93827000000E+00 0. -1.
     999902    2    1    2    0    0 -0.10908556340E-01 -0.52784301085E-02  0.17876903245E-01  0.10223327294E+01  0.10221045776E+01 0.  0.
     999903    2    3    3    0    0  0.10475102375E+00  0.75804596718E-01  0.15968208935E-02  0.13092000977E+00  0.20454468005E-01 0.  0.
         14    1    1    2    0    0  0.10908556340E-01  0.52784301085E-02 -0.17876903245E-01  0.21597270556E-01  0.00000000000E+00 0. -1.
     999901    1    3    3    0    0 -0.11565958009E+00 -0.81083026827E-01  0.16280082352E-01  0.89141271967E+00  0.88000000000E+00 0.  1.
        -11    1    4    4    0    0  0.52459682276E-01  0.27028944325E-01  0.57125991816E-02  0.59291458122E-01  0.51100000000E-03 0. -1.
         11    1    4    4    0    0  0.52291341477E-01  0.48775652393E-01 -0.41157782881E-02  0.71628551652E-01  0.51100000000E-03 0.  1.
</event>
<event>
 8    1  0.1010879E+005  0.1043930E+01  0.7957747E-01            NaN
         13   -1    0    0    0    0  0.00000000000E+00  0.00000000000E+00  0.74505805969E-08  0.10566000000E+00  0.10566000000E+00 0.  1.
     999900   -1    0    0    0    0 -0.00000000000E+00 -0.00000000000E+00 -0.74505805969E-08  0.93827000000E+00  0.93827000000E+00 0.  1.
     999902    2    1    2    0    0  0.12609809409E-01  0.18160832130E-01 -0.10036633665E-01  0.10196492024E+01  0.10193600634E+01 0.  0.
     999903    2    3    3    0    0  0.56079905839E-01 -0.25766847546E-01 -0.11404504388E+00  0.13137163332E+00  0.21055824306E-01 0.  0.
         14    1    1    2    0    0 -0.12609809409E-01 -0.18160832130E-01  0.10036633665E-01  0.24280797605E-01  0.00000000000E+00 0. -1.
     999901    1    3    3    0    0 -0.43470096429E-01  0.43927679677E-01  0.10400841021E+00  0.88827756907E+00  0.88000000000E+00 0. -1.
        -11    1    4    4    0    0  0.36953215933E-01 -0.72474357257E-02 -0.77371881466E-01  0.86050767893E-01  0.51100000000E-03 0.  1.
         11    1    4    4    0    0  0.19126689905E-01 -0.18519411821E-01 -0.36673162411E-01  0.45320865428E-01  0.51100000000E-03 0. -1.
</event>
<event>
 8    1  0.1010879E+005  0.1043930E+01  0.7957747E-01            NaN
         13   -1    0    0    0    0  0.00000000000E+00  0.00000000000E+00  0.74505805969E-08  0.10566000000E+00  0.10566000000E+00 0.  1.
     999900   -1    0    0    0    0 -0.00000000000E+00 -0.00000000000E+00 -0.74505805969E-08  0.93827000000E+00  0.93827000000E+00 0. -1.
     999902    2    1    2    0    0 -0.20242096582E-01 -0.12112576539E-01  0.29001194489E-02  0.10201630549E+01  0.10198861657E+01 0.  0.
     999903    2    3    3    0    0  0.80928669394E-01 -0.69371337133E-01  0.71593742794E-01  0.12986372133E+00  0.19418809539E-01 0.  0.
         14    1    1    2    0    0  0.20242096582E-01  0.12112576539E-01 -0.29001194489E-02  0.23766945055E-01  0.00000000000E+00 0.  1.
     999901    1    3    3    0    0 -0.10117076598E+00  0.57258760594E-01 -0.68693623345E-01  0.89029933362E+00  0.88000000000E+00 0. -1.
        -11    1    4    4    0    0  0.74280608134E-01 -0.69308580349E-01  0.68363248086E-01  0.12245441137E+00  0.51100000000E-03 0. -1.
         11    1    4    4    0    0  0.66480612597E-02 -0.62756783999E-04  0.32304947082E-02  0.74093099535E-02  0.51100000000E-03 0.  1.
</event>
<event>
 8    1  0.1010879E+005  0.1043930E+01  0.7957747E-01            NaN
         13   -1    0    0    0    0  0.00000000000E+00  0.00000000000E+00  0.74505805969E-08  0.10566000000E+00  0.10566000000E+00 0.  1.
     999900   -1    0    0    0    0 -0.00000000000E+00 -0.00000000000E+00 -0.74505805969E-08  0.93827000000E+00  0.93827000000E+00 0.  1.
     999902    2    1    2    0    0  0.10071038203E-01  0.16693261630E-01 -0.14890304478E-01  0.10193981439E+01  0.10191029212E+01 0.  0.
     999903    2    3    3    0    0  0.58204996955E-01 -0.60249955306E-01  0.94775415409E-01  0.12795902278E+00  0.19319766032E-01 0.  0.
         14    1    1    2    0    0 -0.10071038203E-01 -0.16693261630E-01  0.14890304478E-01  0.24531856061E-01  0.00000000000E+00 0.  1.
     999901    1    3    3    0    0 -0.48133958752E-01  0.76943216936E-01 -0.10966571989E+00  0.89143912116E+00  0.88000000000E+00 0.  1.
        -11    1    4    4    0    0  0.39410428129E-01 -0.34440391982E-01  0.70709919541E-01  0.87974293334E-01  0.51100000000E-03 0. -1.
         11    1    4    4    0    0  0.18794568826E-01 -0.25809563324E-01  0.24065495868E-01  0.39984729444E-01  0.51100000000E-03 0.  1.
</event>
<event>
 8    1  0.1010879E+005  0.1043930E+01  0.7957747E-01            NaN
         13   -1    0    0    0    0  0.00000000000E+00  0.00000000000E+00  0.74505805969E-08  0.10566000000E+00  0.10566000000E+00 0.  1.
     999900   -1    0    0    0    0 -0.00000000000E+00 -0.00000000000E+00 -0.74505805969E-08  0.93827000000E+00  0.93827000000E+00 0.  1.
     999902    2    1    2    0    0 -0.48275608015E-02 -0.10401841794E-01 -0.22407368677E-01  0.10187587103E+01  0.10184476992E+01 0.  0.
     999903    2    3    3    0    0 -0.35678376235E-01 -0.44580520410E-01 -0.11767067962E+00  0.13242070854E+00  0.20699900418E-01 0.  0.
         14    1    1    2    0    0  0.48275608015E-02  0.10401841794E-01  0.22407368677E-01  0.25171289737E-01  0.00000000000E+00 0.  1.
     999901    1    3    3    0    0  0.30850815434E-01  0.34178678617E-01  0.95263310943E-01  0.88633800172E+00  0.88000000000E+00 0. -1.
        -11    1    4    4    0    0 -0.94151072149E-02 -0.28275896389E-01 -0.59095916349E-01  0.66187302487E-01  0.51100000000E-03 0.  1.
         11    1    4    4    0    0 -0.26263269020E-01 -0.16304624021E-01 -0.58574763272E-01  0.66233406053E-01  0.51100000000E-03 0. -1.
</event>
<event>
 8    1  0.1010879E+005  0.1043930E+01  0.7957747E-01            NaN
         13   -1    0    0    0    0  0.00000000000E+00  0.00000000000E+00  0.74505805969E-08  0.10566000000E+00  0.10566000000E+00 0.  1.
     999900   -1    0    0    0    0 -0.00000000000E+00 -0.00000000000E+00 -0.74505805969E-08  0.93827000000E+00  0.93827000000E+00 0. -1.
     999902    2    1    2    0    0 -0.13077781514E-02 -0.38086418849E-02  0.23450314390E-01  0.10201364445E+01  0.10198589276E+01 0.  0.
     999903    2    3    3    0    0 -0.33639999087E-01  0.55750516108E-01  0.11402186054E+00  0.13289585102E+00  0.20507387739E-01 0.  0.
         14    1    1    2    0    0  0.13077781514E-02  0.38086418849E-02 -0.23450314390E-01  0.23793555466E-01  0.00000000000E+00 0. -1.
     999901    1    3    3    0    0  0.32332220935E-01 -0.59559157993E-01 -0.90571546150E-01  0.88724059352E+00  0.88000000000E+00 0. -1.
        -11    1    4    4    0    0 -0.81576918551E-02  0.11772705144E-01  0.44659643272E-01  0.46902978381E-01  0.51100000000E-03 0. -1.
         11    1    4    4    0    0 -0.25482307232E-01  0.43977810964E-01  0.69362217268E-01  0.85992872637E-01  0.51100000000E-03 0.  1.
</event>
<event>
 8    1  0.1010879E+005  0.1043930E+01  0.7957747E-01            NaN
         13   -1    0    0    0    0  0.00000000000E+00  0.00000000000E+00  0.74505805969E-08  0.10566000000E+00  0.10566000000E+00 0. -1.
     999900   -1    0    0    0    0 -0.00000000000E+00 -0.00000000000E+00 -0.74505805969E-08  0.93827000000E+00  0.93827000000E+00 0. -1.
     999902    2    1    2    0    0  0.51173109844E-02  0.19527120596E-01 -0.12495187443E-01  0.10201892119E+01  0.10199129390E+01 0.  0.
     999903    2    3    3    0    0 -0.12079153595E+00  0.41485339329E-01  0.17238216141E-01  0.13045932233E+00  0.20269438822E-01 0.  0.
         14    1    1    2    0    0 -0.51173109844E-02 -0.19527120596E-01  0.12495187443E-01  0.23740788102E-01  0.00000000000E+00 0. -1.
     999901    1    3    3    0    0  0.12590884693E+00 -0.21958218732E-01 -0.29733403584E-01  0.88972988957E+00  0.88000000000E+00 0. -1.
        -11    1    4    4    0    0 -0.93554721792E-01  0.27968764215E-01  0.20808657977E-01  0.99839867333E-01  0.51100000000E-03 0. -1.
         11    1    4    4    0    0 -0.27236814158E-01  0.13516575114E-01 -0.35704418354E-02  0.30619454994E-01  0.51100000000E-03 0.  1.
</event>
<event>
 8    1  0.1010879E+005  0.1043930E+01  0.7957747E-01            NaN
         13   -1    0    0    0    0  0.00000000000E+00  0.00000000000E+00  0.74505805969E-08  0.10566000000E+00  0.10566000000E+00 0.  1.
     999900   -1    0    0    0    0 -0.00000000000E+00 -0.00000000000E+00 -0.74505805969E-08  0.93827000000E+00  0.93827000000E+00 0. -1.
     999902    2    1    2    0    0  0.12069196654E-01  0.11013943498E-01 -0.14478828590E-01  0.10220986249E+01  0.10218654462E+01 0.  0.
     999903    2    3    3    0    0 -0.55437582651E-01  0.56683386837E-01  0.10196463936E+00  0.13069414631E+00  0.19945934107E-01 0.  0.
         14    1    1    2    0    0 -0.12069196654E-01 -0.11013943498E-01  0.14478828590E-01  0.21831375051E-01  0.00000000000E+00 0.  1.
     999901    1    3    3    0    0  0.67506779305E-01 -0.45669443338E-01 -0.11644346795E+00  0.89140447864E+00  0.88000000000E+00 0. -1.
        -11    1    4    4    0    0 -0.31155417966E-01  0.44866561735E-01  0.71533033862E-01  0.90005024777E-01  0.51100000000E-03 0. -1.
         11    1    4    4    0    0 -0.24282164685E-01  0.11816825101E-01  0.30431605496E-01  0.40689121535E-01  0.51100000000E-03 0.  1.
</event>
<event>
 8    1  0.1010879E+005  0.1043930E+01  0.7957747E-01            NaN
         13   -1    0    0    0    0  0.00000000000E+00  0.00000000000E+00  0.74505805969E-08  0.10566000000E+00  0.10566000000E+00 0. -1.
     999900   -1    0    0    0    0 -0.00000000000E+00 -0.00000000000E+00 -0.74505805969E-08  0.93827000000E+00  0.93827000000E+00 0. -1.
     999902    2    1    2    0    0  0.13905989557E-01  0.12336258191E-01 -0.62698627823E-02  0.10243118709E+01  0.10241239856E+01 0.  0.
     999903    2    3    3    0    0  0.16334500256E-01 -0.10552450970E+00  0.75526094028E-01  0.13269107880E+00  0.22371711364E-01 0.  0.
         14    1    1    2    0    0 -0.13905989557E-01 -0.12336258191E-01  0.62698627823E-02  0.19618129142E-01  0.00000000000E+00 0. -1.
     999901    1    3    3    0    0 -0.24285106991E-02  0.11786076789E+00 -0.81795956811E-01  0.89162079205E+00  0.88000000000E+00 0. -1.
        -11    1    4    4    0    0  0.11405116969E-01 -0.20075959906E-01  0.20936579804E-01  0.31172461471E-01  0.51100000000E-03 0. -1.
         11    1    4    4    0    0  0.49293832877E-02 -0.85448549792E-01  0.54589514224E-01  0.10151861733E+00  0.51100000000E-03 0.  1.
</event>
<event>
 8    1  0.1010879E+005  0.1043930E+01  0.7957747E-01            NaN
         13   -1    0    0    0    0  0.00000000000E+00  0.00000000000E+00  0.74505805969E-08  0.10566000000E+00  0.10566000000E+00 0.  1.
     999900   -1    0    0    0    0 -0.00000000000E+00 -0.00000000000E+00 -0.74505805969E-08  0.93827000000E+00  0.93827000000E+00 0. -1.
     999902    2    1    2    0    0  0.27202011720E-02 -0.59438498775E-02 -0.22600547866E-01  0.10204031301E+01  0.10201318710E+01 0.  0.
     999903    2    3    3    0    0 -0.27371980394E-01  0.34260603411E-01 -0.12407069415E+00  0.13314999366E+00  0.20306880793E-01 0.  0.
         14    1    1    2    0    0 -0.27202011720E-02  0.59438498775E-02  0.22600547866E-01  0.23526869949E-01  0.00000000000E+00 0.  1.
     999901    1    3    3    0    0  0.30092181567E-01 -0.40204453289E-01  0.10147014628E+00  0.88725313639E+00  0.88000000000E+00 0.  1.
        -11    1    4    4    0    0 -0.19210338032E-01  0.33205240394E-01 -0.85580107333E-01  0.93786144867E-01  0.51100000000E-03 0. -1.
         11    1    4    4    0    0 -0.81616423621E-02  0.10553630173E-02 -0.38490586814E-01  0.39363848789E-01  0.51100000000E-03 0.  1.
</event>
<event>
 8    1  0.1010879E+005  0.1043930E+01  0.7957747E-01            NaN
         13   -1    0    0    0    0  0.00000000000E+00  0.00000000000E+00  0.74505805969E-08  0.10566000000E+00  0.10566000000E+00 0.  1.
     999900   -1    0    0    0    0 -0.00000000000E+00 -0.00000000000E+00 -0.74505805969E-08  0.93827000000E+00  0.93827000000E+00 0. -1.
     999902    2    1    2    0    0 -0.45441711960E-03  0.13021546357E-02 -0.24663569732E-01  0.10192278994E+01  0.10189285143E+01 0.  0.
     999903    2    3    3    0    0  0.98267996599E-01  0.33155450620E-01  0.72174416879E-01  0.12785909634E+00  0.19568316322E-01 0.  0.
         14    1    1    2    0    0  0.45441711960E-03 -0.13021546357E-02  0.24663569732E-01  0.24702100590E-01  0.00000000000E+00 0.  1.
     999901    1    3    3    0    0 -0.98722413719E-01 -0.31853295985E-01 -0.96837986611E-01  0.89136880307E+00  0.88000000000E+00 0. -1.
        -11    1    4    4    0    0  0.29527403753E-01  0.11697111541E-01  0.33310456285E-01  0.46027574450E-01  0.51100000000E-03 0. -1.
         11    1    4    4    0    0  0.68740592846E-01  0.21458339080E-01  0.38863960594E-01  0.81831521891E-01  0.51100000000E-03 0.  1.
</event>
<event>
 8    1  0.1010879E+005  0.1043930E+01  0.7957747E-01            NaN
         13   -1    0    0    0    0  0.00000000000E+00  0.00000000000E+00  0.74505805969E-08  0.10566000000E+00  0.10566000000E+00 0. -1.
     999900   -1    0    0    0    0 -0.00000000000E+00 -0.00000000000E+00 -0.74505805969E-08  0.93827000000E+00  0.93827000000E+00 0.  1.
     999902    2    1    2    0    0  0.10013824771E-01  0.97050518640E-02 -0.19263972480E-01  0.10201483820E+01  0.10198711468E+01 0.  0.
     999903    2    3    3    0    0  0.60912123899E-01  0.94443727992E-01  0.63796520595E-01  0.13072703890E+00  0.19739758453E-01 0.  0.
         14    1    1    2    0    0 -0.10013824771E-01 -0.97050518640E-02  0.19263972480E-01  0.23781617984E-01  0.00000000000E+00 0. -1.
     999901    1    3    3    0    0 -0.50898299128E-01 -0.84738676128E-01 -0.83060493075E-01  0.88942134312E+00  0.88000000000E+00 0.  1.
        -11    1    4    4    0    0  0.49698196631E-01  0.69726092839E-01  0.39513020429E-01  0.94303651443E-01  0.51100000000E-03 0. -1.
         11    1    4    4    0    0  0.11213927267E-01  0.24717635154E-01  0.24283500166E-01  0.36423387454E-01  0.51100000000E-03 0.  1.
</event>
<event>
 8    1  0.1010879E+005  0.1043930E+01  0.7957747E-01            NaN
         13   -1    0    0    0    0  0.00000000000E+00  0.00000000000E+00  0.74505805969E-08  0.10566000000E+00  0.10566000000E+00 0.  1.
     999900   -1    0    0    0    0 -0.00000000000E+00 -0.00000000000E+00 -0.74505805969E-08  0.93827000000E+00  0.93827000000E+00 0. -1.
     999902    2    1    2    0    0  0.11013760076E-01 -0.18396404057E-02 -0.20839248772E-01  0.10202876338E+01  0.10200136736E+01 0.  0.
     999903    2    3    3    0    0  0.47608576867E-01  0.67128294494E-01 -0.10225868177E+00  0.13308704732E+00  0.21966785282E-01 0.  0.
         14    1    1    2    0    0 -0.11013760076E-01  0.18396404057E-02  0.20839248772E-01  0.23642366151E-01  0.00000000000E+00 0.  1.
     999901    1    3    3    0    0 -0.36594816791E-01 -0.68967934900E-01  0.81419432996E-01  0.88720058652E+00  0.88000000000E+00 0.  1.
        -11    1    4    4    0    0  0.48580969378E-01  0.62842573127E-01 -0.89923741665E-01  0.11998266549E+00  0.51100000000E-03 0.  1.
         11    1    4    4    0    0 -0.97239251074E-03  0.42857213677E-02 -0.12334940102E-01  0.13104381831E-01  0.51100000000E-03 0. -1.
</event>
<event>
 8    1  0.1010879E+005  0.1043930E+01  0.7957747E-01            NaN
         13   -1    0    0    0    0  0.00000000000E+00  0.00000000000E+00  0.74505805969E-08  0.10566000000E+00  0.10566000000E+00 0.  1.
     999900   -1    0    0    0    0 -0.00000000000E+00 -0.00000000000E+00 -0.74505805969E-08  0.93827000000E+00  0.93827000000E+00 0.  1.
     999902    2    1    2    0    0  0.20507179776E-01 -0.45909362618E-02  0.75523756537E-02  0.10215993149E+01  0.10213552275E+01 0.  0.
     999903    2    3    3    0    0 -0.59686035728E-01  0.10041010374E+00  0.54582337790E-01  0.13049438981E+00  0.20123180164E-01 0.  0.
         14    1    1    2    0    0 -0.20507179776E-01  0.45909362618E-02 -0.75523756537E-02  0.22330685080E-01  0.00000000000E+00 0. -1.
     999901    1    3    3    0    0  0.80193215504E-01 -0.10500104000E+00 -0.47029962137E-01  0.89110492511E+00  0.88000000000E+00 0.  1.
        -11    1    4    4    0    0 -0.36141537269E-01  0.56799049791E-01  0.42027162958E-01  0.79365523501E-01  0.51100000000E-03 0. -1.
         11    1    4    4    0    0 -0.23544498458E-01  0.43611053948E-01  0.12555174832E-01  0.51128866311E-01  0.51100000000E-03 0.  1.
</event>
<event>
 8    1  0.1010879E+005  0.1043930E+01  0.7957747E-01            NaN
         13   -1    0    0    0    0  0.00000000000E+00  0.00000000000E+00  0.74505805969E-08  0.10566000000E+00  0.10566000000E+00 0.  1.
     999900   -1    0    0    0    0 -0.00000000000E+00 -0.00000000000E+00 -0.74505805969E-08  0.93827000000E+00  0.93827000000E+00 0. -1.
     999902    2    1    2    0    0 -0.15248162345E-01 -0.19646644579E-01 -0.40460740617E-03  0.10190571070E+01  0.10187535161E+01 0.  0.
     999903    2    3    3    0    0 -0.71407110214E-01  0.10273701499E+00  0.21750857336E-01  0.12853902625E+00  0.19882450439E-01 0.  0.
         14    1    1    2    0    0  0.15248162345E-01  0.19646644579E-01  0.40460740617E-03  0.24872892982E-01  0.00000000000E+00 0. -1.
     999901    1    3    3    0    0  0.56158947869E-01 -0.12238365957E+00 -0.22155464742E-01  0.89051808077E+00  0.88000000000E+00 0.  1.
        -11    1    4    4    0    0 -0.64489092809E-01  0.95781326175E-01  0.14600509189E-01  0.11638875171E+00  0.51100000000E-03 0.  1.
         11    1    4    4    0    0 -0.69180174045E-02  0.69556888201E-02  0.71503481472E-02  0.12150274540E-01  0.51100000000E-03 0. -1.
</event>
<event>
 8    1  0.1010879E+005  0.1043930E+01  0.7957747E-01            NaN
         13   -1    0    0    0    0  0.00000000000E+00  0.00000000000E+00  0.74505805969E-08  0.10566000000E+00  0.10566000000E+00 0. -1.
     999900   -1    0    0    0    0 -0.00000000000E+00 -0.00000000000E+00 -0.74505805969E-08  0.93827000000E+00  0.93827000000E+00 0.  1.
     999902    2    1    2    0    0 -0.21772056480E-01  0.84100496945E-02 -0.19239038931E-03  0.10205892975E+01  0.10203223637E+01 0.  0.
     999903    2    3    3    0    0  0.64999624598E-01 -0.78438711717E-01 -0.76233309456E-01  0.12881900568E+00  0.20130475903E-01 0.  0.
         14    1    1    2    0    0  0.21772056480E-01 -0.84100496945E-02  0.19239038931E-03  0.23340702502E-01  0.00000000000E+00 0.  1.
     999901    1    3    3    0    0 -0.86771681078E-01  0.86848761411E-01  0.76040919067E-01  0.89177029182E+00  0.88000000000E+00 0. -1.
        -11    1    4    4    0    0  0.29021282694E-01 -0.27785177813E-01 -0.40932302999E-01  0.57358220903E-01  0.51100000000E-03 0. -1.
         11    1    4    4    0    0  0.35978341904E-01 -0.50653533904E-01 -0.35301006457E-01  0.71460784778E-01  0.51100000000E-03 0.  1.
</event>
<event>
 8    1  0.1010879E+005  0.1043930E+01  0.7957747E-01            NaN
         13   -1    0    0    0    0  0.00000000000E+00  0.00000000000E+00  0.74505805969E-08  0.10566000000E+00  0.10566000000E+00 0.  1.
     999900   -1    0    0    0    0 -0.00000000000E+00 -0.00000000000E+00 -0.74505805969E-08  0.93827000000E+00  0.93827000000E+00 0.  1.
     999902    2    1    2    0    0 -0.21624434755E-01 -0.45740939455E-02  0.91205650802E-02  0.10200192656E+01  0.10197389759E+01 0.  0.
     999903    2    3    3    0    0  0.19669148609E-02  0.12646417963E+00 -0.20599886582E-01  0.12950767880E+00  0.18730351235E-01 0.  0.
         14    1    1    2    0    0  0.21624434755E-01  0.45740939455E-02 -0.91205650802E-02  0.23910734436E-01  0.00000000000E+00 0. -1.
     999901    1    3    3    0    0 -0.23591349616E-01 -0.13103827357E+00  0.29720451663E-01  0.89051158677E+00  0.88000000000E+00 0. -1.
        -11    1    4    4    0    0  0.23651314822E-02  0.68876307564E-01 -0.20545805382E-01  0.71916137482E-01  0.51100000000E-03 0.  1.
         11    1    4    4    0    0 -0.39821662121E-03  0.57587872064E-01 -0.54081200370E-04  0.57591541316E-01  0.51100000000E-03 0. -1.
</event>
<event>
 7    1  0.1010879E+005  0.1043930E+01  0.7957747E-01            NaN
         13   -1    0    0    0    0  0.00000000000E+00  0.00000000000E+00  0.74505805969E-08  0.10566000000E+00  0.10566000000E+00 0.  1.
     999900   -1    0    0    0    0 -0.00000000000E+00 -0.00000000000E+00 -0.74505805969E-08  0.93827000000E+00  0.93827000000E+00 0. -1.
     999902    2    1    2    0    0  0.47655656906E-02 -0.22677352484E-01 -0.50190343678E-02  0.10202200097E+01  0.10199444615E+01 0.  0.
         14    1    1    2    0    0 -0.47655656906E-02  0.22677352484E-01  0.50190343678E-02  0.23709990258E-01  0.00000000000E+00 0.  1.
     999901    1    3    3    0    0 -0.35543514894E-01  0.72882600921E-01 -0.79711365728E-01  0.88731568046E+00  0.88000000000E+00 0. -1.
        -11    1    3    3    0    0  0.13405111965E-01 -0.53061601303E-01  0.19185428097E-01  0.57996313089E-01  0.51100000000E-03 0. -1.
         11    1    3    3    0    0  0.26903968620E-01 -0.42498352101E-01  0.55506903263E-01  0.74908016191E-01  0.51100000000E-03 0.  1.
</event>
<event>
 8    1  0.1010879E+005  0.1043930E+01  0.7957747E-01            NaN
         13   -1    0    0    0    0  0.00000000000E+00  0.00000000000E+00  0.74505805969E-08  0.10566000000E+00  0.10566000000E+00 0. -1.
     999900   -1    0    0    0    0 -0.00000000000E+00 -0.00000000000E+00 -0.74505805969E-08  0.93827000000E+00  0.93827000000E+00 0.  1.
     999902    2    1    2    0    0  0.18662780327E-02 -0.23225068254E-01 -0.15113385312E-02  0.10205811042E+01  0.10203139808E+01 0.  0.
     999903    2    3    3    0    0 -0.42907200390E-01  0.11508699472E+00  0.32728866037E-01  0.12799649607E+00  0.15029309211E-01 0.  0.
         14    1    1    2    0    0 -0.18662780327E-02  0.23225068254E-01  0.15113385312E-02  0.23348895760E-01  0.00000000000E+00 0.  1.
     999901    1    3    3    0    0  0.44773478423E-01 -0.13831206297E+00 -0.34240204568E-01  0.89258460817E+00  0.88000000000E+00 0.  1.
        -11    1    4    4    0    0 -0.27529864928E-01  0.54073214490E-01  0.19083919014E-01  0.63610243469E-01  0.51100000000E-03 0.  1.
         11    1    4    4    0    0 -0.15377335462E-01  0.61013780229E-01  0.13644947023E-01  0.64386252601E-01  0.51100000000E-03 0. -1.
</event>
<event>
 8    1  0.1010879E+005  0.1043930E+01  0.7957747E-01            NaN
         13   -1    0    0    0    0  0.00000000000E+00  0.00000000000E+00  0.74505805969E-08  0.10566000000E+00  0.10566000000E+00 0.  1.
     999900   -1    0    0    0    0 -0.00000000000E+00 -0.00000000000E+00 -0.74505805969E-08  0.93827000000E+00  0.93827000000E+00 0. -1.
     999902    2    1    2    0    0  0.72752687326E-02  0.47585633618E-02  0.20780273911E-01  0.10214046089E+01  0.10211561986E+01 0.  0.
     999903    2    3    3    0    0 -0.12651756918E-01 -0.11789369292E+00 -0.49749395310E-01  0.12988057862E+00  0.18302256308E-01 0.  0.
         14    1    1    2    0    0 -0.72752687326E-02 -0.47585633618E-02 -0.20780273911E-01  0.22525391100E-01  0.00000000000E+00 0. -1.
     999901    1    3    3    0    0  0.19927025651E-01  0.12265225628E+00  0.70529669221E-01  0.89152403028E+00  0.88000000000E+00 0.  1.
        -11    1    4    4    0    0  0.22805900928E-02 -0.62351447119E-01 -0.27985664768E-01  0.68383935267E-01  0.51100000000E-03 0.  1.
         11    1    4    4    0    0 -0.14932347011E-01 -0.55542245801E-01 -0.21763730542E-01  0.61496643355E-01  0.51100000000E-03 0. -1.
</event>
<event>
 8    1  0.1010879E+005  0.1043930E+01  0.7957747E-01            NaN
         13   -1    0    0    0    0  0.00000000000E+00  0.00000000000E+00  0.74505805969E-08  0.10566000000E+00  0.10566000000E+00 0.  1.
     999900   -1    0    0    0    0 -0.00000000000E+00 -0.00000000000E+00 -0.74505805969E-08  0.93827000000E+00  0.93827000000E+00 0.  1.
     999902    2    1    2    0    0  0.27325174595E-02 -0.21004131589E-01  0.10667487201E-01  0.10202142778E+01  0.10199385948E+01 0.  0.
     999903    2    3    3    0    0  0.75268414843E-01  0.27204092515E-01 -0.99298726825E-01  0.12910370246E+00  0.20053227118E-01 0.  0.
         14    1    1    2    0    0 -0.27325174595E-02  0.21004131589E-01 -0.10667487201E-01  0.23715722183E-01  0.00000000000E+00 0. -1.
     999901    1    3    3    0    0 -0.72535897384E-01 -0.48208224104E-01  0.10996621403E+00  0.89111057535E+00  0.88000000000E+00 0. -1.
        -11    1    4    4    0    0  0.10610327408E-01 -0.97960695525E-03 -0.63255603568E-02  0.12402117251E-01  0.51100000000E-03 0.  1.
         11    1    4    4    0    0  0.64658087435E-01  0.28183699470E-01 -0.92973166469E-01  0.11670158521E+00  0.51100000000E-03 0. -1.
</event>
<event>
 8    1  0.1010879E+005  0.1043930E+01  0.7957747E-01            NaN
         13   -1    0    0    0    0  0.00000000000E+00  0.00000000000E+00  0.74505805969E-08  0.10566000000E+00  0.10566000000E+00 0.  1.
     999900   -1    0    0    0    0 -0.00000000000E+00 -0.00000000000E+00 -0.74505805969E-08  0.93827000000E+00  0.93827000000E+00 0. -1.
     999902    2    1    2    0    0  0.17469572438E-01 -0.15612432526E-01 -0.32965167194E-02  0.10202698852E+01  0.10199955086E+01 0.  0.
     999903    2    3    3    0    0  0.89550223716E-02 -0.11096335678E+00 -0.69043909490E-01  0.13263988571E+00  0.20813910461E-01 0.  0.
         14    1    1    2    0    0 -0.17469572438E-01  0.15612432526E-01  0.32965167194E-02  0.23660114815E-01  0.00000000000E+00 0.  1.
     999901    1    3    3    0    0  0.85145500668E-02  0.95350924255E-01  0.65747392771E-01  0.88762999948E+00  0.88000000000E+00 0.  1.
        -11    1    4    4    0    0 -0.46599993242E-02 -0.66253929350E-01 -0.43180247294E-01  0.79221800190E-01  0.51100000000E-03 0. -1.
         11    1    4    4    0    0  0.13615021696E-01 -0.44709427431E-01 -0.25863662197E-01  0.53418085516E-01  0.51100000000E-03 0.  1.
</event>
<event>
 8    1  0.1010879E+005  0.1043930E+01  0.7957747E-01            NaN
         13   -1    0    0    0    0  0.00000000000E+00  0.00000000000E+00  0.74505805969E-08  0.10566000000E+00  0.10566000000E+00 0.  1.
     999900   -1    0    0    0    0 -0.00000000000E+00 -0.00000000000E+00 -0.74505805969E-08  0.93827000000E+00  0.93827000000E+00 0. -1.
     999902    2    1    2    0    0 -0.81143977162E-02  0.61224590337E-02 -0.20662545741E-01  0.10209024350E+01  0.10206426960E+01 0.  0.
     999903    2    3    3    0    0 -0.82113230237E-03 -0.12746676631E+00  0.16649630622E-01  0.13000879858E+00  0.19406873466E-01 0.  0.
         14    1    1    2    0    0  0.81143977162E-02 -0.61224590337E-02  0.20662545741E-01  0.23027565035E-01  0.00000000000E+00 0.  1.
     999901    1    3    3    0    0 -0.72932654138E-02  0.13358922534E+00 -0.37312176363E-01  0.89089363639E+00  0.88000000000E+00 0. -1.
        -11    1    4    4    0    0  0.73819363479E-02 -0.87357689062E-01  0.15634653231E-01  0.89053704725E-01  0.51100000000E-03 0. -1.
         11    1    4    4    0    0 -0.82030686503E-02 -0.40109077243E-01  0.10149773903E-02  0.40955093855E-01  0.51100000000E-03 0.  1.
</event>
<event>
 8    1  0.1010879E+005  0.1043930E+01  0.7957747E-01            NaN
         13   -1    0    0    0    0  0.00000000000E+00  0.00000000000E+00  0.74505805969E-08  0.10566000000E+00  0.10566000000E+00 0.  1.
     999900   -1    0    0    0    0 -0.00000000000E+00 -0.00000000000E+00 -0.74505805969E-08  0.93827000000E+00  0.93827000000E+00 0.  1.
     999902    2    1    2    0    0 -0.41717313552E-02 -0.23080398508E-01 -0.36833971528E-02  0.10201881477E+01  0.10199118497E+01 0.  0.
     999903    2    3    3    0    0  0.11734750650E+00  0.98020159949E-02 -0.51308940866E-01  0.12995426223E+00  0.19722729574E-01 0.  0.
         14    1    1    2    0    0  0.41717313552E-02  0.23080398508E-01  0.36833971528E-02  0.23741852337E-01  0.00000000000E+00 0. -1.
     999901    1    3    3    0    0 -0.12151923785E+00 -0.32882414503E-01  0.47625543713E-01  0.89023388543E+00  0.88000000000E+00 0. -1.
        -11    1    4    4    0    0  0.81309660536E-01  0.15375859451E-01 -0.32350074527E-01  0.88850809750E-01  0.51100000000E-03 0.  1.
         11    1    4    4    0    0  0.36037845960E-01 -0.55738434565E-02 -0.18958866339E-01  0.41103452485E-01  0.51100000000E-03 0. -1.
</event>
<event>
 8    1  0.1010879E+005  0.1043930E+01  0.7957747E-01            NaN
         13   -1    0    0    0    0  0.00000000000E+00  0.00000000000E+00  0.74505805969E-08  0.10566000000E+00  0.10566000000E+00 0. -1.
     999900   -1    0    0    0    0 -0.00000000000E+00 -0.00000000000E+00 -0.74505805969E-08  0.93827000000E+00  0.93827000000E+00 0. -1.
     999902    2    1    2    0    0 -0.17387079800E-01  0.15947464012E-01 -0.33041419489E-02  0.10201067024E+01  0.10198284831E+01 0.  0.
     999903    2    3    3    0    0 -0.50382912139E-01  0.10359993213E+00 -0.63497569953E-01  0.13309208650E+00  0.20252859734E-01 0.  0.
         14    1    1    2    0    0  0.17387079800E-01 -0.15947464012E-01  0.33041419489E-02  0.23823297556E-01  0.00000000000E+00 0. -1.
     999901    1    3    3    0    0  0.32995832339E-01 -0.87652468115E-01  0.60193428004E-01  0.88701461594E+00  0.88000000000E+00 0.  1.
        -11    1    4    4    0    0 -0.27551385918E-01  0.47074457130E-01 -0.40483451498E-01  0.67928302984E-01  0.51100000000E-03 0.  1.
         11    1    4    4    0    0 -0.22831526222E-01  0.56525474997E-01 -0.23014118455E-01  0.65163783519E-01  0.51100000000E-03 0. -1.
</event>
<event>
 8    1  0.1010879E+005  0.1043930E+01  0.7957747E-01            NaN
         13   -1    0    0    0    0  0.00000000000E+00  0.00000000000E+00  0.74505805969E-08  0.10566000000E+00  0.10566000000E+00 0.  1.
     999900   -1    0    0    0    0 -0.00000000000E+00 -0.00000000000E+00 -0.74505805969E-08  0.93827000000E+00  0.93827000000E+00 0.  1.
     999902    2    1    2    0    0 -0.25626207356E-03  0.21703231466E-01 -0.10444553509E-01  0.10198429781E+01  0.10195584904E+01 0.  0.
     999903    2    3    3    0    0 -0.21166559024E-01 -0.10404001191E+00  0.65392672486E-01  0.12743057980E+00  0.26267922561E-01 0.  0.
         14    1    1    2    0    0  0.25626207356E-03 -0.21703231466E-01  0.10444553509E-01  0.24087021907E-01  0.00000000000E+00 0.  1.
     999901    1    3    3    0    0  0.20910296951E-01  0.12574324337E+00 -0.75837225995E-01  0.89241239829E+00  0.88000000000E+00 0.  1.
        -11    1    4    4    0    0 -0.27434429773E-01 -0.85049986888E-01  0.53699029365E-01  0.10425926857E+00  0.51100000000E-03 0. -1.
         11    1    4    4    0    0  0.62678707481E-02 -0.18990025021E-01  0.11693643120E-01  0.23171311237E-01  0.51100000000E-03 0.  1.
</event>
<event>
 7    1  0.1010879E+005  0.1043930E+01  0.7957747E-01            NaN
         13   -1    0    0    0    0  0.00000000000E+00  0.00000000000E+00  0.74505805969E-08  0.10566000000E+00  0.10566000000E+00 0. -1.
     999900   -1    0    0    0    0 -0.00000000000E+00 -0.00000000000E+00 -0.74505805969E-08  0.93827000000E+00  0.93827000000E+00 0. -1.
     999902    2    1    2    0    0  0.23585469097E-02 -0.23110617527E-01 -0.40819068759E-02  0.10203434498E+01  0.10200707967E+01 0.  0.
         14    1    1    2    0    0 -0.23585469097E-02  0.23110617527E-01  0.40819068759E-02  0.23586550187E-01  0.00000000000E+00 0.  1.
     999901    1    3    3    0    0 -0.32229677570E-01  0.10386279904E+00 -0.25207907959E-01  0.88705223734E+00  0.88000000000E+00 0.  1.
        -11    1    3    3    0    0  0.19787758680E-01 -0.72625317674E-01  0.12464832605E-01  0.76299576235E-01  0.51100000000E-03 0.  1.
         11    1    3    3    0    0  0.14800465800E-01 -0.54348098891E-01  0.86611684788E-02  0.56991636241E-01  0.51100000000E-03 0. -1.
</event>
<event>
 8    1  0.1010879E+005  0.1043930E+01  0.7957747E-01            NaN
         13   -1    0    0    0    0  0.00000000000E+00  0.00000000000E+00  0.74505805969E-08  0.10566000000E+00  0.10566000000E+00 0.  1.
     999900   -1    0    0    0    0 -0.00000000000E+00 -0.00000000000E+00 -0.74505805969E-08  0.93827000000E+00  0.93827000000E+00 0. -1.
     999902    2    1    2    0    0  0.14905556195E-01  0.79295753174E-02 -0.16869093173E-01  0.10200632852E+01  0.10197840388E+01 0.  0.
     999903    2    3    3    0    0  0.10282878419E+00  0.33567599765E-01 -0.75147565033E-01  0.13339300681E+00  0.21118596656E-01 0.  0.
         14    1    1    2    0    0 -0.14905556195E-01 -0.79295753174E-02  0.16869093173E-01  0.23866714786E-01  0.00000000000E+00 0.  1.
     999901    1    3    3    0    0 -0.87923227993E-01 -0.25638024448E-01  0.58278471860E-01  0.88667027840E+00  0.88000000000E+00 0. -1.
        -11    1    4    4    0    0  0.91274306766E-01  0.28805117919E-01 -0.57153587484E-01  0.11147882121E+00  0.51100000000E-03 0.  1.
         11    1    4    4    0    0  0.11554477421E-01  0.47624818465E-02 -0.17993977549E-01  0.21914185608E-01  0.51100000000E-03 0. -1.
</event>
<event>
 8    1  0.1010879E+005  0.1043930E+01  0.7957747E-01            NaN
         13   -1    0    0    0    0  0.00000000000E+00  0.00000000000E+00  0.74505805969E-08  0.10566000000E+00  0.10566000000E+00 0. -1.
     999900   -1    0    0    0    0 -0.00000000000E+00 -0.00000000000E+00 -0.74505805969E-08  0.93827000000E+00  0.93827000000E+00 0. -1.
     999902    2    1    2    0    0  0.37520789279E-02 -0.19587259991E-01 -0.14348217077E-01  0.10193615205E+01  0.10190654048E+01 0.  0.
     999903    2    3    3    0    0  0.29271221847E-01  0.10580839925E+00 -0.66104674826E-01  0.12860115492E+00  0.10779945879E-01 0.  0.
         14    1    1    2    0    0 -0.37520789279E-02  0.19587259991E-01  0.14348217077E-01  0.24568479471E-01  0.00000000000E+00 0. -1.
     999901    1    3    3    0    0 -0.25519142920E-01 -0.12539565924E+00  0.51756457750E-01  0.89076036560E+00  0.88000000000E+00 0. -1.
        -11    1    4    4    0    0  0.23382420209E-01  0.65727474444E-01 -0.40331006995E-01  0.80583433272E-01  0.51100000000E-03 0.  1.
         11    1    4    4    0    0  0.58888016389E-02  0.40080924808E-01 -0.25773667831E-01  0.48017721652E-01  0.51100000000E-03 0. -1.
</event>
<event>
 8    1  0.1010879E+005  0.1043930E+01  0.7957747E-01            NaN
         13   -1    0    0    0    0  0.00000000000E+00  0.00000000000E+00  0.74505805969E-08  0.10566000000E+00  0.10566000000E+00 0. -1.
     999900   -1    0    0    0    0 -0.00000000000E+00 -0.00000000000E+00 -0.74505805969E-08  0.93827000000E+00  0.93827000000E+00 0.  1.
     999902    2    1    2    0    0  0.22048884088E-01 -0.40273281306E-02  0.72106561443E-02  0.10203850170E+01  0.10201133352E+01 0.  0.
     999903    2    3    3    0    0 -0.10058320270E-01 -0.11860808256E+00  0.51858842292E-01  0.13125449658E+00  0.19218644393E-01 0.  0.
         14    1    1    2    0    0 -0.22048884088E-01  0.40273281306E-02 -0.72106561443E-02  0.23544982977E-01  0.00000000000E+00 0.  1.
     999901    1    3    3    0    0  0.32107204357E-01  0.11458075443E+00 -0.44648186148E-01  0.88913052044E+00  0.88000000000E+00 0.  1.
        -11    1    4    4    0    0 -0.15492090092E-01 -0.72383911385E-01  0.31252548790E-01  0.80351841358E-01  0.51100000000E-03 0. -1.
         11    1    4    4    0    0  0.54337698222E-02 -0.46224171179E-01  0.20606293502E-01  0.50902655221E-01  0.51100000000E-03 0.  1.
</event>
<event>
 8    1  0.1010879E+005  0.1043930E+01  0.7957747E-01            NaN
         13   -1    0    0    0    0  0.00000000000E+00  0.00000000000E+00  0.74505805969E-08  0.10566000000E+00  0.10566000000E+00 0. -1.
     999900   -1    0    0    0    0 -0.00000000000E+00 -0.00000000000E+00 -0.74505805969E-08  0.93827000000E+00  0.93827000000E+00 0.  1.
     999902    2    1    2    0    0  0.12124723588E-01 -0.47202034503E-02 -0.29291800846E-01  0.10118784971E+01  0.10113707500E+01 0.  0.
     999903    2    3    3    0    0  0.36148492360E-01 -0.77609297923E-01  0.83779679306E-01  0.12133084469E+00  0.19293070866E-01 0.  0.
         14    1    1    2    0    0 -0.12124723588E-01  0.47202034503E-02  0.29291800846E-01  0.32051502921E-01  0.00000000000E+00 0.  1.
     999901    1    3    3    0    0 -0.24023768773E-01  0.72889094473E-01 -0.11307148015E+00  0.89054765239E+00  0.88000000000E+00 0.  1.
        -11    1    4    4    0    0  0.57794869462E-02 -0.14379713743E-01  0.60905601526E-02  0.16659372157E-01  0.51100000000E-03 0.  1.
         11    1    4    4    0    0  0.30369005414E-01 -0.63229584180E-01  0.77689119154E-01  0.10467147253E+00  0.51100000000E-03 0. -1.
</event>
<event>
 8    1  0.1010879E+005  0.1043930E+01  0.7957747E-01            NaN
         13   -1    0    0    0    0  0.00000000000E+00  0.00000000000E+00  0.74505805969E-08  0.10566000000E+00  0.10566000000E+00 0.  1.
     999900   -1    0    0    0    0 -0.00000000000E+00 -0.00000000000E+00 -0.74505805969E-08  0.93827000000E+00  0.93827000000E+00 0. -1.
     999902    2    1    2    0    0 -0.19531969346E-02 -0.15284355879E-01  0.17887392873E-01  0.10203209903E+01  0.10200478116E+01 0.  0.
     999903    2    3    3    0    0  0.11553866064E-01 -0.84909525366E-01  0.10094022410E+00  0.13356968488E+00  0.17573063432E-01 0.  0.
         14    1    1    2    0    0  0.19531969346E-02  0.15284355879E-01 -0.17887392873E-01  0.23609009651E-01  0.00000000000E+00 0.  1.
     999901    1    3    3    0    0 -0.13507062999E-01  0.69625169486E-01 -0.83052831227E-01  0.88675130547E+00  0.88000000000E+00 0. -1.
        -11    1    4    4    0    0 -0.16825107414E-02 -0.17007828669E-01  0.29669948780E-01  0.34244182864E-01  0.51100000000E-03 0.  1.
         11    1    4    4    0    0  0.13236376806E-01 -0.67901696697E-01  0.71270275320E-01  0.99325502015E-01  0.51100000000E-03 0. -1.
</event>
<event>
 8    1  0.1010879E+005  0.1043930E+01  0.7957747E-01            NaN
         13   -1    0    0    0    0  0.00000000000E+00  0.00000000000E+00  0.74505805969E-08  0.10566000000E+00  0.10566000000E+00 0. -1.
     999900   -1    0    0    0    0 -0.00000000000E+00 -0.00000000000E+00 -0.74505805969E-08  0.93827000000E+00  0.93827000000E+00 0.  1.
     999902    2    1    2    0    0  0.10459673489E-01  0.21319084584E-01 -0.44226670599E-02  0.10197749152E+01  0.10194887982E+01 0.  0.
     999903    2    3    3    0    0 -0.16651613444E-01  0.49458993536E-01  0.11782804759E+00  0.13046500659E+00  0.20351925515E-01 0.  0.
         14    1    1    2    0    0 -0.10459673489E-01 -0.21319084584E-01  0.44226670599E-02  0.24155084784E-01  0.00000000000E+00 0.  1.
     999901    1    3    3    0    0  0.27111286933E-01 -0.28139908952E-01 -0.12225071465E+00  0.88930990863E+00  0.88000000000E+00 0. -1.
        -11    1    4    4    0    0  0.22636336557E-02  0.70171794534E-02  0.32233857028E-01  0.33070341769E-01  0.51100000000E-03 0.  1.
         11    1    4    4    0    0 -0.18915247100E-01  0.42441814083E-01  0.85594190564E-01  0.97394664817E-01  0.51100000000E-03 0. -1.
</event>
<event>
 8    1  0.1010879E+005  0.1043930E+01  0.7957747E-01            NaN
         13   -1    0    0    0    0  0.00000000000E+00  0.00000000000E+00  0.74505805969E-08  0.10566000000E+00  0.10566000000E+00 0. -1.
     999900   -1    0    0    0    0 -0.00000000000E+00 -0.00000000000E+00 -0.74505805969E-08  0.93827000000E+00  0.93827000000E+00 0.  1.
     999902    2    1    2    0    0 -0.16183511114E-01  0.16007848984E-01 -0.69255862902E-02  0.10201367025E+01  0.10198591916E+01 0.  0.
     999903    2    3    3    0    0  0.10530236093E+00 -0.60837126382E-01  0.34188936981E-01  0.12752571702E+00  0.17440812130E-01 0.  0.
         14    1    1    2    0    0  0.16183511114E-01 -0.16007848984E-01  0.69255862902E-02  0.23793297513E-01  0.00000000000E+00 0.  1.
     999901    1    3    3    0    0 -0.12148587204E+00  0.76844975366E-01 -0.41114523272E-01  0.89261098546E+00  0.88000000000E+00 0.  1.
        -11    1    4    4    0    0  0.27563493428E-01 -0.25089456361E-01  0.11316544692E-01  0.38955773580E-01  0.51100000000E-03 0.  1.
         11    1    4    4    0    0  0.77738867498E-01 -0.35747670021E-01  0.22872392289E-01  0.88569943445E-01  0.51100000000E-03 0. -1.
</event>
<event>
 8    1  0.1010879E+005  0.1043930E+01  0.7957747E-01            NaN
         13   -1    0    0    0    0  0.00000000000E+00  0.00000000000E+00  0.74505805969E-08  0.10566000000E+00  0.10566000000E+00 0.  1.
     999900   -1    0    0    0    0 -0.00000000000E+00 -0.00000000000E+00 -0.74505805969E-08  0.93827000000E+00  0.93827000000E+00 0. -1.
     999902    2    1    2    0    0  0.73866405193E-02 -0.17895115160E-01  0.11340046850E-01  0.10214935505E+01  0.10212471197E+01 0.  0.
     999903    2    3    3    0    0  0.97740708461E-01  0.16616067129E-01 -0.83335440593E-01  0.13114624340E+00  0.20620420002E-01 0.  0.
         14    1    1    2    0    0 -0.73866405193E-02  0.17895115160E-01 -0.11340046850E-01  0.22436449526E-01  0.00000000000E+00 0. -1.
     999901    1    3    3    0    0 -0.90354067942E-01 -0.34511182289E-01  0.94675487443E-01  0.89034730708E+00  0.88000000000E+00 0.  1.
        -11    1    4    4    0    0  0.54407478679E-01  0.15865729644E-02 -0.36167734841E-01  0.65353325199E-01  0.51100000000E-03 0.  1.
         11    1    4    4    0    0  0.43333229782E-01  0.15029494164E-01 -0.47167705752E-01  0.65792918199E-01  0.51100000000E-03 0. -1.
</event>
<event>
 8    1  0.1010879E+005  0.1043930E+01  0.7957747E-01            NaN
         13   -1    0    0    0    0  0.00000000000E+00  0.00000000000E+00  0.74505805969E-08  0.10566000000E+00  0.10566000000E+00 0.  1.
     999900   -1    0    0    0    0 -0.00000000000E+00 -0.00000000000E+00 -0.74505805969E-08  0.93827000000E+00  0.93827000000E+00 0. -1.
     999902    2    1    2    0    0 -0.14592563889E-01 -0.16047231292E-02 -0.18495646347E-01  0.10203162965E+01  0.10200430079E+01 0.  0.
     999903    2    3    3    0    0 -0.37166409787E-02  0.81381351606E-01  0.97615490259E-01  0.12875206984E+00  0.20287280232E-01 0.  0.
         14    1    1    2    0    0  0.14592563889E-01  0.16047231292E-02  0.18495646347E-01  0.23613703458E-01  0.00000000000E+00 0.  1.
     999901    1    3    3    0    0 -0.10875922910E-01 -0.82986074735E-01 -0.11611113661E+00  0.89156422671E+00  0.88000000000E+00 0. -1.
        -11    1    4    4    0    0 -0.10508706402E-01  0.24493003607E-01  0.31455926226E-01  0.41231984571E-01  0.51100000000E-03 0.  1.
         11    1    4    4    0    0  0.67920654234E-02  0.56888347999E-01  0.66159564033E-01  0.87520085265E-01  0.51100000000E-03 0. -1.
</event>
<event>
 8    1  0.1010879E+005  0.1043930E+01  0.7957747E-01            NaN
         13   -1    0    0    0    0  0.00000000000E+00  0.00000000000E+00  0.74505805969E-08  0.10566000000E+00  0.10566000000E+00 0. -1.
     999900   -1    0    0    0    0 -0.00000000000E+00 -0.00000000000E+00 -0.74505805969E-08  0.93827000000E+00  0.93827000000E+00 0.  1.
     999902    2    1    2    0    0 -0.67059779080E-02 -0.23647461685E-01 -0.33531151781E-03  0.10193477906E+01  0.10190513398E+01 0.  0.
     999903    2    3    3    0    0 -0.23558841900E-01  0.12229506647E+00 -0.15375806035E-01  0.12704209356E+00  0.19803429214E-01 0.  0.
         14    1    1    2    0    0  0.67059779080E-02  0.23647461685E-01  0.33531151781E-03  0.24582209373E-01  0.00000000000E+00 0.  1.
     999901    1    3    3    0    0  0.16852863992E-01 -0.14594252816E+00  0.15040494517E-01  0.89230569707E+00  0.88000000000E+00 0. -1.
        -11    1    4    4    0    0 -0.16940342638E-02  0.14956154440E-01  0.44801526090E-02  0.15712708109E-01  0.51100000000E-03 0. -1.
         11    1    4    4    0    0 -0.21864807636E-01  0.10733891203E+00 -0.19855958644E-01  0.11132938545E+00  0.51100000000E-03 0.  1.
</event>
<event>
 8    1  0.1010879E+005  0.1043930E+01  0.7957747E-01            NaN
         13   -1    0    0    0    0  0.00000000000E+00  0.00000000000E+00  0.74505805969E-08  0.10566000000E+00  0.10566000000E+00 0. -1.
     999900   -1    0    0    0    0 -0.00000000000E+00 -0.00000000000E+00 -0.74505805969E-08  0.93827000000E+00  0.93827000000E+00 0.  1.
     999902    2    1    2    0    0 -0.14067185326E-01  0.18864302033E-01  0.75304154266E-03  0.10203861119E+01  0.10201144557E+01 0.  0.
     999903    2    3    3    0    0 -0.71904766391E-01 -0.86125682217E-01 -0.62330524806E-01  0.13002235541E+00  0.20803605835E-01 0.  0.
         14    1    1    2    0    0  0.14067185326E-01 -0.18864302033E-01 -0.75304154266E-03  0.23543888076E-01  0.00000000000E+00 0. -1.
     999901    1    3    3    0    0  0.57837581065E-01  0.10498998425E+00  0.63083566348E-01  0.89036375652E+00  0.88000000000E+00 0. -1.
        -11    1    4    4    0    0 -0.36418098322E-01 -0.58433970994E-01 -0.41762161347E-01  0.80530404773E-01  0.51100000000E-03 0. -1.
         11    1    4    4    0    0 -0.35486668070E-01 -0.27691711223E-01 -0.20568363459E-01  0.49491950634E-01  0.51100000000E-03 0.  1.
</event>
<event>
 7    1  0.1010879E+005  0.1043930E+01  0.7957747E-01            NaN
         13   -1    0    0    0    0  0.00000000000E+00  0.00000000000E+00  0.74505805969E-08  0.10566000000E+00  0.10566000000E+00 0. -1.
     999900   -1    0    0    0    0 -0.00000000000E+00 -0.00000000000E+00 -0.74505805969E-08  0.93827000000E+00  0.93827000000E+00 0. -1.
     999903    2    1    2    0    0 -0.11870726939E+00  0.12962939992E-02  0.69436564834E-02  0.12061587250E+00  0.20171220787E-01 0.  0.
         14    1    1    2    0    0  0.30844900947E-01 -0.23239365859E-01  0.95124376193E-03  0.38631346141E-01  0.00000000000E+00 0. -1.
     999901    1    1    2    0    0  0.87862368444E-01  0.21943071860E-01 -0.78949002453E-02  0.88468278136E+00  0.88000000000E+00 0.  1.
        -11    1    3    3    0    0 -0.10585787582E-01 -0.50254467031E-02 -0.21605012748E-02  0.11926562793E-01  0.51100000000E-03 0. -1.
         11    1    3    3    0    0 -0.10812148181E+00  0.63217407023E-02  0.91041577581E-02  0.10868930970E+00  0.51100000000E-03 0.  1.
</event>
<event>
 8    1  0.1010879E+005  0.1043930E+01  0.7957747E-01            NaN
         13   -1    0    0    0    0  0.00000000000E+00  0.00000000000E+00  0.74505805969E-08  0.10566000000E+00  0.10566000000E+00 0. -1.
     999900   -1    0    0    0    0 -0.00000000000E+00 -0.00000000000E+00 -0.74505805969E-08  0.93827000000E+00  0.93827000000E+00 0. -1.
     999902    2    1    2    0    0 -0.11798845116E-01  0.60824928779E-03 -0.19786544869E-01  0.10208846085E+01  0.10206244626E+01 0.  0.
     999903    2    3    3    0    0  0.82855352731E-01  0.64539299769E-01 -0.76983585176E-01  0.13166129691E+00  0.19439496570E-01 0.  0.
         14    1    1    2    0    0  0.11798845116E-01 -0.60824928779E-03  0.19786544869E-01  0.23045391538E-01  0.00000000000E+00 0. -1.
     999901    1    3    3    0    0 -0.94654197847E-01 -0.63931050481E-01  0.57197040307E-01  0.88922331155E+00  0.88000000000E+00 0. -1.
        -11    1    4    4    0    0  0.30041848493E-01  0.30998213383E-01 -0.22419471086E-01  0.48644585501E-01  0.51100000000E-03 0.  1.
         11    1    4    4    0    0  0.52813504238E-01  0.33541086386E-01 -0.54564114090E-01  0.83016711410E-01  0.51100000000E-03 0. -1.
</event>
<event>
 8    1  0.1010879E+005  0.1043930E+01  0.7957747E-01            NaN
         13   -1    0    0    0    0  0.00000000000E+00  0.00000000000E+00  0.74505805969E-08  0.10566000000E+00  0.10566000000E+00 0. -1.
     999900   -1    0    0    0    0 -0.00000000000E+00 -0.00000000000E+00 -0.74505805969E-08  0.93827000000E+00  0.93827000000E+00 0. -1.
     999902    2    1    2    0    0 -0.14109537720E-01 -0.53873553087E-02  0.18997377500E-01  0.10196606159E+01  0.10193717519E+01 0.  0.
     999903    2    3    3    0    0  0.10797570993E+00 -0.46694234806E-01  0.50914736490E-01  0.12970006410E+00  0.19765898338E-01 0.  0.
         14    1    1    2    0    0  0.14109537720E-01  0.53873553087E-02 -0.18997377500E-01  0.24269384083E-01  0.00000000000E+00 0.  1.
     999901    1    3    3    0    0 -0.12208524765E+00  0.41306879497E-01 -0.31917358989E-01  0.88996055182E+00  0.88000000000E+00 0.  1.
        -11    1    4    4    0    0  0.26839285037E-01 -0.54993707077E-02  0.52959520053E-02  0.27908753611E-01  0.51100000000E-03 0.  1.
         11    1    4    4    0    0  0.81136424890E-01 -0.41194864098E-01  0.45618784484E-01  0.10179131049E+00  0.51100000000E-03 0. -1.
</event>
<event>
 8    1  0.1010879E+005  0.1043930E+01  0.7957747E-01            NaN
         13   -1    0    0    0    0  0.00000000000E+00  0.00000000000E+00  0.74505805969E-08  0.10566000000E+00  0.10566000000E+00 0.  1.
     999900   -1    0    0    0    0 -0.00000000000E+00 -0.00000000000E+00 -0.74505805969E-08  0.93827000000E+00  0.93827000000E+00 0. -1.
     999902    2    1    2    0    0 -0.17539436033E-01 -0.92688559612E-02 -0.16662097638E-01  0.10180230703E+01  0.10176933736E+01 0.  0.
     999903    2    3    3    0    0 -0.10687397661E+00  0.40284266347E-01  0.58338561716E-01  0.12894418127E+00  0.13354591312E-01 0.  0.
         14    1    1    2    0    0  0.17539436033E-01  0.92688559612E-02  0.16662097638E-01  0.25906929669E-01  0.00000000000E+00 0.  1.
     999901    1    3    3    0    0  0.89334540576E-01 -0.49553122309E-01 -0.75000659354E-01  0.88907888906E+00  0.88000000000E+00 0. -1.
        -11    1    4    4    0    0 -0.37161019066E-01  0.14282901678E-01  0.13341953718E-01  0.41990611669E-01  0.51100000000E-03 0.  1.
         11    1    4    4    0    0 -0.69712957543E-01  0.26001364670E-01  0.44996607998E-01  0.86953569601E-01  0.51100000000E-03 0. -1.
</event>
<event>
 8    1  0.1010879E+005  0.1043930E+01  0.7957747E-01            NaN
         13   -1    0    0    0    0  0.00000000000E+00  0.00000000000E+00  0.74505805969E-08  0.10566000000E+00  0.10566000000E+00 0. -1.
     999900   -1    0    0    0    0 -0.00000000000E+00 -0.00000000000E+00 -0.74505805969E-08  0.93827000000E+00  0.93827000000E+00 0.  1.
     999902    2    1    2    0    0 -0.22293879558E-01  0.86800668570E-02 -0.13125552057E-02  0.10199699619E+01  0.10196885013E+01 0.  0.
     999903    2    3    3    0    0  0.10516804739E+00  0.30453637036E-01 -0.63586021067E-01  0.12834301312E+00  0.21000112872E-01 0.  0.
         14    1    1    2    0    0  0.22293879558E-01 -0.86800668570E-02  0.13125552057E-02  0.23960038138E-01  0.00000000000E+00 0. -1.
     999901    1    3    3    0    0 -0.12746192695E+00 -0.21773570179E-01  0.62273465862E-01  0.89162694875E+00  0.88000000000E+00 0. -1.
        -11    1    4    4    0    0  0.45731524588E-01  0.32178751771E-02 -0.21961919709E-01  0.50836149541E-01  0.51100000000E-03 0.  1.
         11    1    4    4    0    0  0.59436522800E-01  0.27235761859E-01 -0.41624101358E-01  0.77506863576E-01  0.51100000000E-03 0. -1.
</event>
<event>
 8    1  0.1010879E+005  0.1043930E+01  0.7957747E-01            NaN
         13   -1    0    0    0    0  0.00000000000E+00  0.00000000000E+00  0.74505805969E-08  0.10566000000E+00  0.10566000000E+00 0.  1.
     999900   -1    0    0    0    0 -0.00000000000E+00 -0.00000000000E+00 -0.74505805969E-08  0.93827000000E+00  0.93827000000E+00 0. -1.
     999902    2    1    2    0    0 -0.23774787833E-01  0.43588576420E-02 -0.29913699064E-02  0.10195745392E+01  0.10192835977E+01 0.  0.
     999903    2    3    3    0    0  0.80367961928E-01 -0.65704887722E-01 -0.71949382673E-01  0.12799737022E+00  0.20747808085E-01 0.  0.
         14    1    1    2    0    0  0.23774787833E-01 -0.43588576420E-02  0.29913699064E-02  0.24355460792E-01  0.00000000000E+00 0. -1.
     999901    1    3    3    0    0 -0.10414274976E+00  0.70063745364E-01  0.68958012767E-01  0.89157716899E+00  0.88000000000E+00 0. -1.
        -11    1    4    4    0    0  0.22722374037E-01 -0.25426803075E-01 -0.33690922870E-01  0.47939211522E-01  0.51100000000E-03 0.  1.
         11    1    4    4    0    0  0.57645587891E-01 -0.40278084647E-01 -0.38258459803E-01  0.80058158695E-01  0.51100000000E-03 0. -1.
</event>
<event>
 8    1  0.1010879E+005  0.1043930E+01  0.7957747E-01            NaN
         13   -1    0    0    0    0  0.00000000000E+00  0.00000000000E+00  0.74505805969E-08  0.10566000000E+00  0.10566000000E+00 0. -1.
     999900   -1    0    0    0    0 -0.00000000000E+00 -0.00000000000E+00 -0.74505805969E-08  0.93827000000E+00  0.93827000000E+00 0.  1.
     999902    2    1    2    0    0  0.22308526145E-01  0.64785711380E-02  0.36787973307E-02  0.10204103110E+01  0.10201392194E+01 0.  0.
     999903    2    3    3    0    0 -0.92379513193E-01 -0.82638823596E-01  0.26949431269E-01  0.12820137869E+00  0.18605698859E-01 0.  0.
         14    1    1    2    0    0 -0.22308526145E-01 -0.64785711380E-02 -0.36787973307E-02  0.23519689040E-01  0.00000000000E+00 0.  1.
     999901    1    3    3    0    0  0.11468803934E+00  0.89117394734E-01 -0.23270633938E-01  0.89220893227E+00  0.88000000000E+00 0.  1.
        -11    1    4    4    0    0 -0.27569356881E-01 -0.29306571782E-01  0.16987268602E-01  0.43678060901E-01  0.51100000000E-03 0. -1.
         11    1    4    4    0    0 -0.64810156312E-01 -0.53332251814E-01  0.99621626665E-02  0.84523317793E-01  0.51100000000E-03 0.  1.
</event>
<event>
 8    1  0.1010879E+005  0.1043930E+01  0.7957747E-01            NaN
         13   -1    0    0    0    0  0.00000000000E+00  0.00000000000E+00  0.74505805969E-08  0.10566000000E+00  0.10566000000E+00 0.  1.
     999900   -1    0    0    0    0 -0.00000000000E+00 -0.00000000000E+00 -0.74505805969E-08  0.93827000000E+00  0.93827000000E+00 0. -1.
     999902    2    1    2    0    0 -0.19693998629E-01  0.90576689918E-02 -0.46201243143E-02  0.10217660541E+01  0.10215256379E+01 0.  0.
     999903    2    3    3    0    0 -0.46781734824E-01 -0.21503418288E-01  0.12012368360E+00  0.13203084454E+00  0.18748782294E-01 0.  0.
         14    1    1    2    0    0  0.19693998629E-01 -0.90576689918E-02  0.46201243143E-02  0.22163945908E-01  0.00000000000E+00 0.  1.
     999901    1    3    3    0    0  0.27087736196E-01  0.30561087279E-01 -0.12474380791E+00  0.88973520955E+00  0.88000000000E+00 0. -1.
        -11    1    4    4    0    0 -0.13496037660E-01 -0.12785012942E-01  0.27290342756E-01  0.33024589584E-01  0.51100000000E-03 0.  1.
         11    1    4    4    0    0 -0.33285697164E-01 -0.87184053456E-02  0.92833340840E-01  0.99006254954E-01  0.51100000000E-03 0. -1.
</event>
<event>
 8    1  0.1010879E+005  0.1043930E+01  0.7957747E-01            NaN
         13   -1    0    0    0    0  0.00000000000E+00  0.00000000000E+00  0.74505805969E-08  0.10566000000E+00  0.10566000000E+00 0.  1.
     999900   -1    0    0    0    0 -0.00000000000E+00 -0.00000000000E+00 -0.74505805969E-08  0.93827000000E+00  0.93827000000E+00 0. -1.
     999902    2    1    2    0    0 -0.98751266677E-02 -0.13276353349E-01 -0.16558417775E-01  0.10205214357E+01  0.10202529293E+01 0.  0.
     999903    2    3    3    0    0 -0.12000109553E+00 -0.14312689546E-01  0.47554290001E-01  0.13134246476E+00  0.19603992957E-01 0.  0.
         14    1    1    2    0    0  0.98751266677E-02  0.13276353349E-01  0.16558417775E-01  0.23408564333E-01  0.00000000000E+00 0.  1.
     999901    1    3    3    0    0  0.11012596886E+00  0.10363361973E-02 -0.64112707775E-01  0.88917897091E+00  0.88000000000E+00 0. -1.
        -11    1    4    4    0    0 -0.32140353742E-01 -0.12534815476E-01  0.11740038664E-01  0.36444664445E-01  0.51100000000E-03 0. -1.
         11    1    4    4    0    0 -0.87860741790E-01 -0.17778740699E-02  0.35814251337E-01  0.94897800311E-01  0.51100000000E-03 0.  1.
</event>
<event>
 8    1  0.1010879E+005  0.1043930E+01  0.7957747E-01            NaN
         13   -1    0    0    0    0  0.00000000000E+00  0.00000000000E+00  0.74505805969E-08  0.10566000000E+00  0.10566000000E+00 0.  1.
     999900   -1    0    0    0    0 -0.00000000000E+00 -0.00000000000E+00 -0.74505805969E-08  0.93827000000E+00  0.93827000000E+00 0.  1.
     999902    2    1    2    0    0 -0.66265159302E-02 -0.19754965682E-01 -0.12756737052E-01  0.10194983868E+01  0.10192056009E+01 0.  0.
     999903    2    3    3    0    0  0.20125139355E-01 -0.46224228451E-01  0.11746177179E+00  0.12912030253E+00  0.18250593540E-01 0.  0.
         14    1    1    2    0    0  0.66265159302E-02  0.19754965682E-01  0.12756737052E-01  0.24431613182E-01  0.00000000000E+00 0.  1.
     999901    1    3    3    0    0 -0.26751655285E-01  0.26469262768E-01 -0.13021850884E+00  0.89037808429E+00  0.88000000000E+00 0.  1.
        -11    1    4    4    0    0 -0.46379330831E-04 -0.92718480954E-02  0.38844214160E-01  0.39938745760E-01  0.51100000000E-03 0.  1.
         11    1    4    4    0    0  0.20171518686E-01 -0.36952380355E-01  0.78617557627E-01  0.89181556772E-01  0.51100000000E-03 0. -1.
</event>
<event>
 8    1  0.1010879E+005  0.1043930E+01  0.7957747E-01            NaN
         13   -1    0    0    0    0  0.00000000000E+00  0.00000000000E+00  0.74505805969E-08  0.10566000000E+00  0.10566000000E+00 0. -1.
     999900   -1    0    0    0    0 -0.00000000000E+00 -0.00000000000E+00 -0.74505805969E-08  0.93827000000E+00  0.93827000000E+00 0.  1.
     999902    2    1    2    0    0  0.21525077617E-01  0.43989123200E-02  0.10736217497E-01  0.10194770705E+01  0.10191837673E+01 0.  0.
     999903    2    3    3    0    0  0.10669590429E+00  0.45555425334E-01 -0.56124866665E-01  0.13188576089E+00  0.28009650099E-01 0.  0.
         14    1    1    2    0    0 -0.21525077617E-01 -0.43989123200E-02 -0.10736217497E-01  0.24452929521E-01  0.00000000000E+00 0.  1.
     999901    1    3    3    0    0 -0.85170826671E-01 -0.41156513014E-01  0.66861084162E-01  0.88759130959E+00  0.88000000000E+00 0.  1.
        -11    1    4    4    0    0  0.63437883866E-01  0.24226234570E-01 -0.17590329678E-01  0.70149528651E-01  0.51100000000E-03 0. -1.
         11    1    4    4    0    0  0.43258020422E-01  0.21329190763E-01 -0.38534536987E-01  0.61736232241E-01  0.51100000000E-03 0.  1.
</event>
<event>
 8    1  0.1010879E+005  0.1043930E+01  0.7957747E-01            NaN
         13   -1    0    0    0    0  0.00000000000E+00  0.00000000000E+00  0.74505805969E-08  0.10566000000E+00  0.10566000000E+00 0. -1.
     999900   -1    0    0    0    0 -0.00000000000E+00 -0.00000000000E+00 -0.74505805969E-08  0.93827000000E+00  0.93827000000E+00 0.  1.
     999902    2    1    2    0    0 -0.51823127829E-02 -0.11296880859E-01  0.19911855453E-01  0.10204575082E+01  0.10201875162E+01 0.  0.
     999903    2    3    3    0    0 -0.88767621623E-01  0.70847485075E-01  0.63206272803E-01  0.13163322452E+00  0.20813843636E-01 0.  0.
         14    1    1    2    0    0  0.51823127829E-02  0.11296880859E-01 -0.19911855453E-01  0.23472491783E-01  0.00000000000E+00 0.  1.
     999901    1    3    3    0    0  0.83585308840E-01 -0.82144365934E-01 -0.43294417349E-01  0.88882428369E+00  0.88000000000E+00 0.  1.
        -11    1    4    4    0    0 -0.49594529290E-01  0.35906097004E-01  0.22605483516E-01  0.65269703106E-01  0.51100000000E-03 0.  1.
         11    1    4    4    0    0 -0.39173092333E-01  0.34941388071E-01  0.40600789287E-01  0.66363521418E-01  0.51100000000E-03 0. -1.
</event>
<event>
 8    1  0.1010879E+005  0.1043930E+01  0.7957747E-01            NaN
         13   -1    0    0    0    0  0.00000000000E+00  0.00000000000E+00  0.74505805969E-08  0.10566000000E+00  0.10566000000E+00 0.  1.
     999900   -1    0    0    0    0 -0.00000000000E+00 -0.00000000000E+00 -0.74505805969E-08  0.93827000000E+00  0.93827000000E+00 0. -1.
     999902    2    1    2    0    0  0.21811912104E-01  0.12181999543E-01  0.97560854079E-02  0.10171094514E+01  0.10167557693E+01 0.  0.
     999903    2    3    3    0    0  0.11329178469E+00 -0.52772119532E-01 -0.26469739286E-01  0.12924689730E+00  0.19600721568E-01 0.  0.
         14    1    1    2    0    0 -0.21811912104E-01 -0.12181999543E-01 -0.97560854079E-02  0.26820548558E-01  0.00000000000E+00 0.  1.
     999901    1    3    3    0    0 -0.91479872585E-01  0.64954119075E-01  0.36225824694E-01  0.88786255414E+00  0.88000000000E+00 0.  1.
        -11    1    4    4    0    0  0.87718455944E-02 -0.37526964545E-02 -0.77315968049E-02  0.12290920062E-01  0.51100000000E-03 0.  1.
         11    1    4    4    0    0  0.10451993909E+00 -0.49019423077E-01 -0.18738142481E-01  0.11695597724E+00  0.51100000000E-03 0. -1.
</event>
<event>
 8    1  0.1010879E+005  0.1043930E+01  0.7957747E-01            NaN
         13   -1    0    0    0    0  0.00000000000E+00  0.00000000000E+00  0.74505805969E-08  0.10566000000E+00  0.10566000000E+00 0. -1.
     999900   -1    0    0    0    0 -0.00000000000E+00 -0.00000000000E+00 -0.74505805969E-08  0.93827000000E+00  0.93827000000E+00 0.  1.
     999902    2    1    2    0    0 -0.23437967529E-02 -0.22402683530E-01  0.56210153988E-02  0.10207142849E+01  0.10204502350E+01 0.  0.
     999903    2    3    3    0    0 -0.10286917703E+00 -0.83034652986E-02 -0.77587712437E-01  0.13097958715E+00  0.22017811152E-01 0.  0.
         14    1    1    2    0    0  0.23437967529E-02  0.22402683530E-01 -0.56210153988E-02  0.23215715080E-01  0.00000000000E+00 0.  1.
     999901    1    3    3    0    0  0.10052538028E+00 -0.14099218231E-01  0.83208727836E-01  0.88973469777E+00  0.88000000000E+00 0.  1.
        -11    1    4    4    0    0 -0.69140262189E-01  0.30394089026E-02 -0.43785942972E-01  0.81896787391E-01  0.51100000000E-03 0. -1.
         11    1    4    4    0    0 -0.33728914846E-01 -0.11342874201E-01 -0.33801769465E-01  0.49082799755E-01  0.51100000000E-03 0.  1.
</event>
<event>
 8    1  0.1010879E+005  0.1043930E+01  0.7957747E-01            NaN
         13   -1    0    0    0    0  0.00000000000E+00  0.00000000000E+00  0.74505805969E-08  0.10566000000E+00  0.10566000000E+00 0. -1.
     999900   -1    0    0    0    0 -0.00000000000E+00 -0.00000000000E+00 -0.74505805969E-08  0.93827000000E+00  0.93827000000E+00 0. -1.
     999902    2    1    2    0    0 -0.19824408844E-01 -0.89316695046E-02  0.76062346275E-02  0.10208944468E+01  0.10206345256E+01 0.  0.
     999903    2    3    3    0    0 -0.30250045330E-02 -0.81534545346E-01  0.10256901984E+00  0.13265386669E+00  0.20484427736E-01 0.  0.
         14    1    1    2    0    0  0.19824408844E-01  0.89316695046E-02 -0.76062346275E-02  0.23035553203E-01  0.00000000000E+00 0.  1.
     999901    1    3    3    0    0 -0.16799404311E-01  0.72602875841E-01 -0.94962785217E-01  0.88824058010E+00  0.88000000000E+00 0. -1.
        -11    1    4    4    0    0 -0.38156861674E-02 -0.18315621778E-02  0.71298809425E-02  0.83072500982E-02  0.51100000000E-03 0. -1.
         11    1    4    4    0    0  0.79068163438E-03 -0.79702983168E-01  0.95439138902E-01  0.12434661660E+00  0.51100000000E-03 0.  1.
</event>
<event>
 8    1  0.1010879E+005  0.1043930E+01  0.7957747E-01            NaN
         13   -1    0    0    0    0  0.00000000000E+00  0.00000000000E+00  0.74505805969E-08  0.10566000000E+00  0.10566000000E+00 0. -1.
     999900   -1    0    0    0    0 -0.00000000000E+00 -0.00000000000E+00 -0.74505805969E-08  0.93827000000E+00  0.93827000000E+00 0. -1.
     999902    2    1    2    0    0 -0.94947371276E-02 -0.43960626681E-02 -0.21165563668E-01  0.10203194836E+01  0.10200462696E+01 0.  0.
     999903    2    3    3    0    0  0.65360775743E-01  0.10350406898E+00 -0.40171359828E-01  0.13037172865E+00  0.19948087132E-01 0.  0.
         14    1    1    2    0    0  0.94947371276E-02  0.43960626681E-02  0.21165563668E-01  0.23610516417E-01  0.00000000000E+00 0. -1.
     999901    1    3    3    0    0 -0.74855512871E-01 -0.10790013165E+00  0.19005796160E-01  0.88994775493E+00  0.88000000000E+00 0.  1.
        -11    1    4    4    0    0  0.62286902194E-01  0.92895234966E-01 -0.41366588291E-01  0.11925031913E+00  0.51100000000E-03 0.  1.
         11    1    4    4    0    0  0.30738735490E-02  0.10608834014E-01  0.11952284623E-02  0.11121409525E-01  0.51100000000E-03 0. -1.
</event>
<event>
 8    1  0.1010879E+005  0.1043930E+01  0.7957747E-01            NaN
         13   -1    0    0    0    0  0.00000000000E+00  0.00000000000E+00  0.74505805969E-08  0.10566000000E+00  0.10566000000E+00 0.  1.
     999900   -1    0    0    0    0 -0.00000000000E+00 -0.00000000000E+00 -0.74505805969E-08  0.93827000000E+00  0.93827000000E+00 0.  1.
     999902    2    1    2    0    0  0.24567802572E-03 -0.14274646125E-01 -0.18319891389E-01  0.10207040598E+01  0.10204397745E+01 0.  0.
     999903    2    3    3    0    0  0.10332928886E+00  0.76303156175E-01 -0.34189987819E-02  0.12994449304E+00  0.19358929244E-01 0.  0.
         14    1    1    2    0    0 -0.24567802572E-03  0.14274646125E-01  0.18319891389E-01  0.23225940244E-01  0.00000000000E+00 0.  1.
     999901    1    3    3    0    0 -0.10308361083E+00 -0.90577802300E-01 -0.14900892608E-01  0.89075956671E+00  0.88000000000E+00 0.  1.
        -11    1    4    4    0    0  0.54940046262E-01  0.28637197037E-01 -0.26702955400E-02  0.62015234715E-01  0.51100000000E-03 0.  1.
         11    1    4    4    0    0  0.48389242594E-01  0.47665959139E-01 -0.74870324193E-03  0.67929258328E-01  0.51100000000E-03 0. -1.
</event>
<event>
 8    1  0.1010879E+005  0.1043930E+01  0.7957747E-01            NaN
         13   -1    0    0    0    0  0.00000000000E+00  0.00000000000E+00  0.74505805969E-08  0.10566000000E+00  0.10566000000E+00 0.  1.
     999900   -1    0    0    0    0 -0.00000000000E+00 -0.00000000000E+00 -0.74505805969E-08  0.93827000000E+00  0.93827000000E+00 0.  1.
     999902    2    1    2    0    0  0.12958976977E-01 -0.35349592889E-02  0.20208825557E-01  0.10196642288E+01  0.10193754519E+01 0.  0.
     999903    2    3    3    0    0  0.52725384191E-01  0.11391898227E+00  0.32036907287E-01  0.13089164875E+00  0.18675107080E-01 0.  0.
         14    1    1    2    0    0 -0.12958976977E-01  0.35349592889E-02 -0.20208825557E-01  0.24265771199E-01  0.00000000000E+00 0. -1.
     999901    1    3    3    0    0 -0.39766407214E-01 -0.11745394156E+00 -0.11828081729E-01  0.88877258005E+00  0.88000000000E+00 0. -1.
        -11    1    4    4    0    0  0.46146771689E-01  0.88333906691E-01  0.19116671695E-01  0.10147961306E+00  0.51100000000E-03 0.  1.
         11    1    4    4    0    0  0.65786125021E-02  0.25585075580E-01  0.12920235591E-01  0.29412035694E-01  0.51100000000E-03 0. -1.
</event>
<event>
 8    1  0.1010879E+005  0.1043930E+01  0.7957747E-01            NaN
         13   -1    0    0    0    0  0.00000000000E+00  0.00000000000E+00  0.74505805969E-08  0.10566000000E+00  0.10566000000E+00 0.  1.
     999900   -1    0    0    0    0 -0.00000000000E+00 -0.00000000000E+00 -0.74505805969E-08  0.93827000000E+00  0.93827000000E+00 0. -1.
     999902    2    1    2    0    0  0.11073757961E-01  0.32279396396E-01 -0.35095370747E-02  0.10096239598E+01  0.10090409485E+01 0.  0.
     999903    2    3    3    0    0 -0.71886468454E-01  0.74098228387E-01  0.62255896810E-01  0.12229295828E+00  0.20531905922E-01 0.  0.
         14    1    1    2    0    0 -0.11073757961E-01 -0.32279396396E-01  0.35095370747E-02  0.34306040248E-01  0.00000000000E+00 0.  1.
     999901    1    3    3    0    0  0.82960226415E-01 -0.41818831991E-01 -0.65765433885E-01  0.88733100147E+00  0.88000000000E+00 0. -1.
        -11    1    4    4    0    0 -0.34754174407E-01  0.44911597790E-01  0.43230247441E-01  0.71372401316E-01  0.51100000000E-03 0.  1.
         11    1    4    4    0    0 -0.37132294047E-01  0.29186630597E-01  0.19025649369E-01  0.50920556966E-01  0.51100000000E-03 0. -1.
</event>
<event>
 8    1  0.1010879E+005  0.1043930E+01  0.7957747E-01            NaN
         13   -1    0    0    0    0  0.00000000000E+00  0.00000000000E+00  0.74505805969E-08  0.10566000000E+00  0.10566000000E+00 0. -1.
     999900   -1    0    0    0    0 -0.00000000000E+00 -0.00000000000E+00 -0.74505805969E-08  0.93827000000E+00  0.93827000000E+00 0.  1.
     999902    2    1    2    0    0  0.22154426852E-02  0.97241781830E-02 -0.16780175587E-01  0.10244096998E+01  0.10242237016E+01 0.  0.
     999903    2    3    3    0    0 -0.83301438496E-01  0.91129792085E-02  0.10059203233E+00  0.13250738130E+00  0.20427263300E-01 0.  0.
         14    1    1    2    0    0 -0.22154426852E-02 -0.97241781830E-02  0.16780175587E-01  0.19520300212E-01  0.00000000000E+00 0. -1.
     999901    1    3    3    0    0  0.85516881181E-01  0.61119897451E-03 -0.11737220792E+00  0.89190231849E+00  0.88000000000E+00 0.  1.
        -11    1    4    4    0    0 -0.79533954212E-01  0.39086097885E-02  0.95121350868E-01  0.12405345467E+00  0.51100000000E-03 0.  1.
         11    1    4    4    0    0 -0.37674842836E-02  0.52043694199E-02  0.54706814609E-02  0.84539266340E-02  0.51100000000E-03 0. -1.
</event>
<event>
 8    1  0.1010879E+005  0.1043930E+01  0.7957747E-01            NaN
         13   -1    0    0    0    0  0.00000000000E+00  0.00000000000E+00  0.74505805969E-08  0.10566000000E+00  0.10566000000E+00 0.  1.
     999900   -1    0    0    0    0 -0.00000000000E+00 -0.00000000000E+00 -0.74505805969E-08  0.93827000000E+00  0.93827000000E+00 0.  1.
     999902    2    1    2    0    0 -0.12231352578E-01 -0.15493401408E-01  0.12253763078E-01  0.10206962706E+01  0.10204318060E+01 0.  0.
     999903    2    3    3    0    0  0.95011289058E-01 -0.50798286625E-01 -0.69364348023E-01  0.12973671192E+00  0.20312328074E-01 0.  0.
         14    1    1    2    0    0  0.12231352578E-01  0.15493401408E-01 -0.12253763078E-01  0.23233729418E-01  0.00000000000E+00 0. -1.
     999901    1    3    3    0    0 -0.10724264164E+00  0.35304885217E-01  0.81618111100E-01  0.89095955866E+00  0.88000000000E+00 0. -1.
        -11    1    4    4    0    0  0.26345998854E-01 -0.18967754137E-01 -0.30967990644E-01  0.44868306388E-01  0.51100000000E-03 0. -1.
         11    1    4    4    0    0  0.68665290204E-01 -0.31830532488E-01 -0.38396357379E-01  0.84868405536E-01  0.51100000000E-03 0.  1.
</event>
<event>
 8    1  0.1010879E+005  0.1043930E+01  0.7957747E-01            NaN
         13   -1    0    0    0    0  0.00000000000E+00  0.00000000000E+00  0.74505805969E-08  0.10566000000E+00  0.10566000000E+00 0. -1.
     999900   -1    0    0    0    0 -0.00000000000E+00 -0.00000000000E+00 -0.74505805969E-08  0.93827000000E+00  0.93827000000E+00 0. -1.
     999902    2    1    2    0    0  0.18065144345E-01 -0.90945574305E-02 -0.40738056865E-02  0.10232985602E+01  0.10230905566E+01 0.  0.
     999903    2    3    3    0    0  0.45079199131E-01 -0.29773684841E-01  0.12062996204E+00  0.13385580480E+00  0.21146683769E-01 0.  0.
         14    1    1    2    0    0 -0.18065144345E-01  0.90945574305E-02  0.40738056865E-02  0.20631439791E-01  0.00000000000E+00 0.  1.
     999901    1    3    3    0    0 -0.27014054786E-01  0.20679127410E-01 -0.12470376772E+00  0.88944275541E+00  0.88000000000E+00 0. -1.
        -11    1    4    4    0    0  0.10821832680E-01 -0.42363325486E-02  0.10291099424E-01  0.15531465623E-01  0.51100000000E-03 0. -1.
         11    1    4    4    0    0  0.34257366450E-01 -0.25537352292E-01  0.11033886261E+00  0.11832433918E+00  0.51100000000E-03 0.  1.
</event>
<event>
 8    1  0.1010879E+005  0.1043930E+01  0.7957747E-01            NaN
         13   -1    0    0    0    0  0.00000000000E+00  0.00000000000E+00  0.74505805969E-08  0.10566000000E+00  0.10566000000E+00 0. -1.
     999900   -1    0    0    0    0 -0.00000000000E+00 -0.00000000000E+00 -0.74505805969E-08  0.93827000000E+00  0.93827000000E+00 0.  1.
     999902    2    1    2    0    0  0.42489527750E-02 -0.13964528567E-01 -0.18931943527E-01  0.10200243491E+01  0.10197441800E+01 0.  0.
     999903    2    3    3    0    0  0.72074884760E-01 -0.48768916937E-01  0.93832889183E-01  0.12955952108E+00  0.20195596991E-01 0.  0.
         14    1    1    2    0    0 -0.42489527750E-02  0.13964528567E-01  0.18931943527E-01  0.23905650869E-01  0.00000000000E+00 0. -1.
     999901    1    3    3    0    0 -0.67825931985E-01  0.34804388369E-01 -0.11276483271E+00  0.89046482805E+00  0.88000000000E+00 0. -1.
        -11    1    4    4    0    0  0.21929317238E-01 -0.24451131033E-01  0.26875008520E-01  0.42441488749E-01  0.51100000000E-03 0. -1.
         11    1    4    4    0    0  0.50145567521E-01 -0.24317785904E-01  0.66957880663E-01  0.87118032331E-01  0.51100000000E-03 0.  1.
</event>
<event>
 8    1  0.1010879E+005  0.1043930E+01  0.7957747E-01            NaN
         13   -1    0    0    0    0  0.00000000000E+00  0.00000000000E+00  0.74505805969E-08  0.10566000000E+00  0.10566000000E+00 0. -1.
     999900   -1    0    0    0    0 -0.00000000000E+00 -0.00000000000E+00 -0.74505805969E-08  0.93827000000E+00  0.93827000000E+00 0. -1.
     999902    2    1    2    0    0 -0.77717772068E-02  0.21066543088E-01 -0.86512207872E-02  0.10198666798E+01  0.10195827584E+01 0.  0.
     999903    2    3    3    0    0  0.67648272261E-03 -0.11813439221E+00  0.43221406468E-01  0.12737631965E+00  0.20011111355E-01 0.  0.
         14    1    1    2    0    0  0.77717772068E-02 -0.21066543088E-01  0.86512207872E-02  0.24063320214E-01  0.00000000000E+00 0. -1.
     999901    1    3    3    0    0 -0.84482599295E-02  0.13920093530E+00 -0.51872627255E-01  0.89249036014E+00  0.88000000000E+00 0.  1.
        -11    1    4    4    0    0  0.86672401595E-02 -0.58710976011E-01  0.27366532518E-01  0.65355091456E-01  0.51100000000E-03 0. -1.
         11    1    4    4    0    0 -0.79907574369E-02 -0.59423416200E-01  0.15854873950E-01  0.62021228191E-01  0.51100000000E-03 0.  1.
</event>
<event>
 8    1  0.1010879E+005  0.1043930E+01  0.7957747E-01            NaN
         13   -1    0    0    0    0  0.00000000000E+00  0.00000000000E+00  0.74505805969E-08  0.10566000000E+00  0.10566000000E+00 0. -1.
     999900   -1    0    0    0    0 -0.00000000000E+00 -0.00000000000E+00 -0.74505805969E-08  0.93827000000E+00  0.93827000000E+00 0. -1.
     999902    2    1    2    0    0  0.91569778391E-02  0.13603081445E-01  0.14298374964E-01  0.10221736769E+01  0.10219421159E+01 0.  0.
     999903    2    3    3    0    0  0.18824227893E-01 -0.72358273442E-01  0.10820310511E+00  0.13296003070E+00  0.19503500124E-01 0.  0.
         14    1    1    2    0    0 -0.91569778391E-02 -0.13603081445E-01 -0.14298374964E-01  0.21756323093E-01  0.00000000000E+00 0.  1.
     999901    1    3    3    0    0 -0.96672500537E-02  0.85961354887E-01 -0.93904730145E-01  0.88921364621E+00  0.88000000000E+00 0. -1.
        -11    1    4    4    0    0  0.73754706790E-02 -0.51739129478E-01  0.85567957555E-01  0.10026700139E+00  0.51100000000E-03 0. -1.
         11    1    4    4    0    0  0.11448757214E-01 -0.20619143964E-01  0.22635147554E-01  0.32693029309E-01  0.51100000000E-03 0.  1.
</event>
<event>
 8    1  0.1010879E+005  0.1043930E+01  0.7957747E-01            NaN
         13   -1    0    0    0    0  0.00000000000E+00  0.00000000000E+00  0.74505805969E-08  0.10566000000E+00  0.10566000000E+00 0. -1.
     999900   -1    0    0    0    0 -0.00000000000E+00 -0.00000000000E+00 -0.74505805969E-08  0.93827000000E+00  0.93827000000E+00 0. -1.
     999902    2    1    2    0    0  0.12209481142E-01  0.13251020979E-01  0.17189471308E-01  0.10190274116E+01  0.10187230863E+01 0.  0.
     999903    2    3    3    0    0 -0.36042021806E-01 -0.92222392664E-01  0.80330783721E-01  0.12917367423E+00  0.20707637628E-01 0.  0.
         14    1    1    2    0    0 -0.12209481142E-01 -0.13251020979E-01 -0.17189471308E-01  0.24902588432E-01  0.00000000000E+00 0.  1.
     999901    1    3    3    0    0  0.48251502949E-01  0.10547341364E+00 -0.63141312412E-01  0.88985373734E+00  0.88000000000E+00 0. -1.
        -11    1    4    4    0    0 -0.40244417613E-02 -0.12763036095E-01  0.29107889153E-02  0.13704927397E-01  0.51100000000E-03 0.  1.
         11    1    4    4    0    0 -0.32017580045E-01 -0.79459356569E-01  0.77419994805E-01  0.11546874683E+00  0.51100000000E-03 0. -1.
</event>
<event>
 8    1  0.1010879E+005  0.1043930E+01  0.7957747E-01            NaN
         13   -1    0    0    0    0  0.00000000000E+00  0.00000000000E+00  0.74505805969E-08  0.10566000000E+00  0.10566000000E+00 0. -1.
     999900   -1    0    0    0    0 -0.00000000000E+00 -0.00000000000E+00 -0.74505805969E-08  0.93827000000E+00  0.93827000000E+00 0. -1.
     999902    2    1    2    0    0 -0.54892477162E-02  0.14579771724E-01  0.16747215169E-01  0.10210570728E+01  0.10208008499E+01 0.  0.
     999903    2    3    3    0    0 -0.83422404927E-01  0.69608354870E-01 -0.71253568615E-01  0.13153705619E+00  0.20501351151E-01 0.  0.
         14    1    1    2    0    0  0.54892477162E-02 -0.14579771724E-01 -0.16747215169E-01  0.22872927227E-01  0.00000000000E+00 0.  1.
     999901    1    3    3    0    0  0.77933157211E-01 -0.55028583147E-01  0.88000783785E-01  0.88952001658E+00  0.88000000000E+00 0.  1.
        -11    1    4    4    0    0 -0.57582504039E-01  0.57224786667E-01 -0.45824582555E-01  0.93223250682E-01  0.51100000000E-03 0. -1.
         11    1    4    4    0    0 -0.25839900888E-01  0.12383568203E-01 -0.25428986061E-01  0.38313805507E-01  0.51100000000E-03 0.  1.
</event>
<event>
 8    1  0.1010879E+005  0.1043930E+01  0.7957747E-01            NaN
         13   -1    0    0    0    0  0.00000000000E+00  0.00000000000E+00  0.74505805969E-08  0.10566000000E+00  0.10566000000E+00 0.  1.
     999900   -1    0    0    0    0 -0.00000000000E+00 -0.00000000000E+00 -0.74505805969E-08  0.93827000000E+00  0.93827000000E+00 0.  1.
     999902    2    1    2    0    0 -0.65477408369E-02  0.27708105120E-01  0.24528495421E-02  0.10153532880E+01  0.10149510682E+01 0.  0.
     999903    2    3    3    0    0 -0.11079242574E+00 -0.40016287644E-02  0.58685129877E-01  0.12685200440E+00  0.18881523231E-01 0.  0.
         14    1    1    2    0    0  0.65477408369E-02 -0.27708105120E-01 -0.24528495421E-02  0.28576712027E-01  0.00000000000E+00 0.  1.
     999901    1    3    3    0    0  0.10424468490E+00  0.31709733884E-01 -0.56232280335E-01  0.88850128357E+00  0.88000000000E+00 0.  1.
        -11    1    4    4    0    0 -0.32128642107E-01 -0.38739181160E-02  0.82271995390E-02  0.33394682488E-01  0.51100000000E-03 0. -1.
         11    1    4    4    0    0 -0.78663783629E-01 -0.12771064839E-03  0.50457930338E-01  0.93457321916E-01  0.51100000000E-03 0.  1.
</event>
<event>
 8    1  0.1010879E+005  0.1043930E+01  0.7957747E-01            NaN
         13   -1    0    0    0    0  0.00000000000E+00  0.00000000000E+00  0.74505805969E-08  0.10566000000E+00  0.10566000000E+00 0. -1.
     999900   -1    0    0    0    0 -0.00000000000E+00 -0.00000000000E+00 -0.74505805969E-08  0.93827000000E+00  0.93827000000E+00 0.  1.
     999902    2    1    2    0    0  0.15950354078E-01 -0.76672170185E-02  0.18436255796E-01  0.10183742660E+01  0.10180535596E+01 0.  0.
     999903    2    3    3    0    0  0.45082628116E-01  0.76483215305E-01  0.93883427958E-01  0.13066808689E+00  0.19440301087E-01 0.  0.
         14    1    1    2    0    0 -0.15950354078E-01  0.76672170185E-02 -0.18436255796E-01  0.25555733991E-01  0.00000000000E+00 0.  1.
     999901    1    3    3    0    0 -0.29132274037E-01 -0.84150432324E-01 -0.75447172162E-01  0.88770617911E+00  0.88000000000E+00 0.  1.
        -11    1    4    4    0    0  0.22631017842E-01  0.41825562629E-01  0.36408169239E-01  0.59894545379E-01  0.51100000000E-03 0. -1.
         11    1    4    4    0    0  0.22451610273E-01  0.34657652676E-01  0.57475258719E-01  0.70773541516E-01  0.51100000000E-03 0.  1.
</event>
<event>
 8    1  0.1010879E+005  0.1043930E+01  0.7957747E-01            NaN
         13   -1    0    0    0    0  0.00000000000E+00  0.00000000000E+00  0.74505805969E-08  0.10566000000E+00  0.10566000000E+00 0.  1.
     999900   -1    0    0    0    0 -0.00000000000E+00 -0.00000000000E+00 -0.74505805969E-08  0.93827000000E+00  0.93827000000E+00 0. -1.
     999902    2    1    2    0    0 -0.28788867650E-02 -0.12333768143E-01 -0.18174219369E-01  0.10217779781E+01  0.10215378233E+01 0.  0.
     999903    2    3    3    0    0  0.51953561228E-02 -0.13166255527E+00 -0.97681073886E-02  0.13364779868E+00  0.20107162502E-01 0.  0.
         14    1    1    2    0    0  0.28788867650E-02  0.12333768143E-01  0.18174219369E-01  0.22152021923E-01  0.00000000000E+00 0.  1.
     999901    1    3    3    0    0 -0.80742428878E-02  0.11932878713E+00 -0.84061119801E-02  0.88813017940E+00  0.88000000000E+00 0.  1.
        -11    1    4    4    0    0  0.12185471721E-01 -0.83378109374E-01 -0.10000755237E-01  0.84856767970E-01  0.51100000000E-03 0.  1.
         11    1    4    4    0    0 -0.69901155984E-02 -0.48284445899E-01  0.23264784820E-03  0.48791030711E-01  0.51100000000E-03 0. -1.
</event>
<event>
 8    1  0.1010879E+005  0.1043930E+01  0.7957747E-01            NaN
         13   -1    0    0    0    0  0.00000000000E+00  0.00000000000E+00  0.74505805969E-08  0.10566000000E+00  0.10566000000E+00 0.  1.
     999900   -1    0    0    0    0 -0.00000000000E+00 -0.00000000000E+00 -0.74505805969E-08  0.93827000000E+00  0.93827000000E+00 0. -1.
     999902    2    1    2    0    0  0.23095540338E-01  0.41864508454E-03 -0.45027113065E-02  0.10203959044E+01  0.10201244767E+01 0.  0.
     999903    2    3    3    0    0  0.41921798380E-01 -0.61893507602E-02  0.12243638008E+00  0.13106378053E+00  0.19781358820E-01 0.  0.
         14    1    1    2    0    0 -0.23095540338E-01 -0.41864508454E-03  0.45027113065E-02  0.23534095613E-01  0.00000000000E+00 0.  1.
     999901    1    3    3    0    0 -0.18826258042E-01  0.66079958448E-02 -0.12693909139E+00  0.88933212386E+00  0.88000000000E+00 0. -1.
        -11    1    4    4    0    0  0.74885957508E-02 -0.95682360580E-02  0.31253680558E-01  0.33536306848E-01  0.51100000000E-03 0.  1.
         11    1    4    4    0    0  0.34433202629E-01  0.33788852978E-02  0.91182699525E-01  0.97527473682E-01  0.51100000000E-03 0. -1.
</event>
<event>
 8    1  0.1010879E+005  0.1043930E+01  0.7957747E-01            NaN
         13   -1    0    0    0    0  0.00000000000E+00  0.00000000000E+00  0.74505805969E-08  0.10566000000E+00  0.10566000000E+00 0.  1.
     999900   -1    0    0    0    0 -0.00000000000E+00 -0.00000000000E+00 -0.74505805969E-08  0.93827000000E+00  0.93827000000E+00 0. -1.
     999902    2    1    2    0    0  0.39731562893E-02  0.22759509688E-01  0.23968474144E-02  0.10207022982E+01  0.10204379724E+01 0.  0.
     999903    2    3    3    0    0  0.37138668108E-01 -0.11640663309E+00 -0.30000599735E-01  0.12856062727E+00  0.26419954640E-01 0.  0.
         14    1    1    2    0    0 -0.39731562893E-02 -0.22759509688E-01 -0.23968474144E-02  0.23227701773E-01  0.00000000000E+00 0. -1.
     999901    1    3    3    0    0 -0.33165511819E-01  0.13916614278E+00  0.32397447149E-01  0.89214167095E+00  0.88000000000E+00 0.  1.
        -11    1    4    4    0    0  0.12130218802E-01 -0.78038385818E-01 -0.15197917436E-01  0.80426175370E-01  0.51100000000E-03 0.  1.
         11    1    4    4    0    0  0.25008449306E-01 -0.38368247276E-01 -0.14802682299E-01  0.48134451903E-01  0.51100000000E-03 0. -1.
</event>
<event>
 8    1  0.1010879E+005  0.1043930E+01  0.7957747E-01            NaN
         13   -1    0    0    0    0  0.00000000000E+00  0.00000000000E+00  0.74505805969E-08  0.10566000000E+00  0.10566000000E+00 0. -1.
     999900   -1    0    0    0    0 -0.00000000000E+00 -0.00000000000E+00 -0.74505805969E-08  0.93827000000E+00  0.93827000000E+00 0. -1.
     999902    2    1    2    0    0  0.19889355011E-01 -0.74214689506E-02 -0.11618179589E-01  0.10197298607E+01  0.10194426625E+01 0.  0.
     999903    2    3    3    0    0  0.64625439182E-01  0.56051322512E-01 -0.98643464744E-01  0.13203424130E+00  0.19603815807E-01 0.  0.
         14    1    1    2    0    0 -0.19889355011E-01  0.74214689506E-02  0.11618179589E-01  0.24200139279E-01  0.00000000000E+00 0.  1.
     999901    1    3    3    0    0 -0.44736084171E-01 -0.63472791463E-01  0.87025285155E-01  0.88769561942E+00  0.88000000000E+00 0. -1.
        -11    1    4    4    0    0  0.23746709537E-01  0.29373278705E-01 -0.32530533927E-01  0.49851704829E-01  0.51100000000E-03 0. -1.
         11    1    4    4    0    0  0.40878729644E-01  0.26678043808E-01 -0.66112930817E-01  0.82182536472E-01  0.51100000000E-03 0.  1.
</event>
<event>
 8    1  0.1010879E+005  0.1043930E+01  0.7957747E-01            NaN
         13   -1    0    0    0    0  0.00000000000E+00  0.00000000000E+00  0.74505805969E-08  0.10566000000E+00  0.10566000000E+00 0.  1.
     999900   -1    0    0    0    0 -0.00000000000E+00 -0.00000000000E+00 -0.74505805969E-08  0.93827000000E+00  0.93827000000E+00 0.  1.
     999902    2    1    2    0    0 -0.99123398350E-02 -0.21019441270E-01  0.48388204290E-02  0.10201921489E+01  0.10199159451E+01 0.  0.
     999903    2    3    3    0    0 -0.42258841890E-01 -0.11362717017E+00 -0.50657961057E-01  0.13300424297E+00  0.20662916356E-01 0.  0.
         14    1    1    2    0    0  0.99123398350E-02  0.21019441270E-01 -0.48388204290E-02  0.23737851112E-01  0.00000000000E+00 0.  1.
     999901    1    3    3    0    0  0.32346502055E-01  0.92607728897E-01  0.55496781486E-01  0.88718790592E+00  0.88000000000E+00 0.  1.
        -11    1    4    4    0    0 -0.32340891718E-02 -0.21933702222E-01 -0.16563067268E-01  0.27679287279E-01  0.51100000000E-03 0. -1.
         11    1    4    4    0    0 -0.39024752718E-01 -0.91693467945E-01 -0.34094893788E-01  0.10532495569E+00  0.51100000000E-03 0.  1.
</event>
<event>
 8    1  0.1010879E+005  0.1043930E+01  0.7957747E-01            NaN
         13   -1    0    0    0    0  0.00000000000E+00  0.00000000000E+00  0.74505805969E-08  0.10566000000E+00  0.10566000000E+00 0.  1.
     999900   -1    0    0    0    0 -0.00000000000E+00 -0.00000000000E+00 -0.74505805969E-08  0.93827000000E+00  0.93827000000E+00 0. -1.
     999902    2    1    2    0    0 -0.21496975371E-01 -0.96307142991E-02 -0.66763272221E-02  0.10194464555E+01  0.10191524084E+01 0.  0.
     999903    2    3    3    0    0 -0.10537272738E+00  0.37694728378E-01  0.65605157956E-01  0.13124633589E+00  0.19931375047E-01 0.  0.
         14    1    1    2    0    0  0.21496975371E-01  0.96307142991E-02  0.66763272221E-02  0.24483544539E-01  0.00000000000E+00 0.  1.
     999901    1    3    3    0    0  0.83875752013E-01 -0.47325442677E-01 -0.72281485178E-01  0.88820011957E+00  0.88000000000E+00 0. -1.
        -11    1    4    4    0    0 -0.73409120238E-01  0.31295778706E-01  0.55162757785E-01  0.97012966486E-01  0.51100000000E-03 0. -1.
         11    1    4    4    0    0 -0.31963607146E-01  0.63989496725E-02  0.10442400171E-01  0.34233369408E-01  0.51100000000E-03 0.  1.
</event>
<event>
 8    1  0.1010879E+005  0.1043930E+01  0.7957747E-01            NaN
         13   -1    0    0    0    0  0.00000000000E+00  0.00000000000E+00  0.74505805969E-08  0.10566000000E+00  0.10566000000E+00 0. -1.
     999900   -1    0    0    0    0 -0.00000000000E+00 -0.00000000000E+00 -0.74505805969E-08  0.93827000000E+00  0.93827000000E+00 0.  1.
     999902    2    1    2    0    0  0.76592422194E-02 -0.32914104004E-02 -0.21744941796E-01  0.10206418084E+01  0.10203760881E+01 0.  0.
     999903    2    3    3    0    0  0.42848685188E-01 -0.11731360830E+00  0.33695708131E-01  0.13085923712E+00  0.19754662178E-01 0.  0.
         14    1    1    2    0    0 -0.76592422194E-02  0.32914104004E-02  0.21744941796E-01  0.23288191589E-01  0.00000000000E+00 0. -1.
     999901    1    3    3    0    0 -0.35189442969E-01  0.11402219790E+00 -0.55440649927E-01  0.88978257129E+00  0.88000000000E+00 0. -1.
        -11    1    4    4    0    0  0.26440897157E-01 -0.44164670326E-01  0.13447397399E-01  0.53204631051E-01  0.51100000000E-03 0. -1.
         11    1    4    4    0    0  0.16407788031E-01 -0.73148937976E-01  0.20248310732E-01  0.77654606068E-01  0.51100000000E-03 0.  1.
</event>
<event>
 8    1  0.1010879E+005  0.1043930E+01  0.7957747E-01            NaN
         13   -1    0    0    0    0  0.00000000000E+00  0.00000000000E+00  0.74505805969E-08  0.10566000000E+00  0.10566000000E+00 0.  1.
     999900   -1    0    0    0    0 -0.00000000000E+00 -0.00000000000E+00 -0.74505805969E-08  0.93827000000E+00  0.93827000000E+00 0. -1.
     999902    2    1    2    0    0 -0.93409768840E-02 -0.19389255839E-01  0.47787414990E-02  0.10218838334E+01  0.10216459932E+01 0.  0.
     999903    2    3    3    0    0 -0.32417021257E-01 -0.99757587819E-01 -0.82416794059E-01  0.13363013427E+00  0.78768805629E-02 0.  0.
         14    1    1    2    0    0  0.93409768840E-02  0.19389255839E-01 -0.47787414990E-02  0.22046166593E-01  0.00000000000E+00 0. -1.
     999901    1    3    3    0    0  0.23076044373E-01  0.80368331980E-01  0.87195535558E-01  0.88825369914E+00  0.88000000000E+00 0.  1.
        -11    1    4    4    0    0 -0.13542014763E-01 -0.52770096427E-01 -0.40347232330E-01  0.67795497774E-01  0.51100000000E-03 0.  1.
         11    1    4    4    0    0 -0.18875006494E-01 -0.46987491392E-01 -0.42069561729E-01  0.65834636496E-01  0.51100000000E-03 0. -1.
</event>
<event>
 8    1  0.1010879E+005  0.1043930E+01  0.7957747E-01            NaN
         13   -1    0    0    0    0  0.00000000000E+00  0.00000000000E+00  0.74505805969E-08  0.10566000000E+00  0.10566000000E+00 0. -1.
     999900   -1    0    0    0    0 -0.00000000000E+00 -0.00000000000E+00 -0.74505805969E-08  0.93827000000E+00  0.93827000000E+00 0.  1.
     999902    2    1    2    0    0  0.11103128745E-01  0.22469349933E-01  0.28863343541E-02  0.10187014035E+01  0.10183889569E+01 0.  0.
     999903    2    3    3    0    0  0.87063406900E-01 -0.20632162218E-01  0.92123721474E-01  0.12988701600E+00  0.19445666042E-01 0.  0.
         14    1    1    2    0    0 -0.11103128745E-01 -0.22469349933E-01 -0.28863343541E-02  0.25228596480E-01  0.00000000000E+00 0.  1.
     999901    1    3    3    0    0 -0.75960278155E-01  0.43101512151E-01 -0.89237387120E-01  0.88881438752E+00  0.88000000000E+00 0.  1.
        -11    1    4    4    0    0  0.64950615561E-01 -0.20713348505E-01  0.59596837728E-01  0.90552026240E-01  0.51100000000E-03 0.  1.
         11    1    4    4    0    0  0.22112791339E-01  0.81186286638E-04  0.32526883746E-01  0.39334989758E-01  0.51100000000E-03 0. -1.
</event>
<event>
 8    1  0.1010879E+005  0.1043930E+01  0.7957747E-01            NaN
         13   -1    0    0    0    0  0.00000000000E+00  0.00000000000E+00  0.74505805969E-08  0.10566000000E+00  0.10566000000E+00 0.  1.
     999900   -1    0    0    0    0 -0.00000000000E+00 -0.00000000000E+00 -0.74505805969E-08  0.93827000000E+00  0.93827000000E+00 0.  1.
     999902    2    1    2    0    0 -0.18528231756E-02  0.16265836350E-01  0.13676038212E-01  0.10225982301E+01  0.10223757117E+01 0.  0.
     999903    2    3    3    0    0  0.41942010366E-02  0.11400859494E+00  0.70158405926E-01  0.13536631497E+00  0.19654166603E-01 0.  0.
         14    1    1    2    0    0  0.18528231756E-02 -0.16265836350E-01 -0.13676038212E-01  0.21331769900E-01  0.00000000000E+00 0. -1.
     999901    1    3    3    0    0 -0.60470242122E-02 -0.97742758588E-01 -0.56482367714E-01  0.88723191513E+00  0.88000000000E+00 0.  1.
        -11    1    4    4    0    0 -0.14790905607E-02  0.46296454296E-01  0.39250920840E-01  0.60716104100E-01  0.51100000000E-03 0.  1.
         11    1    4    4    0    0  0.56732915973E-02  0.67712140642E-01  0.30907485086E-01  0.74650210872E-01  0.51100000000E-03 0. -1.
</event>
<event>
 8    1  0.1010879E+005  0.1043930E+01  0.7957747E-01            NaN
         13   -1    0    0    0    0  0.00000000000E+00  0.00000000000E+00  0.74505805969E-08  0.10566000000E+00  0.10566000000E+00 0.  1.
     999900   -1    0    0    0    0 -0.00000000000E+00 -0.00000000000E+00 -0.74505805969E-08  0.93827000000E+00  0.93827000000E+00 0. -1.
     999902    2    1    2    0    0 -0.72991956109E-02 -0.17340611001E-02  0.23627294955E-01  0.10191401978E+01  0.10188386568E+01 0.  0.
     999903    2    3    3    0    0  0.71104572946E-01  0.40417985093E-01  0.10085270180E+00  0.13128451734E+00  0.19361901279E-01 0.  0.
         14    1    1    2    0    0  0.72991956109E-02  0.17340611001E-02 -0.23627294955E-01  0.24789802164E-01  0.00000000000E+00 0. -1.
     999901    1    3    3    0    0 -0.78403768557E-01 -0.42152046193E-01 -0.77225406843E-01  0.88785568049E+00  0.88000000000E+00 0. -1.
        -11    1    4    4    0    0  0.35929950721E-01  0.18874975474E-01  0.35087171897E-01  0.53652556423E-01  0.51100000000E-03 0.  1.
         11    1    4    4    0    0  0.35174622225E-01  0.21543009618E-01  0.65765529901E-01  0.77631960919E-01  0.51100000000E-03 0. -1.
</event>
<event>
 8    1  0.1010879E+005  0.1043930E+01  0.7957747E-01            NaN
         13   -1    0    0    0    0  0.00000000000E+00  0.00000000000E+00  0.74505805969E-08  0.10566000000E+00  0.10566000000E+00 0. -1.
     999900   -1    0    0    0    0 -0.00000000000E+00 -0.00000000000E+00 -0.74505805969E-08  0.93827000000E+00  0.93827000000E+00 0.  1.
     999902    2    1    2    0    0  0.17970596273E-01 -0.77743604833E-02 -0.13774551706E-01  0.10199900483E+01  0.10197090651E+01 0.  0.
     999903    2    3    3    0    0  0.64500909108E-01 -0.54813248942E-01 -0.10094171189E+00  0.13321169899E+00  0.19780495759E-01 0.  0.
         14    1    1    2    0    0 -0.17970596273E-01  0.77743604833E-02  0.13774551706E-01  0.23939951671E-01  0.00000000000E+00 0.  1.
     999901    1    3    3    0    0 -0.46530312835E-01  0.47038888459E-01  0.87167160188E-01  0.88677834934E+00  0.88000000000E+00 0. -1.
        -11    1    4    4    0    0  0.53648054290E-01 -0.36007223745E-01 -0.68447314777E-01  0.94127200703E-01  0.51100000000E-03 0. -1.
         11    1    4    4    0    0  0.10852854818E-01 -0.18806025198E-01 -0.32494397116E-01  0.39084498288E-01  0.51100000000E-03 0.  1.
</event>
<event>
 8    1  0.1010879E+005  0.1043930E+01  0.7957747E-01            NaN
         13   -1    0    0    0    0  0.00000000000E+00  0.00000000000E+00  0.74505805969E-08  0.10566000000E+00  0.10566000000E+00 0. -1.
     999900   -1    0    0    0    0 -0.00000000000E+00 -0.00000000000E+00 -0.74505805969E-08  0.93827000000E+00  0.93827000000E+00 0.  1.
     999902    2    1    2    0    0 -0.69643093225E-02 -0.18328031537E-01  0.13436511778E-01  0.10201611508E+01  0.10198842167E+01 0.  0.
     999903    2    3    3    0    0 -0.97022297396E-01 -0.29985749912E-01  0.82919621189E-01  0.13276369411E+00  0.20929966705E-01 0.  0.
         14    1    1    2    0    0  0.69643093225E-02  0.18328031537E-01 -0.13436511778E-01  0.23768849217E-01  0.00000000000E+00 0.  1.
     999901    1    3    3    0    0  0.90057988074E-01  0.11657718375E-01 -0.69483109411E-01  0.88739745667E+00  0.88000000000E+00 0.  1.
        -11    1    4    4    0    0 -0.85256748917E-01 -0.23204410680E-01  0.62477648774E-01  0.10821679920E+00  0.51100000000E-03 0. -1.
         11    1    4    4    0    0 -0.11765548479E-01 -0.67813392311E-02  0.20441972414E-01  0.24546894915E-01  0.51100000000E-03 0.  1.
</event>
<event>
 8    1  0.1010879E+005  0.1043930E+01  0.7957747E-01            NaN
         13   -1    0    0    0    0  0.00000000000E+00  0.00000000000E+00  0.74505805969E-08  0.10566000000E+00  0.10566000000E+00 0. -1.
     999900   -1    0    0    0    0 -0.00000000000E+00 -0.00000000000E+00 -0.74505805969E-08  0.93827000000E+00  0.93827000000E+00 0. -1.
     999902    2    1    2    0    0  0.92152929981E-02 -0.16708391638E-01  0.14528937973E-01  0.10199470474E+01  0.10196650418E+01 0.  0.
     999903    2    3    3    0    0 -0.83978242267E-01  0.90184473632E-01  0.29974490329E-01  0.12845970328E+00  0.20441155493E-01 0.  0.
         14    1    1    2    0    0 -0.92152929981E-02  0.16708391638E-01 -0.14528937973E-01  0.23982952587E-01  0.00000000000E+00 0.  1.
     999901    1    3    3    0    0  0.93193535265E-01 -0.10689286527E+00 -0.15445552356E-01  0.89148734413E+00  0.88000000000E+00 0.  1.
        -11    1    4    4    0    0 -0.34369733039E-01  0.23093584280E-01  0.11845720764E-01  0.43071735575E-01  0.51100000000E-03 0.  1.
         11    1    4    4    0    0 -0.49608509228E-01  0.67090889352E-01  0.18128769564E-01  0.85387967705E-01  0.51100000000E-03 0. -1.
</event>
<event>
 8    1  0.1010879E+005  0.1043930E+01  0.7957747E-01            NaN
         13   -1    0    0    0    0  0.00000000000E+00  0.00000000000E+00  0.74505805969E-08  0.10566000000E+00  0.10566000000E+00 0. -1.
     999900   -1    0    0    0    0 -0.00000000000E+00 -0.00000000000E+00 -0.74505805969E-08  0.93827000000E+00  0.93827000000E+00 0. -1.
     999902    2    1    2    0    0  0.13657795451E-01  0.10620848321E-01  0.15749012608E-01  0.10205340774E+01  0.10202658644E+01 0.  0.
     999903    2    3    3    0    0 -0.76474385384E-01 -0.97720138328E-01 -0.25679586098E-01  0.12835813725E+00  0.20464926140E-01 0.  0.
         14    1    1    2    0    0 -0.13657795451E-01 -0.10620848321E-01 -0.15749012608E-01  0.23395922588E-01  0.00000000000E+00 0.  1.
     999901    1    3    3    0    0  0.90132180835E-01  0.10834098665E+00  0.41428598706E-01  0.89217594016E+00  0.88000000000E+00 0.  1.
        -11    1    4    4    0    0 -0.31849318550E-01 -0.52390231036E-01 -0.52131004000E-02  0.61534973283E-01  0.51100000000E-03 0.  1.
         11    1    4    4    0    0 -0.44625066834E-01 -0.45329907291E-01 -0.20466485698E-01  0.66823163969E-01  0.51100000000E-03 0. -1.
</event>
<event>
 8    1  0.1010879E+005  0.1043930E+01  0.7957747E-01            NaN
         13   -1    0    0    0    0  0.00000000000E+00  0.00000000000E+00  0.74505805969E-08  0.10566000000E+00  0.10566000000E+00 0.  1.
     999900   -1    0    0    0    0 -0.00000000000E+00 -0.00000000000E+00 -0.74505805969E-08  0.93827000000E+00  0.93827000000E+00 0.  1.
     999902    2    1    2    0    0  0.10324913401E-01 -0.15660297852E-01  0.41710594335E-02  0.10247142122E+01  0.10245340258E+01 0.  0.
     999903    2    3    3    0    0  0.60512300118E-01 -0.88900585423E-01 -0.81790717253E-01  0.13607911238E+00  0.16209591086E-01 0.  0.
         14    1    1    2    0    0 -0.10324913401E-01  0.15660297852E-01 -0.41710594335E-02  0.19215787841E-01  0.00000000000E+00 0. -1.
     999901    1    3    3    0    0 -0.50187386718E-01  0.73240287571E-01  0.85961776686E-01  0.88863509978E+00  0.88000000000E+00 0. -1.
        -11    1    4    4    0    0  0.11000289088E-01 -0.91988630064E-02 -0.63891521024E-02  0.15706935609E-01  0.51100000000E-03 0.  1.
         11    1    4    4    0    0  0.49512011030E-01 -0.79701722417E-01 -0.75401565151E-01  0.12037217677E+00  0.51100000000E-03 0. -1.
</event>
<event>
 8    1  0.1010879E+005  0.1043930E+01  0.7957747E-01            NaN
         13   -1    0    0    0    0  0.00000000000E+00  0.00000000000E+00  0.74505805969E-08  0.10566000000E+00  0.10566000000E+00 0. -1.
     999900   -1    0    0    0    0 -0.00000000000E+00 -0.00000000000E+00 -0.74505805969E-08  0.93827000000E+00  0.93827000000E+00 0. -1.
     999902    2    1    2    0    0 -0.71362435695E-02 -0.93534407547E-02 -0.21909872528E-01  0.10190612377E+01  0.10187577488E+01 0.  0.
     999903    2    3    3    0    0  0.11772744128E+00  0.44705050539E-01  0.10682728536E-01  0.12800818765E+00  0.20339209484E-01 0.  0.
         14    1    1    2    0    0  0.71362435695E-02  0.93534407547E-02  0.21909872528E-01  0.24868762342E-01  0.00000000000E+00 0. -1.
     999901    1    3    3    0    0 -0.12486368485E+00 -0.54058491294E-01 -0.32592601064E-01  0.89105305000E+00  0.88000000000E+00 0. -1.
        -11    1    4    4    0    0  0.50612858948E-01  0.15498867915E-01 -0.49349064628E-02  0.53164751672E-01  0.51100000000E-03 0. -1.
         11    1    4    4    0    0  0.67114582336E-01  0.29206182624E-01  0.15617634999E-01  0.74843435982E-01  0.51100000000E-03 0.  1.
</event>
<event>
 8    1  0.1010879E+005  0.1043930E+01  0.7957747E-01            NaN
         13   -1    0    0    0    0  0.00000000000E+00  0.00000000000E+00  0.74505805969E-08  0.10566000000E+00  0.10566000000E+00 0. -1.
     999900   -1    0    0    0    0 -0.00000000000E+00 -0.00000000000E+00 -0.74505805969E-08  0.93827000000E+00  0.93827000000E+00 0. -1.
     999902    2    1    2    0    0 -0.82100095915E-03  0.46230780329E-02 -0.24062761674E-01  0.10194134058E+01  0.10191185547E+01 0.  0.
     999903    2    3    3    0    0  0.40802777674E-01 -0.13013397830E-01  0.11780845676E+00  0.12690512747E+00  0.19795547580E-01 0.  0.
         14    1    1    2    0    0  0.82100095915E-03 -0.46230780329E-02  0.24062761674E-01  0.24516594227E-01  0.00000000000E+00 0. -1.
     999901    1    3    3    0    0 -0.41623778633E-01  0.17636475863E-01 -0.14187121843E+00  0.89250827831E+00  0.88000000000E+00 0. -1.
        -11    1    4    4    0    0  0.17642744082E-01  0.18440582490E-04  0.26762318408E-01  0.32058533441E-01  0.51100000000E-03 0. -1.
         11    1    4    4    0    0  0.23160033592E-01 -0.13031838412E-01  0.91046138351E-01  0.94846594025E-01  0.51100000000E-03 0.  1.
</event>
<event>
 8    1  0.1010879E+005  0.1043930E+01  0.7957747E-01            NaN
         13   -1    0    0    0    0  0.00000000000E+00  0.00000000000E+00  0.74505805969E-08  0.10566000000E+00  0.10566000000E+00 0. -1.
     999900   -1    0    0    0    0 -0.00000000000E+00 -0.00000000000E+00 -0.74505805969E-08  0.93827000000E+00  0.93827000000E+00 0.  1.
     999902    2    1    2    0    0  0.95545608485E-02  0.13790109244E-01  0.17468733389E-01  0.10197098969E+01  0.10194222190E+01 0.  0.
     999903    2    3    3    0    0 -0.11985651758E+00 -0.21211598446E-01  0.38775509363E-01  0.12930194243E+00  0.19998386761E-01 0.  0.
         14    1    1    2    0    0 -0.95545608485E-02 -0.13790109244E-01 -0.17468733389E-01  0.24220103059E-01  0.00000000000E+00 0.  1.
     999901    1    3    3    0    0  0.12941107843E+00  0.35001707690E-01 -0.21306775973E-01  0.89040795452E+00  0.88000000000E+00 0.  1.
        -11    1    4    4    0    0 -0.51437680904E-01 -0.74949124942E-02  0.26850269816E-01  0.58508177550E-01  0.51100000000E-03 0. -1.
         11    1    4    4    0    0 -0.68418836679E-01 -0.13716685952E-01  0.11925239547E-01  0.70793764875E-01  0.51100000000E-03 0.  1.
</event>
<event>
 8    1  0.1010879E+005  0.1043930E+01  0.7957747E-01            NaN
         13   -1    0    0    0    0  0.00000000000E+00  0.00000000000E+00  0.74505805969E-08  0.10566000000E+00  0.10566000000E+00 0.  1.
     999900   -1    0    0    0    0 -0.00000000000E+00 -0.00000000000E+00 -0.74505805969E-08  0.93827000000E+00  0.93827000000E+00 0.  1.
     999902    2    1    2    0    0 -0.54291912793E-02  0.91480265837E-02 -0.20889176798E-01  0.10204881525E+01  0.10202188731E+01 0.  0.
     999903    2    3    3    0    0  0.45308883394E-01  0.11996197093E+00  0.19307736847E-01  0.13117950282E+00  0.19786456806E-01 0.  0.
         14    1    1    2    0    0  0.54291912793E-02 -0.91480265837E-02  0.20889176798E-01  0.23441847530E-01  0.00000000000E+00 0.  1.
     999901    1    3    3    0    0 -0.50738074674E-01 -0.11081394435E+00 -0.40196913645E-01  0.88930864965E+00  0.88000000000E+00 0.  1.
        -11    1    4    4    0    0  0.25399338723E-01  0.74800197075E-01  0.24935282210E-02  0.79035907624E-01  0.51100000000E-03 0.  1.
         11    1    4    4    0    0  0.19909544671E-01  0.45161773856E-01  0.16814208626E-01  0.52143595192E-01  0.51100000000E-03 0. -1.
</event>
<event>
 8    1  0.1094418E+005  0.1043930E+01  0.7957747E-01            NaN
         13   -1    0    0    0    0  0.00000000000E+00  0.00000000000E+00  0.74505805969E-08  0.10566000000E+00  0.10566000000E+00 0.  1.
     999900   -1    0    0    0    0 -0.00000000000E+00 -0.00000000000E+00 -0.74505805969E-08  0.93827000000E+00  0.93827000000E+00 0.  1.
     999902    2    1    2    0    0 -0.21789289848E-01  0.82630215408E-02 -0.25997576019E-02  0.10204819848E+01  0.10202125621E+01 0.  0.
     999903    2    3    3    0    0  0.12195430766E+00 -0.21097410087E-01  0.13412389681E-01  0.12819243223E+00  0.30585186201E-01 0.  0.
         14    1    1    2    0    0  0.21789289848E-01 -0.82630215408E-02  0.25997576019E-02  0.23448015197E-01  0.00000000000E+00 0. -1.
     999901    1    3    3    0    0 -0.14374359751E+00  0.29360431628E-01 -0.16012147283E-01  0.89228955257E+00  0.88000000000E+00 0. -1.
        -11    1    4    4    0    0  0.46391645184E-01 -0.69593256612E-02  0.20075756425E-01  0.51028561351E-01  0.51100000000E-03 0. -1.
         11    1    4    4    0    0  0.75562662477E-01 -0.14138084426E-01 -0.66633667437E-02  0.77163870880E-01  0.51100000000E-03 0.  1.
</event>
<event>
 8    1  0.1010879E+005  0.1043930E+01  0.7957747E-01            NaN
         13   -1    0    0    0    0  0.00000000000E+00  0.00000000000E+00  0.74505805969E-08  0.10566000000E+00  0.10566000000E+00 0.  1.
     999900   -1    0    0    0    0 -0.00000000000E+00 -0.00000000000E+00 -0.74505805969E-08  0.93827000000E+00  0.93827000000E+00 0. -1.
     999902    2    1    2    0    0 -0.14467931827E-01 -0.29061484426E-02 -0.18773051243E-01  0.10200512604E+01  0.10197717292E+01 0.  0.
     999903    2    3    3    0    0  0.73918385458E-01  0.56148616065E-01 -0.89897115269E-01  0.13080537837E+00  0.20296819497E-01 0.  0.
         14    1    1    2    0    0  0.14467931827E-01  0.29061484426E-02  0.18773051243E-01  0.23878739562E-01  0.00000000000E+00 0.  1.
     999901    1    3    3    0    0 -0.88386317285E-01 -0.59054764507E-01  0.71124064027E-01  0.88924588207E+00  0.88000000000E+00 0.  1.
        -11    1    4    4    0    0  0.48109234597E-01  0.46271706105E-01 -0.56489958800E-01  0.87446817012E-01  0.51100000000E-03 0.  1.
         11    1    4    4    0    0  0.25809150861E-01  0.98769099599E-02 -0.33407156469E-01  0.43358561356E-01  0.51100000000E-03 0. -1.
</event>
<event>
 8    1  0.1010879E+005  0.1043930E+01  0.7957747E-01            NaN
         13   -1    0    0    0    0  0.00000000000E+00  0.00000000000E+00  0.74505805969E-08  0.10566000000E+00  0.10566000000E+00 0. -1.
     999900   -1    0    0    0    0 -0.00000000000E+00 -0.00000000000E+00 -0.74505805969E-08  0.93827000000E+00  0.93827000000E+00 0. -1.
     999902    2    1    2    0    0  0.10585240499E-01 -0.20824527962E-01  0.41174620998E-03  0.10205659717E+01  0.10202984979E+01 0.  0.
     999903    2    3    3    0    0 -0.31069422025E-01  0.11952239791E+00 -0.27590374376E-01  0.12803222489E+00  0.19496391090E-01 0.  0.
         14    1    1    2    0    0 -0.10585240499E-01  0.20824527962E-01 -0.41174620998E-03  0.23364028253E-01  0.00000000000E+00 0.  1.
     999901    1    3    3    0    0  0.41654662524E-01 -0.14034692587E+00  0.28002120586E-01  0.89253374685E+00  0.88000000000E+00 0. -1.
        -11    1    4    4    0    0 -0.11271620955E-01  0.35090086614E-01 -0.17242774880E-01  0.40693218404E-01  0.51100000000E-03 0. -1.
         11    1    4    4    0    0 -0.19797801070E-01  0.84432311299E-01 -0.10347599496E-01  0.87339006490E-01  0.51100000000E-03 0.  1.
</event>
<event>
 7    1  0.1010879E+005  0.1043930E+01  0.7957747E-01            NaN
         13   -1    0    0    0    0  0.00000000000E+00  0.00000000000E+00  0.74505805969E-08  0.10566000000E+00  0.10566000000E+00 0.  1.
     999900   -1    0    0    0    0 -0.00000000000E+00 -0.00000000000E+00 -0.74505805969E-08  0.93827000000E+00  0.93827000000E+00 0. -1.
     999902    2    1    2    0    0  0.13698872095E-01 -0.67905703397E-02 -0.19412983924E-01  0.10192189724E+01  0.10189193681E+01 0.  0.
         14    1    1    2    0    0 -0.13698872095E-01  0.67905703397E-02  0.19412983924E-01  0.24711027640E-01  0.00000000000E+00 0. -1.
     999901    1    3    3    0    0  0.77994061240E-01  0.95301169232E-01 -0.46674011862E-01  0.88979989314E+00  0.88000000000E+00 0. -1.
        -11    1    3    3    0    0 -0.27614321354E-01 -0.40930143138E-01 -0.77295765673E-02  0.49978343670E-01  0.51100000000E-03 0.  1.
         11    1    3    3    0    0 -0.36680867791E-01 -0.61161596434E-01  0.34990604505E-01  0.79440735551E-01  0.51100000000E-03 0. -1.
</event>
<event>
 8    1  0.1010879E+005  0.1043930E+01  0.7957747E-01            NaN
         13   -1    0    0    0    0  0.00000000000E+00  0.00000000000E+00  0.74505805969E-08  0.10566000000E+00  0.10566000000E+00 0.  1.
     999900   -1    0    0    0    0 -0.00000000000E+00 -0.00000000000E+00 -0.74505805969E-08  0.93827000000E+00  0.93827000000E+00 0.  1.
     999902    2    1    2    0    0  0.73754870071E-02  0.14448653628E-01 -0.16200206963E-01  0.10210038554E+01  0.10207464252E+01 0.  0.
     999903    2    3    3    0    0  0.10946135929E+00  0.28951989852E-01  0.63887262066E-01  0.13137141739E+00  0.18890742629E-01 0.  0.
         14    1    1    2    0    0 -0.73754870071E-02 -0.14448653628E-01  0.16200206963E-01  0.22926144593E-01  0.00000000000E+00 0. -1.
     999901    1    3    3    0    0 -0.10208587229E+00 -0.14503336225E-01 -0.80087469029E-01  0.88963243802E+00  0.88000000000E+00 0. -1.
        -11    1    4    4    0    0  0.41398497056E-01  0.26952924604E-02  0.18301772082E-01  0.45346622170E-01  0.51100000000E-03 0. -1.
         11    1    4    4    0    0  0.68062862239E-01  0.26256697392E-01  0.45585489984E-01  0.86024795217E-01  0.51100000000E-03 0.  1.
</event>
<event>
 8    1  0.1010879E+005  0.1043930E+01  0.7957747E-01            NaN
         13   -1    0    0    0    0  0.00000000000E+00  0.00000000000E+00  0.74505805969E-08  0.10566000000E+00  0.10566000000E+00 0. -1.
     999900   -1    0    0    0    0 -0.00000000000E+00 -0.00000000000E+00 -0.74505805969E-08  0.93827000000E+00  0.93827000000E+00 0. -1.
     999902    2    1    2    0    0  0.22559052153E-01  0.66483684746E-02 -0.41244461764E-02  0.10200527578E+01  0.10197732621E+01 0.  0.
     999903    2    3    3    0    0  0.77792832172E-01  0.97799527037E-01 -0.38646802778E-01  0.13295011593E+00  0.23784148806E-01 0.  0.
         14    1    1    2    0    0 -0.22559052153E-01 -0.66483684746E-02  0.41244461764E-02  0.23877242171E-01  0.00000000000E+00 0. -1.
     999901    1    3    3    0    0 -0.55233780019E-01 -0.91151158563E-01  0.34522356602E-01  0.88710264190E+00  0.88000000000E+00 0.  1.
        -11    1    4    4    0    0  0.52803963695E-01  0.81970955933E-01 -0.32039494881E-01  0.10263667255E+00  0.51100000000E-03 0. -1.
         11    1    4    4    0    0  0.24988868476E-01  0.15828571104E-01 -0.66073078975E-02  0.30313443381E-01  0.51100000000E-03 0.  1.
</event>
<event>
 7    1  0.1010879E+005  0.1043930E+01  0.7957747E-01            NaN
         13   -1    0    0    0    0  0.00000000000E+00  0.00000000000E+00  0.74505805969E-08  0.10566000000E+00  0.10566000000E+00 0. -1.
     999900   -1    0    0    0    0 -0.00000000000E+00 -0.00000000000E+00 -0.74505805969E-08  0.93827000000E+00  0.93827000000E+00 0.  1.
     999902    2    1    2    0    0  0.26924078307E-03  0.30073061739E-02  0.22925128260E-01  0.10208068971E+01  0.10205449737E+01 0.  0.
         14    1    1    2    0    0 -0.26924078307E-03 -0.30073061739E-02 -0.22925128260E-01  0.23123102879E-01  0.00000000000E+00 0.  1.
     999901    1    3    3    0    0 -0.63630164481E-01 -0.96000457274E-01  0.43179621323E-01  0.88855464960E+00  0.88000000000E+00 0.  1.
        -11    1    3    3    0    0  0.32366036215E-01  0.65926405556E-02 -0.44362472921E-02  0.33331135906E-01  0.51100000000E-03 0.  1.
         11    1    3    3    0    0  0.31533369049E-01  0.92415122893E-01 -0.15818245771E-01  0.98921111615E-01  0.51100000000E-03 0. -1.
</event>
<event>
 8    1  0.1010879E+005  0.1043930E+01  0.7957747E-01            NaN
         13   -1    0    0    0    0  0.00000000000E+00  0.00000000000E+00  0.74505805969E-08  0.10566000000E+00  0.10566000000E+00 0. -1.
     999900   -1    0    0    0    0 -0.00000000000E+00 -0.00000000000E+00 -0.74505805969E-08  0.93827000000E+00  0.93827000000E+00 0. -1.
     999902    2    1    2    0    0  0.18313871456E-01  0.19038715118E-02 -0.14181406491E-01  0.10206891974E+01  0.10204245699E+01 0.  0.
     999903    2    3    3    0    0  0.69577590986E-01  0.11081380187E+00 -0.63282205467E-02  0.13246005221E+00  0.19618338484E-01 0.  0.
         14    1    1    2    0    0 -0.18313871456E-01 -0.19038715118E-02  0.14181406491E-01  0.23240802579E-01  0.00000000000E+00 0. -1.
     999901    1    3    3    0    0 -0.51263719530E-01 -0.10890993036E+00 -0.78531859445E-02  0.88822914521E+00  0.88000000000E+00 0.  1.
        -11    1    4    4    0    0  0.56179738325E-02  0.14510289875E-01 -0.64483936730E-02  0.16850906332E-01  0.51100000000E-03 0.  1.
         11    1    4    4    0    0  0.63959617153E-01  0.96303511993E-01  0.12017312621E-03  0.11560914588E+00  0.51100000000E-03 0. -1.
</event>
<event>
 8    1  0.1010879E+005  0.1043930E+01  0.7957747E-01            NaN
         13   -1    0    0    0    0  0.00000000000E+00  0.00000000000E+00  0.74505805969E-08  0.10566000000E+00  0.10566000000E+00 0.  1.
     999900   -1    0    0    0    0 -0.00000000000E+00 -0.00000000000E+00 -0.74505805969E-08  0.93827000000E+00  0.93827000000E+00 0.  1.
     999902    2    1    2    0    0  0.76593408672E-04 -0.12400644423E-01  0.19795596676E-01  0.10205709012E+01  0.10203035415E+01 0.  0.
     999903    2    3    3    0    0  0.51513561272E-01 -0.54236487975E-01 -0.10363694738E+00  0.12948639770E+00  0.20757328913E-01 0.  0.
         14    1    1    2    0    0 -0.76593408672E-04  0.12400644423E-01 -0.19795596676E-01  0.23359098792E-01  0.00000000000E+00 0. -1.
     999901    1    3    3    0    0 -0.51436967863E-01  0.41835843552E-01  0.12343254405E+00  0.89108450351E+00  0.88000000000E+00 0. -1.
        -11    1    4    4    0    0  0.41473766518E-01 -0.29424988520E-01 -0.67352745536E-01  0.84395241044E-01  0.51100000000E-03 0.  1.
         11    1    4    4    0    0  0.10039794754E-01 -0.24811499454E-01 -0.36284201841E-01  0.45091156651E-01  0.51100000000E-03 0. -1.
</event>
<event>
 8    1  0.1010879E+005  0.1043930E+01  0.7957747E-01            NaN
         13   -1    0    0    0    0  0.00000000000E+00  0.00000000000E+00  0.74505805969E-08  0.10566000000E+00  0.10566000000E+00 0.  1.
     999900   -1    0    0    0    0 -0.00000000000E+00 -0.00000000000E+00 -0.74505805969E-08  0.93827000000E+00  0.93827000000E+00 0. -1.
     999902    2    1    2    0    0 -0.22524550642E-01 -0.63925927375E-03 -0.81971696977E-02  0.10199517260E+01  0.10196698317E+01 0.  0.
     999903    2    3    3    0    0  0.98151694154E-01  0.78950286740E-01 -0.10611837628E-01  0.12815405693E+00  0.21070082315E-01 0.  0.
         14    1    1    2    0    0  0.22524550642E-01  0.63925927375E-03  0.81971696977E-02  0.23978274022E-01  0.00000000000E+00 0.  1.
     999901    1    3    3    0    0 -0.12067624480E+00 -0.79589546014E-01  0.24146679304E-02  0.89179766904E+00  0.88000000000E+00 0. -1.
        -11    1    4    4    0    0  0.46483737243E-01  0.28994973670E-01  0.35454164925E-02  0.54902435513E-01  0.51100000000E-03 0.  1.
         11    1    4    4    0    0  0.51667956911E-01  0.49955313070E-01 -0.14157254121E-01  0.73251621419E-01  0.51100000000E-03 0. -1.
</event>
<event>
 8    1  0.1010879E+005  0.1043930E+01  0.7957747E-01            NaN
         13   -1    0    0    0    0  0.00000000000E+00  0.00000000000E+00  0.74505805969E-08  0.10566000000E+00  0.10566000000E+00 0.  1.
     999900   -1    0    0    0    0 -0.00000000000E+00 -0.00000000000E+00 -0.74505805969E-08  0.93827000000E+00  0.93827000000E+00 0.  1.
     999902    2    1    2    0    0 -0.15603078535E-01 -0.22778236974E-01 -0.11294662808E-01  0.10140992516E+01  0.10136604060E+01 0.  0.
     999903    2    3    3    0    0  0.19134053551E-01  0.56603667865E-01 -0.10796845513E+00  0.12457467229E+00  0.17075551254E-01 0.  0.
         14    1    1    2    0    0  0.15603078535E-01  0.22778236974E-01  0.11294662808E-01  0.29830748354E-01  0.00000000000E+00 0. -1.
     999901    1    3    3    0    0 -0.34737132086E-01 -0.79381904840E-01  0.96673792324E-01  0.88952457936E+00  0.88000000000E+00 0. -1.
        -11    1    4    4    0    0  0.57760020107E-02  0.25055526080E-02 -0.13276530048E-01  0.14702631201E-01  0.51100000000E-03 0. -1.
         11    1    4    4    0    0  0.13358051540E-01  0.54098115257E-01 -0.94691925083E-01  0.10987204109E+00  0.51100000000E-03 0.  1.
</event>
<event>
 8    1  0.1010879E+005  0.1043930E+01  0.7957747E-01            NaN
         13   -1    0    0    0    0  0.00000000000E+00  0.00000000000E+00  0.74505805969E-08  0.10566000000E+00  0.10566000000E+00 0.  1.
     999900   -1    0    0    0    0 -0.00000000000E+00 -0.00000000000E+00 -0.74505805969E-08  0.93827000000E+00  0.93827000000E+00 0.  1.
     999902    2    1    2    0    0 -0.14049703321E-02 -0.17705389396E-01  0.15309013945E-01  0.10204817450E+01  0.10202123167E+01 0.  0.
     999903    2    3    3    0    0 -0.51013068946E-01  0.10527062724E+00 -0.48644848543E-01  0.12825186393E+00  0.19949464893E-01 0.  0.
         14    1    1    2    0    0  0.14049703321E-02  0.17705389396E-01 -0.15309013945E-01  0.23448255016E-01  0.00000000000E+00 0. -1.
     999901    1    3    3    0    0  0.49608098614E-01 -0.12297601664E+00  0.63953862489E-01  0.89222988105E+00  0.88000000000E+00 0. -1.
        -11    1    4    4    0    0 -0.12198400449E-01  0.47427302367E-01 -0.18578696802E-01  0.52379185553E-01  0.51100000000E-03 0. -1.
         11    1    4    4    0    0 -0.38814668497E-01  0.57843324872E-01 -0.30066151742E-01  0.75872678379E-01  0.51100000000E-03 0.  1.
</event>
<event>
 8    1  0.1010879E+005  0.1043930E+01  0.7957747E-01            NaN
         13   -1    0    0    0    0  0.00000000000E+00  0.00000000000E+00  0.74505805969E-08  0.10566000000E+00  0.10566000000E+00 0. -1.
     999900   -1    0    0    0    0 -0.00000000000E+00 -0.00000000000E+00 -0.74505805969E-08  0.93827000000E+00  0.93827000000E+00 0. -1.
     999902    2    1    2    0    0 -0.16097574997E-01 -0.72330249643E-02  0.15465605952E-01  0.10204644180E+01  0.10201945868E+01 0.  0.
     999903    2    3    3    0    0  0.44680404653E-01 -0.87718284837E-01 -0.81674695680E-01  0.12939310881E+00  0.19518827797E-01 0.  0.
         14    1    1    2    0    0  0.16097574997E-01  0.72330249643E-02 -0.15465605952E-01  0.23465581996E-01  0.00000000000E+00 0. -1.
     999901    1    3    3    0    0 -0.60777979651E-01  0.80485259873E-01  0.97140301632E-01  0.89107130919E+00  0.88000000000E+00 0.  1.
        -11    1    4    4    0    0  0.14171099443E-01 -0.24274090060E-01 -0.35145841419E-01  0.45006030681E-01  0.51100000000E-03 0. -1.
         11    1    4    4    0    0  0.30509305211E-01 -0.63444194777E-01 -0.46528854261E-01  0.84387078129E-01  0.51100000000E-03 0.  1.
</event>
<event>
 8    1  0.1010879E+005  0.1043930E+01  0.7957747E-01            NaN
         13   -1    0    0    0    0  0.00000000000E+00  0.00000000000E+00  0.74505805969E-08  0.10566000000E+00  0.10566000000E+00 0. -1.
     999900   -1    0    0    0    0 -0.00000000000E+00 -0.00000000000E+00 -0.74505805969E-08  0.93827000000E+00  0.93827000000E+00 0.  1.
     999902    2    1    2    0    0  0.17372548341E-01 -0.55803730793E-02 -0.15882354842E-01  0.10197391919E+01  0.10194522178E+01 0.  0.
     999903    2    3    3    0    0 -0.10875062521E+00 -0.64812469708E-01 -0.72936260276E-02  0.12873455533E+00  0.22181840377E-01 0.  0.
         14    1    1    2    0    0 -0.17372548341E-01  0.55803730793E-02  0.15882354842E-01  0.24190808066E-01  0.00000000000E+00 0. -1.
     999901    1    3    3    0    0  0.12612317356E+00  0.59232096629E-01 -0.85887288141E-02  0.89100463660E+00  0.88000000000E+00 0. -1.
        -11    1    4    4    0    0 -0.45474136799E-01 -0.34245532747E-01  0.58939779984E-02  0.57233327078E-01  0.51100000000E-03 0.  1.
         11    1    4    4    0    0 -0.63276488415E-01 -0.30566936961E-01 -0.13187604026E-01  0.71501228257E-01  0.51100000000E-03 0. -1.
</event>
<event>
 8    1  0.1180899E+005  0.1043930E+01  0.7957747E-01            NaN
         13   -1    0    0    0    0  0.00000000000E+00  0.00000000000E+00  0.74505805969E-08  0.10566000000E+00  0.10566000000E+00 0. -1.
     999900   -1    0    0    0    0 -0.00000000000E+00 -0.00000000000E+00 -0.74505805969E-08  0.93827000000E+00  0.93827000000E+00 0. -1.
     999902    2    1    2    0    0  0.93726077142E-03 -0.17858024633E-01  0.15391920973E-01  0.10203355360E+01  0.10200626977E+01 0.  0.
     999903    2    3    3    0    0  0.48219259597E-01  0.29189975379E-01 -0.11386561848E+00  0.12839573238E+00  0.18518460097E-01 0.  0.
         14    1    1    2    0    0 -0.93726077142E-03  0.17858024633E-01 -0.15391920973E-01  0.23594464029E-01  0.00000000000E+00 0. -1.
     999901    1    3    3    0    0 -0.47281998825E-01 -0.47048000012E-01  0.12925753945E+00  0.89193980359E+00  0.88000000000E+00 0.  1.
        -11    1    4    4    0    0  0.16792760202E-01  0.20848132783E-01 -0.53664527998E-01  0.59973195029E-01  0.51100000000E-03 0.  1.
         11    1    4    4    0    0  0.31426499395E-01  0.83418425955E-02 -0.60201090480E-01  0.68422537355E-01  0.51100000000E-03 0. -1.
</event>
<event>
 8    1  0.1010879E+005  0.1043930E+01  0.7957747E-01            NaN
         13   -1    0    0    0    0  0.00000000000E+00  0.00000000000E+00  0.74505805969E-08  0.10566000000E+00  0.10566000000E+00 0. -1.
     999900   -1    0    0    0    0 -0.00000000000E+00 -0.00000000000E+00 -0.74505805969E-08  0.93827000000E+00  0.93827000000E+00 0.  1.
     999902    2    1    2    0    0 -0.15047242693E-01  0.18231585235E-01  0.64596503775E-02  0.10194241375E+01  0.10191295476E+01 0.  0.
     999903    2    3    3    0    0 -0.47797865008E-01  0.12190142940E+00 -0.31431119018E-02  0.13268164226E+00  0.21211898869E-01 0.  0.
         14    1    1    2    0    0  0.15047242693E-01 -0.18231585235E-01 -0.64596503775E-02  0.24505862479E-01  0.00000000000E+00 0.  1.
     999901    1    3    3    0    0  0.32750622316E-01 -0.10366984416E+00  0.96027622793E-02  0.88674249526E+00  0.88000000000E+00 0. -1.
        -11    1    4    4    0    0 -0.28053090622E-01  0.96181319290E-01 -0.34848491285E-02  0.10025082228E+00  0.51100000000E-03 0. -1.
         11    1    4    4    0    0 -0.19744774386E-01  0.25720110105E-01  0.34173722669E-03  0.32430819982E-01  0.51100000000E-03 0.  1.
</event>
<event>
 8    1  0.1010879E+005  0.1043930E+01  0.7957747E-01            NaN
         13   -1    0    0    0    0  0.00000000000E+00  0.00000000000E+00  0.74505805969E-08  0.10566000000E+00  0.10566000000E+00 0. -1.
     999900   -1    0    0    0    0 -0.00000000000E+00 -0.00000000000E+00 -0.74505805969E-08  0.93827000000E+00  0.93827000000E+00 0. -1.
     999902    2    1    2    0    0 -0.16986064586E-02 -0.23518344709E-01  0.15665181632E-02  0.10202984156E+01  0.10200247081E+01 0.  0.
     999903    2    3    3    0    0  0.18220744159E-01  0.44892653623E-01  0.11858635555E+00  0.12969722115E+00  0.20280522324E-01 0.  0.
         14    1    1    2    0    0  0.16986064586E-02  0.23518344709E-01 -0.15665181632E-02  0.23631584393E-01  0.00000000000E+00 0.  1.
     999901    1    3    3    0    0 -0.19919350618E-01 -0.68410998332E-01 -0.11701983738E+00  0.89060119445E+00  0.88000000000E+00 0. -1.
        -11    1    4    4    0    0  0.73380207582E-02  0.38397954559E-01  0.79294032347E-01  0.88408450669E-01  0.51100000000E-03 0.  1.
         11    1    4    4    0    0  0.10882723401E-01  0.64946990648E-02  0.39292323201E-01  0.41288770484E-01  0.51100000000E-03 0. -1.
</event>
<event>
 8    1  0.1010879E+005  0.1043930E+01  0.7957747E-01            NaN
         13   -1    0    0    0    0  0.00000000000E+00  0.00000000000E+00  0.74505805969E-08  0.10566000000E+00  0.10566000000E+00 0. -1.
     999900   -1    0    0    0    0 -0.00000000000E+00 -0.00000000000E+00 -0.74505805969E-08  0.93827000000E+00  0.93827000000E+00 0. -1.
     999902    2    1    2    0    0  0.10275973681E-02  0.22637487474E-01  0.29249474241E-02  0.10210812120E+01  0.10208255357E+01 0.  0.
     999903    2    3    3    0    0  0.15277490475E-02 -0.10572008346E+00 -0.70853675171E-01  0.12871402227E+00  0.19182965849E-01 0.  0.
         14    1    1    2    0    0 -0.10275973681E-02 -0.22637487474E-01 -0.29249474241E-02  0.22848787997E-01  0.00000000000E+00 0. -1.
     999901    1    3    3    0    0 -0.50015167940E-03  0.12835757093E+00  0.73778622595E-01  0.89236718974E+00  0.88000000000E+00 0.  1.
        -11    1    4    4    0    0  0.29392482456E-02 -0.43797312692E-01 -0.40534479342E-01  0.59750723140E-01  0.51100000000E-03 0. -1.
         11    1    4    4    0    0 -0.14114991981E-02 -0.61922770768E-01 -0.30319195829E-01  0.68963299125E-01  0.51100000000E-03 0.  1.
</event>
<event>
 8    1  0.1010879E+005  0.1043930E+01  0.7957747E-01            NaN
         13   -1    0    0    0    0  0.00000000000E+00  0.00000000000E+00  0.74505805969E-08  0.10566000000E+00  0.10566000000E+00 0. -1.
     999900   -1    0    0    0    0 -0.00000000000E+00 -0.00000000000E+00 -0.74505805969E-08  0.93827000000E+00  0.93827000000E+00 0.  1.
     999902    2    1    2    0    0 -0.23764774816E-01  0.72789682884E-02 -0.15501163131E-01  0.10146377833E+01  0.10142148674E+01 0.  0.
     999903    2    3    3    0    0 -0.76445905387E-01  0.13603838492E-02  0.97793446731E-01  0.12579246503E+00  0.20355808537E-01 0.  0.
         14    1    1    2    0    0  0.23764774816E-01 -0.72789682884E-02  0.15501163131E-01  0.29292216711E-01  0.00000000000E+00 0. -1.
     999901    1    3    3    0    0  0.52681130570E-01  0.59185844392E-02 -0.11329460986E+00  0.88884531825E+00  0.88000000000E+00 0.  1.
        -11    1    4    4    0    0 -0.28194311548E-01  0.20852878845E-02  0.52381124633E-01  0.59525716863E-01  0.51100000000E-03 0. -1.
         11    1    4    4    0    0 -0.48251593839E-01 -0.72490403529E-03  0.45412322098E-01  0.66266748171E-01  0.51100000000E-03 0.  1.
</event>
<event>
 8    1  0.1010879E+005  0.1043930E+01  0.7957747E-01            NaN
         13   -1    0    0    0    0  0.00000000000E+00  0.00000000000E+00  0.74505805969E-08  0.10566000000E+00  0.10566000000E+00 0.  1.
     999900   -1    0    0    0    0 -0.00000000000E+00 -0.00000000000E+00 -0.74505805969E-08  0.93827000000E+00  0.93827000000E+00 0.  1.
     999902    2    1    2    0    0  0.50182265401E-02  0.10971461652E-01 -0.19218875786E-01  0.10212381346E+01  0.10209859974E+01 0.  0.
     999903    2    3    3    0    0  0.46147305067E-01 -0.10841948628E+00 -0.54905177923E-01  0.13150822519E+00  0.19886577416E-01 0.  0.
         14    1    1    2    0    0 -0.50182265401E-02 -0.10971461652E-01  0.19218875786E-01  0.22691865390E-01  0.00000000000E+00 0.  1.
     999901    1    3    3    0    0 -0.41129078527E-01  0.11939094793E+00  0.35686302137E-01  0.88972990942E+00  0.88000000000E+00 0.  1.
        -11    1    4    4    0    0  0.41282130823E-01 -0.84065371124E-01 -0.50074713570E-01  0.10620234935E+00  0.51100000000E-03 0. -1.
         11    1    4    4    0    0  0.48651742445E-02 -0.24354115154E-01 -0.48304643527E-02  0.25305875844E-01  0.51100000000E-03 0.  1.
</event>
<event>
 8    1  0.1010879E+005  0.1043930E+01  0.7957747E-01            NaN
         13   -1    0    0    0    0  0.00000000000E+00  0.00000000000E+00  0.74505805969E-08  0.10566000000E+00  0.10566000000E+00 0.  1.
     999900   -1    0    0    0    0 -0.00000000000E+00 -0.00000000000E+00 -0.74505805969E-08  0.93827000000E+00  0.93827000000E+00 0.  1.
     999902    2    1    2    0    0  0.11910020175E-01  0.91997495432E-03 -0.20799041013E-01  0.10199446911E+01  0.10196626295E+01 0.  0.
     999903    2    3    3    0    0  0.21994033518E-01  0.89987479371E-01  0.87124890952E-01  0.12883174500E+00  0.20624934983E-01 0.  0.
         14    1    1    2    0    0 -0.11910020175E-01 -0.91997495432E-03  0.20799041013E-01  0.23985308869E-01  0.00000000000E+00 0. -1.
     999901    1    3    3    0    0 -0.10084013343E-01 -0.89067504416E-01 -0.10792393196E+00  0.89111294613E+00  0.88000000000E+00 0.  1.
        -11    1    4    4    0    0  0.17161931845E-01  0.30879561651E-01  0.27930467848E-01  0.45038332425E-01  0.51100000000E-03 0.  1.
         11    1    4    4    0    0  0.48321016732E-02  0.59107917720E-01  0.59194423104E-01  0.83793412577E-01  0.51100000000E-03 0. -1.
</event>
<event>
 8    1  0.1010879E+005  0.1043930E+01  0.7957747E-01            NaN
         13   -1    0    0    0    0  0.00000000000E+00  0.00000000000E+00  0.74505805969E-08  0.10566000000E+00  0.10566000000E+00 0. -1.
     999900   -1    0    0    0    0 -0.00000000000E+00 -0.00000000000E+00 -0.74505805969E-08  0.93827000000E+00  0.93827000000E+00 0. -1.
     999902    2    1    2    0    0 -0.43056780867E-02 -0.79211103970E-02 -0.20877198981E-01  0.10211892812E+01  0.10209360449E+01 0.  0.
     999903    2    3    3    0    0 -0.62125739868E-02  0.10437606275E+00  0.72936516677E-01  0.12910447325E+00  0.20378199053E-01 0.  0.
         14    1    1    2    0    0  0.43056780867E-02  0.79211103970E-02  0.20877198981E-01  0.22740718788E-01  0.00000000000E+00 0. -1.
     999901    1    3    3    0    0  0.19068959001E-02 -0.11229717315E+00 -0.93813715658E-01  0.89208480796E+00  0.88000000000E+00 0. -1.
        -11    1    4    4    0    0 -0.12384505430E-01  0.40579778717E-01  0.28739577029E-01  0.51247622621E-01  0.51100000000E-03 0.  1.
         11    1    4    4    0    0  0.61719314436E-02  0.63796284037E-01  0.44196939648E-01  0.77856850630E-01  0.51100000000E-03 0. -1.
</event>
<event>
 8    1  0.1010879E+005  0.1043930E+01  0.7957747E-01            NaN
         13   -1    0    0    0    0  0.00000000000E+00  0.00000000000E+00  0.74505805969E-08  0.10566000000E+00  0.10566000000E+00 0. -1.
     999900   -1    0    0    0    0 -0.00000000000E+00 -0.00000000000E+00 -0.74505805969E-08  0.93827000000E+00  0.93827000000E+00 0. -1.
     999902    2    1    2    0    0 -0.19420184955E-01 -0.10229985428E-01  0.10965088924E-01  0.10193937134E+01  0.10190983827E+01 0.  0.
     999903    2    3    3    0    0  0.12603720758E+00 -0.24891142758E-02  0.59989389397E-03  0.12735940273E+00  0.18124133223E-01 0.  0.
         14    1    1    2    0    0  0.19420184955E-01  0.10229985428E-01 -0.10965088924E-01  0.24536286611E-01  0.00000000000E+00 0.  1.
     999901    1    3    3    0    0 -0.14545739254E+00 -0.77408711527E-02  0.10365195030E-01  0.89203431066E+00  0.88000000000E+00 0.  1.
        -11    1    4    4    0    0  0.46698794612E-01 -0.75973330195E-02  0.58823974502E-02  0.47679771475E-01  0.51100000000E-03 0. -1.
         11    1    4    4    0    0  0.79338412971E-01  0.51082187437E-02 -0.52825035562E-02  0.79679631251E-01  0.51100000000E-03 0.  1.
</event>
<event>
 8    1  0.1010879E+005  0.1043930E+01  0.7957747E-01            NaN
         13   -1    0    0    0    0  0.00000000000E+00  0.00000000000E+00  0.74505805969E-08  0.10566000000E+00  0.10566000000E+00 0.  1.
     999900   -1    0    0    0    0 -0.00000000000E+00 -0.00000000000E+00 -0.74505805969E-08  0.93827000000E+00  0.93827000000E+00 0.  1.
     999902    2    1    2    0    0 -0.20305139129E-01 -0.13338862546E-01 -0.15108713157E-02  0.10195885403E+01  0.10192979372E+01 0.  0.
     999903    2    3    3    0    0  0.16774316080E-01 -0.12719405114E+00  0.16070430444E-01  0.13130536914E+00  0.22872186276E-01 0.  0.
         14    1    1    2    0    0  0.20305139129E-01  0.13338862546E-01  0.15108713157E-02  0.24341459718E-01  0.00000000000E+00 0. -1.
     999901    1    3    3    0    0 -0.37079455209E-01  0.11385518859E+00 -0.17581301760E-01  0.88828317114E+00  0.88000000000E+00 0.  1.
        -11    1    4    4    0    0  0.96607940526E-03 -0.57243492819E-01 -0.22073344020E-02  0.57296459103E-01  0.51100000000E-03 0.  1.
         11    1    4    4    0    0  0.15808236675E-01 -0.69950558317E-01  0.18277764846E-01  0.74008910034E-01  0.51100000000E-03 0. -1.
</event>
<event>
 8    1  0.1010879E+005  0.1043930E+01  0.7957747E-01            NaN
         13   -1    0    0    0    0  0.00000000000E+00  0.00000000000E+00  0.74505805969E-08  0.10566000000E+00  0.10566000000E+00 0. -1.
     999900   -1    0    0    0    0 -0.00000000000E+00 -0.00000000000E+00 -0.74505805969E-08  0.93827000000E+00  0.93827000000E+00 0.  1.
     999902    2    1    2    0    0  0.12891421734E-01 -0.14958678599E-01  0.13867455251E-01  0.10197999951E+01  0.10195144790E+01 0.  0.
     999903    2    3    3    0    0 -0.88280323775E-01  0.12518930110E-01  0.92685028613E-01  0.13007928000E+00  0.19492700658E-01 0.  0.
         14    1    1    2    0    0 -0.12891421734E-01  0.14958678599E-01 -0.13867455251E-01  0.24130004867E-01  0.00000000000E+00 0.  1.
     999901    1    3    3    0    0  0.10117174551E+00 -0.27477608709E-01 -0.78817573362E-01  0.88972071514E+00  0.88000000000E+00 0. -1.
        -11    1    4    4    0    0 -0.80733233030E-01  0.66659890299E-02  0.87329687865E-01  0.11911769738E+00  0.51100000000E-03 0. -1.
         11    1    4    4    0    0 -0.75470907457E-02  0.58529410797E-02  0.53553407480E-02  0.10961582620E-01  0.51100000000E-03 0.  1.
</event>
<event>
 8    1  0.1010879E+005  0.1043930E+01  0.7957747E-01            NaN
         13   -1    0    0    0    0  0.00000000000E+00  0.00000000000E+00  0.74505805969E-08  0.10566000000E+00  0.10566000000E+00 0.  1.
     999900   -1    0    0    0    0 -0.00000000000E+00 -0.00000000000E+00 -0.74505805969E-08  0.93827000000E+00  0.93827000000E+00 0. -1.
     999902    2    1    2    0    0  0.55490616172E-02 -0.12753007242E-01  0.19974770103E-01  0.10195902646E+01  0.10192997032E+01 0.  0.
     999903    2    3    3    0    0 -0.88544747194E-01 -0.74177249112E-01 -0.54222902915E-01  0.12934767012E+00  0.21172152088E-01 0.  0.
         14    1    1    2    0    0 -0.55490616172E-02  0.12753007242E-01 -0.19974770103E-01  0.24339735398E-01  0.00000000000E+00 0. -1.
     999901    1    3    3    0    0  0.94093808811E-01  0.61424241870E-01  0.74197673018E-01  0.89024259448E+00  0.88000000000E+00 0.  1.
        -11    1    4    4    0    0 -0.52190257278E-01 -0.47939732993E-01 -0.43814870339E-01  0.83318935051E-01  0.51100000000E-03 0. -1.
         11    1    4    4    0    0 -0.36354489916E-01 -0.26237516119E-01 -0.10408032575E-01  0.46028735071E-01  0.51100000000E-03 0.  1.
</event>
<event>
 8    1  0.1010879E+005  0.1043930E+01  0.7957747E-01            NaN
         13   -1    0    0    0    0  0.00000000000E+00  0.00000000000E+00  0.74505805969E-08  0.10566000000E+00  0.10566000000E+00 0. -1.
     999900   -1    0    0    0    0 -0.00000000000E+00 -0.00000000000E+00 -0.74505805969E-08  0.93827000000E+00  0.93827000000E+00 0.  1.
     999902    2    1    2    0    0  0.10728808424E-02 -0.22669045410E-01  0.10256581062E-01  0.10190254994E+01  0.10187211269E+01 0.  0.
     999903    2    3    3    0    0  0.74232428980E-01  0.19196077274E-01  0.10320230944E+00  0.13012510209E+00  0.20071936253E-01 0.  0.
         14    1    1    2    0    0 -0.10728808424E-02  0.22669045410E-01 -0.10256581062E-01  0.24904500561E-01  0.00000000000E+00 0.  1.
     999901    1    3    3    0    0 -0.73159548138E-01 -0.41865122684E-01 -0.92945728381E-01  0.88890039735E+00  0.88000000000E+00 0.  1.
        -11    1    4    4    0    0  0.35841867622E-01  0.35203908420E-02  0.34492314513E-01  0.49869965989E-01  0.51100000000E-03 0.  1.
         11    1    4    4    0    0  0.38390561359E-01  0.15675686432E-01  0.68709994930E-01  0.80255136102E-01  0.51100000000E-03 0. -1.
</event>
<event>
 8    1  0.1010879E+005  0.1043930E+01  0.7957747E-01            NaN
         13   -1    0    0    0    0  0.00000000000E+00  0.00000000000E+00  0.74505805969E-08  0.10566000000E+00  0.10566000000E+00 0.  1.
     999900   -1    0    0    0    0 -0.00000000000E+00 -0.00000000000E+00 -0.74505805969E-08  0.93827000000E+00  0.93827000000E+00 0. -1.
     999902    2    1    2    0    0 -0.12859553563E-01  0.19153240887E-01 -0.65691490484E-02  0.10199431604E+01  0.10196610623E+01 0.  0.
     999903    2    3    3    0    0 -0.38181687404E-02 -0.10991302803E+00 -0.63766022266E-01  0.12864560588E+00  0.19701121080E-01 0.  0.
         14    1    1    2    0    0  0.12859553563E-01 -0.19153240887E-01  0.65691490484E-02  0.23986839591E-01  0.00000000000E+00 0.  1.
     999901    1    3    3    0    0 -0.90413848228E-02  0.12906626892E+00  0.57196873217E-01  0.89129755453E+00  0.88000000000E+00 0.  1.
        -11    1    4    4    0    0 -0.10146264532E-01 -0.56055458577E-01 -0.26399523580E-01  0.62788192253E-01  0.51100000000E-03 0.  1.
         11    1    4    4    0    0  0.63280957913E-02 -0.53857569455E-01 -0.37366498686E-01  0.65857413622E-01  0.51100000000E-03 0. -1.
</event>
<event>
 8    1  0.1010879E+005  0.1043930E+01  0.7957747E-01            NaN
         13   -1    0    0    0    0  0.00000000000E+00  0.00000000000E+00  0.74505805969E-08  0.10566000000E+00  0.10566000000E+00 0. -1.
     999900   -1    0    0    0    0 -0.00000000000E+00 -0.00000000000E+00 -0.74505805969E-08  0.93827000000E+00  0.93827000000E+00 0. -1.
     999902    2    1    2    0    0 -0.45381455884E-02 -0.18618513572E-02 -0.23400934776E-01  0.10200204830E+01  0.10197402222E+01 0.  0.
     999903    2    3    3    0    0  0.10441260264E+00 -0.71058803186E-01  0.20427901725E-01  0.12952654668E+00  0.20210938266E-01 0.  0.
         14    1    1    2    0    0  0.45381455884E-02  0.18618513572E-02  0.23400934776E-01  0.23909517022E-01  0.00000000000E+00 0. -1.
     999901    1    3    3    0    0 -0.10895074822E+00  0.69196951828E-01 -0.43828836501E-01  0.89049393630E+00  0.88000000000E+00 0.  1.
        -11    1    4    4    0    0  0.25476058813E-01 -0.10485984447E-01 -0.16590405015E-02  0.27604328987E-01  0.51100000000E-03 0.  1.
         11    1    4    4    0    0  0.78936543823E-01 -0.60572818739E-01  0.22086942226E-01  0.10192221769E+00  0.51100000000E-03 0. -1.
</event>
<event>
 8    1  0.1010879E+005  0.1043930E+01  0.7957747E-01            NaN
         13   -1    0    0    0    0  0.00000000000E+00  0.00000000000E+00  0.74505805969E-08  0.10566000000E+00  0.10566000000E+00 0. -1.
     999900   -1    0    0    0    0 -0.00000000000E+00 -0.00000000000E+00 -0.74505805969E-08  0.93827000000E+00  0.93827000000E+00 0.  1.
     999902    2    1    2    0    0 -0.20408721012E-01  0.51430300663E-02  0.60802563893E-02  0.10220225545E+01  0.10217877302E+01 0.  0.
     999903    2    3    3    0    0  0.56622340530E-01  0.11252125767E+00  0.33302768145E-01  0.13173892925E+00  0.19466592844E-01 0.  0.
         14    1    1    2    0    0  0.20408721012E-01 -0.51430300663E-02 -0.60802563893E-02  0.21907445524E-01  0.00000000000E+00 0.  1.
     999901    1    3    3    0    0 -0.77031061543E-01 -0.10737822761E+00 -0.27222511755E-01  0.89028362523E+00  0.88000000000E+00 0. -1.
        -11    1    4    4    0    0  0.55781441612E-01  0.11115505509E+00  0.29853061060E-01  0.12790028099E+00  0.51100000000E-03 0.  1.
         11    1    4    4    0    0  0.84089891878E-03  0.13662025817E-02  0.34497070842E-02  0.38386482585E-02  0.51100000000E-03 0. -1.
</event>
<event>
 8    1  0.1010879E+005  0.1043930E+01  0.7957747E-01            NaN
         13   -1    0    0    0    0  0.00000000000E+00  0.00000000000E+00  0.74505805969E-08  0.10566000000E+00  0.10566000000E+00 0. -1.
     999900   -1    0    0    0    0 -0.00000000000E+00 -0.00000000000E+00 -0.74505805969E-08  0.93827000000E+00  0.93827000000E+00 0.  1.
     999902    2    1    2    0    0  0.44614461459E-02 -0.19098463696E-01 -0.14331158355E-01  0.10196393039E+01  0.10193499262E+01 0.  0.
     999903    2    3    3    0    0  0.42188404260E-01  0.11645056574E+00  0.24333118709E-01  0.12762372720E+00  0.18844611019E-01 0.  0.
         14    1    1    2    0    0 -0.44614461459E-02  0.19098463696E-01  0.14331158355E-01  0.24290696100E-01  0.00000000000E+00 0. -1.
     999901    1    3    3    0    0 -0.37726958114E-01 -0.13554902943E+00 -0.38664277064E-01  0.89201557670E+00  0.88000000000E+00 0.  1.
        -11    1    4    4    0    0  0.33922419662E-01  0.70580985838E-01  0.19912754424E-01  0.80803372624E-01  0.51100000000E-03 0. -1.
         11    1    4    4    0    0  0.82659845980E-02  0.45869579899E-01  0.44203642852E-02  0.46820354579E-01  0.51100000000E-03 0.  1.
</event>
<event>
 8    1  0.1010879E+005  0.1043930E+01  0.7957747E-01            NaN
         13   -1    0    0    0    0  0.00000000000E+00  0.00000000000E+00  0.74505805969E-08  0.10566000000E+00  0.10566000000E+00 0. -1.
     999900   -1    0    0    0    0 -0.00000000000E+00 -0.00000000000E+00 -0.74505805969E-08  0.93827000000E+00  0.93827000000E+00 0. -1.
     999902    2    1    2    0    0 -0.21780233409E-01 -0.99588435898E-02 -0.94810339437E-03  0.10199621876E+01  0.10196805421E+01 0.  0.
     999903    2    3    3    0    0  0.60984584840E-02 -0.13011991601E+00 -0.36624225764E-02  0.13135469698E+00  0.16500283123E-01 0.  0.
         14    1    1    2    0    0  0.21780233409E-01  0.99588435898E-02  0.94810339437E-03  0.23967812437E-01  0.00000000000E+00 0.  1.
     999901    1    3    3    0    0 -0.27878691893E-01  0.12016107242E+00  0.27143191821E-02  0.88860749058E+00  0.88000000000E+00 0.  1.
        -11    1    4    4    0    0  0.22501144862E-02 -0.46249699754E-01 -0.91999646853E-02  0.47212267619E-01  0.51100000000E-03 0. -1.
         11    1    4    4    0    0  0.38483439978E-02 -0.83870216252E-01  0.55375421089E-02  0.84142429364E-01  0.51100000000E-03 0.  1.
</event>
<event>
 8    1  0.1010879E+005  0.1043930E+01  0.7957747E-01            NaN
         13   -1    0    0    0    0  0.00000000000E+00  0.00000000000E+00  0.74505805969E-08  0.10566000000E+00  0.10566000000E+00 0. -1.
     999900   -1    0    0    0    0 -0.00000000000E+00 -0.00000000000E+00 -0.74505805969E-08  0.93827000000E+00  0.93827000000E+00 0. -1.
     999902    2    1    2    0    0  0.97353113045E-03 -0.11154886482E-01 -0.22828800711E-01  0.10185029790E+01  0.10181855356E+01 0.  0.
     999903    2    3    3    0    0  0.10743694745E+00 -0.69889253310E-01 -0.91036139662E-02  0.13003656679E+00  0.19985682656E-01 0.  0.
         14    1    1    2    0    0 -0.97353113045E-03  0.11154886482E-01  0.22828800711E-01  0.25427021005E-01  0.00000000000E+00 0.  1.
     999901    1    3    3    0    0 -0.10646341632E+00  0.58734366828E-01 -0.13725186745E-01  0.88846641220E+00  0.88000000000E+00 0.  1.
        -11    1    4    4    0    0  0.33503550832E-01 -0.25732810795E-01 -0.11838816256E-01  0.43875781031E-01  0.51100000000E-03 0.  1.
         11    1    4    4    0    0  0.73933396614E-01 -0.44156442515E-01  0.27352022895E-02  0.86160785761E-01  0.51100000000E-03 0. -1.
</event>
<event>
 8    1  0.1010879E+005  0.1043930E+01  0.7957747E-01            NaN
         13   -1    0    0    0    0  0.00000000000E+00  0.00000000000E+00  0.74505805969E-08  0.10566000000E+00  0.10566000000E+00 0.  1.
     999900   -1    0    0    0    0 -0.00000000000E+00 -0.00000000000E+00 -0.74505805969E-08  0.93827000000E+00  0.93827000000E+00 0.  1.
     999902    2    1    2    0    0  0.41810249900E-03  0.23976949546E-01 -0.27562351185E-02  0.10197915296E+01  0.10195058108E+01 0.  0.
     999903    2    3    3    0    0  0.49197118800E-01  0.76481329448E-01 -0.93694849093E-01  0.13220720472E+00  0.20742950130E-01 0.  0.
         14    1    1    2    0    0 -0.41810249900E-03 -0.23976949546E-01  0.27562351185E-02  0.24138470359E-01  0.00000000000E+00 0. -1.
     999901    1    3    3    0    0 -0.48779016301E-01 -0.52504379902E-01  0.90938613974E-01  0.88758432492E+00  0.88000000000E+00 0. -1.
        -11    1    4    4    0    0  0.26124977753E-01  0.54903061549E-01 -0.69961867277E-01  0.92691880032E-01  0.51100000000E-03 0. -1.
         11    1    4    4    0    0  0.23072141047E-01  0.21578267899E-01 -0.23732981816E-01  0.39515324684E-01  0.51100000000E-03 0.  1.
</event>
<event>
 8    1  0.1010879E+005  0.1043930E+01  0.7957747E-01            NaN
         13   -1    0    0    0    0  0.00000000000E+00  0.00000000000E+00  0.74505805969E-08  0.10566000000E+00  0.10566000000E+00 0. -1.
     999900   -1    0    0    0    0 -0.00000000000E+00 -0.00000000000E+00 -0.74505805969E-08  0.93827000000E+00  0.93827000000E+00 0.  1.
     999902    2    1    2    0    0 -0.22876110346E-01 -0.21388103388E-02  0.98622518035E-03  0.10209329660E+01  0.10206739232E+01 0.  0.
     999903    2    3    3    0    0  0.91283668252E-02  0.12763000006E+00 -0.18627577767E-01  0.13062463062E+00  0.18521972765E-01 0.  0.
         14    1    1    2    0    0  0.22876110346E-01  0.21388103388E-02 -0.98622518035E-03  0.22997034034E-01  0.00000000000E+00 0.  1.
     999901    1    3    3    0    0 -0.32004477172E-01 -0.12976881040E+00  0.19613802947E-01  0.89030833534E+00  0.88000000000E+00 0. -1.
        -11    1    4    4    0    0  0.31450250406E-03  0.93051118052E-01 -0.80433217460E-02  0.93400030130E-01  0.51100000000E-03 0.  1.
         11    1    4    4    0    0  0.88138643211E-02  0.34578882012E-01 -0.10584256021E-01  0.37224600495E-01  0.51100000000E-03 0. -1.
</event>
<event>
 8    1  0.1010879E+005  0.1043930E+01  0.7957747E-01            NaN
         13   -1    0    0    0    0  0.00000000000E+00  0.00000000000E+00  0.74505805969E-08  0.10566000000E+00  0.10566000000E+00 0. -1.
     999900   -1    0    0    0    0 -0.00000000000E+00 -0.00000000000E+00 -0.74505805969E-08  0.93827000000E+00  0.93827000000E+00 0. -1.
     999902    2    1    2    0    0 -0.15766914019E-02  0.95960577744E-02 -0.21032525549E-01  0.10207580900E+01  0.10204950470E+01 0.  0.
     999903    2    3    3    0    0  0.11655438125E+00 -0.64969817875E-02  0.53153290459E-01  0.12962539983E+00  0.18717303068E-01 0.  0.
         14    1    1    2    0    0  0.15766914019E-02 -0.95960577744E-02  0.21032525549E-01  0.23171909968E-01  0.00000000000E+00 0. -1.
     999901    1    3    3    0    0 -0.11813107265E+00  0.16093039562E-01 -0.74185816008E-01  0.89113269020E+00  0.88000000000E+00 0. -1.
        -11    1    4    4    0    0  0.35156897344E-01 -0.47679560931E-02  0.74455663656E-02  0.36255184673E-01  0.51100000000E-03 0.  1.
         11    1    4    4    0    0  0.81397483904E-01 -0.17290256943E-02  0.45707724094E-01  0.93370215158E-01  0.51100000000E-03 0. -1.
</event>
<event>
 8    1  0.1010879E+005  0.1043930E+01  0.7957747E-01            NaN
         13   -1    0    0    0    0  0.00000000000E+00  0.00000000000E+00  0.74505805969E-08  0.10566000000E+00  0.10566000000E+00 0. -1.
     999900   -1    0    0    0    0 -0.00000000000E+00 -0.00000000000E+00 -0.74505805969E-08  0.93827000000E+00  0.93827000000E+00 0.  1.
     999902    2    1    2    0    0  0.22253660452E-01  0.87072610040E-02  0.32288421706E-02  0.10198163686E+01  0.10195312445E+01 0.  0.
     999903    2    3    3    0    0  0.58183357288E-01  0.58042810992E-01  0.10082704906E+00  0.13231969277E+00  0.24251521591E-01 0.  0.
         14    1    1    2    0    0 -0.22253660452E-01 -0.87072610040E-02 -0.32288421706E-02  0.24113631404E-01  0.00000000000E+00 0. -1.
     999901    1    3    3    0    0 -0.35929696836E-01 -0.49335549988E-01 -0.97598206893E-01  0.88749667582E+00  0.88000000000E+00 0.  1.
        -11    1    4    4    0    0  0.24946420533E-01  0.41525601122E-01  0.60595361867E-01  0.77580657685E-01  0.51100000000E-03 0.  1.
         11    1    4    4    0    0  0.33236936755E-01  0.16517209870E-01  0.40231687197E-01  0.54739035089E-01  0.51100000000E-03 0. -1.
</event>
<event>
 8    1  0.1010879E+005  0.1043930E+01  0.7957747E-01            NaN
         13   -1    0    0    0    0  0.00000000000E+00  0.00000000000E+00  0.74505805969E-08  0.10566000000E+00  0.10566000000E+00 0.  1.
     999900   -1    0    0    0    0 -0.00000000000E+00 -0.00000000000E+00 -0.74505805969E-08  0.93827000000E+00  0.93827000000E+00 0. -1.
     999902    2    1    2    0    0  0.19625203159E-01  0.82987679063E-02  0.10037861298E-01  0.10203762995E+01  0.10201044142E+01 0.  0.
     999903    2    3    3    0    0 -0.11054978173E+00  0.42393734989E-01 -0.45796337928E-01  0.12839790779E+00  0.19241495525E-01 0.  0.
         14    1    1    2    0    0 -0.19625203159E-01 -0.82987679063E-02 -0.10037861298E-01  0.23553700500E-01  0.00000000000E+00 0. -1.
     999901    1    3    3    0    0  0.13017498489E+00 -0.34094967082E-01  0.55834199226E-01  0.89197839171E+00  0.88000000000E+00 0.  1.
        -11    1    4    4    0    0 -0.54045505445E-01  0.19331081326E-01 -0.12029950033E-01  0.58648002378E-01  0.51100000000E-03 0. -1.
         11    1    4    4    0    0 -0.56504276288E-01  0.23062653662E-01 -0.33766387895E-01  0.69749905414E-01  0.51100000000E-03 0.  1.
</event>
<event>
 8    1  0.1010879E+005  0.1043930E+01  0.7957747E-01            NaN
         13   -1    0    0    0    0  0.00000000000E+00  0.00000000000E+00  0.74505805969E-08  0.10566000000E+00  0.10566000000E+00 0. -1.
     999900   -1    0    0    0    0 -0.00000000000E+00 -0.00000000000E+00 -0.74505805969E-08  0.93827000000E+00  0.93827000000E+00 0.  1.
     999902    2    1    2    0    0  0.18363793785E-01  0.14141413105E-01 -0.14156775125E-01  0.10167707885E+01  0.10164079956E+01 0.  0.
     999903    2    3    3    0    0  0.77987649437E-01  0.92452844538E-01 -0.38788439431E-01  0.13094100614E+00  0.31802549056E-01 0.  0.
         14    1    1    2    0    0 -0.18363793785E-01 -0.14141413105E-01  0.14156775125E-01  0.27159211490E-01  0.00000000000E+00 0. -1.
     999901    1    3    3    0    0 -0.59623855651E-01 -0.78311431433E-01  0.24631664306E-01  0.88582978237E+00  0.88000000000E+00 0. -1.
        -11    1    4    4    0    0  0.49407700191E-01  0.41846526377E-01 -0.32594211261E-01  0.72490663790E-01  0.51100000000E-03 0.  1.
         11    1    4    4    0    0  0.28579949246E-01  0.50606318161E-01 -0.61942281704E-02  0.58450342346E-01  0.51100000000E-03 0. -1.
</event>
<event>
 8    1  0.1010879E+005  0.1043930E+01  0.7957747E-01            NaN
         13   -1    0    0    0    0  0.00000000000E+00  0.00000000000E+00  0.74505805969E-08  0.10566000000E+00  0.10566000000E+00 0. -1.
     999900   -1    0    0    0    0 -0.00000000000E+00 -0.00000000000E+00 -0.74505805969E-08  0.93827000000E+00  0.93827000000E+00 0.  1.
     999902    2    1    2    0    0 -0.18528910465E-01  0.12132723661E-01  0.34969431916E-04  0.10217822071E+01  0.10215421450E+01 0.  0.
     999903    2    3    3    0    0 -0.37546864326E-01  0.85111287473E-01  0.93782853250E-01  0.13359516654E+00  0.19968642477E-01 0.  0.
         14    1    1    2    0    0  0.18528910465E-01 -0.12132723661E-01 -0.34969431916E-04  0.22147792877E-01  0.00000000000E+00 0.  1.
     999901    1    3    3    0    0  0.19017953861E-01 -0.72978563812E-01 -0.93747883818E-01  0.88818704059E+00  0.88000000000E+00 0.  1.
        -11    1    4    4    0    0 -0.34576565483E-01  0.76167055241E-01  0.74031061764E-01  0.11170415575E+00  0.51100000000E-03 0.  1.
         11    1    4    4    0    0 -0.29702988431E-02  0.89442322321E-02  0.19751791485E-01  0.21891010788E-01  0.51100000000E-03 0. -1.
</event>
<event>
 8    1  0.1010879E+005  0.1043930E+01  0.7957747E-01            NaN
         13   -1    0    0    0    0  0.00000000000E+00  0.00000000000E+00  0.74505805969E-08  0.10566000000E+00  0.10566000000E+00 0.  1.
     999900   -1    0    0    0    0 -0.00000000000E+00 -0.00000000000E+00 -0.74505805969E-08  0.93827000000E+00  0.93827000000E+00 0.  1.
     999902    2    1    2    0    0 -0.50603943730E-02 -0.22469102977E-01  0.48400902785E-02  0.10203950334E+01  0.10201235854E+01 0.  0.
     999903    2    3    3    0    0  0.50069941177E-01 -0.41879948986E-01  0.11259688403E+00  0.13189761558E+00  0.21400784231E-01 0.  0.
         14    1    1    2    0    0  0.50603943730E-02  0.22469102977E-01 -0.48400902785E-02  0.23534966618E-01  0.00000000000E+00 0. -1.
     999901    1    3    3    0    0 -0.55130335550E-01  0.19410846009E-01 -0.10775679375E+00  0.88849741780E+00  0.88000000000E+00 0.  1.
        -11    1    4    4    0    0  0.14617203501E-01 -0.83992997324E-02  0.48564790695E-01  0.51410221653E-01  0.51100000000E-03 0. -1.
         11    1    4    4    0    0  0.35452737676E-01 -0.33480649253E-01  0.64032093336E-01  0.80487393927E-01  0.51100000000E-03 0.  1.
</event>
<event>
 8    1  0.1010879E+005  0.1043930E+01  0.7957747E-01            NaN
         13   -1    0    0    0    0  0.00000000000E+00  0.00000000000E+00  0.74505805969E-08  0.10566000000E+00  0.10566000000E+00 0.  1.
     999900   -1    0    0    0    0 -0.00000000000E+00 -0.00000000000E+00 -0.74505805969E-08  0.93827000000E+00  0.93827000000E+00 0. -1.
     999902    2    1    2    0    0 -0.22246865162E-01  0.50383352133E-02 -0.73593518075E-02  0.10199619402E+01  0.10196802889E+01 0.  0.
     999903    2    3    3    0    0 -0.89668588591E-01 -0.55839896544E-01  0.75485259149E-01  0.13141533059E+00  0.20332607796E-01 0.  0.
         14    1    1    2    0    0  0.22246865162E-01 -0.50383352133E-02  0.73593518075E-02  0.23968059794E-01  0.00000000000E+00 0.  1.
     999901    1    3    3    0    0  0.67421723429E-01  0.60878231757E-01 -0.82844610957E-01  0.88854660961E+00  0.88000000000E+00 0. -1.
        -11    1    4    4    0    0 -0.47357827956E-01 -0.38955209236E-01  0.50597000861E-01  0.79502137157E-01  0.51100000000E-03 0.  1.
         11    1    4    4    0    0 -0.42310760636E-01 -0.16884687308E-01  0.24888258288E-01  0.51913193435E-01  0.51100000000E-03 0. -1.
</event>
<event>
 8    1  0.1010879E+005  0.1043930E+01  0.7957747E-01            NaN
         13   -1    0    0    0    0  0.00000000000E+00  0.00000000000E+00  0.74505805969E-08  0.10566000000E+00  0.10566000000E+00 0.  1.
     999900   -1    0    0    0    0 -0.00000000000E+00 -0.00000000000E+00 -0.74505805969E-08  0.93827000000E+00  0.93827000000E+00 0.  1.
     999902    2    1    2    0    0 -0.16170281994E-01  0.12796079969E-01  0.91487865739E-02  0.10213707895E+01  0.10211216243E+01 0.  0.
     999903    2    3    3    0    0  0.16856309700E-01  0.12379866679E+00 -0.39090674369E-01  0.13247294631E+00  0.20267106522E-01 0.  0.
         14    1    1    2    0    0  0.16170281994E-01 -0.12796079969E-01 -0.91487865739E-02  0.22559210494E-01  0.00000000000E+00 0. -1.
     999901    1    3    3    0    0 -0.33026591694E-01 -0.11100258682E+00  0.48239460943E-01  0.88889784319E+00  0.88000000000E+00 0. -1.
        -11    1    4    4    0    0  0.30705220566E-02  0.69681846901E-01 -0.29832841008E-01  0.75863346992E-01  0.51100000000E-03 0. -1.
         11    1    4    4    0    0  0.13785787643E-01  0.54116819889E-01 -0.92578333617E-02  0.56609599322E-01  0.51100000000E-03 0.  1.
</event>
<event>
 8    1  0.1010879E+005  0.1043930E+01  0.7957747E-01            NaN
         13   -1    0    0    0    0  0.00000000000E+00  0.00000000000E+00  0.74505805969E-08  0.10566000000E+00  0.10566000000E+00 0. -1.
     999900   -1    0    0    0    0 -0.00000000000E+00 -0.00000000000E+00 -0.74505805969E-08  0.93827000000E+00  0.93827000000E+00 0. -1.
     999902    2    1    2    0    0  0.11990321515E-01  0.78351875803E-02 -0.19890993318E-01  0.10194185825E+01  0.10191238574E+01 0.  0.
     999903    2    3    3    0    0 -0.44935072162E-01  0.66893988802E-01 -0.10228347471E+00  0.13177171381E+00  0.20196755025E-01 0.  0.
         14    1    1    2    0    0 -0.11990321515E-01 -0.78351875803E-02  0.19890993318E-01  0.24511417536E-01  0.00000000000E+00 0. -1.
     999901    1    3    3    0    0  0.56925393677E-01 -0.59058801221E-01  0.82392481388E-01  0.88764686866E+00  0.88000000000E+00 0.  1.
        -11    1    4    4    0    0 -0.24374370892E-01  0.39952921166E-01 -0.74326148113E-01  0.87834977545E-01  0.51100000000E-03 0.  1.
         11    1    4    4    0    0 -0.20560701269E-01  0.26941067636E-01 -0.27957326594E-01  0.43936736262E-01  0.51100000000E-03 0. -1.
</event>
<event>
 8    1  0.1010879E+005  0.1043930E+01  0.7957747E-01            NaN
         13   -1    0    0    0    0  0.00000000000E+00  0.00000000000E+00  0.74505805969E-08  0.10566000000E+00  0.10566000000E+00 0.  1.
     999900   -1    0    0    0    0 -0.00000000000E+00 -0.00000000000E+00 -0.74505805969E-08  0.93827000000E+00  0.93827000000E+00 0. -1.
     999902    2    1    2    0    0 -0.51718832091E-02  0.18091401417E-01 -0.12309923219E-01  0.10214448629E+01  0.10211973495E+01 0.  0.
     999903    2    3    3    0    0 -0.12127047916E+00  0.72908044025E-02  0.47051656906E-01  0.13177113951E+00  0.19750692322E-01 0.  0.
         14    1    1    2    0    0  0.51718832091E-02 -0.18091401417E-01  0.12309923219E-01  0.22485137109E-01  0.00000000000E+00 0.  1.
     999901    1    3    3    0    0  0.11609859595E+00  0.10800597015E-01 -0.59361580124E-01  0.88967372338E+00  0.88000000000E+00 0. -1.
        -11    1    4    4    0    0 -0.42109931314E-01  0.30938679331E-02  0.64868488118E-02  0.42721875691E-01  0.51100000000E-03 0. -1.
         11    1    4    4    0    0 -0.79160547842E-01  0.41969364694E-02  0.40564808094E-01  0.89049263821E-01  0.51100000000E-03 0.  1.
</event>
<event>
 8    1  0.1010879E+005  0.1043930E+01  0.7957747E-01            NaN
         13   -1    0    0    0    0  0.00000000000E+00  0.00000000000E+00  0.74505805969E-08  0.10566000000E+00  0.10566000000E+00 0. -1.
     999900   -1    0    0    0    0 -0.00000000000E+00 -0.00000000000E+00 -0.74505805969E-08  0.93827000000E+00  0.93827000000E+00 0. -1.
     999902    2    1    2    0    0  0.17033975156E-01 -0.14379182429E-01  0.81207325941E-02  0.10202052556E+01  0.10199293604E+01 0.  0.
     999903    2    3    3    0    0 -0.72638987982E-01  0.71344778412E-01  0.76501826507E-01  0.12887713885E+00  0.19755694814E-01 0.  0.
         14    1    1    2    0    0 -0.17033975156E-01  0.14379182429E-01 -0.81207325941E-02  0.23724744357E-01  0.00000000000E+00 0.  1.
     999901    1    3    3    0    0  0.89672963138E-01 -0.85723960841E-01 -0.68381093913E-01  0.89132811679E+00  0.88000000000E+00 0. -1.
        -11    1    4    4    0    0 -0.46055472933E-01  0.52926373235E-01  0.61170896667E-01  0.93083012902E-01  0.51100000000E-03 0.  1.
         11    1    4    4    0    0 -0.26583515049E-01  0.18418405177E-01  0.15330929841E-01  0.35794125948E-01  0.51100000000E-03 0. -1.
</event>
<event>
 8    1  0.1010879E+005  0.1043930E+01  0.7957747E-01            NaN
         13   -1    0    0    0    0  0.00000000000E+00  0.00000000000E+00  0.74505805969E-08  0.10566000000E+00  0.10566000000E+00 0. -1.
     999900   -1    0    0    0    0 -0.00000000000E+00 -0.00000000000E+00 -0.74505805969E-08  0.93827000000E+00  0.93827000000E+00 0.  1.
     999902    2    1    2    0    0  0.69627039646E-02 -0.46892565335E-02 -0.20981182364E-01  0.10213318057E+01  0.10210817690E+01 0.  0.
     999903    2    3    3    0    0 -0.99337844713E-01  0.77265612410E-01 -0.30904459791E-01  0.13109875831E+00  0.19844811450E-01 0.  0.
         14    1    1    2    0    0 -0.69627039646E-02  0.46892565335E-02  0.20981182364E-01  0.22598194324E-01  0.00000000000E+00 0. -1.
     999901    1    3    3    0    0  0.10630054868E+00 -0.81954868943E-01  0.99232774274E-02  0.89023304737E+00  0.88000000000E+00 0.  1.
        -11    1    4    4    0    0 -0.81514386928E-01  0.53313929078E-01 -0.21014839292E-01  0.99643639543E-01  0.51100000000E-03 0.  1.
         11    1    4    4    0    0 -0.17823457784E-01  0.23951683331E-01 -0.98896204997E-02  0.31455118764E-01  0.51100000000E-03 0. -1.
</event>
<event>
 8    1  0.1010879E+005  0.1043930E+01  0.7957747E-01            NaN
         13   -1    0    0    0    0  0.00000000000E+00  0.00000000000E+00  0.74505805969E-08  0.10566000000E+00  0.10566000000E+00 0. -1.
     999900   -1    0    0    0    0 -0.00000000000E+00 -0.00000000000E+00 -0.74505805969E-08  0.93827000000E+00  0.93827000000E+00 0. -1.
     999902    2    1    2    0    0 -0.87974961358E-02 -0.17294609929E-01 -0.15754466716E-01  0.10189359469E+01  0.10186293541E+01 0.  0.
     999903    2    3    3    0    0  0.68068507626E-01  0.40844415566E-02 -0.10870130399E+00  0.13045152891E+00  0.23486666732E-01 0.  0.
         14    1    1    2    0    0  0.87974961358E-02  0.17294609929E-01  0.15754466716E-01  0.24994053140E-01  0.00000000000E+00 0. -1.
     999901    1    3    3    0    0 -0.76866003762E-01 -0.21379051486E-01  0.92946837270E-01  0.88848441795E+00  0.88000000000E+00 0.  1.
        -11    1    4    4    0    0  0.41612676471E-01  0.13490702958E-01 -0.71826857207E-01  0.84100965788E-01  0.51100000000E-03 0.  1.
         11    1    4    4    0    0  0.26455831156E-01 -0.94062614014E-02 -0.36874446779E-01  0.46350563124E-01  0.51100000000E-03 0. -1.
</event>
<event>
 8    1  0.1010879E+005  0.1043930E+01  0.7957747E-01            NaN
         13   -1    0    0    0    0  0.00000000000E+00  0.00000000000E+00  0.74505805969E-08  0.10566000000E+00  0.10566000000E+00 0.  1.
     999900   -1    0    0    0    0 -0.00000000000E+00 -0.00000000000E+00 -0.74505805969E-08  0.93827000000E+00  0.93827000000E+00 0. -1.
     999902    2    1    2    0    0  0.69488950379E-02  0.14062283702E-01  0.19542921636E-01  0.10188708549E+01  0.10185626433E+01 0.  0.
     999903    2    3    3    0    0  0.17005271223E-01 -0.92230643933E-01  0.87563998972E-01  0.12981169823E+00  0.19696500997E-01 0.  0.
         14    1    1    2    0    0 -0.69488950379E-02 -0.14062283702E-01 -0.19542921636E-01  0.25059145061E-01  0.00000000000E+00 0. -1.
     999901    1    3    3    0    0 -0.10056376185E-01  0.10629292763E+00 -0.68021077336E-01  0.88905915671E+00  0.88000000000E+00 0. -1.
        -11    1    4    4    0    0  0.36577240753E-02 -0.39962933641E-01  0.49806113642E-01  0.63963466820E-01  0.51100000000E-03 0. -1.
         11    1    4    4    0    0  0.13347547148E-01 -0.52267710292E-01  0.37757885330E-01  0.65848231408E-01  0.51100000000E-03 0.  1.
</event>
<event>
 8    1  0.1010879E+005  0.1043930E+01  0.7957747E-01            NaN
         13   -1    0    0    0    0  0.00000000000E+00  0.00000000000E+00  0.74505805969E-08  0.10566000000E+00  0.10566000000E+00 0. -1.
     999900   -1    0    0    0    0 -0.00000000000E+00 -0.00000000000E+00 -0.74505805969E-08  0.93827000000E+00  0.93827000000E+00 0. -1.
     999902    2    1    2    0    0  0.11952068194E-01 -0.18457357696E-01  0.65724106349E-02  0.10209795628E+01  0.10207215806E+01 0.  0.
     999903    2    3    3    0    0 -0.43371932418E-01  0.10939149048E+00 -0.48024814478E-01  0.12835033963E+00  0.17883069281E-01 0.  0.
         14    1    1    2    0    0 -0.11952068194E-01  0.18457357696E-01 -0.65724106349E-02  0.22950437225E-01  0.00000000000E+00 0.  1.
     999901    1    3    3    0    0  0.55324000613E-01 -0.12784884817E+00  0.54597225113E-01  0.89262922315E+00  0.88000000000E+00 0.  1.
        -11    1    4    4    0    0 -0.13376796612E-01  0.56879760708E-01 -0.20764161669E-01  0.62013364662E-01  0.51100000000E-03 0.  1.
         11    1    4    4    0    0 -0.29995135806E-01  0.52511729769E-01 -0.27260652810E-01  0.66336974968E-01  0.51100000000E-03 0. -1.
</event>
<event>
 8    1  0.1010879E+005  0.1043930E+01  0.7957747E-01            NaN
         13   -1    0    0    0    0  0.00000000000E+00  0.00000000000E+00  0.74505805969E-08  0.10566000000E+00  0.10566000000E+00 0.  1.
     999900   -1    0    0    0    0 -0.00000000000E+00 -0.00000000000E+00 -0.74505805969E-08  0.93827000000E+00  0.93827000000E+00 0.  1.
     999902    2    1    2    0    0  0.18610231561E-01 -0.14059316338E-01  0.34930541077E-02  0.10203459689E+01  0.10200733747E+01 0.  0.
     999903    2    3    3    0    0 -0.29994543288E-01  0.93577014972E-02  0.12491643567E+00  0.13037157691E+00  0.20134372637E-01 0.  0.
         14    1    1    2    0    0 -0.18610231561E-01  0.14059316338E-01 -0.34930541077E-02  0.23584031073E-01  0.00000000000E+00 0.  1.
     999901    1    3    3    0    0  0.48604774849E-01 -0.23417017835E-01 -0.12142338156E+00  0.88997439202E+00  0.88000000000E+00 0.  1.
        -11    1    4    4    0    0 -0.14643630982E-01  0.14701479563E-01  0.61743249282E-01  0.65138770195E-01  0.51100000000E-03 0. -1.
         11    1    4    4    0    0 -0.15350912307E-01 -0.53437780654E-02  0.63173186384E-01  0.65232806712E-01  0.51100000000E-03 0.  1.
</event>
<event>
 8    1  0.1010879E+005  0.1043930E+01  0.7957747E-01            NaN
         13   -1    0    0    0    0  0.00000000000E+00  0.00000000000E+00  0.74505805969E-08  0.10566000000E+00  0.10566000000E+00 0. -1.
     999900   -1    0    0    0    0 -0.00000000000E+00 -0.00000000000E+00 -0.74505805969E-08  0.93827000000E+00  0.93827000000E+00 0.  1.
     999902    2    1    2    0    0  0.14730600253E-01  0.17035958471E-01  0.62724848797E-02  0.10205514087E+01  0.10202835975E+01 0.  0.
     999903    2    3    3    0    0 -0.49382827875E-02  0.91073548085E-01 -0.92942644683E-01  0.13166892402E+00  0.19483135087E-01 0.  0.
         14    1    1    2    0    0 -0.14730600253E-01 -0.17035958471E-01 -0.62724848797E-02  0.23378591305E-01  0.00000000000E+00 0.  1.
     999901    1    3    3    0    0  0.19668883041E-01 -0.74037589615E-01  0.99215129563E-01  0.88888248468E+00  0.88000000000E+00 0. -1.
        -11    1    4    4    0    0 -0.29599765029E-02  0.88790244166E-01 -0.92986068886E-01  0.12860458409E+00  0.51100000000E-03 0. -1.
         11    1    4    4    0    0 -0.19783062846E-02  0.22833039193E-02  0.43424202352E-04  0.30643399297E-02  0.51100000000E-03 0.  1.
</event>
<event>
 8    1  0.1010879E+005  0.1043930E+01  0.7957747E-01            NaN
         13   -1    0    0    0    0  0.00000000000E+00  0.00000000000E+00  0.74505805969E-08  0.10566000000E+00  0.10566000000E+00 0.  1.
     999900   -1    0    0    0    0 -0.00000000000E+00 -0.00000000000E+00 -0.74505805969E-08  0.93827000000E+00  0.93827000000E+00 0. -1.
     999902    2    1    2    0    0  0.33011517866E-02  0.84886874845E-02 -0.21642387774E-01  0.10204491915E+01  0.10201790059E+01 0.  0.
     999903    2    3    3    0    0 -0.41202902293E-01  0.53467076030E-01 -0.11371110691E+00  0.13338644554E+00  0.17473426704E-01 0.  0.
         14    1    1    2    0    0 -0.33011517866E-02 -0.84886874845E-02  0.21642387774E-01  0.23480808480E-01  0.00000000000E+00 0.  1.
     999901    1    3    3    0    0  0.44504054079E-01 -0.44978388545E-01  0.92068719141E-01  0.88706274598E+00  0.88000000000E+00 0.  1.
        -11    1    4    4    0    0 -0.21901233383E-01  0.41728155217E-01 -0.76895322505E-01  0.90188994372E-01  0.51100000000E-03 0.  1.
         11    1    4    4    0    0 -0.19301668910E-01  0.11738920812E-01 -0.36815784410E-01  0.43197451166E-01  0.51100000000E-03 0. -1.
</event>
<event>
 8    1  0.1010879E+005  0.1043930E+01  0.7957747E-01            NaN
         13   -1    0    0    0    0  0.00000000000E+00  0.00000000000E+00  0.74505805969E-08  0.10566000000E+00  0.10566000000E+00 0. -1.
     999900   -1    0    0    0    0 -0.00000000000E+00 -0.00000000000E+00 -0.74505805969E-08  0.93827000000E+00  0.93827000000E+00 0. -1.
     999902    2    1    2    0    0 -0.15326360686E-03 -0.87822656847E-02 -0.21088219091E-01  0.10210856426E+01  0.10208300666E+01 0.  0.
     999903    2    3    3    0    0 -0.10268519847E+00 -0.78129549896E-01  0.16409490832E-01  0.13163192164E+00  0.20229059627E-01 0.  0.
         14    1    1    2    0    0  0.15326360686E-03  0.87822656847E-02  0.21088219091E-01  0.22844357393E-01  0.00000000000E+00 0. -1.
     999901    1    3    3    0    0  0.10253193486E+00  0.69347284211E-01 -0.37497709923E-01  0.88945372097E+00  0.88000000000E+00 0. -1.
        -11    1    4    4    0    0 -0.64791421464E-01 -0.53877196988E-01  0.16616049325E-02  0.84283466365E-01  0.51100000000E-03 0. -1.
         11    1    4    4    0    0 -0.37893777005E-01 -0.24252352908E-01  0.14747885900E-01  0.47348455274E-01  0.51100000000E-03 0.  1.
</event>
<event>
 8    1  0.1010879E+005  0.1043930E+01  0.7957747E-01            NaN
         13   -1    0    0    0    0  0.00000000000E+00  0.00000000000E+00  0.74505805969E-08  0.10566000000E+00  0.10566000000E+00 0.  1.
     999900   -1    0    0    0    0 -0.00000000000E+00 -0.00000000000E+00 -0.74505805969E-08  0.93827000000E+00  0.93827000000E+00 0.  1.
     999902    2    1    2    0    0 -0.18578158199E-01  0.14097791339E-01 -0.61225159861E-02  0.10198181588E+01  0.10195330775E+01 0.  0.
     999903    2    3    3    0    0 -0.89915772341E-01 -0.22122649472E-01  0.90675191446E-01  0.13090265571E+00  0.18418935702E-01 0.  0.
         14    1    1    2    0    0  0.18578158199E-01 -0.14097791339E-01  0.61225159861E-02  0.24111841172E-01  0.00000000000E+00 0.  1.
     999901    1    3    3    0    0  0.71337614142E-01  0.36220440810E-01 -0.96797707432E-01  0.88891550312E+00  0.88000000000E+00 0.  1.
        -11    1    4    4    0    0 -0.45180491387E-01 -0.19700756188E-01  0.42139712225E-01  0.64849156230E-01  0.51100000000E-03 0. -1.
         11    1    4    4    0    0 -0.44735280954E-01 -0.24218932836E-02  0.48535479221E-01  0.66053499478E-01  0.51100000000E-03 0.  1.
</event>
<event>
 8    1  0.1010879E+005  0.1043930E+01  0.7957747E-01            NaN
         13   -1    0    0    0    0  0.00000000000E+00  0.00000000000E+00  0.74505805969E-08  0.10566000000E+00  0.10566000000E+00 0.  1.
     999900   -1    0    0    0    0 -0.00000000000E+00 -0.00000000000E+00 -0.74505805969E-08  0.93827000000E+00  0.93827000000E+00 0.  1.
     999902    2    1    2    0    0 -0.87836033186E-02 -0.17720802592E-02  0.22629566929E-01  0.10195909520E+01  0.10193004073E+01 0.  0.
     999903    2    3    3    0    0  0.11229616922E+00 -0.37482432187E-01  0.50229650427E-01  0.13015444214E+00  0.20044916642E-01 0.  0.
         14    1    1    2    0    0  0.87836033186E-02  0.17720802592E-02 -0.22629566929E-01  0.24339047950E-01  0.00000000000E+00 0. -1.
     999901    1    3    3    0    0 -0.12107977254E+00  0.35710351928E-01 -0.27600083497E-01  0.88943650991E+00  0.88000000000E+00 0. -1.
        -11    1    4    4    0    0  0.91480710298E-01 -0.22360980637E-01  0.36627325433E-01  0.10104729537E+00  0.51100000000E-03 0.  1.
         11    1    4    4    0    0  0.20815458919E-01 -0.15121451550E-01  0.13602324994E-01  0.29107146772E-01  0.51100000000E-03 0. -1.
</event>
<event>
 8    1  0.1010879E+005  0.1043930E+01  0.7957747E-01            NaN
         13   -1    0    0    0    0  0.00000000000E+00  0.00000000000E+00  0.74505805969E-08  0.10566000000E+00  0.10566000000E+00 0.  1.
     999900   -1    0    0    0    0 -0.00000000000E+00 -0.00000000000E+00 -0.74505805969E-08  0.93827000000E+00  0.93827000000E+00 0.  1.
     999902    2    1    2    0    0 -0.12823460618E-01  0.19268054628E-01  0.40946964996E-02  0.10204254130E+01  0.10201546735E+01 0.  0.
     999903    2    3    3    0    0 -0.95016904122E-01 -0.12958648954E-01 -0.87426285568E-01  0.13128514692E+00  0.19907178151E-01 0.  0.
         14    1    1    2    0    0  0.12823460618E-01 -0.19268054628E-01 -0.40946964996E-02  0.23504587016E-01  0.00000000000E+00 0. -1.
     999901    1    3    3    0    0  0.82193443504E-01  0.32226703582E-01  0.91520982068E-01  0.88914026606E+00  0.88000000000E+00 0. -1.
        -11    1    4    4    0    0 -0.90672575851E-01 -0.14920739396E-01 -0.77302761868E-01  0.12008381485E+00  0.51100000000E-03 0.  1.
         11    1    4    4    0    0 -0.43443282706E-02  0.19620904420E-02 -0.10123523700E-01  0.11201332069E-01  0.51100000000E-03 0. -1.
</event>
<event>
 8    1  0.1010879E+005  0.1043930E+01  0.7957747E-01            NaN
         13   -1    0    0    0    0  0.00000000000E+00  0.00000000000E+00  0.74505805969E-08  0.10566000000E+00  0.10566000000E+00 0. -1.
     999900   -1    0    0    0    0 -0.00000000000E+00 -0.00000000000E+00 -0.74505805969E-08  0.93827000000E+00  0.93827000000E+00 0.  1.
     999902    2    1    2    0    0  0.13967351543E-01  0.15184975884E-01 -0.12387364278E-01  0.10198651461E+01  0.10195811880E+01 0.  0.
     999903    2    3    3    0    0 -0.59196027949E-01  0.11125791332E+00 -0.33698556383E-01  0.13136244132E+00  0.15427419928E-01 0.  0.
         14    1    1    2    0    0 -0.13967351543E-01 -0.15184975884E-01  0.12387364278E-01  0.24064853946E-01  0.00000000000E+00 0. -1.
     999901    1    3    3    0    0  0.73163379492E-01 -0.96072937440E-01  0.21311192105E-01  0.88850270473E+00  0.88000000000E+00 0.  1.
        -11    1    4    4    0    0 -0.59964774946E-02  0.10680438432E-01  0.12789992433E-02  0.12325845509E-01  0.51100000000E-03 0.  1.
         11    1    4    4    0    0 -0.53199550454E-01  0.10057747489E+00 -0.34977555626E-01  0.11903659581E+00  0.51100000000E-03 0. -1.
</event>
<event>
 8    1  0.1010879E+005  0.1043930E+01  0.7957747E-01            NaN
         13   -1    0    0    0    0  0.00000000000E+00  0.00000000000E+00  0.74505805969E-08  0.10566000000E+00  0.10566000000E+00 0.  1.
     999900   -1    0    0    0    0 -0.00000000000E+00 -0.00000000000E+00 -0.74505805969E-08  0.93827000000E+00  0.93827000000E+00 0. -1.
     999902    2    1    2    0    0 -0.12717875964E-01 -0.11624660482E-01 -0.15919181208E-01  0.10204715808E+01  0.10202019162E+01 0.  0.
     999903    2    3    3    0    0  0.10162876297E+00  0.70304766085E-01  0.27234218536E-01  0.12825535103E+00  0.20894181328E-01 0.  0.
         14    1    1    2    0    0  0.12717875964E-01  0.11624660482E-01  0.15919181208E-01  0.23458419186E-01  0.00000000000E+00 0. -1.
     999901    1    3    3    0    0 -0.11434663893E+00 -0.81929426567E-01 -0.43153399744E-01  0.89221622978E+00  0.88000000000E+00 0.  1.
        -11    1    4    4    0    0  0.60908253938E-01  0.34110455455E-01  0.71027184351E-02  0.70171563324E-01  0.51100000000E-03 0. -1.
         11    1    4    4    0    0  0.40720509029E-01  0.36194310630E-01  0.20131500101E-01  0.58083787711E-01  0.51100000000E-03 0.  1.
</event>
<event>
 7    1  0.1010879E+005  0.1043930E+01  0.7957747E-01            NaN
         13   -1    0    0    0    0  0.00000000000E+00  0.00000000000E+00  0.74505805969E-08  0.10566000000E+00  0.10566000000E+00 0.  1.
     999900   -1    0    0    0    0 -0.00000000000E+00 -0.00000000000E+00 -0.74505805969E-08  0.93827000000E+00  0.93827000000E+00 0. -1.
     999903    2    1    2    0    0 -0.58722738662E-01 -0.86263734907E-01 -0.99701207963E-01  0.14566899782E+00  0.19731549873E-01 0.  0.
         14    1    1    2    0    0  0.27632134468E-02  0.11067343151E-02  0.69232919612E-02  0.75360587164E-02  0.00000000000E+00 0.  1.
     999901    1    1    2    0    0  0.55959525215E-01  0.85157000591E-01  0.92777916002E-01  0.89072494346E+00  0.88000000000E+00 0.  1.
        -11    1    3    3    0    0 -0.33002991259E-01 -0.46321187080E-01 -0.40815539280E-01  0.70007279424E-01  0.51100000000E-03 0. -1.
         11    1    3    3    0    0 -0.25719747403E-01 -0.39942547826E-01 -0.58885668683E-01  0.75661718395E-01  0.51100000000E-03 0.  1.
</event>
<event>
 8    1  0.1010879E+005  0.1043930E+01  0.7957747E-01            NaN
         13   -1    0    0    0    0  0.00000000000E+00  0.00000000000E+00  0.74505805969E-08  0.10566000000E+00  0.10566000000E+00 0.  1.
     999900   -1    0    0    0    0 -0.00000000000E+00 -0.00000000000E+00 -0.74505805969E-08  0.93827000000E+00  0.93827000000E+00 0.  1.
     999902    2    1    2    0    0  0.17139375820E-01 -0.17297867021E-01  0.43001681034E-02  0.10192021644E+01  0.10189021475E+01 0.  0.
     999903    2    3    3    0    0 -0.64133982318E-01  0.11323230533E-01  0.10922713139E+00  0.12878979164E+00  0.20368135910E-01 0.  0.
         14    1    1    2    0    0 -0.17139375820E-01  0.17297867021E-01 -0.43001681034E-02  0.24727835585E-01  0.00000000000E+00 0.  1.
     999901    1    3    3    0    0  0.81273358138E-01 -0.28621097554E-01 -0.10492696329E+00  0.89041237278E+00  0.88000000000E+00 0.  1.
        -11    1    4    4    0    0 -0.35450790608E-01  0.14879039162E-01  0.72356258205E-01  0.81937986206E-01  0.51100000000E-03 0.  1.
         11    1    4    4    0    0 -0.28683191711E-01 -0.35558086287E-02  0.36870873188E-01  0.46851805433E-01  0.51100000000E-03 0. -1.
</event>
<event>
 8    1  0.1010879E+005  0.1043930E+01  0.7957747E-01            NaN
         13   -1    0    0    0    0  0.00000000000E+00  0.00000000000E+00  0.74505805969E-08  0.10566000000E+00  0.10566000000E+00 0. -1.
     999900   -1    0    0    0    0 -0.00000000000E+00 -0.00000000000E+00 -0.74505805969E-08  0.93827000000E+00  0.93827000000E+00 0. -1.
     999902    2    1    2    0    0  0.12442008110E-01  0.56962159200E-02 -0.20883190291E-01  0.10189628600E+01  0.10186569354E+01 0.  0.
     999903    2    3    3    0    0 -0.11139172344E+00  0.34829926203E-01 -0.51831882198E-01  0.12927674253E+00  0.20116966343E-01 0.  0.
         14    1    1    2    0    0 -0.12442008110E-01 -0.56962159200E-02  0.20883190291E-01  0.24967139971E-01  0.00000000000E+00 0. -1.
     999901    1    3    3    0    0  0.12383373155E+00 -0.29133710283E-01  0.30948691907E-01  0.88968611750E+00  0.88000000000E+00 0. -1.
        -11    1    4    4    0    0 -0.22919354243E-01 -0.15128951587E-03 -0.14194197846E-01  0.26963977098E-01  0.51100000000E-03 0. -1.
         11    1    4    4    0    0 -0.88472369201E-01  0.34981215719E-01 -0.37637684352E-01  0.10231276543E+00  0.51100000000E-03 0.  1.
</event>
<event>
 8    1  0.1010879E+005  0.1043930E+01  0.7957747E-01            NaN
         13   -1    0    0    0    0  0.00000000000E+00  0.00000000000E+00  0.74505805969E-08  0.10566000000E+00  0.10566000000E+00 0.  1.
     999900   -1    0    0    0    0 -0.00000000000E+00 -0.00000000000E+00 -0.74505805969E-08  0.93827000000E+00  0.93827000000E+00 0. -1.
     999902    2    1    2    0    0 -0.21310335902E-03  0.18952976759E-01 -0.14954343785E-01  0.10197868200E+01  0.10195009883E+01 0.  0.
     999903    2    3    3    0    0 -0.10072906250E+00  0.82171219810E-01  0.48109756312E-02  0.13159164320E+00  0.19868610298E-01 0.  0.
         14    1    1    2    0    0  0.21310335902E-03 -0.18952976759E-01  0.14954343785E-01  0.24143179971E-01  0.00000000000E+00 0.  1.
     999901    1    3    3    0    0  0.10051595914E+00 -0.63218243051E-01 -0.19765319417E-01  0.88819517683E+00  0.88000000000E+00 0. -1.
        -11    1    4    4    0    0 -0.24364154736E-01  0.15879526802E-01 -0.65937975625E-02  0.29824665879E-01  0.51100000000E-03 0. -1.
         11    1    4    4    0    0 -0.76364907765E-01  0.66291693008E-01  0.11404773194E-01  0.10176697732E+00  0.51100000000E-03 0.  1.
</event>
<event>
 8    1  0.1010879E+005  0.1043930E+01  0.7957747E-01            NaN
         13   -1    0    0    0    0  0.00000000000E+00  0.00000000000E+00  0.74505805969E-08  0.10566000000E+00  0.10566000000E+00 0.  1.
     999900   -1    0    0    0    0 -0.00000000000E+00 -0.00000000000E+00 -0.74505805969E-08  0.93827000000E+00  0.93827000000E+00 0. -1.
     999902    2    1    2    0    0 -0.37316853549E-02 -0.17969228839E-01 -0.15847278618E-01  0.10196822187E+01  0.10193938749E+01 0.  0.
     999903    2    3    3    0    0 -0.57990781483E-01 -0.60381715254E-01  0.97137818380E-01  0.12978980905E+00  0.20018903586E-01 0.  0.
         14    1    1    2    0    0  0.37316853549E-02  0.17969228839E-01  0.15847278618E-01  0.24247781347E-01  0.00000000000E+00 0.  1.
     999901    1    3    3    0    0  0.54259096128E-01  0.42412486414E-01 -0.11298509700E+00  0.88989240960E+00  0.88000000000E+00 0. -1.
        -11    1    4    4    0    0 -0.16757405782E-01 -0.31515172093E-01  0.38221607948E-01  0.52298844688E-01  0.51100000000E-03 0. -1.
         11    1    4    4    0    0 -0.41233375701E-01 -0.28866543161E-01  0.58916210432E-01  0.77490964367E-01  0.51100000000E-03 0.  1.
</event>
<event>
 8    1  0.1010879E+005  0.1043930E+01  0.7957747E-01            NaN
         13   -1    0    0    0    0  0.00000000000E+00  0.00000000000E+00  0.74505805969E-08  0.10566000000E+00  0.10566000000E+00 0.  1.
     999900   -1    0    0    0    0 -0.00000000000E+00 -0.00000000000E+00 -0.74505805969E-08  0.93827000000E+00  0.93827000000E+00 0. -1.
     999902    2    1    2    0    0 -0.16051645253E-02  0.24456857268E-01 -0.14035189695E-02  0.10193803710E+01  0.10190847150E+01 0.  0.
     999903    2    3    3    0    0 -0.69250646224E-01 -0.93195052556E-01 -0.49279451373E-01  0.12769096989E+00  0.19888429793E-01 0.  0.
         14    1    1    2    0    0  0.16051645253E-02 -0.24456857268E-01  0.14035189695E-02  0.24549629042E-01  0.00000000000E+00 0.  1.
     999901    1    3    3    0    0  0.67645481699E-01  0.11765190982E+00  0.47875932403E-01  0.89168940107E+00  0.88000000000E+00 0.  1.
        -11    1    4    4    0    0 -0.22595719838E-01 -0.41151022014E-01 -0.27827566713E-01  0.54576622815E-01  0.51100000000E-03 0.  1.
         11    1    4    4    0    0 -0.46654926387E-01 -0.52044030542E-01 -0.21451884660E-01  0.73114347071E-01  0.51100000000E-03 0. -1.
</event>
<event>
 8    1  0.1010879E+005  0.1043930E+01  0.7957747E-01            NaN
         13   -1    0    0    0    0  0.00000000000E+00  0.00000000000E+00  0.74505805969E-08  0.10566000000E+00  0.10566000000E+00 0.  1.
     999900   -1    0    0    0    0 -0.00000000000E+00 -0.00000000000E+00 -0.74505805969E-08  0.93827000000E+00  0.93827000000E+00 0.  1.
     999902    2    1    2    0    0  0.70415690641E-02 -0.18084807650E-01 -0.13697935123E-01  0.10201754764E+01  0.10198988800E+01 0.  0.
     999903    2    3    3    0    0  0.90768278106E-01  0.85612352003E-01  0.27252285563E-01  0.12919838174E+00  0.19523822596E-01 0.  0.
         14    1    1    2    0    0 -0.70415690641E-02  0.18084807650E-01  0.13697935123E-01  0.23754523553E-01  0.00000000000E+00 0. -1.
     999901    1    3    3    0    0 -0.83726709042E-01 -0.10369715965E+00 -0.40950220686E-01  0.89097709471E+00  0.88000000000E+00 0.  1.
        -11    1    4    4    0    0  0.51084766585E-01  0.52323011542E-01  0.25235942260E-01  0.77359322752E-01  0.51100000000E-03 0. -1.
         11    1    4    4    0    0  0.39683511521E-01  0.33289340461E-01  0.20163433029E-02  0.51839058983E-01  0.51100000000E-03 0.  1.
</event>
<event>
 8    1  0.1010879E+005  0.1043930E+01  0.7957747E-01            NaN
         13   -1    0    0    0    0  0.00000000000E+00  0.00000000000E+00  0.74505805969E-08  0.10566000000E+00  0.10566000000E+00 0. -1.
     999900   -1    0    0    0    0 -0.00000000000E+00 -0.00000000000E+00 -0.74505805969E-08  0.93827000000E+00  0.93827000000E+00 0. -1.
     999902    2    1    2    0    0 -0.15925897506E-01  0.13684070278E-01 -0.10773323359E-01  0.10203301592E+01  0.10200571951E+01 0.  0.
     999903    2    3    3    0    0 -0.36594333704E-01  0.12613989217E+00 -0.37112338293E-03  0.13287215910E+00  0.20111073478E-01 0.  0.
         14    1    1    2    0    0  0.15925897506E-01 -0.13684070278E-01  0.10773323359E-01  0.23599840824E-01  0.00000000000E+00 0. -1.
     999901    1    3    3    0    0  0.20668436198E-01 -0.11245582189E+00 -0.10402199976E-01  0.88745800007E+00  0.88000000000E+00 0. -1.
        -11    1    4    4    0    0 -0.26434105421E-01  0.80135524798E-01 -0.93757928036E-02  0.84903656433E-01  0.51100000000E-03 0.  1.
         11    1    4    4    0    0 -0.10160228283E-01  0.46004367370E-01  0.90046694207E-02  0.47968502668E-01  0.51100000000E-03 0. -1.
</event>
<event>
 8    1  0.1010879E+005  0.1043930E+01  0.7957747E-01            NaN
         13   -1    0    0    0    0  0.00000000000E+00  0.00000000000E+00  0.74505805969E-08  0.10566000000E+00  0.10566000000E+00 0. -1.
     999900   -1    0    0    0    0 -0.00000000000E+00 -0.00000000000E+00 -0.74505805969E-08  0.93827000000E+00  0.93827000000E+00 0.  1.
     999902    2    1    2    0    0  0.18139118616E-01  0.24230438768E-01 -0.25873290908E-02  0.10135517832E+01  0.10130964323E+01 0.  0.
     999903    2    3    3    0    0 -0.19591355526E-01  0.88039706228E-01 -0.86384473465E-01  0.12646826245E+00  0.19928197803E-01 0.  0.
         14    1    1    2    0    0 -0.18139118616E-01 -0.24230438768E-01  0.25873290908E-02  0.30378216848E-01  0.00000000000E+00 0. -1.
     999901    1    3    3    0    0  0.37730474141E-01 -0.63809267459E-01  0.83797144374E-01  0.88708352070E+00  0.88000000000E+00 0. -1.
        -11    1    4    4    0    0  0.35901846300E-03  0.30067630257E-01 -0.37401525474E-01  0.47992983990E-01  0.51100000000E-03 0. -1.
         11    1    4    4    0    0 -0.19950373989E-01  0.57972075971E-01 -0.48982947991E-01  0.78475278461E-01  0.51100000000E-03 0.  1.
</event>
<event>
 8    1  0.1010879E+005  0.1043930E+01  0.7957747E-01            NaN
         13   -1    0    0    0    0  0.00000000000E+00  0.00000000000E+00  0.74505805969E-08  0.10566000000E+00  0.10566000000E+00 0. -1.
     999900   -1    0    0    0    0 -0.00000000000E+00 -0.00000000000E+00 -0.74505805969E-08  0.93827000000E+00  0.93827000000E+00 0.  1.
     999902    2    1    2    0    0  0.10423442784E-01 -0.38860608980E-03 -0.21116658045E-01  0.10203776663E+01  0.10201058129E+01 0.  0.
     999903    2    3    3    0    0  0.43477969007E-01  0.12093683088E+00  0.13417453819E-01  0.13076816310E+00  0.20105560445E-01 0.  0.
         14    1    1    2    0    0 -0.10423442784E-01  0.38860608980E-03  0.21116658045E-01  0.23552333667E-01  0.00000000000E+00 0. -1.
     999901    1    3    3    0    0 -0.33054526223E-01 -0.12132543697E+00 -0.34534111864E-01  0.88960950323E+00  0.88000000000E+00 0.  1.
        -11    1    4    4    0    0  0.34676454280E-01  0.81452723890E-01  0.13068409301E-02  0.88537967363E-01  0.51100000000E-03 0. -1.
         11    1    4    4    0    0  0.88015147263E-02  0.39484106992E-01  0.12110612889E-01  0.42230195737E-01  0.51100000000E-03 0.  1.
</event>
<event>
 8    1  0.1010879E+005  0.1043930E+01  0.7957747E-01            NaN
         13   -1    0    0    0    0  0.00000000000E+00  0.00000000000E+00  0.74505805969E-08  0.10566000000E+00  0.10566000000E+00 0.  1.
     999900   -1    0    0    0    0 -0.00000000000E+00 -0.00000000000E+00 -0.74505805969E-08  0.93827000000E+00  0.93827000000E+00 0.  1.
     999902    2    1    2    0    0 -0.58439708334E-02 -0.45922171716E-02 -0.23708118347E-01  0.10190841688E+01  0.10187812463E+01 0.  0.
     999903    2    3    3    0    0 -0.93028654858E-01  0.22524369305E-01 -0.88624343232E-01  0.13198181017E+00  0.20080990146E-01 0.  0.
         14    1    1    2    0    0  0.58439708334E-02  0.45922171716E-02  0.23708118347E-01  0.24845831224E-01  0.00000000000E+00 0.  1.
     999901    1    3    3    0    0  0.87184684025E-01 -0.27116586477E-01  0.64916224885E-01  0.88710235861E+00  0.88000000000E+00 0.  1.
        -11    1    4    4    0    0 -0.17632922721E-01  0.18446862222E-02 -0.73239605697E-02  0.19189172738E-01  0.51100000000E-03 0. -1.
         11    1    4    4    0    0 -0.75395732137E-01  0.20679683083E-01 -0.81300382662E-01  0.11279263743E+00  0.51100000000E-03 0.  1.
</event>
<event>
 8    1  0.1010879E+005  0.1043930E+01  0.7957747E-01            NaN
         13   -1    0    0    0    0  0.00000000000E+00  0.00000000000E+00  0.74505805969E-08  0.10566000000E+00  0.10566000000E+00 0. -1.
     999900   -1    0    0    0    0 -0.00000000000E+00 -0.00000000000E+00 -0.74505805969E-08  0.93827000000E+00  0.93827000000E+00 0. -1.
     999902    2    1    2    0    0 -0.11482632749E-01 -0.16747007888E-01 -0.53628491392E-02  0.10229282553E+01  0.10227126392E+01 0.  0.
     999903    2    3    3    0    0 -0.43775313141E-02 -0.62716396005E-01  0.11603219176E+00  0.13337756928E+00  0.19328666637E-01 0.  0.
         14    1    1    2    0    0  0.11482632749E-01  0.16747007888E-01  0.53628491392E-02  0.21001744664E-01  0.00000000000E+00 0. -1.
     999901    1    3    3    0    0 -0.71051014352E-02  0.45969388117E-01 -0.12139504090E+00  0.88955068606E+00  0.88000000000E+00 0. -1.
        -11    1    4    4    0    0  0.75737437107E-03 -0.35539749311E-01  0.46414643960E-01  0.58465611192E-01  0.51100000000E-03 0.  1.
         11    1    4    4    0    0 -0.51349056852E-02 -0.27176646694E-01  0.69617547799E-01  0.74911958087E-01  0.51100000000E-03 0. -1.
</event>
<event>
 8    1  0.1010879E+005  0.1043930E+01  0.7957747E-01            NaN
         13   -1    0    0    0    0  0.00000000000E+00  0.00000000000E+00  0.74505805969E-08  0.10566000000E+00  0.10566000000E+00 0.  1.
     999900   -1    0    0    0    0 -0.00000000000E+00 -0.00000000000E+00 -0.74505805969E-08  0.93827000000E+00  0.93827000000E+00 0.  1.
     999902    2    1    2    0    0  0.21228890100E-01  0.17461094520E-01 -0.97521238359E-02  0.10147639321E+01  0.10143447039E+01 0.  0.
     999903    2    3    3    0    0 -0.96746457363E-01  0.20356959056E-02 -0.75510894646E-01  0.12432564595E+00  0.19772454568E-01 0.  0.
         14    1    1    2    0    0 -0.21228890100E-01 -0.17461094520E-01  0.97521238359E-02  0.29166067888E-01  0.00000000000E+00 0.  1.
     999901    1    3    3    0    0  0.11797534746E+00  0.15425398615E-01  0.65758770811E-01  0.89043828617E+00  0.88000000000E+00 0. -1.
        -11    1    4    4    0    0 -0.43574844380E-01  0.41365957258E-02 -0.45899239433E-01  0.63426175894E-01  0.51100000000E-03 0.  1.
         11    1    4    4    0    0 -0.53171612983E-01 -0.21008998202E-02 -0.29611655213E-01  0.60899470053E-01  0.51100000000E-03 0. -1.
</event>
<event>
 8    1  0.1010879E+005  0.1043930E+01  0.7957747E-01            NaN
         13   -1    0    0    0    0  0.00000000000E+00  0.00000000000E+00  0.74505805969E-08  0.10566000000E+00  0.10566000000E+00 0. -1.
     999900   -1    0    0    0    0 -0.00000000000E+00 -0.00000000000E+00 -0.74505805969E-08  0.93827000000E+00  0.93827000000E+00 0.  1.
     999902    2    1    2    0    0 -0.27046885107E-02  0.15977752616E-01  0.32409674127E-01  0.10076947838E+01  0.10070430906E+01 0.  0.
     999903    2    3    3    0    0  0.71666278246E-01  0.94598520003E-01  0.67411767169E-02  0.12069357885E+00  0.20894044315E-01 0.  0.
         14    1    1    2    0    0  0.27046885107E-02 -0.15977752616E-01 -0.32409674127E-01  0.36235216235E-01  0.00000000000E+00 0.  1.
     999901    1    3    3    0    0 -0.74370966756E-01 -0.78620767387E-01  0.25668497410E-01  0.88700120491E+00  0.88000000000E+00 0. -1.
        -11    1    4    4    0    0  0.21000094502E-01  0.14192664534E-01  0.35701959897E-02  0.25601623310E-01  0.51100000000E-03 0.  1.
         11    1    4    4    0    0  0.50666183743E-01  0.80405855469E-01  0.31709807273E-02  0.95091955541E-01  0.51100000000E-03 0. -1.
</event>
<event>
 8    1  0.1010879E+005  0.1043930E+01  0.7957747E-01            NaN
         13   -1    0    0    0    0  0.00000000000E+00  0.00000000000E+00  0.74505805969E-08  0.10566000000E+00  0.10566000000E+00 0. -1.
     999900   -1    0    0    0    0 -0.00000000000E+00 -0.00000000000E+00 -0.74505805969E-08  0.93827000000E+00  0.93827000000E+00 0.  1.
     999902    2    1    2    0    0  0.33482201872E-02  0.15753040253E-01 -0.23773527225E-01  0.10152150309E+01  0.10148088536E+01 0.  0.
     999903    2    3    3    0    0 -0.95151149153E-01 -0.47717411252E-01  0.59335335941E-01  0.12356616101E+00  0.20426001437E-01 0.  0.
         14    1    1    2    0    0 -0.33482201872E-02 -0.15753040253E-01  0.23773527225E-01  0.28714969133E-01  0.00000000000E+00 0.  1.
     999901    1    3    3    0    0  0.98499369340E-01  0.63470451505E-01 -0.83108863165E-01  0.89164886985E+00  0.88000000000E+00 0.  1.
        -11    1    4    4    0    0 -0.61339752240E-01 -0.41342117825E-01  0.40010686497E-01  0.84100250095E-01  0.51100000000E-03 0. -1.
         11    1    4    4    0    0 -0.33811396913E-01 -0.63752934269E-02  0.19324649443E-01  0.39465910918E-01  0.51100000000E-03 0.  1.
</event>
<event>
 8    1  0.1010879E+005  0.1043930E+01  0.7957747E-01            NaN
         13   -1    0    0    0    0  0.00000000000E+00  0.00000000000E+00  0.74505805969E-08  0.10566000000E+00  0.10566000000E+00 0. -1.
     999900   -1    0    0    0    0 -0.00000000000E+00 -0.00000000000E+00 -0.74505805969E-08  0.93827000000E+00  0.93827000000E+00 0. -1.
     999902    2    1    2    0    0 -0.12119379654E-01  0.20122382062E-01  0.47243984272E-02  0.10199694165E+01  0.10196879429E+01 0.  0.
     999903    2    3    3    0    0  0.38648289247E-01  0.12428803143E+00  0.13004135572E-01  0.13233413507E+00  0.20050205617E-01 0.  0.
         14    1    1    2    0    0  0.12119379654E-01 -0.20122382062E-01 -0.47243984272E-02  0.23960583539E-01  0.00000000000E+00 0.  1.
     999901    1    3    3    0    0 -0.50767668902E-01 -0.10416564937E+00 -0.82797371448E-02  0.88763528139E+00  0.88000000000E+00 0.  1.
        -11    1    4    4    0    0  0.14460076049E-01  0.28177532129E-01 -0.34721838238E-02  0.31865095288E-01  0.51100000000E-03 0.  1.
         11    1    4    4    0    0  0.24188213199E-01  0.96110499302E-01  0.16476319396E-01  0.10046903979E+00  0.51100000000E-03 0. -1.
</event>
<event>
 8    1  0.1010879E+005  0.1043930E+01  0.7957747E-01            NaN
         13   -1    0    0    0    0  0.00000000000E+00  0.00000000000E+00  0.74505805969E-08  0.10566000000E+00  0.10566000000E+00 0. -1.
     999900   -1    0    0    0    0 -0.00000000000E+00 -0.00000000000E+00 -0.74505805969E-08  0.93827000000E+00  0.93827000000E+00 0.  1.
     999902    2    1    2    0    0  0.46035690468E-02 -0.73194102652E-02  0.22331677510E-01  0.10199827573E+01  0.10197016008E+01 0.  0.
     999903    2    3    3    0    0 -0.87832982265E-01  0.90577666808E-01  0.23554428196E-01  0.12974130190E+00  0.18948557540E-01 0.  0.
         14    1    1    2    0    0 -0.46035690468E-02  0.73194102652E-02 -0.22331677510E-01  0.23947242743E-01  0.00000000000E+00 0.  1.
     999901    1    3    3    0    0  0.92436551312E-01 -0.97897077073E-01 -0.12227506858E-02  0.89024145536E+00  0.88000000000E+00 0. -1.
        -11    1    4    4    0    0 -0.47111097657E-01  0.45514501925E-01  0.28478697496E-02  0.65569786419E-01  0.51100000000E-03 0.  1.
         11    1    4    4    0    0 -0.40721884608E-01  0.45063164883E-01  0.20706558446E-01  0.64171515480E-01  0.51100000000E-03 0. -1.
</event>
<event>
 8    1  0.1010879E+005  0.1043930E+01  0.7957747E-01            NaN
         13   -1    0    0    0    0  0.00000000000E+00  0.00000000000E+00  0.74505805969E-08  0.10566000000E+00  0.10566000000E+00 0. -1.
     999900   -1    0    0    0    0 -0.00000000000E+00 -0.00000000000E+00 -0.74505805969E-08  0.93827000000E+00  0.93827000000E+00 0. -1.
     999902    2    1    2    0    0  0.22641825575E-01  0.18355890581E-02  0.36783935495E-02  0.10209179981E+01  0.10206586141E+01 0.  0.
     999903    2    3    3    0    0  0.39896083023E-01 -0.12283014542E+00  0.17286163076E-01  0.13185983006E+00  0.20230207248E-01 0.  0.
         14    1    1    2    0    0 -0.22641825575E-01 -0.18355890581E-02 -0.36783935495E-02  0.23012001904E-01  0.00000000000E+00 0. -1.
     999901    1    3    3    0    0 -0.17254257448E-01  0.12466573448E+00 -0.13607769527E-01  0.88905816803E+00  0.88000000000E+00 0.  1.
        -11    1    4    4    0    0  0.20987935781E-01 -0.62216744818E-01 -0.13765844279E-02  0.65677796018E-01  0.51100000000E-03 0.  1.
         11    1    4    4    0    0  0.18908147241E-01 -0.60613400605E-01  0.18662747504E-01  0.66182034046E-01  0.51100000000E-03 0. -1.
</event>
<event>
 8    1  0.1010879E+005  0.1043930E+01  0.7957747E-01            NaN
         13   -1    0    0    0    0  0.00000000000E+00  0.00000000000E+00  0.74505805969E-08  0.10566000000E+00  0.10566000000E+00 0. -1.
     999900   -1    0    0    0    0 -0.00000000000E+00 -0.00000000000E+00 -0.74505805969E-08  0.93827000000E+00  0.93827000000E+00 0.  1.
     999902    2    1    2    0    0  0.18291127806E-01 -0.17437910676E-01  0.62412766240E-03  0.10186508461E+01  0.10183371302E+01 0.  0.
     999903    2    3    3    0    0  0.12135954314E-01 -0.52269348013E-01 -0.11783209968E+00  0.13000975267E+00  0.11779895860E-01 0.  0.
         14    1    1    2    0    0 -0.18291127806E-01  0.17437910676E-01 -0.62412766240E-03  0.25279153872E-01  0.00000000000E+00 0.  1.
     999901    1    3    3    0    0  0.61551734921E-02  0.34831437337E-01  0.11845622734E+00  0.88864109346E+00  0.88000000000E+00 0. -1.
        -11    1    4    4    0    0  0.53128425501E-02 -0.54870102237E-02 -0.16874687711E-01  0.18529700038E-01  0.51100000000E-03 0. -1.
         11    1    4    4    0    0  0.68231117636E-02 -0.46782337789E-01 -0.10095741196E+00  0.11148005263E+00  0.51100000000E-03 0.  1.
</event>
<event>
 8    1  0.1010879E+005  0.1043930E+01  0.7957747E-01            NaN
         13   -1    0    0    0    0  0.00000000000E+00  0.00000000000E+00  0.74505805969E-08  0.10566000000E+00  0.10566000000E+00 0. -1.
     999900   -1    0    0    0    0 -0.00000000000E+00 -0.00000000000E+00 -0.74505805969E-08  0.93827000000E+00  0.93827000000E+00 0. -1.
     999902    2    1    2    0    0  0.14200187801E-01 -0.13845733389E-01  0.12529702149E-01  0.10204706074E+01  0.10202009201E+01 0.  0.
     999903    2    3    3    0    0  0.53916615219E-01 -0.10188286263E+00  0.63852214623E-01  0.13370010097E+00  0.22616202001E-01 0.  0.
         14    1    1    2    0    0 -0.14200187801E-01  0.13845733389E-01 -0.12529702149E-01  0.23459392631E-01  0.00000000000E+00 0.  1.
     999901    1    3    3    0    0 -0.39716427418E-01  0.88037129240E-01 -0.51322512474E-01  0.88677050640E+00  0.88000000000E+00 0. -1.
        -11    1    4    4    0    0  0.15903840608E-01 -0.36482910629E-01  0.10598820797E-01  0.41188967423E-01  0.51100000000E-03 0. -1.
         11    1    4    4    0    0  0.38012774611E-01 -0.65399952000E-01  0.53253393826E-01  0.92511133547E-01  0.51100000000E-03 0.  1.
</event>
<event>
 8    1  0.1010879E+005  0.1043930E+01  0.7957747E-01            NaN
         13   -1    0    0    0    0  0.00000000000E+00  0.00000000000E+00  0.74505805969E-08  0.10566000000E+00  0.10566000000E+00 0.  1.
     999900   -1    0    0    0    0 -0.00000000000E+00 -0.00000000000E+00 -0.74505805969E-08  0.93827000000E+00  0.93827000000E+00 0.  1.
     999902    2    1    2    0    0  0.64526871285E-02  0.12932155254E-01  0.19051150321E-01  0.10200171554E+01  0.10197368156E+01 0.  0.
     999903    2    3    3    0    0  0.72800776368E-01  0.44883242431E-01 -0.95284930063E-01  0.12957025621E+00  0.19868943241E-01 0.  0.
         14    1    1    2    0    0 -0.64526871285E-02 -0.12932155254E-01 -0.19051150321E-01  0.23912844649E-01  0.00000000000E+00 0. -1.
     999901    1    3    3    0    0 -0.66348089239E-01 -0.31951087177E-01  0.11433608038E+00  0.89044689914E+00  0.88000000000E+00 0. -1.
        -11    1    4    4    0    0  0.44621604343E-01  0.17293300738E-01 -0.59082260419E-01  0.76033679654E-01  0.51100000000E-03 0.  1.
         11    1    4    4    0    0  0.28179172024E-01  0.27589941693E-01 -0.36202669644E-01  0.53536576552E-01  0.51100000000E-03 0. -1.
</event>
<event>
 8    1  0.1010879E+005  0.1043930E+01  0.7957747E-01            NaN
         13   -1    0    0    0    0  0.00000000000E+00  0.00000000000E+00  0.74505805969E-08  0.10566000000E+00  0.10566000000E+00 0.  1.
     999900   -1    0    0    0    0 -0.00000000000E+00 -0.00000000000E+00 -0.74505805969E-08  0.93827000000E+00  0.93827000000E+00 0.  1.
     999902    2    1    2    0    0 -0.52441524866E-02  0.17198060442E-01 -0.14085223840E-01  0.10210899486E+01  0.10208344700E+01 0.  0.
     999903    2    3    3    0    0 -0.70112784032E-01  0.92353492158E-01 -0.65053189181E-01  0.13404202892E+00  0.17040484055E-01 0.  0.
         14    1    1    2    0    0  0.52441524866E-02 -0.17198060442E-01  0.14085223840E-01  0.22840051420E-01  0.00000000000E+00 0.  1.
     999901    1    3    3    0    0  0.64868631546E-01 -0.75155431716E-01  0.50967965341E-01  0.88704791966E+00  0.88000000000E+00 0. -1.
        -11    1    4    4    0    0 -0.59636396977E-01  0.85598758371E-01 -0.54511848807E-01  0.11770917577E+00  0.51100000000E-03 0. -1.
         11    1    4    4    0    0 -0.10476387055E-01  0.67547337868E-02 -0.10541340374E-01  0.16332853154E-01  0.51100000000E-03 0.  1.
</event>
<event>
 8    1  0.1010879E+005  0.1043930E+01  0.7957747E-01            NaN
         13   -1    0    0    0    0  0.00000000000E+00  0.00000000000E+00  0.74505805969E-08  0.10566000000E+00  0.10566000000E+00 0.  1.
     999900   -1    0    0    0    0 -0.00000000000E+00 -0.00000000000E+00 -0.74505805969E-08  0.93827000000E+00  0.93827000000E+00 0.  1.
     999902    2    1    2    0    0  0.18039338394E-01 -0.15983629958E-01 -0.45324016063E-03  0.10198239928E+01  0.10195390511E+01 0.  0.
     999903    2    3    3    0    0 -0.37538096174E-02 -0.18996077747E-01 -0.12741981689E+00  0.13043963959E+00  0.20093476127E-01 0.  0.
         14    1    1    2    0    0 -0.18039338394E-01  0.15983629958E-01  0.45324016063E-03  0.24106007197E-01  0.00000000000E+00 0.  1.
     999901    1    3    3    0    0  0.21793148011E-01  0.30124477884E-02  0.12696657673E+00  0.88938435322E+00  0.88000000000E+00 0. -1.
        -11    1    4    4    0    0 -0.14682086917E-02 -0.23073624034E-01 -0.10928877912E+00  0.11170875582E+00  0.51100000000E-03 0.  1.
         11    1    4    4    0    0 -0.22856009257E-02  0.40775462876E-02 -0.18131037766E-01  0.18730883770E-01  0.51100000000E-03 0. -1.
</event>
<event>
 8    1  0.1010879E+005  0.1043930E+01  0.7957747E-01            NaN
         13   -1    0    0    0    0  0.00000000000E+00  0.00000000000E+00  0.74505805969E-08  0.10566000000E+00  0.10566000000E+00 0.  1.
     999900   -1    0    0    0    0 -0.00000000000E+00 -0.00000000000E+00 -0.74505805969E-08  0.93827000000E+00  0.93827000000E+00 0.  1.
     999902    2    1    2    0    0 -0.89729018179E-02 -0.18709121158E-01  0.11166976480E-01  0.10203663512E+01  0.10200942334E+01 0.  0.
     999903    2    3    3    0    0 -0.45726728539E-02 -0.12318421830E+00 -0.45029681314E-01  0.13239536502E+00  0.17481404491E-01 0.  0.
         14    1    1    2    0    0  0.89729018179E-02  0.18709121158E-01 -0.11166976480E-01  0.23563648810E-01  0.00000000000E+00 0.  1.
     999901    1    3    3    0    0 -0.44002289640E-02  0.10447509714E+00  0.56196657794E-01  0.88797098617E+00  0.88000000000E+00 0.  1.
        -11    1    4    4    0    0 -0.27616617367E-02 -0.20540060939E-01 -0.14471387874E-01  0.25282465602E-01  0.51100000000E-03 0. -1.
         11    1    4    4    0    0 -0.18110111172E-02 -0.10264415736E+00 -0.30558293440E-01  0.10711289941E+00  0.51100000000E-03 0.  1.
</event>
<event>
 8    1  0.1010879E+005  0.1043930E+01  0.7957747E-01            NaN
         13   -1    0    0    0    0  0.00000000000E+00  0.00000000000E+00  0.74505805969E-08  0.10566000000E+00  0.10566000000E+00 0. -1.
     999900   -1    0    0    0    0 -0.00000000000E+00 -0.00000000000E+00 -0.74505805969E-08  0.93827000000E+00  0.93827000000E+00 0.  1.
     999902    2    1    2    0    0  0.54739410999E-02  0.13861717718E-01 -0.19789587442E-01  0.10191562433E+01  0.10188550973E+01 0.  0.
     999903    2    3    3    0    0 -0.93960336391E-02  0.81054659921E-01 -0.10245958856E+00  0.13260656241E+00  0.20697578656E-01 0.  0.
         14    1    1    2    0    0 -0.54739410999E-02 -0.13861717718E-01  0.19789587442E-01  0.24773756687E-01  0.00000000000E+00 0. -1.
     999901    1    3    3    0    0  0.14869974739E-01 -0.67192942203E-01  0.82670001120E-01  0.88654968091E+00  0.88000000000E+00 0. -1.
        -11    1    4    4    0    0 -0.21743900077E-02  0.70110683137E-01 -0.78390714862E-01  0.10519316118E+00  0.51100000000E-03 0.  1.
         11    1    4    4    0    0 -0.72216436313E-02  0.10943976784E-01 -0.24068873699E-01  0.27413401225E-01  0.51100000000E-03 0. -1.
</event>
<event>
 8    1  0.1010879E+005  0.1043930E+01  0.7957747E-01            NaN
         13   -1    0    0    0    0  0.00000000000E+00  0.00000000000E+00  0.74505805969E-08  0.10566000000E+00  0.10566000000E+00 0. -1.
     999900   -1    0    0    0    0 -0.00000000000E+00 -0.00000000000E+00 -0.74505805969E-08  0.93827000000E+00  0.93827000000E+00 0.  1.
     999902    2    1    2    0    0  0.80864480247E-02 -0.21212396829E-01 -0.53896900237E-02  0.10205975081E+01  0.10203307642E+01 0.  0.
     999903    2    3    3    0    0  0.24201385714E-01 -0.30973467026E-01  0.12204255199E+00  0.13121910379E+00  0.27910678490E-01 0.  0.
         14    1    1    2    0    0 -0.80864480247E-02  0.21212396829E-01  0.53896900237E-02  0.23332491925E-01  0.00000000000E+00 0.  1.
     999901    1    3    3    0    0 -0.16114937689E-01  0.97610701963E-02 -0.12743224201E+00  0.88937840429E+00  0.88000000000E+00 0.  1.
        -11    1    4    4    0    0 -0.53058776709E-03 -0.95508172706E-02  0.62914831454E-01  0.63639899213E-01  0.51100000000E-03 0. -1.
         11    1    4    4    0    0  0.24731973481E-01 -0.21422649755E-01  0.59127720531E-01  0.67579204575E-01  0.51100000000E-03 0.  1.
</event>
<event>
 8    1  0.1010879E+005  0.1043930E+01  0.7957747E-01            NaN
         13   -1    0    0    0    0  0.00000000000E+00  0.00000000000E+00  0.74505805969E-08  0.10566000000E+00  0.10566000000E+00 0.  1.
     999900   -1    0    0    0    0 -0.00000000000E+00 -0.00000000000E+00 -0.74505805969E-08  0.93827000000E+00  0.93827000000E+00 0. -1.
     999902    2    1    2    0    0 -0.12938282668E-01  0.19752863677E-01  0.64383812249E-02  0.10194549610E+01  0.10191611207E+01 0.  0.
     999903    2    3    3    0    0  0.50160423902E-01  0.11956881280E+00 -0.46371405566E-02  0.13149812777E+00  0.21388908666E-01 0.  0.
         14    1    1    2    0    0  0.12938282668E-01 -0.19752863677E-01 -0.64383812249E-02  0.24475039012E-01  0.00000000000E+00 0.  1.
     999901    1    3    3    0    0 -0.63098706570E-01 -0.99815949127E-01  0.11075521781E-01  0.88795683322E+00  0.88000000000E+00 0. -1.
        -11    1    4    4    0    0  0.34229616538E-01  0.57926693196E-01  0.31162405769E-02  0.67358299484E-01  0.51100000000E-03 0. -1.
         11    1    4    4    0    0  0.15930807364E-01  0.61642119608E-01 -0.77533811335E-02  0.64139828289E-01  0.51100000000E-03 0.  1.
</event>
<event>
 8    1  0.1010879E+005  0.1043930E+01  0.7957747E-01            NaN
         13   -1    0    0    0    0  0.00000000000E+00  0.00000000000E+00  0.74505805969E-08  0.10566000000E+00  0.10566000000E+00 0. -1.
     999900   -1    0    0    0    0 -0.00000000000E+00 -0.00000000000E+00 -0.74505805969E-08  0.93827000000E+00  0.93827000000E+00 0.  1.
     999902    2    1    2    0    0  0.12028100127E-01  0.19934378989E-01  0.59659190530E-02  0.10198957151E+01  0.10196124866E+01 0.  0.
     999903    2    3    3    0    0  0.37975915189E-01 -0.79671487989E-01 -0.91369585396E-01  0.12856591183E+00  0.19775652142E-01 0.  0.
         14    1    1    2    0    0 -0.12028100127E-01 -0.19934378989E-01 -0.59659190530E-02  0.24034284855E-01  0.00000000000E+00 0.  1.
     999901    1    3    3    0    0 -0.25947815062E-01  0.99605866978E-01  0.97335504449E-01  0.89132980331E+00  0.88000000000E+00 0. -1.
        -11    1    4    4    0    0  0.69781016229E-03 -0.19328530041E-01 -0.22905289192E-01  0.29983202073E-01  0.51100000000E-03 0. -1.
         11    1    4    4    0    0  0.37278105027E-01 -0.60342957948E-01 -0.68464296205E-01  0.98582709762E-01  0.51100000000E-03 0.  1.
</event>
<event>
 7    1  0.1010879E+005  0.1043930E+01  0.7957747E-01            NaN
         13   -1    0    0    0    0  0.00000000000E+00  0.00000000000E+00  0.74505805969E-08  0.10566000000E+00  0.10566000000E+00 0.  1.
     999900   -1    0    0    0    0 -0.00000000000E+00 -0.00000000000E+00 -0.74505805969E-08  0.93827000000E+00  0.93827000000E+00 0. -1.
     999903    2    1    2    0    0 -0.71791093633E-01 -0.55040419077E-01 -0.49370653315E-01  0.10494974323E+00  0.19838808905E-01 0.  0.
         14    1    1    2    0    0 -0.47800163646E-01  0.31320742154E-02 -0.14556892427E-02  0.47924780278E-01  0.00000000000E+00 0. -1.
     999901    1    1    2    0    0  0.11959125728E+00  0.51908344862E-01  0.50826342557E-01  0.89105547649E+00  0.88000000000E+00 0.  1.
        -11    1    3    3    0    0 -0.25932534611E-01 -0.13571521963E-01 -0.24979498247E-01  0.38482710578E-01  0.51100000000E-03 0. -1.
         11    1    3    3    0    0 -0.45858559021E-01 -0.41468897114E-01 -0.24391155067E-01  0.66467032654E-01  0.51100000000E-03 0.  1.
</event>
<event>
 8    1  0.1010879E+005  0.1043930E+01  0.7957747E-01            NaN
         13   -1    0    0    0    0  0.00000000000E+00  0.00000000000E+00  0.74505805969E-08  0.10566000000E+00  0.10566000000E+00 0.  1.
     999900   -1    0    0    0    0 -0.00000000000E+00 -0.00000000000E+00 -0.74505805969E-08  0.93827000000E+00  0.93827000000E+00 0.  1.
     999902    2    1    2    0    0 -0.21422687651E-01 -0.69695898327E-02 -0.58681386011E-02  0.10206503570E+01  0.10203848340E+01 0.  0.
     999903    2    3    3    0    0 -0.74148086539E-01 -0.10878669808E+00 -0.25385527400E-02  0.13320583625E+00  0.20121285872E-01 0.  0.
         14    1    1    2    0    0  0.21422687651E-01  0.69695898327E-02  0.58681386011E-02  0.23279643022E-01  0.00000000000E+00 0.  1.
     999901    1    3    3    0    0  0.52725398889E-01  0.10181710825E+00 -0.33295858611E-02  0.88744452072E+00  0.88000000000E+00 0.  1.
        -11    1    4    4    0    0 -0.29620818502E-01 -0.36771577663E-01 -0.97910015114E-02  0.48225166088E-01  0.51100000000E-03 0. -1.
         11    1    4    4    0    0 -0.44527268037E-01 -0.72015120419E-01  0.72524487714E-02  0.84980670166E-01  0.51100000000E-03 0.  1.
</event>
<event>
 8    1  0.1010879E+005  0.1043930E+01  0.7957747E-01            NaN
         13   -1    0    0    0    0  0.00000000000E+00  0.00000000000E+00  0.74505805969E-08  0.10566000000E+00  0.10566000000E+00 0. -1.
     999900   -1    0    0    0    0 -0.00000000000E+00 -0.00000000000E+00 -0.74505805969E-08  0.93827000000E+00  0.93827000000E+00 0. -1.
     999902    2    1    2    0    0  0.17427315537E-01 -0.15262727758E-01 -0.43443378877E-02  0.10203602003E+01  0.10200879388E+01 0.  0.
     999903    2    3    3    0    0  0.23475927033E-02  0.98341029068E-01 -0.81990683077E-01  0.12953913718E+00  0.19530662062E-01 0.  0.
         14    1    1    2    0    0 -0.17427315537E-01  0.15262727758E-01  0.43443378877E-02  0.23569799683E-01  0.00000000000E+00 0.  1.
     999901    1    3    3    0    0  0.15079722834E-01 -0.11360375683E+00  0.77646345189E-01  0.89082106314E+00  0.88000000000E+00 0.  1.
        -11    1    4    4    0    0  0.90682649232E-02  0.52048352416E-01 -0.35973408745E-01  0.63918789692E-01  0.51100000000E-03 0.  1.
         11    1    4    4    0    0 -0.67206722199E-02  0.46292676652E-01 -0.46017274331E-01  0.65620347489E-01  0.51100000000E-03 0. -1.
</event>
<event>
 8    1  0.1010879E+005  0.1043930E+01  0.7957747E-01            NaN
         13   -1    0    0    0    0  0.00000000000E+00  0.00000000000E+00  0.74505805969E-08  0.10566000000E+00  0.10566000000E+00 0.  1.
     999900   -1    0    0    0    0 -0.00000000000E+00 -0.00000000000E+00 -0.74505805969E-08  0.93827000000E+00  0.93827000000E+00 0.  1.
     999902    2    1    2    0    0 -0.11307581512E-01 -0.16811758251E-01  0.13409667684E-01  0.10196335846E+01  0.10193440690E+01 0.  0.
     999903    2    3    3    0    0 -0.59594028906E-01  0.76123249868E-01  0.85312378413E-01  0.13051126647E+00  0.20218588335E-01 0.  0.
         14    1    1    2    0    0  0.11307581512E-01  0.16811758251E-01 -0.13409667684E-01  0.24296415425E-01  0.00000000000E+00 0.  1.
     999901    1    3    3    0    0  0.48286447395E-01 -0.92935008118E-01 -0.71902710729E-01  0.88912231810E+00  0.88000000000E+00 0.  1.
        -11    1    4    4    0    0 -0.35839727663E-02  0.16140195671E-01  0.17151776958E-01  0.23828456746E-01  0.51100000000E-03 0. -1.
         11    1    4    4    0    0 -0.56010056140E-01  0.59983054197E-01  0.68160601455E-01  0.10668280973E+00  0.51100000000E-03 0.  1.
</event>
<event>
 8    1  0.1010879E+005  0.1043930E+01  0.7957747E-01            NaN
         13   -1    0    0    0    0  0.00000000000E+00  0.00000000000E+00  0.74505805969E-08  0.10566000000E+00  0.10566000000E+00 0. -1.
     999900   -1    0    0    0    0 -0.00000000000E+00 -0.00000000000E+00 -0.74505805969E-08  0.93827000000E+00  0.93827000000E+00 0.  1.
     999902    2    1    2    0    0  0.10340662794E-01 -0.12458317338E-01 -0.17715918488E-01  0.10199301511E+01  0.10196477433E+01 0.  0.
     999903    2    3    3    0    0  0.96280046249E-01 -0.26775661014E-02  0.84245414990E-01  0.12983051949E+00  0.21946689451E-01 0.  0.
         14    1    1    2    0    0 -0.10340662794E-01  0.12458317338E-01  0.17715918488E-01  0.23999848870E-01  0.00000000000E+00 0. -1.
     999901    1    3    3    0    0 -0.85939383455E-01 -0.97807512366E-02 -0.10196133348E+00  0.89009963164E+00  0.88000000000E+00 0.  1.
        -11    1    4    4    0    0  0.69579853551E-01 -0.14230575604E-02  0.46986499534E-01  0.83972456034E-01  0.51100000000E-03 0. -1.
         11    1    4    4    0    0  0.26700192698E-01 -0.12545085410E-02  0.37258915456E-01  0.45858063454E-01  0.51100000000E-03 0.  1.
</event>
<event>
 8    1  0.1010879E+005  0.1043930E+01  0.7957747E-01            NaN
         13   -1    0    0    0    0  0.00000000000E+00  0.00000000000E+00  0.74505805969E-08  0.10566000000E+00  0.10566000000E+00 0. -1.
     999900   -1    0    0    0    0 -0.00000000000E+00 -0.00000000000E+00 -0.74505805969E-08  0.93827000000E+00  0.93827000000E+00 0.  1.
     999902    2    1    2    0    0  0.14854966381E-01 -0.16332497534E-01 -0.10143846943E-01  0.10196335366E+01  0.10193440199E+01 0.  0.
     999903    2    3    3    0    0  0.14455135512E-01 -0.60530748765E-01 -0.11477644712E+00  0.13233334712E+00  0.21576826865E-01 0.  0.
         14    1    1    2    0    0 -0.14854966381E-01  0.16332497534E-01  0.10143846943E-01  0.24296463378E-01  0.00000000000E+00 0. -1.
     999901    1    3    3    0    0  0.39983086919E-03  0.44198251231E-01  0.10463260017E+00  0.88730018951E+00  0.88000000000E+00 0. -1.
        -11    1    4    4    0    0  0.17360193005E-01 -0.48420097239E-01 -0.77414553384E-01  0.92947061893E-01  0.51100000000E-03 0.  1.
         11    1    4    4    0    0 -0.29050574938E-02 -0.12110651526E-01 -0.37361893733E-01  0.39386285224E-01  0.51100000000E-03 0. -1.
</event>
<event>
 8    1  0.1010879E+005  0.1043930E+01  0.7957747E-01            NaN
         13   -1    0    0    0    0  0.00000000000E+00  0.00000000000E+00  0.74505805969E-08  0.10566000000E+00  0.10566000000E+00 0.  1.
     999900   -1    0    0    0    0 -0.00000000000E+00 -0.00000000000E+00 -0.74505805969E-08  0.93827000000E+00  0.93827000000E+00 0.  1.
     999902    2    1    2    0    0  0.13147152130E-01 -0.10875253397E-01 -0.51237057463E-02  0.10261150875E+01  0.10259604289E+01 0.  0.
     999903    2    3    3    0    0  0.88917075782E-01 -0.67166098788E-01 -0.78754499566E-01  0.13800966901E+00  0.20660744116E-01 0.  0.
         14    1    1    2    0    0 -0.13147152130E-01  0.10875253397E-01  0.51237057463E-02  0.17814912466E-01  0.00000000000E+00 0. -1.
     999901    1    3    3    0    0 -0.75769923652E-01  0.56290845391E-01  0.73630793820E-01  0.88810541852E+00  0.88000000000E+00 0. -1.
        -11    1    4    4    0    0  0.11515073536E-01 -0.16800163593E-01 -0.20035213876E-01  0.28574697398E-01  0.51100000000E-03 0.  1.
         11    1    4    4    0    0  0.77402002247E-01 -0.50365935195E-01 -0.58719285690E-01  0.10943497162E+00  0.51100000000E-03 0. -1.
</event>
<event>
 8    1  0.1010879E+005  0.1043930E+01  0.7957747E-01            NaN
         13   -1    0    0    0    0  0.00000000000E+00  0.00000000000E+00  0.74505805969E-08  0.10566000000E+00  0.10566000000E+00 0.  1.
     999900   -1    0    0    0    0 -0.00000000000E+00 -0.00000000000E+00 -0.74505805969E-08  0.93827000000E+00  0.93827000000E+00 0. -1.
     999902    2    1    2    0    0 -0.51235654709E-02 -0.22714605432E-01  0.30066586671E-02  0.10204514093E+01  0.10201812754E+01 0.  0.
     999903    2    3    3    0    0 -0.36039678662E-01 -0.11000002850E+00  0.63280787131E-01  0.13354243898E+00  0.20742716373E-01 0.  0.
         14    1    1    2    0    0  0.51235654709E-02  0.22714605432E-01 -0.30066586671E-02  0.23478590661E-01  0.00000000000E+00 0.  1.
     999901    1    3    3    0    0  0.30916113191E-01  0.87285423064E-01 -0.60274128464E-01  0.88690897036E+00  0.88000000000E+00 0. -1.
        -11    1    4    4    0    0 -0.37821553300E-02 -0.41941173358E-01  0.26108505252E-01  0.49550801094E-01  0.51100000000E-03 0. -1.
         11    1    4    4    0    0 -0.32257523332E-01 -0.68058855139E-01  0.37172281879E-01  0.83991637890E-01  0.51100000000E-03 0.  1.
</event>
<event>
 8    1  0.1010879E+005  0.1043930E+01  0.7957747E-01            NaN
         13   -1    0    0    0    0  0.00000000000E+00  0.00000000000E+00  0.74505805969E-08  0.10566000000E+00  0.10566000000E+00 0. -1.
     999900   -1    0    0    0    0 -0.00000000000E+00 -0.00000000000E+00 -0.74505805969E-08  0.93827000000E+00  0.93827000000E+00 0. -1.
     999902    2    1    2    0    0  0.22496603277E-01 -0.49770015411E-02 -0.65995426714E-02  0.10199629045E+01  0.10196812761E+01 0.  0.
     999903    2    3    3    0    0  0.16337510837E-01 -0.32293428116E-01  0.12324333957E+00  0.12999476144E+00  0.19998437294E-01 0.  0.
         14    1    1    2    0    0 -0.22496603277E-01  0.49770015411E-02  0.65995426714E-02  0.23967095503E-01  0.00000000000E+00 0. -1.
     999901    1    3    3    0    0  0.61590924404E-02  0.27316426575E-01 -0.12984288224E+00  0.88996814305E+00  0.88000000000E+00 0. -1.
        -11    1    4    4    0    0  0.19605807089E-02 -0.23141779630E-01  0.56080152173E-01  0.60701156743E-01  0.51100000000E-03 0. -1.
         11    1    4    4    0    0  0.14376930128E-01 -0.91516484861E-02  0.67163187399E-01  0.69293604701E-01  0.51100000000E-03 0.  1.
</event>
<event>
 8    1  0.1010879E+005  0.1043930E+01  0.7957747E-01            NaN
         13   -1    0    0    0    0  0.00000000000E+00  0.00000000000E+00  0.74505805969E-08  0.10566000000E+00  0.10566000000E+00 0.  1.
     999900   -1    0    0    0    0 -0.00000000000E+00 -0.00000000000E+00 -0.74505805969E-08  0.93827000000E+00  0.93827000000E+00 0. -1.
     999902    2    1    2    0    0 -0.97696713053E-02 -0.78514643635E-03  0.14177513802E-01  0.10266944313E+01  0.10265497505E+01 0.  0.
     999903    2    3    3    0    0  0.46184691776E-01  0.98855464678E-01  0.80101320857E-01  0.13686012619E+00  0.20224833429E-01 0.  0.
         14    1    1    2    0    0  0.97696713053E-02  0.78514643635E-03 -0.14177513802E-01  0.17235568744E-01  0.00000000000E+00 0. -1.
     999901    1    3    3    0    0 -0.55954363081E-01 -0.99640611114E-01 -0.65923807055E-01  0.88983430506E+00  0.88000000000E+00 0. -1.
        -11    1    4    4    0    0  0.74783738991E-02  0.94760519732E-02  0.16808028507E-01  0.20700062330E-01  0.51100000000E-03 0.  1.
         11    1    4    4    0    0  0.38706317877E-01  0.89379412705E-01  0.63293292350E-01  0.11616006386E+00  0.51100000000E-03 0. -1.
</event>
<event>
 8    1  0.1010879E+005  0.1043930E+01  0.7957747E-01            NaN
         13   -1    0    0    0    0  0.00000000000E+00  0.00000000000E+00  0.74505805969E-08  0.10566000000E+00  0.10566000000E+00 0.  1.
     999900   -1    0    0    0    0 -0.00000000000E+00 -0.00000000000E+00 -0.74505805969E-08  0.93827000000E+00  0.93827000000E+00 0.  1.
     999902    2    1    2    0    0 -0.53000820033E-02  0.21632435011E-01  0.73483835212E-02  0.10204768157E+01  0.10202072728E+01 0.  0.
     999903    2    3    3    0    0 -0.11846894712E+00  0.31561287715E-01 -0.43740731989E-01  0.13170470099E+00  0.20046703311E-01 0.  0.
         14    1    1    2    0    0  0.53000820033E-02 -0.21632435011E-01 -0.73483835212E-02  0.23453184307E-01  0.00000000000E+00 0. -1.
     999901    1    3    3    0    0  0.11316886512E+00 -0.99288527034E-02  0.51089115511E-01  0.88877211470E+00  0.88000000000E+00 0. -1.
        -11    1    4    4    0    0 -0.46628035432E-01  0.19254477059E-01 -0.10208077619E-01  0.51472075388E-01  0.51100000000E-03 0.  1.
         11    1    4    4    0    0 -0.71840911691E-01  0.12306810655E-01 -0.33532654370E-01  0.80232625603E-01  0.51100000000E-03 0. -1.
</event>
<event>
 8    1  0.1010879E+005  0.1043930E+01  0.7957747E-01            NaN
         13   -1    0    0    0    0  0.00000000000E+00  0.00000000000E+00  0.74505805969E-08  0.10566000000E+00  0.10566000000E+00 0. -1.
     999900   -1    0    0    0    0 -0.00000000000E+00 -0.00000000000E+00 -0.74505805969E-08  0.93827000000E+00  0.93827000000E+00 0.  1.
     999902    2    1    2    0    0  0.20227644665E-01  0.11067641168E-01  0.58916534211E-02  0.10201316414E+01  0.10198540111E+01 0.  0.
     999903    2    3    3    0    0 -0.60509129619E-01 -0.37035580836E-01  0.10663818851E+00  0.12941158946E+00  0.18511272854E-01 0.  0.
         14    1    1    2    0    0 -0.20227644665E-01 -0.11067641168E-01 -0.58916534211E-02  0.23798358552E-01  0.00000000000E+00 0.  1.
     999901    1    3    3    0    0  0.80736774284E-01  0.48103222004E-01 -0.10074653508E+00  0.89072005199E+00  0.88000000000E+00 0.  1.
        -11    1    4    4    0    0 -0.18009978119E-01 -0.56064878906E-02  0.41007312862E-01  0.45140368269E-01  0.51100000000E-03 0. -1.
         11    1    4    4    0    0 -0.42499151500E-01 -0.31429092945E-01  0.65630875644E-01  0.84271221187E-01  0.51100000000E-03 0.  1.
</event>
<event>
 8    1  0.1010879E+005  0.1043930E+01  0.7957747E-01            NaN
         13   -1    0    0    0    0  0.00000000000E+00  0.00000000000E+00  0.74505805969E-08  0.10566000000E+00  0.10566000000E+00 0. -1.
     999900   -1    0    0    0    0 -0.00000000000E+00 -0.00000000000E+00 -0.74505805969E-08  0.93827000000E+00  0.93827000000E+00 0. -1.
     999902    2    1    2    0    0 -0.22571924797E-01 -0.35566262467E-02 -0.64765732472E-02  0.10201794762E+01  0.10199029740E+01 0.  0.
     999903    2    3    3    0    0  0.96985780181E-01  0.61194903665E-01 -0.54339281610E-01  0.12845213879E+00  0.19903181711E-01 0.  0.
         14    1    1    2    0    0  0.22571924797E-01  0.35566262467E-02  0.64765732472E-02  0.23750523791E-01  0.00000000000E+00 0.  1.
     999901    1    3    3    0    0 -0.11955770498E+00 -0.64751529912E-01  0.47862708363E-01  0.89172733742E+00  0.88000000000E+00 0. -1.
        -11    1    4    4    0    0  0.59266663643E-01  0.48361812142E-01 -0.37517393927E-01  0.85201046127E-01  0.51100000000E-03 0. -1.
         11    1    4    4    0    0  0.37719116538E-01  0.12833091524E-01 -0.16821887683E-01  0.43251092665E-01  0.51100000000E-03 0.  1.
</event>
<event>
 7    1  0.1010879E+005  0.1043930E+01  0.7957747E-01            NaN
         13   -1    0    0    0    0  0.00000000000E+00  0.00000000000E+00  0.74505805969E-08  0.10566000000E+00  0.10566000000E+00 0.  1.
     999900   -1    0    0    0    0 -0.00000000000E+00 -0.00000000000E+00 -0.74505805969E-08  0.93827000000E+00  0.93827000000E+00 0.  1.
     999903    2    1    2    0    0  0.56786694984E-01  0.41951583637E-01 -0.94708608543E-01  0.11945519600E+00  0.17752724388E-01 0.  0.
         14    1    1    2    0    0 -0.11971864400E-01 -0.33182969850E-01  0.18939609039E-01  0.40039278413E-01  0.00000000000E+00 0.  1.
     999901    1    1    2    0    0 -0.44814830584E-01 -0.87686137864E-02  0.75768999504E-01  0.88443552558E+00  0.88000000000E+00 0. -1.
        -11    1    3    3    0    0  0.26748171215E-01  0.27413026560E-01 -0.60923494407E-01  0.71964379941E-01  0.51100000000E-03 0. -1.
         11    1    3    3    0    0  0.30038523769E-01  0.14538557077E-01 -0.33785114136E-01  0.47490816063E-01  0.51100000000E-03 0.  1.
</event>
<event>
 8    1  0.1010879E+005  0.1043930E+01  0.7957747E-01            NaN
         13   -1    0    0    0    0  0.00000000000E+00  0.00000000000E+00  0.74505805969E-08  0.10566000000E+00  0.10566000000E+00 0. -1.
     999900   -1    0    0    0    0 -0.00000000000E+00 -0.00000000000E+00 -0.74505805969E-08  0.93827000000E+00  0.93827000000E+00 0.  1.
     999902    2    1    2    0    0  0.56600157225E-02  0.25017677329E-01 -0.54507331012E-02  0.10177072914E+01  0.10173694022E+01 0.  0.
     999903    2    3    3    0    0  0.12118886334E+00  0.21537617902E-02  0.38089383581E-01  0.12879480128E+00  0.21116827613E-01 0.  0.
         14    1    1    2    0    0 -0.56600157225E-02 -0.25017677329E-01  0.54507331012E-02  0.26222708637E-01  0.00000000000E+00 0.  1.
     999901    1    3    3    0    0 -0.11552884761E+00  0.22863915539E-01 -0.43540116682E-01  0.88891249008E+00  0.88000000000E+00 0. -1.
        -11    1    4    4    0    0  0.75961449236E-01 -0.75387482548E-02  0.28961763728E-01  0.81645694157E-01  0.51100000000E-03 0. -1.
         11    1    4    4    0    0  0.45227414102E-01  0.96925100449E-02  0.91276198526E-02  0.47149107123E-01  0.51100000000E-03 0.  1.
</event>
<event>
 8    1  0.1010879E+005  0.1043930E+01  0.7957747E-01            NaN
         13   -1    0    0    0    0  0.00000000000E+00  0.00000000000E+00  0.74505805969E-08  0.10566000000E+00  0.10566000000E+00 0. -1.
     999900   -1    0    0    0    0 -0.00000000000E+00 -0.00000000000E+00 -0.74505805969E-08  0.93827000000E+00  0.93827000000E+00 0. -1.
     999902    2    1    2    0    0  0.98115002108E-02  0.14674811322E-01 -0.15203890376E-01  0.10206324914E+01  0.10203665560E+01 0.  0.
     999903    2    3    3    0    0  0.95076347940E-01  0.59464313668E-01  0.67153867410E-01  0.13155488285E+00  0.14883842130E-01 0.  0.
         14    1    1    2    0    0 -0.98115002108E-02 -0.14674811322E-01  0.15203890376E-01  0.23297508586E-01  0.00000000000E+00 0. -1.
     999901    1    3    3    0    0 -0.85264847729E-01 -0.44789502346E-01 -0.82357757786E-01  0.88907760856E+00  0.88000000000E+00 0. -1.
        -11    1    4    4    0    0  0.53393355016E-01  0.33015145755E-01  0.28958003329E-01  0.69135210182E-01  0.51100000000E-03 0. -1.
         11    1    4    4    0    0  0.41682992923E-01  0.26449167914E-01  0.38195864081E-01  0.62419672670E-01  0.51100000000E-03 0.  1.
</event>
<event>
 8    1  0.1010879E+005  0.1043930E+01  0.7957747E-01            NaN
         13   -1    0    0    0    0  0.00000000000E+00  0.00000000000E+00  0.74505805969E-08  0.10566000000E+00  0.10566000000E+00 0. -1.
     999900   -1    0    0    0    0 -0.00000000000E+00 -0.00000000000E+00 -0.74505805969E-08  0.93827000000E+00  0.93827000000E+00 0.  1.
     999902    2    1    2    0    0 -0.54238981446E-02  0.60756635698E-02 -0.22023505502E-01  0.10204487915E+01  0.10201785966E+01 0.  0.
     999903    2    3    3    0    0 -0.20434437990E-01 -0.54117491319E-01  0.11240906003E+00  0.12808079179E+00  0.20557804488E-01 0.  0.
         14    1    1    2    0    0  0.54238981446E-02 -0.60756635698E-02  0.22023505502E-01  0.23481208519E-01  0.00000000000E+00 0. -1.
     999901    1    3    3    0    0  0.15010539846E-01  0.60193154889E-01 -0.13443256553E+00  0.89236799969E+00  0.88000000000E+00 0.  1.
        -11    1    4    4    0    0 -0.10204910340E-01 -0.40056920668E-01  0.60019086902E-01  0.72878316405E-01  0.51100000000E-03 0. -1.
         11    1    4    4    0    0 -0.10229527651E-01 -0.14060570651E-01  0.52389973128E-01  0.55202475383E-01  0.51100000000E-03 0.  1.
</event>
<event>
 8    1  0.1010879E+005  0.1043930E+01  0.7957747E-01            NaN
         13   -1    0    0    0    0  0.00000000000E+00  0.00000000000E+00  0.74505805969E-08  0.10566000000E+00  0.10566000000E+00 0.  1.
     999900   -1    0    0    0    0 -0.00000000000E+00 -0.00000000000E+00 -0.74505805969E-08  0.93827000000E+00  0.93827000000E+00 0.  1.
     999902    2    1    2    0    0  0.48107200509E-02 -0.21559139649E-01 -0.74083586164E-02  0.10206314312E+01  0.10203654713E+01 0.  0.
     999903    2    3    3    0    0 -0.38544539576E-01 -0.12610871035E-01  0.12183351018E+00  0.13009046602E+00  0.20866469415E-01 0.  0.
         14    1    1    2    0    0 -0.48107200509E-02  0.21559139649E-01  0.74083586164E-02  0.23298568780E-01  0.00000000000E+00 0. -1.
     999901    1    3    3    0    0  0.43355259627E-01 -0.89482686136E-02 -0.12924186880E+00  0.89054096520E+00  0.88000000000E+00 0.  1.
        -11    1    4    4    0    0 -0.12004143785E-01 -0.13760165527E-01  0.61722726897E-01  0.64369229915E-01  0.51100000000E-03 0.  1.
         11    1    4    4    0    0 -0.26540395791E-01  0.11492944912E-02  0.60110783288E-01  0.65721236104E-01  0.51100000000E-03 0. -1.
</event>
<event>
 8    1  0.1010879E+005  0.1043930E+01  0.7957747E-01            NaN
         13   -1    0    0    0    0  0.00000000000E+00  0.00000000000E+00  0.74505805969E-08  0.10566000000E+00  0.10566000000E+00 0. -1.
     999900   -1    0    0    0    0 -0.00000000000E+00 -0.00000000000E+00 -0.74505805969E-08  0.93827000000E+00  0.93827000000E+00 0.  1.
     999902    2    1    2    0    0 -0.24986033752E-02 -0.19904558808E-01 -0.12413039438E-01  0.10203393657E+01  0.10200666170E+01 0.  0.
     999903    2    3    3    0    0  0.85278935153E-01 -0.86786438971E-01 -0.48898756096E-01  0.13269681955E+00  0.20321781412E-01 0.  0.
         14    1    1    2    0    0  0.24986033752E-02  0.19904558808E-01  0.12413039438E-01  0.23590634333E-01  0.00000000000E+00 0. -1.
     999901    1    3    3    0    0 -0.87777538529E-01  0.66881880163E-01  0.36485716658E-01  0.88764254612E+00  0.88000000000E+00 0.  1.
        -11    1    4    4    0    0  0.27193464120E-01 -0.32561656381E-01 -0.26931432243E-01  0.50252453879E-01  0.51100000000E-03 0. -1.
         11    1    4    4    0    0  0.58085471034E-01 -0.54224782589E-01 -0.21967323852E-01  0.82444365667E-01  0.51100000000E-03 0.  1.
</event>
<event>
 8    1  0.1010879E+005  0.1043930E+01  0.7957747E-01            NaN
         13   -1    0    0    0    0  0.00000000000E+00  0.00000000000E+00  0.74505805969E-08  0.10566000000E+00  0.10566000000E+00 0.  1.
     999900   -1    0    0    0    0 -0.00000000000E+00 -0.00000000000E+00 -0.74505805969E-08  0.93827000000E+00  0.93827000000E+00 0. -1.
     999902    2    1    2    0    0 -0.18608887543E-01 -0.11670249088E-02  0.12844106735E-01  0.10212888048E+01  0.10210378049E+01 0.  0.
     999903    2    3    3    0    0 -0.13113552877E+00 -0.18012551581E-01  0.12851504814E-02  0.13388831672E+00  0.20086085284E-01 0.  0.
         14    1    1    2    0    0  0.18608887543E-01  0.11670249088E-02 -0.12844106735E-01  0.22641195210E-01  0.00000000000E+00 0. -1.
     999901    1    3    3    0    0  0.11252664123E+00  0.16845526672E-01  0.11558956253E-01  0.88740048807E+00  0.88000000000E+00 0.  1.
        -11    1    4    4    0    0 -0.62249579649E-01 -0.18662445816E-01  0.10186912624E-02  0.64996891489E-01  0.51100000000E-03 0. -1.
         11    1    4    4    0    0 -0.68885949122E-01  0.64989423570E-03  0.26645921897E-03  0.68891425232E-01  0.51100000000E-03 0.  1.
</event>
<event>
 8    1  0.1010879E+005  0.1043930E+01  0.7957747E-01            NaN
         13   -1    0    0    0    0  0.00000000000E+00  0.00000000000E+00  0.74505805969E-08  0.10566000000E+00  0.10566000000E+00 0. -1.
     999900   -1    0    0    0    0 -0.00000000000E+00 -0.00000000000E+00 -0.74505805969E-08  0.93827000000E+00  0.93827000000E+00 0.  1.
     999902    2    1    2    0    0  0.74308527494E-02 -0.19741032900E-01  0.10253311488E-01  0.10204767199E+01  0.10202071748E+01 0.  0.
     999903    2    3    3    0    0 -0.64453171370E-01  0.27866240036E-01 -0.10601232861E+00  0.12865192518E+00  0.19543935162E-01 0.  0.
         14    1    1    2    0    0 -0.74308527494E-02  0.19741032900E-01 -0.10253311488E-01  0.23453280134E-01  0.00000000000E+00 0.  1.
     999901    1    3    3    0    0  0.71884024119E-01 -0.47607272936E-01  0.11626564009E+00  0.89182479469E+00  0.88000000000E+00 0. -1.
        -11    1    4    4    0    0 -0.29294076029E-01  0.95047021697E-02 -0.63082532094E-01  0.70200777988E-01  0.51100000000E-03 0.  1.
         11    1    4    4    0    0 -0.35159095341E-01  0.18361537867E-01 -0.42929796511E-01  0.58451147187E-01  0.51100000000E-03 0. -1.
</event>
<event>
 8    1  0.1010879E+005  0.1043930E+01  0.7957747E-01            NaN
         13   -1    0    0    0    0  0.00000000000E+00  0.00000000000E+00  0.74505805969E-08  0.10566000000E+00  0.10566000000E+00 0.  1.
     999900   -1    0    0    0    0 -0.00000000000E+00 -0.00000000000E+00 -0.74505805969E-08  0.93827000000E+00  0.93827000000E+00 0. -1.
     999902    2    1    2    0    0 -0.31050755494E-02 -0.18529984916E-01  0.14317529210E-01  0.10203081144E+01  0.10200346342E+01 0.  0.
     999903    2    3    3    0    0  0.83380822476E-01 -0.91731360533E-01  0.42513018089E-01  0.13259575249E+00  0.20181001203E-01 0.  0.
         14    1    1    2    0    0  0.31050755494E-02  0.18529984916E-01 -0.14317529210E-01  0.23621885568E-01  0.00000000000E+00 0. -1.
     999901    1    3    3    0    0 -0.86485898025E-01  0.73201375617E-01 -0.28195488879E-01  0.88771236194E+00  0.88000000000E+00 0. -1.
        -11    1    4    4    0    0  0.73577929958E-01 -0.75297645167E-01  0.29116102075E-01  0.10923120280E+00  0.51100000000E-03 0. -1.
         11    1    4    4    0    0  0.98028925175E-02 -0.16433715366E-01  0.13396916014E-01  0.23364549688E-01  0.51100000000E-03 0.  1.
</event>
<event>
 8    1  0.1010879E+005  0.1043930E+01  0.7957747E-01            NaN
         13   -1    0    0    0    0  0.00000000000E+00  0.00000000000E+00  0.74505805969E-08  0.10566000000E+00  0.10566000000E+00 0.  1.
     999900   -1    0    0    0    0 -0.00000000000E+00 -0.00000000000E+00 -0.74505805969E-08  0.93827000000E+00  0.93827000000E+00 0.  1.
     999902    2    1    2    0    0  0.11910699735E-01  0.52223556558E-02 -0.17935765342E-01  0.10217753290E+01  0.10215351162E+01 0.  0.
     999903    2    3    3    0    0  0.10579903998E+00 -0.23401303809E-01 -0.76711222048E-01  0.13436962215E+00  0.20725006337E-01 0.  0.
         14    1    1    2    0    0 -0.11910699735E-01 -0.52223556558E-02  0.17935765342E-01  0.22154670956E-01  0.00000000000E+00 0.  1.
     999901    1    3    3    0    0 -0.93888340247E-01  0.28623659465E-01  0.58775456706E-01  0.88740570689E+00  0.88000000000E+00 0. -1.
        -11    1    4    4    0    0  0.85944707549E-01 -0.26109529263E-01 -0.57816327520E-01  0.10682316754E+00  0.51100000000E-03 0.  1.
         11    1    4    4    0    0  0.19854332433E-01  0.27082254540E-02 -0.18894894528E-01  0.27546454612E-01  0.51100000000E-03 0. -1.
</event>
<event>
 8    1  0.1010879E+005  0.1043930E+01  0.7957747E-01            NaN
         13   -1    0    0    0    0  0.00000000000E+00  0.00000000000E+00  0.74505805969E-08  0.10566000000E+00  0.10566000000E+00 0.  1.
     999900   -1    0    0    0    0 -0.00000000000E+00 -0.00000000000E+00 -0.74505805969E-08  0.93827000000E+00  0.93827000000E+00 0.  1.
     999902    2    1    2    0    0  0.32265760888E-02  0.18812431335E-01 -0.13550044586E-01  0.10205222646E+01  0.10202537775E+01 0.  0.
     999903    2    3    3    0    0  0.61528971091E-01  0.88821982631E-01  0.72448184628E-01  0.13164870673E+00  0.20186224170E-01 0.  0.
         14    1    1    2    0    0 -0.32265760888E-02 -0.18812431335E-01  0.13550044586E-01  0.23407735351E-01  0.00000000000E+00 0.  1.
     999901    1    3    3    0    0 -0.58302395002E-01 -0.70009551297E-01 -0.85998229214E-01  0.88887355792E+00  0.88000000000E+00 0.  1.
        -11    1    4    4    0    0  0.19616612602E-01  0.14811464050E-01  0.12427453267E-01  0.27548024847E-01  0.51100000000E-03 0.  1.
         11    1    4    4    0    0  0.41912358489E-01  0.74010518581E-01  0.60020731361E-01  0.10410068188E+00  0.51100000000E-03 0. -1.
</event>
<event>
 8    1  0.1010879E+005  0.1043930E+01  0.7957747E-01            NaN
         13   -1    0    0    0    0  0.00000000000E+00  0.00000000000E+00  0.74505805969E-08  0.10566000000E+00  0.10566000000E+00 0. -1.
     999900   -1    0    0    0    0 -0.00000000000E+00 -0.00000000000E+00 -0.74505805969E-08  0.93827000000E+00  0.93827000000E+00 0.  1.
     999902    2    1    2    0    0 -0.22286487393E-01  0.11138932116E-01 -0.10314983417E-01  0.10169640546E+01  0.10166064755E+01 0.  0.
     999903    2    3    3    0    0 -0.37202181749E-01 -0.11751563082E+00  0.22299745842E-01  0.12688642030E+00  0.20222739112E-01 0.  0.
         14    1    1    2    0    0  0.22286487393E-01 -0.11138932116E-01  0.10314983417E-01  0.26965945411E-01  0.00000000000E+00 0. -1.
     999901    1    3    3    0    0  0.14915694356E-01  0.12865456294E+00 -0.32614729260E-01  0.89007763429E+00  0.88000000000E+00 0.  1.
        -11    1    4    4    0    0 -0.13499062848E-01 -0.74582082828E-01  0.11445002509E-01  0.76654817071E-01  0.51100000000E-03 0.  1.
         11    1    4    4    0    0 -0.23703118901E-01 -0.42933547992E-01  0.10854743333E-01  0.50231603226E-01  0.51100000000E-03 0. -1.
</event>
<event>
 8    1  0.1010879E+005  0.1043930E+01  0.7957747E-01            NaN
         13   -1    0    0    0    0  0.00000000000E+00  0.00000000000E+00  0.74505805969E-08  0.10566000000E+00  0.10566000000E+00 0.  1.
     999900   -1    0    0    0    0 -0.00000000000E+00 -0.00000000000E+00 -0.74505805969E-08  0.93827000000E+00  0.93827000000E+00 0.  1.
     999902    2    1    2    0    0  0.41969324355E-02 -0.19583320628E-01  0.12864851711E-01  0.10201261117E+01  0.10198483508E+01 0.  0.
     999903    2    3    3    0    0 -0.61818003895E-01 -0.18564992313E-01 -0.10965530181E+00  0.12918829298E+00  0.22342902245E-01 0.  0.
         14    1    1    2    0    0 -0.41969324355E-02  0.19583320628E-01 -0.12864851711E-01  0.23803888301E-01  0.00000000000E+00 0.  1.
     999901    1    3    3    0    0  0.66014936331E-01 -0.10183283153E-02  0.12252015353E+00  0.89093781872E+00  0.88000000000E+00 0. -1.
        -11    1    4    4    0    0 -0.17034256860E-01 -0.15936597224E-01 -0.34140334771E-01  0.41351718431E-01  0.51100000000E-03 0. -1.
         11    1    4    4    0    0 -0.44783747035E-01 -0.26283950886E-02 -0.75514967044E-01  0.87836574545E-01  0.51100000000E-03 0.  1.
</event>
<event>
 8    1  0.1010879E+005  0.1043930E+01  0.7957747E-01            NaN
         13   -1    0    0    0    0  0.00000000000E+00  0.00000000000E+00  0.74505805969E-08  0.10566000000E+00  0.10566000000E+00 0. -1.
     999900   -1    0    0    0    0 -0.00000000000E+00 -0.00000000000E+00 -0.74505805969E-08  0.93827000000E+00  0.93827000000E+00 0.  1.
     999902    2    1    2    0    0 -0.44310430996E-02  0.17553802905E-01 -0.13867084253E-01  0.10211250408E+01  0.10208703555E+01 0.  0.
     999903    2    3    3    0    0 -0.64569839042E-01  0.85943173937E-01  0.73899529779E-01  0.13208243247E+00  0.20715578819E-01 0.  0.
         14    1    1    2    0    0  0.44310430996E-02 -0.17553802905E-01  0.13867084253E-01  0.22804959221E-01  0.00000000000E+00 0. -1.
     999901    1    3    3    0    0  0.60138795942E-01 -0.68389371032E-01 -0.87766614032E-01  0.88904260831E+00  0.88000000000E+00 0. -1.
        -11    1    4    4    0    0 -0.36749804401E-01  0.38764118255E-01  0.46580131353E-01  0.70874358872E-01  0.51100000000E-03 0.  1.
         11    1    4    4    0    0 -0.27820034640E-01  0.47179055682E-01  0.27319398426E-01  0.61208073600E-01  0.51100000000E-03 0. -1.
</event>
<event>
 8    1  0.1010879E+005  0.1043930E+01  0.7957747E-01            NaN
         13   -1    0    0    0    0  0.00000000000E+00  0.00000000000E+00  0.74505805969E-08  0.10566000000E+00  0.10566000000E+00 0. -1.
     999900   -1    0    0    0    0 -0.00000000000E+00 -0.00000000000E+00 -0.74505805969E-08  0.93827000000E+00  0.93827000000E+00 0.  1.
     999902    2    1    2    0    0 -0.14167215204E-03  0.57220819105E-02 -0.23091715731E-01  0.10201394635E+01  0.10198620178E+01 0.  0.
     999903    2    3    3    0    0  0.10506654297E+00  0.56188377306E-01 -0.52755713740E-01  0.13194153043E+00  0.20719312844E-01 0.  0.
         14    1    1    2    0    0  0.14167215204E-03 -0.57220819105E-02  0.23091715731E-01  0.23790536518E-01  0.00000000000E+00 0. -1.
     999901    1    3    3    0    0 -0.10520821512E+00 -0.50466295395E-01  0.29663998008E-01  0.88819793305E+00  0.88000000000E+00 0.  1.
        -11    1    4    4    0    0  0.77168636286E-01  0.49909082767E-01 -0.44882914337E-01  0.10227732930E+00  0.51100000000E-03 0.  1.
         11    1    4    4    0    0  0.27897906681E-01  0.62792945384E-02 -0.78727994027E-02  0.29664201128E-01  0.51100000000E-03 0. -1.
</event>
<event>
 8    1  0.1010879E+005  0.1043930E+01  0.7957747E-01            NaN
         13   -1    0    0    0    0  0.00000000000E+00  0.00000000000E+00  0.74505805969E-08  0.10566000000E+00  0.10566000000E+00 0. -1.
     999900   -1    0    0    0    0 -0.00000000000E+00 -0.00000000000E+00 -0.74505805969E-08  0.93827000000E+00  0.93827000000E+00 0.  1.
     999902    2    1    2    0    0 -0.17981086521E-01  0.67390260543E-02  0.14716967642E-01  0.10197365488E+01  0.10194495112E+01 0.  0.
     999903    2    3    3    0    0  0.26233194361E-01  0.82839387977E-01 -0.93037980934E-01  0.12880596976E+00  0.19605286591E-01 0.  0.
         14    1    1    2    0    0  0.17981086521E-01 -0.67390260543E-02 -0.14716967642E-01  0.24193451206E-01  0.00000000000E+00 0.  1.
     999901    1    3    3    0    0 -0.44214280883E-01 -0.76100361923E-01  0.10775494858E+00  0.89093057904E+00  0.88000000000E+00 0. -1.
        -11    1    4    4    0    0  0.24498350476E-01  0.59549485106E-01 -0.57809556360E-01  0.86536213691E-01  0.51100000000E-03 0.  1.
         11    1    4    4    0    0  0.17348438856E-02  0.23289902871E-01 -0.35228424574E-01  0.42269756067E-01  0.51100000000E-03 0. -1.
</event>
<event>
 8    1  0.1010879E+005  0.1043930E+01  0.7957747E-01            NaN
         13   -1    0    0    0    0  0.00000000000E+00  0.00000000000E+00  0.74505805969E-08  0.10566000000E+00  0.10566000000E+00 0.  1.
     999900   -1    0    0    0    0 -0.00000000000E+00 -0.00000000000E+00 -0.74505805969E-08  0.93827000000E+00  0.93827000000E+00 0. -1.
     999902    2    1    2    0    0 -0.56201018198E-02  0.20792904257E-01  0.86037773336E-02  0.10207361345E+01  0.10204725870E+01 0.  0.
     999903    2    3    3    0    0 -0.90695440075E-02 -0.10800539134E+00 -0.65520568012E-01  0.12827027064E+00  0.20319850141E-01 0.  0.
         14    1    1    2    0    0  0.56201018198E-02 -0.20792904257E-01 -0.86037773336E-02  0.23193865489E-01  0.00000000000E+00 0.  1.
     999901    1    3    3    0    0  0.34494421877E-02  0.12879829560E+00  0.74124345346E-01  0.89246586387E+00  0.88000000000E+00 0. -1.
        -11    1    4    4    0    0 -0.25069197681E-02 -0.71472486756E-01 -0.53279785317E-01  0.89182944862E-01  0.51100000000E-03 0. -1.
         11    1    4    4    0    0 -0.65626242395E-02 -0.36532904588E-01 -0.12240782695E-01  0.39087325779E-01  0.51100000000E-03 0.  1.
</event>
<event>
 8    1  0.1010879E+005  0.1043930E+01  0.7957747E-01            NaN
         13   -1    0    0    0    0  0.00000000000E+00  0.00000000000E+00  0.74505805969E-08  0.10566000000E+00  0.10566000000E+00 0. -1.
     999900   -1    0    0    0    0 -0.00000000000E+00 -0.00000000000E+00 -0.74505805969E-08  0.93827000000E+00  0.93827000000E+00 0. -1.
     999902    2    1    2    0    0 -0.13170169897E-01 -0.46943648969E-02  0.19457908550E-01  0.10199696026E+01  0.10196881335E+01 0.  0.
     999903    2    3    3    0    0 -0.11296325260E+00 -0.35093220577E-01 -0.52081395462E-01  0.13092482209E+00  0.20895136232E-01 0.  0.
         14    1    1    2    0    0  0.13170169897E-01  0.46943648969E-02 -0.19457908550E-01  0.23960397368E-01  0.00000000000E+00 0.  1.
     999901    1    3    3    0    0  0.99793082705E-01  0.30398855680E-01  0.71539304012E-01  0.88904478054E+00  0.88000000000E+00 0.  1.
        -11    1    4    4    0    0 -0.47461144380E-01 -0.12275451133E-01 -0.10784715377E-01  0.50197790122E-01  0.51100000000E-03 0. -1.
         11    1    4    4    0    0 -0.65502108222E-01 -0.22817769444E-01 -0.41296680085E-01  0.80727031972E-01  0.51100000000E-03 0.  1.
</event>
<event>
 8    1  0.1010879E+005  0.1043930E+01  0.7957747E-01            NaN
         13   -1    0    0    0    0  0.00000000000E+00  0.00000000000E+00  0.74505805969E-08  0.10566000000E+00  0.10566000000E+00 0. -1.
     999900   -1    0    0    0    0 -0.00000000000E+00 -0.00000000000E+00 -0.74505805969E-08  0.93827000000E+00  0.93827000000E+00 0. -1.
     999902    2    1    2    0    0  0.77849860528E-02  0.13565380993E-01  0.18284304423E-01  0.10198687997E+01  0.10195849290E+01 0.  0.
     999903    2    3    3    0    0 -0.93634178454E-01 -0.76443065178E-01 -0.35922826157E-01  0.12783417020E+00  0.20981516687E-01 0.  0.
         14    1    1    2    0    0 -0.77849860528E-02 -0.13565380993E-01 -0.18284304423E-01  0.24061200252E-01  0.00000000000E+00 0.  1.
     999901    1    3    3    0    0  0.10141916451E+00  0.90008446171E-01  0.54207130580E-01  0.89203462955E+00  0.88000000000E+00 0.  1.
        -11    1    4    4    0    0 -0.56852420613E-01 -0.53586174314E-01 -0.14290469666E-01  0.79423890936E-01  0.51100000000E-03 0. -1.
         11    1    4    4    0    0 -0.36781757841E-01 -0.22856890864E-01 -0.21632356491E-01  0.48410279262E-01  0.51100000000E-03 0.  1.
</event>
<event>
 8    1  0.1010879E+005  0.1043930E+01  0.7957747E-01            NaN
         13   -1    0    0    0    0  0.00000000000E+00  0.00000000000E+00  0.74505805969E-08  0.10566000000E+00  0.10566000000E+00 0.  1.
     999900   -1    0    0    0    0 -0.00000000000E+00 -0.00000000000E+00 -0.74505805969E-08  0.93827000000E+00  0.93827000000E+00 0. -1.
     999902    2    1    2    0    0 -0.11484349706E-01 -0.77637382409E-02 -0.21350804745E-01  0.10184737084E+01  0.10181555244E+01 0.  0.
     999903    2    3    3    0    0  0.39597576489E-01 -0.12405631199E-01  0.11753621234E+00  0.12610578321E+00  0.19132161384E-01 0.  0.
         14    1    1    2    0    0  0.11484349706E-01  0.77637382409E-02  0.21350804745E-01  0.25456291617E-01  0.00000000000E+00 0.  1.
     999901    1    3    3    0    0 -0.51081926195E-01  0.46418929581E-02 -0.13888701709E+00  0.89236792517E+00  0.88000000000E+00 0. -1.
        -11    1    4    4    0    0  0.25414429088E-01 -0.11076901760E-01  0.98473783509E-01  0.10230316768E+00  0.51100000000E-03 0.  1.
         11    1    4    4    0    0  0.14183147400E-01 -0.13287294394E-02  0.19062428833E-01  0.23802615531E-01  0.51100000000E-03 0. -1.
</event>
<event>
 8    1  0.1010879E+005  0.1043930E+01  0.7957747E-01            NaN
         13   -1    0    0    0    0  0.00000000000E+00  0.00000000000E+00  0.74505805969E-08  0.10566000000E+00  0.10566000000E+00 0. -1.
     999900   -1    0    0    0    0 -0.00000000000E+00 -0.00000000000E+00 -0.74505805969E-08  0.93827000000E+00  0.93827000000E+00 0.  1.
     999902    2    1    2    0    0  0.93036098395E-02  0.47799604400E-02 -0.21897340380E-01  0.10196627650E+01  0.10193739528E+01 0.  0.
     999903    2    3    3    0    0  0.23892821169E-01  0.10041605278E+00 -0.80518462552E-01  0.13242235611E+00  0.19955125310E-01 0.  0.
         14    1    1    2    0    0 -0.93036098395E-02 -0.47799604400E-02  0.21897340380E-01  0.24267234980E-01  0.00000000000E+00 0. -1.
     999901    1    3    3    0    0 -0.14589211329E-01 -0.95636092338E-01  0.58621122172E-01  0.88724040891E+00  0.88000000000E+00 0. -1.
        -11    1    4    4    0    0  0.23520241213E-01  0.57741910611E-01 -0.44930699008E-01  0.76852838738E-01  0.51100000000E-03 0.  1.
         11    1    4    4    0    0  0.37257995600E-03  0.42674142167E-01 -0.35587763544E-01  0.55569517368E-01  0.51100000000E-03 0. -1.
</event>
<event>
 8    1  0.1010879E+005  0.1043930E+01  0.7957747E-01            NaN
         13   -1    0    0    0    0  0.00000000000E+00  0.00000000000E+00  0.74505805969E-08  0.10566000000E+00  0.10566000000E+00 0.  1.
     999900   -1    0    0    0    0 -0.00000000000E+00 -0.00000000000E+00 -0.74505805969E-08  0.93827000000E+00  0.93827000000E+00 0.  1.
     999902    2    1    2    0    0 -0.68894344600E-02  0.12136674816E-01 -0.17218147071E-01  0.10217663412E+01  0.10215259313E+01 0.  0.
     999903    2    3    3    0    0  0.95012850447E-01  0.41102216653E-01 -0.81163838281E-01  0.13310885392E+00  0.20336282420E-01 0.  0.
         14    1    1    2    0    0  0.68894344600E-02 -0.12136674816E-01  0.17218147071E-01  0.22163658798E-01  0.00000000000E+00 0.  1.
     999901    1    3    3    0    0 -0.10190228491E+00 -0.28965541837E-01  0.63945691210E-01  0.88865748728E+00  0.88000000000E+00 0. -1.
        -11    1    4    4    0    0  0.83452598942E-01  0.41034916447E-01 -0.66014018338E-01  0.11404522075E+00  0.51100000000E-03 0. -1.
         11    1    4    4    0    0  0.11560251506E-01  0.67300205973E-04 -0.15149819943E-01  0.19063633166E-01  0.51100000000E-03 0.  1.
</event>
<event>
 8    1  0.1010879E+005  0.1043930E+01  0.7957747E-01            NaN
         13   -1    0    0    0    0  0.00000000000E+00  0.00000000000E+00  0.74505805969E-08  0.10566000000E+00  0.10566000000E+00 0. -1.
     999900   -1    0    0    0    0 -0.00000000000E+00 -0.00000000000E+00 -0.74505805969E-08  0.93827000000E+00  0.93827000000E+00 0. -1.
     999902    2    1    2    0    0  0.11367270411E-01 -0.20012718116E-01 -0.95184124643E-03  0.10208945984E+01  0.10206346807E+01 0.  0.
     999903    2    3    3    0    0  0.60815265259E-01  0.95445378609E-01  0.59808344740E-01  0.12990218743E+00  0.22118395313E-01 0.  0.
         14    1    1    2    0    0 -0.11367270411E-01  0.20012718116E-01  0.95184124643E-03  0.23035401554E-01  0.00000000000E+00 0.  1.
     999901    1    3    3    0    0 -0.49447994848E-01 -0.11545809673E+00 -0.60760185986E-01  0.89099241102E+00  0.88000000000E+00 0. -1.
        -11    1    4    4    0    0  0.46077150538E-01  0.52230619953E-01  0.35826580718E-01  0.78325899097E-01  0.51100000000E-03 0.  1.
         11    1    4    4    0    0  0.14738114721E-01  0.43214758656E-01  0.23981764022E-01  0.51576288329E-01  0.51100000000E-03 0. -1.
</event>
<event>
 8    1  0.1010879E+005  0.1043930E+01  0.7957747E-01            NaN
         13   -1    0    0    0    0  0.00000000000E+00  0.00000000000E+00  0.74505805969E-08  0.10566000000E+00  0.10566000000E+00 0. -1.
     999900   -1    0    0    0    0 -0.00000000000E+00 -0.00000000000E+00 -0.74505805969E-08  0.93827000000E+00  0.93827000000E+00 0. -1.
     999902    2    1    2    0    0 -0.86163553274E-02 -0.58267873382E-02 -0.20570386015E-01  0.10208793208E+01  0.10206190542E+01 0.  0.
     999903    2    3    3    0    0 -0.24477809350E-01 -0.17182626200E-02 -0.13020172768E+00  0.13392526521E+00  0.19528727393E-01 0.  0.
         14    1    1    2    0    0  0.86163553274E-02  0.58267873382E-02  0.20570386015E-01  0.23050679179E-01  0.00000000000E+00 0. -1.
     999901    1    3    3    0    0  0.15861454023E-01 -0.41085247182E-02  0.10963134166E+00  0.88695405562E+00  0.88000000000E+00 0.  1.
        -11    1    4    4    0    0 -0.11679964757E-01  0.52688424419E-02 -0.94366322335E-01  0.95233640010E-01  0.51100000000E-03 0. -1.
         11    1    4    4    0    0 -0.12797844593E-01 -0.69871050619E-02 -0.35835405340E-01  0.38691625195E-01  0.51100000000E-03 0.  1.
</event>
<event>
 8    1  0.1010879E+005  0.1043930E+01  0.7957747E-01            NaN
         13   -1    0    0    0    0  0.00000000000E+00  0.00000000000E+00  0.74505805969E-08  0.10566000000E+00  0.10566000000E+00 0.  1.
     999900   -1    0    0    0    0 -0.00000000000E+00 -0.00000000000E+00 -0.74505805969E-08  0.93827000000E+00  0.93827000000E+00 0.  1.
     999902    2    1    2    0    0  0.32102321665E-02 -0.17157553848E-01 -0.15369930771E-01  0.10206722697E+01  0.10204072521E+01 0.  0.
     999903    2    3    3    0    0 -0.98628411198E-01 -0.44905694757E-01 -0.73254584523E-01  0.13247651331E+00  0.20969203823E-01 0.  0.
         14    1    1    2    0    0 -0.32102321665E-02  0.17157553848E-01  0.15369930771E-01  0.23257730253E-01  0.00000000000E+00 0.  1.
     999901    1    3    3    0    0  0.10183864336E+00  0.27748140909E-01  0.57884653752E-01  0.88819575643E+00  0.88000000000E+00 0. -1.
        -11    1    4    4    0    0 -0.54103031346E-01 -0.16325466477E-01 -0.46498802661E-01  0.73185098391E-01  0.51100000000E-03 0.  1.
         11    1    4    4    0    0 -0.44525379852E-01 -0.28580228280E-01 -0.26755781861E-01  0.59291414923E-01  0.51100000000E-03 0. -1.
</event>
<event>
 8    1  0.1010879E+005  0.1043930E+01  0.7957747E-01            NaN
         13   -1    0    0    0    0  0.00000000000E+00  0.00000000000E+00  0.74505805969E-08  0.10566000000E+00  0.10566000000E+00 0.  1.
     999900   -1    0    0    0    0 -0.00000000000E+00 -0.00000000000E+00 -0.74505805969E-08  0.93827000000E+00  0.93827000000E+00 0. -1.
     999902    2    1    2    0    0 -0.46532150130E-02  0.23420676171E-01  0.15743942872E-02  0.10199997012E+01  0.10197189472E+01 0.  0.
     999903    2    3    3    0    0 -0.63052513934E-01 -0.73772556573E-01  0.82609553681E-01  0.12903185687E+00  0.20171071165E-01 0.  0.
         14    1    1    2    0    0  0.46532150130E-02 -0.23420676171E-01 -0.15743942872E-02  0.23930298778E-01  0.00000000000E+00 0. -1.
     999901    1    3    3    0    0  0.58399298921E-01  0.97193232744E-01 -0.81035159394E-01  0.89096784435E+00  0.88000000000E+00 0. -1.
        -11    1    4    4    0    0 -0.58064902661E-02 -0.81180486564E-03  0.21872434358E-02  0.62784959343E-02  0.51100000000E-03 0. -1.
         11    1    4    4    0    0 -0.57246023668E-01 -0.72960751708E-01  0.80422310245E-01  0.12275336094E+00  0.51100000000E-03 0.  1.
</event>
<event>
 8    1  0.1010879E+005  0.1043930E+01  0.7957747E-01            NaN
         13   -1    0    0    0    0  0.00000000000E+00  0.00000000000E+00  0.74505805969E-08  0.10566000000E+00  0.10566000000E+00 0.  1.
     999900   -1    0    0    0    0 -0.00000000000E+00 -0.00000000000E+00 -0.74505805969E-08  0.93827000000E+00  0.93827000000E+00 0.  1.
     999902    2    1    2    0    0  0.21836067670E-01  0.12828704126E-04  0.70891901454E-02  0.10209719811E+01  0.10207138265E+01 0.  0.
     999903    2    3    3    0    0 -0.37876989920E-01 -0.12313926223E+00  0.49137694064E-02  0.13038968887E+00  0.19477719686E-01 0.  0.
         14    1    1    2    0    0 -0.21836067670E-01 -0.12828704126E-04 -0.70891901454E-02  0.22958018921E-01  0.00000000000E+00 0.  1.
     999901    1    3    3    0    0  0.59713057590E-01  0.12315209094E+00  0.21754207390E-02  0.89058229221E+00  0.88000000000E+00 0.  1.
        -11    1    4    4    0    0 -0.20136823719E-01 -0.93633822271E-01  0.57418825991E-02  0.95947979027E-01  0.51100000000E-03 0.  1.
         11    1    4    4    0    0 -0.17740166201E-01 -0.29505439961E-01 -0.82811319272E-03  0.34441709838E-01  0.51100000000E-03 0. -1.
</event>
<event>
 8    1  0.1010879E+005  0.1043930E+01  0.7957747E-01            NaN
         13   -1    0    0    0    0  0.00000000000E+00  0.00000000000E+00  0.74505805969E-08  0.10566000000E+00  0.10566000000E+00 0.  1.
     999900   -1    0    0    0    0 -0.00000000000E+00 -0.00000000000E+00 -0.74505805969E-08  0.93827000000E+00  0.93827000000E+00 0. -1.
     999902    2    1    2    0    0 -0.21511648753E-02  0.17175097444E-01 -0.15714712289E-01  0.10205512989E+01  0.10202834851E+01 0.  0.
     999903    2    3    3    0    0  0.83357363616E-01 -0.54743306963E-01 -0.83180973501E-01  0.13092460094E+00  0.16640223903E-01 0.  0.
         14    1    1    2    0    0  0.21511648753E-02 -0.17175097444E-01  0.15714712289E-01  0.23378701095E-01  0.00000000000E+00 0. -1.
     999901    1    3    3    0    0 -0.85508528491E-01  0.71918404407E-01  0.67466261212E-01  0.88962669797E+00  0.88000000000E+00 0. -1.
        -11    1    4    4    0    0  0.39632082849E-01 -0.17500677417E-01 -0.30499424418E-01  0.52985391494E-01  0.51100000000E-03 0. -1.
         11    1    4    4    0    0  0.43725280767E-01 -0.37242629546E-01 -0.52681549083E-01  0.77939209442E-01  0.51100000000E-03 0.  1.
</event>
<event>
 8    1  0.1010879E+005  0.1043930E+01  0.7957747E-01            NaN
         13   -1    0    0    0    0  0.00000000000E+00  0.00000000000E+00  0.74505805969E-08  0.10566000000E+00  0.10566000000E+00 0. -1.
     999900   -1    0    0    0    0 -0.00000000000E+00 -0.00000000000E+00 -0.74505805969E-08  0.93827000000E+00  0.93827000000E+00 0. -1.
     999902    2    1    2    0    0 -0.11184802352E-02  0.23114260256E-01  0.26275620199E-02  0.10206399998E+01  0.10203742378E+01 0.  0.
     999903    2    3    3    0    0  0.12469461531E+00  0.30300601859E-01  0.20596158908E-01  0.13148115633E+00  0.19905254269E-01 0.  0.
         14    1    1    2    0    0  0.11184802352E-02 -0.23114260256E-01 -0.26275620199E-02  0.23290000159E-01  0.00000000000E+00 0.  1.
     999901    1    3    3    0    0 -0.12581309555E+00 -0.71863416027E-02 -0.17968596888E-01  0.88915884351E+00  0.88000000000E+00 0. -1.
        -11    1    4    4    0    0  0.32209729925E-01  0.58079071893E-02  0.13932445776E-01  0.35574887970E-01  0.51100000000E-03 0. -1.
         11    1    4    4    0    0  0.92484885388E-01  0.24492694670E-01  0.66637131317E-02  0.95906268362E-01  0.51100000000E-03 0.  1.
</event>
<event>
 8    1  0.1010879E+005  0.1043930E+01  0.7957747E-01            NaN
         13   -1    0    0    0    0  0.00000000000E+00  0.00000000000E+00  0.74505805969E-08  0.10566000000E+00  0.10566000000E+00 0.  1.
     999900   -1    0    0    0    0 -0.00000000000E+00 -0.00000000000E+00 -0.74505805969E-08  0.93827000000E+00  0.93827000000E+00 0.  1.
     999902    2    1    2    0    0  0.15959509854E-01 -0.24766206556E-02 -0.17248439872E-01  0.10203006055E+01  0.10200269493E+01 0.  0.
     999903    2    3    3    0    0 -0.27196030783E-01  0.99993836823E-01 -0.78119397532E-01  0.13121800598E+00  0.19419920973E-01 0.  0.
         14    1    1    2    0    0 -0.15959509854E-01  0.24766206556E-02  0.17248439872E-01  0.23629394463E-01  0.00000000000E+00 0.  1.
     999901    1    3    3    0    0  0.43155540637E-01 -0.10247045748E+00  0.60870957660E-01  0.88908259955E+00  0.88000000000E+00 0. -1.
        -11    1    4    4    0    0 -0.12075049115E-01  0.38686902758E-01 -0.42458194358E-01  0.58697893023E-01  0.51100000000E-03 0. -1.
         11    1    4    4    0    0 -0.15120981667E-01  0.61306934065E-01 -0.35661203173E-01  0.72520112960E-01  0.51100000000E-03 0.  1.
</event>
<event>
 8    1  0.1010879E+005  0.1043930E+01  0.7957747E-01            NaN
         13   -1    0    0    0    0  0.00000000000E+00  0.00000000000E+00  0.74505805969E-08  0.10566000000E+00  0.10566000000E+00 0.  1.
     999900   -1    0    0    0    0 -0.00000000000E+00 -0.00000000000E+00 -0.74505805969E-08  0.93827000000E+00  0.93827000000E+00 0.  1.
     999902    2    1    2    0    0  0.22123401096E-01  0.80250528552E-02 -0.29058454268E-03  0.10203942657E+01  0.10201227998E+01 0.  0.
     999903    2    3    3    0    0  0.11947074953E-01 -0.10966695657E+00 -0.66255800100E-01  0.13005367000E+00  0.18829553123E-01 0.  0.
         14    1    1    2    0    0 -0.22123401096E-01 -0.80250528552E-02  0.29058454268E-03  0.23535734294E-01  0.00000000000E+00 0. -1.
     999901    1    3    3    0    0  0.10176326143E-01  0.11769200942E+00  0.65965215558E-01  0.89034059570E+00  0.88000000000E+00 0.  1.
        -11    1    4    4    0    0  0.97360137212E-02 -0.51629454715E-01 -0.21683555295E-01  0.56840375162E-01  0.51100000000E-03 0.  1.
         11    1    4    4    0    0  0.22110612322E-02 -0.58037501854E-01 -0.44572244805E-01  0.73213294839E-01  0.51100000000E-03 0. -1.
</event>
<event>
 8    1  0.1010879E+005  0.1043930E+01  0.7957747E-01            NaN
         13   -1    0    0    0    0  0.00000000000E+00  0.00000000000E+00  0.74505805969E-08  0.10566000000E+00  0.10566000000E+00 0. -1.
     999900   -1    0    0    0    0 -0.00000000000E+00 -0.00000000000E+00 -0.74505805969E-08  0.93827000000E+00  0.93827000000E+00 0.  1.
     999902    2    1    2    0    0  0.65263191573E-02  0.90362903730E-02 -0.20913268853E-01  0.10202316414E+01  0.10199563667E+01 0.  0.
     999903    2    3    3    0    0 -0.10727718759E+00 -0.64388788001E-01 -0.28349072676E-01  0.12983972127E+00  0.20009305375E-01 0.  0.
         14    1    1    2    0    0 -0.65263191573E-02 -0.90362903730E-02  0.20913268853E-01  0.23698358584E-01  0.00000000000E+00 0. -1.
     999901    1    3    3    0    0  0.11380350674E+00  0.73425078374E-01  0.74358038228E-02  0.89039192015E+00  0.88000000000E+00 0.  1.
        -11    1    4    4    0    0 -0.11533112765E-01 -0.13231332290E-01 -0.84045151927E-02  0.19467353206E-01  0.51100000000E-03 0.  1.
         11    1    4    4    0    0 -0.95744074821E-01 -0.51157455711E-01 -0.19944557483E-01  0.11037236807E+00  0.51100000000E-03 0. -1.
</event>
<event>
 8    1  0.1010879E+005  0.1043930E+01  0.7957747E-01            NaN
         13   -1    0    0    0    0  0.00000000000E+00  0.00000000000E+00  0.74505805969E-08  0.10566000000E+00  0.10566000000E+00 0. -1.
     999900   -1    0    0    0    0 -0.00000000000E+00 -0.00000000000E+00 -0.74505805969E-08  0.93827000000E+00  0.93827000000E+00 0. -1.
     999902    2    1    2    0    0 -0.19129668110E-01  0.51887999775E-02 -0.11355206465E-01  0.10210868706E+01  0.10208313224E+01 0.  0.
     999903    2    3    3    0    0  0.71884159947E-01  0.73292478227E-01 -0.79206305365E-01  0.13118496616E+00  0.19918250969E-01 0.  0.
         14    1    1    2    0    0  0.19129668110E-01 -0.51887999775E-02  0.11355206465E-01  0.22843129406E-01  0.00000000000E+00 0. -1.
     999901    1    3    3    0    0 -0.91013828056E-01 -0.68103678249E-01  0.67851098900E-01  0.88990190443E+00  0.88000000000E+00 0. -1.
        -11    1    4    4    0    0  0.25098987785E-01  0.38836846675E-01 -0.39388855141E-01  0.60745393881E-01  0.51100000000E-03 0. -1.
         11    1    4    4    0    0  0.46785172162E-01  0.34455631552E-01 -0.39817450225E-01  0.70439572282E-01  0.51100000000E-03 0.  1.
</event>
<event>
 8    1  0.1010879E+005  0.1043930E+01  0.7957747E-01            NaN
         13   -1    0    0    0    0  0.00000000000E+00  0.00000000000E+00  0.74505805969E-08  0.10566000000E+00  0.10566000000E+00 0. -1.
     999900   -1    0    0    0    0 -0.00000000000E+00 -0.00000000000E+00 -0.74505805969E-08  0.93827000000E+00  0.93827000000E+00 0.  1.
     999902    2    1    2    0    0 -0.49501678735E-02  0.22197419754E-01  0.84818205758E-02  0.10196571574E+01  0.10193682101E+01 0.  0.
     999903    2    3    3    0    0  0.81816505872E-01  0.60922922078E-01  0.80217997230E-01  0.13164015352E+00  0.22105652499E-01 0.  0.
         14    1    1    2    0    0  0.49501678735E-02 -0.22197419754E-01 -0.84818205758E-02  0.24272842561E-01  0.00000000000E+00 0.  1.
     999901    1    3    3    0    0 -0.86766673745E-01 -0.38725502324E-01 -0.71736176654E-01  0.88801700392E+00  0.88000000000E+00 0.  1.
        -11    1    4    4    0    0  0.51894454445E-01  0.51026426735E-01  0.53668488609E-01  0.90428415988E-01  0.51100000000E-03 0.  1.
         11    1    4    4    0    0  0.29922051426E-01  0.98964953426E-02  0.26549508621E-01  0.41211737535E-01  0.51100000000E-03 0. -1.
</event>
<event>
 8    1  0.1010879E+005  0.1043930E+01  0.7957747E-01            NaN
         13   -1    0    0    0    0  0.00000000000E+00  0.00000000000E+00  0.74505805969E-08  0.10566000000E+00  0.10566000000E+00 0.  1.
     999900   -1    0    0    0    0 -0.00000000000E+00 -0.00000000000E+00 -0.74505805969E-08  0.93827000000E+00  0.93827000000E+00 0.  1.
     999902    2    1    2    0    0  0.19938744642E-01  0.32560133004E-02  0.11015799435E-01  0.10209190679E+01  0.10206597083E+01 0.  0.
     999903    2    3    3    0    0 -0.54049567668E-02 -0.81210145835E-01  0.10181298204E+00  0.13186284714E+00  0.19940556640E-01 0.  0.
         14    1    1    2    0    0 -0.19938744642E-01 -0.32560133004E-02 -0.11015799435E-01  0.23010932134E-01  0.00000000000E+00 0. -1.
     999901    1    3    3    0    0  0.25343701408E-01  0.84466159135E-01 -0.90797182610E-01  0.88905622073E+00  0.88000000000E+00 0.  1.
        -11    1    4    4    0    0  0.10867847030E-02 -0.41337003753E-01  0.37009038430E-01  0.55496477607E-01  0.51100000000E-03 0. -1.
         11    1    4    4    0    0 -0.64917414698E-02 -0.39873142081E-01  0.64803943614E-01  0.76366369533E-01  0.51100000000E-03 0.  1.
</event>
<event>
 8    1  0.1010879E+005  0.1043930E+01  0.7957747E-01            NaN
         13   -1    0    0    0    0  0.00000000000E+00  0.00000000000E+00  0.74505805969E-08  0.10566000000E+00  0.10566000000E+00 0. -1.
     999900   -1    0    0    0    0 -0.00000000000E+00 -0.00000000000E+00 -0.74505805969E-08  0.93827000000E+00  0.93827000000E+00 0. -1.
     999902    2    1    2    0    0  0.17327931387E-01  0.10641227113E-01  0.99885511216E-02  0.10212746679E+01  0.10210233509E+01 0.  0.
     999903    2    3    3    0    0 -0.98517830017E-01 -0.80722124108E-01  0.48652373391E-02  0.12897777180E+00  0.19742617170E-01 0.  0.
         14    1    1    2    0    0 -0.17327931387E-01 -0.10641227113E-01 -0.99885511216E-02  0.22655332135E-01  0.00000000000E+00 0. -1.
     999901    1    3    3    0    0  0.11584576140E+00  0.91363351221E-01  0.51233137825E-02  0.89229689606E+00  0.88000000000E+00 0. -1.
        -11    1    4    4    0    0 -0.31051568733E-01 -0.36329539295E-01 -0.26375718174E-02  0.47867037221E-01  0.51100000000E-03 0. -1.
         11    1    4    4    0    0 -0.67466261284E-01 -0.44392584812E-01  0.75028091566E-02  0.81110734580E-01  0.51100000000E-03 0.  1.
</event>
<event>
 8    1  0.1010879E+005  0.1043930E+01  0.7957747E-01            NaN
         13   -1    0    0    0    0  0.00000000000E+00  0.00000000000E+00  0.74505805969E-08  0.10566000000E+00  0.10566000000E+00 0. -1.
     999900   -1    0    0    0    0 -0.00000000000E+00 -0.00000000000E+00 -0.74505805969E-08  0.93827000000E+00  0.93827000000E+00 0. -1.
     999902    2    1    2    0    0 -0.10904729525E-01  0.21510221417E-01  0.44240068542E-02  0.10194111381E+01  0.10191162318E+01 0.  0.
     999903    2    3    3    0    0  0.78498006589E-01 -0.15657558523E-01  0.99259554447E-01  0.12903589465E+00  0.19766304199E-01 0.  0.
         14    1    1    2    0    0  0.10904729525E-01 -0.21510221417E-01 -0.44240068542E-02  0.24518861884E-01  0.00000000000E+00 0. -1.
     999901    1    3    3    0    0 -0.89402736114E-01  0.37167779940E-01 -0.94835547593E-01  0.89037524347E+00  0.88000000000E+00 0.  1.
        -11    1    4    4    0    0  0.48489784113E-01 -0.18422519918E-01  0.69029305938E-01  0.86347869706E-01  0.51100000000E-03 0.  1.
         11    1    4    4    0    0  0.30008222476E-01  0.27649613954E-02  0.30230248509E-01  0.42688024944E-01  0.51100000000E-03 0. -1.
</event>
<event>
 8    1  0.1010879E+005  0.1043930E+01  0.7957747E-01            NaN
         13   -1    0    0    0    0  0.00000000000E+00  0.00000000000E+00  0.74505805969E-08  0.10566000000E+00  0.10566000000E+00 0.  1.
     999900   -1    0    0    0    0 -0.00000000000E+00 -0.00000000000E+00 -0.74505805969E-08  0.93827000000E+00  0.93827000000E+00 0.  1.
     999902    2    1    2    0    0  0.16894910421E-01 -0.57450981999E-02  0.15414066298E-01  0.10203495507E+01  0.10200770402E+01 0.  0.
     999903    2    3    3    0    0  0.11226677642E+00 -0.37763088665E-01 -0.54467255565E-01  0.13186525497E+00  0.19796049740E-01 0.  0.
         14    1    1    2    0    0 -0.16894910421E-01  0.57450981999E-02 -0.15414066298E-01  0.23580449345E-01  0.00000000000E+00 0. -1.
     999901    1    3    3    0    0 -0.95371866001E-01  0.32017990465E-01  0.69881321863E-01  0.88848429569E+00  0.88000000000E+00 0. -1.
        -11    1    4    4    0    0  0.64747403818E-01 -0.24158586548E-01 -0.42054927917E-01  0.80899577801E-01  0.51100000000E-03 0.  1.
         11    1    4    4    0    0  0.47519372604E-01 -0.13604502116E-01 -0.12412327648E-01  0.50965677167E-01  0.51100000000E-03 0. -1.
</event>
<event>
 8    1  0.1010879E+005  0.1043930E+01  0.7957747E-01            NaN
         13   -1    0    0    0    0  0.00000000000E+00  0.00000000000E+00  0.74505805969E-08  0.10566000000E+00  0.10566000000E+00 0.  1.
     999900   -1    0    0    0    0 -0.00000000000E+00 -0.00000000000E+00 -0.74505805969E-08  0.93827000000E+00  0.93827000000E+00 0.  1.
     999902    2    1    2    0    0 -0.10426845271E-01  0.21034560869E-01 -0.12855007055E-01  0.10171639196E+01  0.10168116917E+01 0.  0.
     999903    2    3    3    0    0  0.51788803874E-01  0.32649200844E-01  0.10883725670E+00  0.12653790723E+00  0.20450990119E-01 0.  0.
         14    1    1    2    0    0  0.10426845271E-01 -0.21034560869E-01  0.12855007055E-01  0.26766080394E-01  0.00000000000E+00 0. -1.
     999901    1    3    3    0    0 -0.62215649145E-01 -0.11614639975E-01 -0.12169226376E+00  0.89062601238E+00  0.88000000000E+00 0.  1.
        -11    1    4    4    0    0  0.12300238650E-01  0.11814663644E-01  0.48941053760E-01  0.51830203666E-01  0.51100000000E-03 0.  1.
         11    1    4    4    0    0  0.39488565224E-01  0.20834537201E-01  0.59896202945E-01  0.74707703565E-01  0.51100000000E-03 0. -1.
</event>
<event>
 8    1  0.1010879E+005  0.1043930E+01  0.7957747E-01            NaN
         13   -1    0    0    0    0  0.00000000000E+00  0.00000000000E+00  0.74505805969E-08  0.10566000000E+00  0.10566000000E+00 0. -1.
     999900   -1    0    0    0    0 -0.00000000000E+00 -0.00000000000E+00 -0.74505805969E-08  0.93827000000E+00  0.93827000000E+00 0. -1.
     999902    2    1    2    0    0  0.20996597304E-01 -0.54459846914E-03  0.98976788920E-02  0.10207110910E+01  0.10204469676E+01 0.  0.
     999903    2    3    3    0    0  0.40757443433E-01 -0.10220058026E+00 -0.67867490112E-01  0.13123267580E+00  0.22580770162E-01 0.  0.
         14    1    1    2    0    0 -0.20996597304E-01  0.54459846914E-03 -0.98976788920E-02  0.23218908960E-01  0.00000000000E+00 0.  1.
     999901    1    3    3    0    0 -0.19760846129E-01  0.10165598179E+00  0.77765169004E-01  0.88947841524E+00  0.88000000000E+00 0.  1.
        -11    1    4    4    0    0  0.16011353059E-02 -0.22313282090E-01 -0.70403535853E-02  0.23457917459E-01  0.51100000000E-03 0.  1.
         11    1    4    4    0    0  0.39156308127E-01 -0.79887298173E-01 -0.60827136527E-01  0.10777475834E+00  0.51100000000E-03 0. -1.
</event>
<event>
 8    1  0.1010879E+005  0.1043930E+01  0.7957747E-01            NaN
         13   -1    0    0    0    0  0.00000000000E+00  0.00000000000E+00  0.74505805969E-08  0.10566000000E+00  0.10566000000E+00 0.  1.
     999900   -1    0    0    0    0 -0.00000000000E+00 -0.00000000000E+00 -0.74505805969E-08  0.93827000000E+00  0.93827000000E+00 0. -1.
     999902    2    1    2    0    0 -0.55563747147E-02  0.17806701870E-02  0.23155393973E-01  0.10200507966E+01  0.10197712544E+01 0.  0.
     999903    2    3    3    0    0 -0.92920967527E-01 -0.86895260644E-01  0.24728245009E-01  0.13128847365E+00  0.20978195431E-01 0.  0.
         14    1    1    2    0    0  0.55563747147E-02 -0.17806701870E-02 -0.23155393973E-01  0.23879203428E-01  0.00000000000E+00 0. -1.
     999901    1    3    3    0    0  0.87364592812E-01  0.88675930832E-01 -0.15728510355E-02  0.88876232292E+00  0.88000000000E+00 0.  1.
        -11    1    4    4    0    0 -0.54438197655E-01 -0.62639798207E-01  0.10671711290E-01  0.83674417992E-01  0.51100000000E-03 0. -1.
         11    1    4    4    0    0 -0.38482769872E-01 -0.24255462437E-01  0.14056533718E-01  0.47614055659E-01  0.51100000000E-03 0.  1.
</event>
<event>
 8    1  0.1010879E+005  0.1043930E+01  0.7957747E-01            NaN
         13   -1    0    0    0    0  0.00000000000E+00  0.00000000000E+00  0.74505805969E-08  0.10566000000E+00  0.10566000000E+00 0.  1.
     999900   -1    0    0    0    0 -0.00000000000E+00 -0.00000000000E+00 -0.74505805969E-08  0.93827000000E+00  0.93827000000E+00 0.  1.
     999902    2    1    2    0    0  0.22775719387E-01 -0.54559749144E-02  0.13863469860E-03  0.10205094903E+01  0.10202407066E+01 0.  0.
     999903    2    3    3    0    0 -0.93867668411E-01  0.22202429186E-01 -0.82605127841E-01  0.12853572527E+00  0.19842844803E-01 0.  0.
         14    1    1    2    0    0 -0.22775719387E-01  0.54559749144E-02 -0.13863469860E-03  0.23420509718E-01  0.00000000000E+00 0. -1.
     999901    1    3    3    0    0  0.11664338780E+00 -0.27658404101E-01  0.82743762539E-01  0.89197376501E+00  0.88000000000E+00 0. -1.
        -11    1    4    4    0    0 -0.91107573187E-01  0.23758374308E-01 -0.75321220017E-01  0.12057610687E+00  0.51100000000E-03 0. -1.
         11    1    4    4    0    0 -0.27600952236E-02 -0.15559451223E-02 -0.72839078238E-02  0.79596183987E-02  0.51100000000E-03 0.  1.
</event>
<event>
 8    1  0.1010879E+005  0.1043930E+01  0.7957747E-01            NaN
         13   -1    0    0    0    0  0.00000000000E+00  0.00000000000E+00  0.74505805969E-08  0.10566000000E+00  0.10566000000E+00 0. -1.
     999900   -1    0    0    0    0 -0.00000000000E+00 -0.00000000000E+00 -0.74505805969E-08  0.93827000000E+00  0.93827000000E+00 0. -1.
     999902    2    1    2    0    0 -0.18395811537E-02  0.76747367314E-03 -0.23802509626E-01  0.10200441770E+01  0.10197644780E+01 0.  0.
     999903    2    3    3    0    0 -0.86759451302E-01 -0.43589946416E-01  0.81749371257E-01  0.12857338972E+00  0.20515141338E-01 0.  0.
         14    1    1    2    0    0  0.18395811537E-02 -0.76747367314E-03  0.23802509626E-01  0.23885822975E-01  0.00000000000E+00 0. -1.
     999901    1    3    3    0    0  0.84919870148E-01  0.44357420089E-01 -0.10555188088E+00  0.89147078731E+00  0.88000000000E+00 0. -1.
        -11    1    4    4    0    0 -0.15042892559E-01 -0.25420241350E-02  0.21227402403E-01  0.26146017614E-01  0.51100000000E-03 0.  1.
         11    1    4    4    0    0 -0.71716558742E-01 -0.41047922281E-01  0.60521968854E-01  0.10242737211E+00  0.51100000000E-03 0. -1.
</event>
<event>
 8    1  0.1010879E+005  0.1043930E+01  0.7957747E-01            NaN
         13   -1    0    0    0    0  0.00000000000E+00  0.00000000000E+00  0.74505805969E-08  0.10566000000E+00  0.10566000000E+00 0. -1.
     999900   -1    0    0    0    0 -0.00000000000E+00 -0.00000000000E+00 -0.74505805969E-08  0.93827000000E+00  0.93827000000E+00 0. -1.
     999902    2    1    2    0    0 -0.15169276386E-01 -0.16736223760E-01  0.83054417251E-02  0.10198636647E+01  0.10195796713E+01 0.  0.
     999903    2    3    3    0    0  0.77091524203E-01  0.97597567273E-01  0.20530619858E-01  0.12760040419E+00  0.19798195796E-01 0.  0.
         14    1    1    2    0    0  0.15169276386E-01  0.16736223760E-01 -0.83054417251E-02  0.24066335286E-01  0.00000000000E+00 0.  1.
     999901    1    3    3    0    0 -0.92260800589E-01 -0.11433379103E+00 -0.12225178133E-01  0.89226326052E+00  0.88000000000E+00 0. -1.
        -11    1    4    4    0    0  0.63193703507E-02  0.13716513820E-02  0.95204640227E-03  0.65561713290E-02  0.51100000000E-03 0. -1.
         11    1    4    4    0    0  0.70772153852E-01  0.96225915891E-01  0.19578573456E-01  0.12104423286E+00  0.51100000000E-03 0.  1.
</event>
<event>
 8    1  0.1010879E+005  0.1043930E+01  0.7957747E-01            NaN
         13   -1    0    0    0    0  0.00000000000E+00  0.00000000000E+00  0.74505805969E-08  0.10566000000E+00  0.10566000000E+00 0.  1.
     999900   -1    0    0    0    0 -0.00000000000E+00 -0.00000000000E+00 -0.74505805969E-08  0.93827000000E+00  0.93827000000E+00 0. -1.
     999902    2    1    2    0    0  0.10898208288E-02  0.21129013117E-01  0.77888451764E-02  0.10213847341E+01  0.10211358803E+01 0.  0.
     999903    2    3    3    0    0 -0.91367247327E-01 -0.64168175561E-01  0.64677911103E-01  0.13062085649E+00  0.20323565819E-01 0.  0.
         14    1    1    2    0    0 -0.10898208288E-02 -0.21129013117E-01 -0.77888451764E-02  0.22545265887E-01  0.00000000000E+00 0.  1.
     999901    1    3    3    0    0  0.92457068156E-01  0.85297188678E-01 -0.56889065926E-01  0.89076387762E+00  0.88000000000E+00 0. -1.
        -11    1    4    4    0    0 -0.16030568676E-01 -0.10392879817E-01  0.28843891405E-02  0.19328008296E-01  0.51100000000E-03 0. -1.
         11    1    4    4    0    0 -0.75336678651E-01 -0.53775295744E-01  0.61793521962E-01  0.11129284820E+00  0.51100000000E-03 0.  1.
</event>
<event>
 8    1  0.1010879E+005  0.1043930E+01  0.7957747E-01            NaN
         13   -1    0    0    0    0  0.00000000000E+00  0.00000000000E+00  0.74505805969E-08  0.10566000000E+00  0.10566000000E+00 0. -1.
     999900   -1    0    0    0    0 -0.00000000000E+00 -0.00000000000E+00 -0.74505805969E-08  0.93827000000E+00  0.93827000000E+00 0.  1.
     999902    2    1    2    0    0  0.11660419389E-01  0.45789231029E-02 -0.20238152092E-01  0.10201284304E+01  0.10198507242E+01 0.  0.
     999903    2    3    3    0    0  0.95985027373E-01  0.85827244083E-01 -0.23566474157E-01  0.13236550767E+00  0.19641985912E-01 0.  0.
         14    1    1    2    0    0 -0.11660419389E-01 -0.45789231029E-02  0.20238152092E-01  0.23801569638E-01  0.00000000000E+00 0. -1.
     999901    1    3    3    0    0 -0.84324607985E-01 -0.81248320980E-01  0.33283220642E-02  0.88776292269E+00  0.88000000000E+00 0. -1.
        -11    1    4    4    0    0  0.37282505959E-01  0.21907604758E-01 -0.42425365969E-02  0.43453292563E-01  0.51100000000E-03 0.  1.
         11    1    4    4    0    0  0.58702521414E-01  0.63919639326E-01 -0.19323937560E-01  0.88912215110E-01  0.51100000000E-03 0. -1.
</event>
<event>
 8    1  0.1010879E+005  0.1043930E+01  0.7957747E-01            NaN
         13   -1    0    0    0    0  0.00000000000E+00  0.00000000000E+00  0.74505805969E-08  0.10566000000E+00  0.10566000000E+00 0. -1.
     999900   -1    0    0    0    0 -0.00000000000E+00 -0.00000000000E+00 -0.74505805969E-08  0.93827000000E+00  0.93827000000E+00 0.  1.
     999902    2    1    2    0    0 -0.33223753832E-02 -0.25203285155E-01  0.96667316601E-02  0.10167327674E+01  0.10163689442E+01 0.  0.
     999903    2    3    3    0    0 -0.45481578584E-01  0.34108092170E-01  0.11224387148E+00  0.12779108904E+00  0.22359333883E-01 0.  0.
         14    1    1    2    0    0  0.33223753832E-02  0.25203285155E-01 -0.96667316601E-02  0.27197232612E-01  0.00000000000E+00 0. -1.
     999901    1    3    3    0    0  0.42159203201E-01 -0.59311377325E-01 -0.10257713982E+00  0.88894167835E+00  0.88000000000E+00 0.  1.
        -11    1    4    4    0    0 -0.26398605142E-01  0.61449318644E-02  0.53945277286E-01  0.60373840391E-01  0.51100000000E-03 0. -1.
         11    1    4    4    0    0 -0.19082973442E-01  0.27963160306E-01  0.58298594189E-01  0.67417248647E-01  0.51100000000E-03 0.  1.
</event>
<event>
 7    1  0.1010879E+005  0.1043930E+01  0.7957747E-01            NaN
         13   -1    0    0    0    0  0.00000000000E+00  0.00000000000E+00  0.74505805969E-08  0.10566000000E+00  0.10566000000E+00 0.  1.
     999900   -1    0    0    0    0 -0.00000000000E+00 -0.00000000000E+00 -0.74505805969E-08  0.93827000000E+00  0.93827000000E+00 0. -1.
     999902    2    1    2    0    0 -0.47357688565E-02 -0.16069791412E-01 -0.14862578121E-01  0.10215344216E+01  0.10212888977E+01 0.  0.
         14    1    1    2    0    0  0.47357688565E-02  0.16069791412E-01  0.14862578121E-01  0.22395578383E-01  0.00000000000E+00 0.  1.
     999901    1    3    3    0    0 -0.39189718279E-01 -0.13242730969E+00  0.80743183204E-02  0.89080751063E+00  0.88000000000E+00 0. -1.
        -11    1    3    3    0    0 -0.38776036679E-02  0.62128487391E-01 -0.95320372413E-02  0.62977024466E-01  0.51100000000E-03 0. -1.
         11    1    3    3    0    0  0.38331553090E-01  0.54229030885E-01 -0.13404859200E-01  0.67749886526E-01  0.51100000000E-03 0.  1.
</event>
<event>
 8    1  0.1010879E+005  0.1043930E+01  0.7957747E-01            NaN
         13   -1    0    0    0    0  0.00000000000E+00  0.00000000000E+00  0.74505805969E-08  0.10566000000E+00  0.10566000000E+00 0.  1.
     999900   -1    0    0    0    0 -0.00000000000E+00 -0.00000000000E+00 -0.74505805969E-08  0.93827000000E+00  0.93827000000E+00 0. -1.
     999902    2    1    2    0    0  0.82960365850E-03  0.22839737921E-01 -0.73369885359E-02  0.10199263905E+01  0.10196438931E+01 0.  0.
     999903    2    3    3    0    0  0.75585177595E-01 -0.15689991099E-01 -0.10329984951E+00  0.13072348530E+00  0.21412048155E-01 0.  0.
         14    1    1    2    0    0 -0.82960365850E-03 -0.22839737921E-01  0.73369885359E-02  0.24003609547E-01  0.00000000000E+00 0.  1.
     999901    1    3    3    0    0 -0.74755573937E-01  0.38529729020E-01  0.95962860974E-01  0.88920290516E+00  0.88000000000E+00 0.  1.
        -11    1    4    4    0    0  0.27479424420E-01 -0.31033638711E-02 -0.21658523632E-01  0.35129793633E-01  0.51100000000E-03 0.  1.
         11    1    4    4    0    0  0.48105753175E-01 -0.12586627228E-01 -0.81641325878E-01  0.95593691663E-01  0.51100000000E-03 0. -1.
</event>
<event>
 8    1  0.1010879E+005  0.1043930E+01  0.7957747E-01            NaN
         13   -1    0    0    0    0  0.00000000000E+00  0.00000000000E+00  0.74505805969E-08  0.10566000000E+00  0.10566000000E+00 0.  1.
     999900   -1    0    0    0    0 -0.00000000000E+00 -0.00000000000E+00 -0.74505805969E-08  0.93827000000E+00  0.93827000000E+00 0.  1.
     999902    2    1    2    0    0  0.18600934186E-01  0.14668495063E-01  0.39461585941E-02  0.10199147618E+01  0.10196319873E+01 0.  0.
     999903    2    3    3    0    0 -0.80381519353E-01 -0.92829610642E-01  0.28125113342E-01  0.12753704426E+00  0.19903527143E-01 0.  0.
         14    1    1    2    0    0 -0.18600934186E-01 -0.14668495063E-01 -0.39461585941E-02  0.24015238239E-01  0.00000000000E+00 0. -1.
     999901    1    3    3    0    0  0.98982453539E-01  0.10749810571E+00 -0.24178954748E-01  0.89237771750E+00  0.88000000000E+00 0. -1.
        -11    1    4    4    0    0 -0.52721430861E-01 -0.57434178375E-01  0.82075209672E-02  0.78395526907E-01  0.51100000000E-03 0. -1.
         11    1    4    4    0    0 -0.27660088492E-01 -0.35395432267E-01  0.19917592375E-01  0.49141517353E-01  0.51100000000E-03 0.  1.
</event>
<event>
 8    1  0.1010879E+005  0.1043930E+01  0.7957747E-01            NaN
         13   -1    0    0    0    0  0.00000000000E+00  0.00000000000E+00  0.74505805969E-08  0.10566000000E+00  0.10566000000E+00 0. -1.
     999900   -1    0    0    0    0 -0.00000000000E+00 -0.00000000000E+00 -0.74505805969E-08  0.93827000000E+00  0.93827000000E+00 0. -1.
     999902    2    1    2    0    0  0.16556667397E-01  0.14834314229E-01 -0.64450191024E-02  0.10207844089E+01  0.10205219700E+01 0.  0.
     999903    2    3    3    0    0  0.12033707125E+00  0.43884946372E-01  0.31481865953E-01  0.13339905857E+00  0.19932428602E-01 0.  0.
         14    1    1    2    0    0 -0.16556667397E-01 -0.14834314229E-01  0.64450191024E-02  0.23145591052E-01  0.00000000000E+00 0.  1.
     999901    1    3    3    0    0 -0.10378040385E+00 -0.29050632143E-01 -0.37926885056E-01  0.88738535038E+00  0.88000000000E+00 0. -1.
        -11    1    4    4    0    0  0.66157899833E-01  0.33207867050E-01  0.23074434229E-01  0.77539156433E-01  0.51100000000E-03 0. -1.
         11    1    4    4    0    0  0.54179171413E-01  0.10677079322E-01  0.84074317243E-02  0.55859902140E-01  0.51100000000E-03 0.  1.
</event>
<event>
 8    1  0.1010879E+005  0.1043930E+01  0.7957747E-01            NaN
         13   -1    0    0    0    0  0.00000000000E+00  0.00000000000E+00  0.74505805969E-08  0.10566000000E+00  0.10566000000E+00 0.  1.
     999900   -1    0    0    0    0 -0.00000000000E+00 -0.00000000000E+00 -0.74505805969E-08  0.93827000000E+00  0.93827000000E+00 0.  1.
     999902    2    1    2    0    0  0.18349303101E-01 -0.13130058768E-02 -0.15652512667E-01  0.10197758686E+01  0.10194897745E+01 0.  0.
     999903    2    3    3    0    0  0.36603581675E-01  0.10003111974E+00 -0.75896120448E-01  0.13172567707E+00  0.15664794653E-01 0.  0.
         14    1    1    2    0    0 -0.18349303101E-01  0.13130058768E-02  0.15652512667E-01  0.24154131355E-01  0.00000000000E+00 0. -1.
     999901    1    3    3    0    0 -0.18254278574E-01 -0.10134412562E+00  0.60243607781E-01  0.88805019158E+00  0.88000000000E+00 0. -1.
        -11    1    4    4    0    0  0.34985411519E-02  0.83746724022E-02 -0.17135620602E-02  0.92505320912E-02  0.51100000000E-03 0.  1.
         11    1    4    4    0    0  0.33105040523E-01  0.91656447339E-01 -0.74182558388E-01  0.12247514498E+00  0.51100000000E-03 0. -1.
</event>
<event>
 8    1  0.1010879E+005  0.1043930E+01  0.7957747E-01            NaN
         13   -1    0    0    0    0  0.00000000000E+00  0.00000000000E+00  0.74505805969E-08  0.10566000000E+00  0.10566000000E+00 0. -1.
     999900   -1    0    0    0    0 -0.00000000000E+00 -0.00000000000E+00 -0.74505805969E-08  0.93827000000E+00  0.93827000000E+00 0.  1.
     999902    2    1    2    0    0  0.51730201176E-02 -0.74281188439E-02  0.21229747122E-01  0.10208510215E+01  0.10205901081E+01 0.  0.
     999903    2    3    3    0    0 -0.52935714014E-01 -0.95063668650E-01 -0.68441119029E-01  0.13006626700E+00  0.19843289111E-01 0.  0.
         14    1    1    2    0    0 -0.51730201176E-02  0.74281188439E-02 -0.21229747122E-01  0.23078978520E-01  0.00000000000E+00 0.  1.
     999901    1    3    3    0    0  0.58108734131E-01  0.87635549806E-01  0.89670866151E-01  0.89078475448E+00  0.88000000000E+00 0. -1.
        -11    1    4    4    0    0 -0.25869085017E-01 -0.27295031107E-01 -0.22177291607E-01  0.43661443709E-01  0.51100000000E-03 0. -1.
         11    1    4    4    0    0 -0.27066628997E-01 -0.67768637543E-01 -0.46263827422E-01  0.86404823293E-01  0.51100000000E-03 0.  1.
</event>
<event>
 8    1  0.1010879E+005  0.1043930E+01  0.7957747E-01            NaN
         13   -1    0    0    0    0  0.00000000000E+00  0.00000000000E+00  0.74505805969E-08  0.10566000000E+00  0.10566000000E+00 0.  1.
     999900   -1    0    0    0    0 -0.00000000000E+00 -0.00000000000E+00 -0.74505805969E-08  0.93827000000E+00  0.93827000000E+00 0.  1.
     999902    2    1    2    0    0 -0.21557778959E-02 -0.20995943970E-01 -0.97594997919E-02  0.10206765083E+01  0.10204115884E+01 0.  0.
     999903    2    3    3    0    0 -0.98767258994E-01 -0.47279999547E-01  0.69835571878E-01  0.13142963293E+00  0.20158658374E-01 0.  0.
         14    1    1    2    0    0  0.21557778959E-02  0.20995943970E-01  0.97594997919E-02  0.23253491731E-01  0.00000000000E+00 0. -1.
     999901    1    3    3    0    0  0.96611481098E-01  0.26284055578E-01 -0.79595071670E-01  0.88924687533E+00  0.88000000000E+00 0.  1.
        -11    1    4    4    0    0 -0.70324408652E-01 -0.31347144582E-01  0.59231583163E-01  0.97143231831E-01  0.51100000000E-03 0. -1.
         11    1    4    4    0    0 -0.28442850342E-01 -0.15932854966E-01  0.10603988715E-01  0.34286401103E-01  0.51100000000E-03 0.  1.
</event>
<event>
 8    1  0.1010879E+005  0.1043930E+01  0.7957747E-01            NaN
         13   -1    0    0    0    0  0.00000000000E+00  0.00000000000E+00  0.74505805969E-08  0.10566000000E+00  0.10566000000E+00 0.  1.
     999900   -1    0    0    0    0 -0.00000000000E+00 -0.00000000000E+00 -0.74505805969E-08  0.93827000000E+00  0.93827000000E+00 0.  1.
     999902    2    1    2    0    0 -0.14716973868E-01 -0.17720506392E-02  0.19294795721E-01  0.10195985671E+01  0.10193082063E+01 0.  0.
     999903    2    3    3    0    0  0.42798770544E-01  0.18406300078E-01  0.12160787258E+00  0.13157649962E+00  0.18798242961E-01 0.  0.
         14    1    1    2    0    0  0.14716973868E-01  0.17720506392E-02 -0.19294795721E-01  0.24331432864E-01  0.00000000000E+00 0. -1.
     999901    1    3    3    0    0 -0.57515744412E-01 -0.20178350717E-01 -0.10231307685E+00  0.88802206751E+00  0.88000000000E+00 0.  1.
        -11    1    4    4    0    0  0.97316579972E-02  0.12476144620E-01  0.50644219057E-01  0.53060883868E-01  0.51100000000E-03 0. -1.
         11    1    4    4    0    0  0.33067112546E-01  0.59301554586E-02  0.70963653518E-01  0.78515615756E-01  0.51100000000E-03 0.  1.
</event>
<event>
 8    1  0.1010879E+005  0.1043930E+01  0.7957747E-01            NaN
         13   -1    0    0    0    0  0.00000000000E+00  0.00000000000E+00  0.74505805969E-08  0.10566000000E+00  0.10566000000E+00 0.  1.
     999900   -1    0    0    0    0 -0.00000000000E+00 -0.00000000000E+00 -0.74505805969E-08  0.93827000000E+00  0.93827000000E+00 0.  1.
     999902    2    1    2    0    0  0.18292017220E-01 -0.16743140017E-01  0.12292717667E-02  0.10191017552E+01  0.10187992666E+01 0.  0.
     999903    2    3    3    0    0  0.15906691981E-01  0.12512643465E+00 -0.35441758918E-02  0.12772335529E+00  0.19774903460E-01 0.  0.
         14    1    1    2    0    0 -0.18292017220E-01  0.16743140017E-01 -0.12292717667E-02  0.24828244817E-01  0.00000000000E+00 0.  1.
     999901    1    3    3    0    0  0.23853252393E-02 -0.14186957466E+00  0.47734476585E-02  0.89137839989E+00  0.88000000000E+00 0. -1.
        -11    1    4    4    0    0  0.18852635635E-01  0.73777656172E-01 -0.44459672816E-02  0.76279696949E-01  0.51100000000E-03 0. -1.
         11    1    4    4    0    0 -0.29459436537E-02  0.51348778475E-01  0.90179138983E-03  0.51443658342E-01  0.51100000000E-03 0.  1.
</event>
<event>
 8    1  0.1010879E+005  0.1043930E+01  0.7957747E-01            NaN
         13   -1    0    0    0    0  0.00000000000E+00  0.00000000000E+00  0.74505805969E-08  0.10566000000E+00  0.10566000000E+00 0. -1.
     999900   -1    0    0    0    0 -0.00000000000E+00 -0.00000000000E+00 -0.74505805969E-08  0.93827000000E+00  0.93827000000E+00 0. -1.
     999902    2    1    2    0    0 -0.13177663758E-01  0.16613652174E-01  0.11170467417E-01  0.10199624469E+01  0.10196808076E+01 0.  0.
     999903    2    3    3    0    0  0.62412991688E-01  0.43269203925E-01  0.10538359770E+00  0.13131145827E+00  0.19219543911E-01 0.  0.
         14    1    1    2    0    0  0.13177663758E-01 -0.16613652174E-01 -0.11170467417E-01  0.23967553129E-01  0.00000000000E+00 0. -1.
     999901    1    3    3    0    0 -0.75590655447E-01 -0.26655551751E-01 -0.94213130283E-01  0.88865098860E+00  0.88000000000E+00 0. -1.
        -11    1    4    4    0    0  0.51332872672E-01  0.26594118783E-01  0.84414000835E-01  0.10231468921E+00  0.51100000000E-03 0. -1.
         11    1    4    4    0    0  0.11080119017E-01  0.16675085143E-01  0.20969596864E-01  0.28996769054E-01  0.51100000000E-03 0.  1.
</event>
<event>
 8    1  0.1010879E+005  0.1043930E+01  0.7957747E-01            NaN
         13   -1    0    0    0    0  0.00000000000E+00  0.00000000000E+00  0.74505805969E-08  0.10566000000E+00  0.10566000000E+00 0. -1.
     999900   -1    0    0    0    0 -0.00000000000E+00 -0.00000000000E+00 -0.74505805969E-08  0.93827000000E+00  0.93827000000E+00 0. -1.
     999902    2    1    2    0    0 -0.19957089580E-01  0.12781790543E-01  0.27273251318E-02  0.10200742272E+01  0.10197952398E+01 0.  0.
     999903    2    3    3    0    0  0.20741253721E-01  0.25244655921E-01  0.12500133082E+00  0.13060100633E+00  0.19073486580E-01 0.  0.
         14    1    1    2    0    0  0.19957089580E-01 -0.12781790543E-01 -0.27273251318E-02  0.23855772810E-01  0.00000000000E+00 0.  1.
     999901    1    3    3    0    0 -0.40698343300E-01 -0.12462865379E-01 -0.12227400568E+00  0.88947322086E+00  0.88000000000E+00 0. -1.
        -11    1    4    4    0    0  0.91454138014E-02  0.24047231231E-01  0.94595102714E-01  0.98032660383E-01  0.51100000000E-03 0. -1.
         11    1    4    4    0    0  0.11595839919E-01  0.11974246905E-02  0.30406228102E-01  0.32568345947E-01  0.51100000000E-03 0.  1.
</event>
<event>
 8    1  0.1010879E+005  0.1043930E+01  0.7957747E-01            NaN
         13   -1    0    0    0    0  0.00000000000E+00  0.00000000000E+00  0.74505805969E-08  0.10566000000E+00  0.10566000000E+00 0.  1.
     999900   -1    0    0    0    0 -0.00000000000E+00 -0.00000000000E+00 -0.74505805969E-08  0.93827000000E+00  0.93827000000E+00 0.  1.
     999902    2    1    2    0    0  0.45012936658E-02 -0.20789157184E-01 -0.10679749675E-01  0.10201285766E+01  0.10198508740E+01 0.  0.
     999903    2    3    3    0    0  0.47785224637E-01  0.11504815684E+00 -0.24909916199E-01  0.12854135589E+00  0.19567068333E-01 0.  0.
         14    1    1    2    0    0 -0.45012936658E-02  0.20789157184E-01  0.10679749675E-01  0.23801423365E-01  0.00000000000E+00 0.  1.
     999901    1    3    3    0    0 -0.43283930971E-01 -0.13583731402E+00  0.14230166524E-01  0.89158722075E+00  0.88000000000E+00 0.  1.
        -11    1    4    4    0    0  0.17717491828E-01  0.59327320082E-01 -0.47888216695E-02  0.62103416644E-01  0.51100000000E-03 0. -1.
         11    1    4    4    0    0  0.30067732808E-01  0.55720836754E-01 -0.20121094530E-01  0.66437939244E-01  0.51100000000E-03 0.  1.
</event>
<event>
 8    1  0.1010879E+005  0.1043930E+01  0.7957747E-01            NaN
         13   -1    0    0    0    0  0.00000000000E+00  0.00000000000E+00  0.74505805969E-08  0.10566000000E+00  0.10566000000E+00 0. -1.
     999900   -1    0    0    0    0 -0.00000000000E+00 -0.00000000000E+00 -0.74505805969E-08  0.93827000000E+00  0.93827000000E+00 0.  1.
     999902    2    1    2    0    0  0.85097679553E-02  0.14412593509E-01 -0.16038909557E-01  0.10207484206E+01  0.10204851555E+01 0.  0.
     999903    2    3    3    0    0  0.16205896107E-01 -0.31747958615E-01 -0.12619012697E+00  0.13264745922E+00  0.20020897770E-01 0.  0.
         14    1    1    2    0    0 -0.85097679553E-02 -0.14412593509E-01  0.16038909557E-01  0.23181579370E-01  0.00000000000E+00 0. -1.
     999901    1    3    3    0    0 -0.76961281517E-02  0.46160552124E-01  0.11015121741E+00  0.88810096141E+00  0.88000000000E+00 0. -1.
        -11    1    4    4    0    0  0.16992322014E-01 -0.17192574975E-01 -0.97619340112E-01  0.10056898292E+00  0.51100000000E-03 0.  1.
         11    1    4    4    0    0 -0.78642590737E-03 -0.14555383639E-01 -0.28570786859E-01  0.32078476294E-01  0.51100000000E-03 0. -1.
</event>
<event>
 8    1  0.1010879E+005  0.1043930E+01  0.7957747E-01            NaN
         13   -1    0    0    0    0  0.00000000000E+00  0.00000000000E+00  0.74505805969E-08  0.10566000000E+00  0.10566000000E+00 0.  1.
     999900   -1    0    0    0    0 -0.00000000000E+00 -0.00000000000E+00 -0.74505805969E-08  0.93827000000E+00  0.93827000000E+00 0. -1.
     999902    2    1    2    0    0  0.20831805190E-01 -0.16308360622E-02  0.10424161925E-01  0.10205786213E+01  0.10203114404E+01 0.  0.
     999903    2    3    3    0    0 -0.27474469202E-01  0.12547651031E+00  0.55274705987E-02  0.13012157508E+00  0.20046702239E-01 0.  0.
         14    1    1    2    0    0 -0.20831805190E-01  0.16308360622E-02 -0.10424161925E-01  0.23351378665E-01  0.00000000000E+00 0.  1.
     999901    1    3    3    0    0  0.48306274392E-01 -0.12710734637E+00  0.48966913259E-02  0.89045704626E+00  0.88000000000E+00 0. -1.
        -11    1    4    4    0    0 -0.21944284404E-01  0.11225287285E+00 -0.95325793844E-03  0.11438281734E+00  0.51100000000E-03 0.  1.
         11    1    4    4    0    0 -0.55301847982E-02  0.13223637460E-01  0.64807285371E-02  0.15738757732E-01  0.51100000000E-03 0. -1.
</event>
<event>
 8    1  0.1010879E+005  0.1043930E+01  0.7957747E-01            NaN
         13   -1    0    0    0    0  0.00000000000E+00  0.00000000000E+00  0.74505805969E-08  0.10566000000E+00  0.10566000000E+00 0.  1.
     999900   -1    0    0    0    0 -0.00000000000E+00 -0.00000000000E+00 -0.74505805969E-08  0.93827000000E+00  0.93827000000E+00 0.  1.
     999902    2    1    2    0    0 -0.23648487392E-01 -0.48373438528E-02 -0.16862320235E-03  0.10197912493E+01  0.10195055237E+01 0.  0.
     999903    2    3    3    0    0  0.61027370885E-01 -0.10909294195E+00  0.19081122254E-01  0.12939258387E+00  0.27436135890E-01 0.  0.
         14    1    1    2    0    0  0.23648487392E-01  0.48373438528E-02  0.16862320235E-03  0.24138750699E-01  0.00000000000E+00 0.  1.
     999901    1    3    3    0    0 -0.84675858278E-01  0.10425559810E+00 -0.19249745457E-01  0.89039866544E+00  0.88000000000E+00 0. -1.
        -11    1    4    4    0    0  0.34780801360E-01 -0.85919656372E-01  0.17565021295E-01  0.94343428963E-01  0.51100000000E-03 0.  1.
         11    1    4    4    0    0  0.26246569525E-01 -0.23173285578E-01  0.15161009592E-02  0.35049154903E-01  0.51100000000E-03 0. -1.
</event>
<event>
 8    1  0.1010879E+005  0.1043930E+01  0.7957747E-01            NaN
         13   -1    0    0    0    0  0.00000000000E+00  0.00000000000E+00  0.74505805969E-08  0.10566000000E+00  0.10566000000E+00 0. -1.
     999900   -1    0    0    0    0 -0.00000000000E+00 -0.00000000000E+00 -0.74505805969E-08  0.93827000000E+00  0.93827000000E+00 0. -1.
     999902    2    1    2    0    0  0.31405804261E-02 -0.13557194029E-01 -0.18750132829E-01  0.10205798772E+01  0.10203127253E+01 0.  0.
     999903    2    3    3    0    0  0.10864318126E+00 -0.53837245185E-01 -0.50344696339E-01  0.13280090819E+00  0.19992572693E-01 0.  0.
         14    1    1    2    0    0 -0.31405804261E-02  0.13557194029E-01  0.18750132829E-01  0.23350122836E-01  0.00000000000E+00 0. -1.
     999901    1    3    3    0    0 -0.10550260084E+00  0.40280051157E-01  0.31594563510E-01  0.88777896897E+00  0.88000000000E+00 0. -1.
        -11    1    4    4    0    0  0.30816299847E-01 -0.73818486990E-02 -0.76109069741E-02  0.32593297662E-01  0.51100000000E-03 0.  1.
         11    1    4    4    0    0  0.77826881417E-01 -0.46455396486E-01 -0.42733789365E-01  0.10020761053E+00  0.51100000000E-03 0. -1.
</event>
<event>
 8    1  0.1010879E+005  0.1043930E+01  0.7957747E-01            NaN
         13   -1    0    0    0    0  0.00000000000E+00  0.00000000000E+00  0.74505805969E-08  0.10566000000E+00  0.10566000000E+00 0. -1.
     999900   -1    0    0    0    0 -0.00000000000E+00 -0.00000000000E+00 -0.74505805969E-08  0.93827000000E+00  0.93827000000E+00 0. -1.
     999902    2    1    2    0    0 -0.89584609831E-03  0.53750138979E-02 -0.22456274697E-01  0.10208220449E+01  0.10205604685E+01 0.  0.
     999903    2    3    3    0    0 -0.10524447631E+00 -0.50032796540E-01  0.53016885241E-01  0.12972448575E+00  0.20927770045E-01 0.  0.
         14    1    1    2    0    0  0.89584609831E-03 -0.53750138979E-02  0.22456274697E-01  0.23107955078E-01  0.00000000000E+00 0. -1.
     999901    1    3    3    0    0  0.10434863022E+00  0.55407810438E-01 -0.75473159938E-01  0.89109755917E+00  0.88000000000E+00 0. -1.
        -11    1    4    4    0    0 -0.27739618923E-01 -0.34358302708E-02  0.12033600907E-01  0.30436163678E-01  0.51100000000E-03 0. -1.
         11    1    4    4    0    0 -0.77504857391E-01 -0.46596966270E-01  0.40983284333E-01  0.99288322075E-01  0.51100000000E-03 0.  1.
</event>
<event>
 8    1  0.1010879E+005  0.1043930E+01  0.7957747E-01            NaN
         13   -1    0    0    0    0  0.00000000000E+00  0.00000000000E+00  0.74505805969E-08  0.10566000000E+00  0.10566000000E+00 0.  1.
     999900   -1    0    0    0    0 -0.00000000000E+00 -0.00000000000E+00 -0.74505805969E-08  0.93827000000E+00  0.93827000000E+00 0. -1.
     999902    2    1    2    0    0 -0.15095108808E-01  0.64982179008E-02 -0.16300400834E-01  0.10207828141E+01  0.10205203386E+01 0.  0.
     999903    2    3    3    0    0  0.39411923780E-01 -0.29250146841E-01  0.11686358852E+00  0.12838065690E+00  0.20386856553E-01 0.  0.
         14    1    1    2    0    0  0.15095108808E-01 -0.64982179008E-02  0.16300400834E-01  0.23147185858E-01  0.00000000000E+00 0.  1.
     999901    1    3    3    0    0 -0.54507032588E-01  0.35748364742E-01 -0.13316398935E+00  0.89240215724E+00  0.88000000000E+00 0. -1.
        -11    1    4    4    0    0  0.25619055080E-01 -0.83810566445E-02  0.73878260061E-01  0.78643731628E-01  0.51100000000E-03 0.  1.
         11    1    4    4    0    0  0.13792868700E-01 -0.20869090196E-01  0.42985328455E-01  0.49736925277E-01  0.51100000000E-03 0. -1.
</event>
<event>
 8    1  0.1010879E+005  0.1043930E+01  0.7957747E-01            NaN
         13   -1    0    0    0    0  0.00000000000E+00  0.00000000000E+00  0.74505805969E-08  0.10566000000E+00  0.10566000000E+00 0. -1.
     999900   -1    0    0    0    0 -0.00000000000E+00 -0.00000000000E+00 -0.74505805969E-08  0.93827000000E+00  0.93827000000E+00 0. -1.
     999902    2    1    2    0    0 -0.15213337230E-01  0.15944912291E-01  0.96659980417E-02  0.10198651423E+01  0.10195811842E+01 0.  0.
     999903    2    3    3    0    0 -0.60762676783E-01 -0.93876872439E-01 -0.61362702071E-01  0.12903370877E+00  0.19476825339E-01 0.  0.
         14    1    1    2    0    0  0.15213337230E-01 -0.15944912291E-01 -0.96659980417E-02  0.24064857693E-01  0.00000000000E+00 0.  1.
     999901    1    3    3    0    0  0.45549339553E-01  0.10982178473E+00  0.71028700112E-01  0.89083143354E+00  0.88000000000E+00 0.  1.
        -11    1    4    4    0    0 -0.82937391645E-02 -0.28162138272E-01 -0.17628115213E-01  0.34247681795E-01  0.51100000000E-03 0.  1.
         11    1    4    4    0    0 -0.52468937618E-01 -0.65714734167E-01 -0.43734586858E-01  0.94786026977E-01  0.51100000000E-03 0. -1.
</event>
<event>
 8    1  0.1010879E+005  0.1043930E+01  0.7957747E-01            NaN
         13   -1    0    0    0    0  0.00000000000E+00  0.00000000000E+00  0.74505805969E-08  0.10566000000E+00  0.10566000000E+00 0. -1.
     999900   -1    0    0    0    0 -0.00000000000E+00 -0.00000000000E+00 -0.74505805969E-08  0.93827000000E+00  0.93827000000E+00 0. -1.
     999902    2    1    2    0    0  0.17840226022E-01  0.12537095678E-01 -0.83012527564E-02  0.10205984070E+01  0.10203316839E+01 0.  0.
     999903    2    3    3    0    0 -0.74129490841E-01  0.61351097823E-01 -0.86588217634E-01  0.13100856645E+00  0.20163988515E-01 0.  0.
         14    1    1    2    0    0 -0.17840226022E-01 -0.12537095678E-01  0.83012527564E-02  0.23331592956E-01  0.00000000000E+00 0.  1.
     999901    1    3    3    0    0  0.91969716863E-01 -0.48814002145E-01  0.78286964877E-01  0.88958984060E+00  0.88000000000E+00 0.  1.
        -11    1    4    4    0    0 -0.22255276130E-01  0.26621740546E-01 -0.40952309353E-01  0.53678367595E-01  0.51100000000E-03 0.  1.
         11    1    4    4    0    0 -0.51874214710E-01  0.34729357277E-01 -0.45635908281E-01  0.77330198851E-01  0.51100000000E-03 0. -1.
</event>
<event>
 8    1  0.1010879E+005  0.1043930E+01  0.7957747E-01            NaN
         13   -1    0    0    0    0  0.00000000000E+00  0.00000000000E+00  0.74505805969E-08  0.10566000000E+00  0.10566000000E+00 0. -1.
     999900   -1    0    0    0    0 -0.00000000000E+00 -0.00000000000E+00 -0.74505805969E-08  0.93827000000E+00  0.93827000000E+00 0.  1.
     999902    2    1    2    0    0 -0.19304751385E-01 -0.20602099231E-02  0.64218614087E-02  0.10234810833E+01  0.10232767806E+01 0.  0.
     999903    2    3    3    0    0  0.47721180920E-02 -0.39584387173E-01 -0.12497666642E+00  0.13260885191E+00  0.19397000675E-01 0.  0.
         14    1    1    2    0    0  0.19304751385E-01  0.20602099231E-02 -0.64218614087E-02  0.20448916717E-01  0.00000000000E+00 0.  1.
     999901    1    3    3    0    0 -0.24076869477E-01  0.37524177250E-01  0.13139852783E+00  0.89087223138E+00  0.88000000000E+00 0. -1.
        -11    1    4    4    0    0 -0.62944436260E-02 -0.57253387237E-02 -0.29302933450E-01  0.30517577785E-01  0.51100000000E-03 0. -1.
         11    1    4    4    0    0  0.11066561718E-01 -0.33859048450E-01 -0.95673732971E-01  0.10209127412E+00  0.51100000000E-03 0.  1.
</event>
<event>
 8    1  0.1010879E+005  0.1043930E+01  0.7957747E-01            NaN
         13   -1    0    0    0    0  0.00000000000E+00  0.00000000000E+00  0.74505805969E-08  0.10566000000E+00  0.10566000000E+00 0.  1.
     999900   -1    0    0    0    0 -0.00000000000E+00 -0.00000000000E+00 -0.74505805969E-08  0.93827000000E+00  0.93827000000E+00 0. -1.
     999902    2    1    2    0    0  0.19494878728E-01  0.51754123836E-02 -0.10057618499E-01  0.10213913470E+01  0.10211426408E+01 0.  0.
     999903    2    3    3    0    0  0.12214791972E+00 -0.45973732275E-01  0.23141363811E-01  0.13332825562E+00  0.14394536326E-01 0.  0.
         14    1    1    2    0    0 -0.19494878728E-01 -0.51754123836E-02  0.10057618499E-01  0.22538653017E-01  0.00000000000E+00 0. -1.
     999901    1    3    3    0    0 -0.10265304099E+00  0.51149144659E-01 -0.33198982310E-01  0.88806309137E+00  0.88000000000E+00 0.  1.
        -11    1    4    4    0    0  0.86739226341E-01 -0.30908828534E-01  0.22709872995E-01  0.94842229624E-01  0.51100000000E-03 0. -1.
         11    1    4    4    0    0  0.35408693375E-01 -0.15064903741E-01  0.43149081568E-03  0.38486025991E-01  0.51100000000E-03 0.  1.
</event>
<event>
 8    1  0.1010879E+005  0.1043930E+01  0.7957747E-01            NaN
         13   -1    0    0    0    0  0.00000000000E+00  0.00000000000E+00  0.74505805969E-08  0.10566000000E+00  0.10566000000E+00 0. -1.
     999900   -1    0    0    0    0 -0.00000000000E+00 -0.00000000000E+00 -0.74505805969E-08  0.93827000000E+00  0.93827000000E+00 0. -1.
     999902    2    1    2    0    0  0.89227315554E-02  0.20458923708E-01 -0.77044248095E-02  0.10203176969E+01  0.10200444410E+01 0.  0.
     999903    2    3    3    0    0  0.12987951586E+00  0.16213151437E-01  0.64865006748E-02  0.13192028995E+00  0.15143754096E-01 0.  0.
         14    1    1    2    0    0 -0.89227315554E-02 -0.20458923708E-01  0.77044248095E-02  0.23612303135E-01  0.00000000000E+00 0.  1.
     999901    1    3    3    0    0 -0.12095678431E+00  0.42457722714E-02 -0.14190925484E-01  0.88839740692E+00  0.88000000000E+00 0. -1.
        -11    1    4    4    0    0  0.94182430814E-01  0.12396551864E-01  0.11414718252E-01  0.95679473692E-01  0.51100000000E-03 0.  1.
         11    1    4    4    0    0  0.35697085049E-01  0.38165995731E-02 -0.49282175772E-02  0.36240816255E-01  0.51100000000E-03 0. -1.
</event>
<event>
 8    1  0.1010879E+005  0.1043930E+01  0.7957747E-01            NaN
         13   -1    0    0    0    0  0.00000000000E+00  0.00000000000E+00  0.74505805969E-08  0.10566000000E+00  0.10566000000E+00 0. -1.
     999900   -1    0    0    0    0 -0.00000000000E+00 -0.00000000000E+00 -0.74505805969E-08  0.93827000000E+00  0.93827000000E+00 0. -1.
     999902    2    1    2    0    0  0.14826624476E-01 -0.33051718759E-02 -0.17569589436E-01  0.10207040785E+01  0.10204397937E+01 0.  0.
     999903    2    3    3    0    0  0.12621365309E+00 -0.13006218705E-01  0.31625709670E-01  0.13226648484E+00  0.19879374968E-01 0.  0.
         14    1    1    2    0    0 -0.14826624476E-01  0.33051718759E-02  0.17569589436E-01  0.23225921455E-01  0.00000000000E+00 0. -1.
     999901    1    3    3    0    0 -0.11138702861E+00  0.97010468289E-02 -0.49195299106E-01  0.88843759370E+00  0.88000000000E+00 0. -1.
        -11    1    4    4    0    0  0.10878653758E+00 -0.44645522034E-02  0.28999576811E-01  0.11267510621E+00  0.51100000000E-03 0. -1.
         11    1    4    4    0    0  0.17427115513E-01 -0.85416665015E-02  0.26261328591E-02  0.19591378627E-01  0.51100000000E-03 0.  1.
</event>
<event>
 8    1  0.1010879E+005  0.1043930E+01  0.7957747E-01            NaN
         13   -1    0    0    0    0  0.00000000000E+00  0.00000000000E+00  0.74505805969E-08  0.10566000000E+00  0.10566000000E+00 0.  1.
     999900   -1    0    0    0    0 -0.00000000000E+00 -0.00000000000E+00 -0.74505805969E-08  0.93827000000E+00  0.93827000000E+00 0.  1.
     999902    2    1    2    0    0  0.20404799759E-01  0.58653272847E-02  0.96345527781E-02  0.10206151437E+01  0.10203488075E+01 0.  0.
     999903    2    3    3    0    0 -0.13191170048E-01 -0.12267930000E+00  0.35616963643E-01  0.13026268760E+00  0.21807844138E-01 0.  0.
         14    1    1    2    0    0 -0.20404799759E-01 -0.58653272847E-02 -0.96345527781E-02  0.23314856306E-01  0.00000000000E+00 0. -1.
     999901    1    3    3    0    0  0.33595969807E-01  0.12854462729E+00 -0.25982410865E-01  0.89035245609E+00  0.88000000000E+00 0.  1.
        -11    1    4    4    0    0 -0.14685197341E-01 -0.63207896817E-01  0.26411821341E-01  0.70062391256E-01  0.51100000000E-03 0.  1.
         11    1    4    4    0    0  0.14940272928E-02 -0.59471403186E-01  0.92051423023E-02  0.60200296347E-01  0.51100000000E-03 0. -1.
</event>
<event>
 8    1  0.1010879E+005  0.1043930E+01  0.7957747E-01            NaN
         13   -1    0    0    0    0  0.00000000000E+00  0.00000000000E+00  0.74505805969E-08  0.10566000000E+00  0.10566000000E+00 0. -1.
     999900   -1    0    0    0    0 -0.00000000000E+00 -0.00000000000E+00 -0.74505805969E-08  0.93827000000E+00  0.93827000000E+00 0.  1.
     999902    2    1    2    0    0  0.50160430208E-02 -0.21462359054E-01  0.90685475937E-02  0.10200965760E+01  0.10198181173E+01 0.  0.
     999903    2    3    3    0    0  0.79392448814E-01 -0.99147675413E-01 -0.32328672285E-01  0.13258286460E+00  0.19991259745E-01 0.  0.
         14    1    1    2    0    0 -0.50160430208E-02  0.21462359054E-01 -0.90685475937E-02  0.23833423993E-01  0.00000000000E+00 0.  1.
     999901    1    3    3    0    0 -0.74376405793E-01  0.77685316359E-01  0.41397219878E-01  0.88751371140E+00  0.88000000000E+00 0.  1.
        -11    1    4    4    0    0  0.24808906310E-01 -0.43474426467E-01 -0.18674097971E-01  0.53427433450E-01  0.51100000000E-03 0.  1.
         11    1    4    4    0    0  0.54583542503E-01 -0.55673248946E-01 -0.13654574313E-01  0.79155431154E-01  0.51100000000E-03 0. -1.
</event>
<event>
 8    1  0.1010879E+005  0.1043930E+01  0.7957747E-01            NaN
         13   -1    0    0    0    0  0.00000000000E+00  0.00000000000E+00  0.74505805969E-08  0.10566000000E+00  0.10566000000E+00 0. -1.
     999900   -1    0    0    0    0 -0.00000000000E+00 -0.00000000000E+00 -0.74505805969E-08  0.93827000000E+00  0.93827000000E+00 0. -1.
     999902    2    1    2    0    0 -0.20140810696E-01 -0.45130501178E-02 -0.13430291083E-01  0.10193049600E+01  0.10190074626E+01 0.  0.
     999903    2    3    3    0    0  0.81600974224E-02  0.36561982894E-01  0.11818885771E+00  0.12811940127E+00  0.32289458242E-01 0.  0.
         14    1    1    2    0    0  0.20140810696E-01  0.45130501178E-02  0.13430291083E-01  0.24625040009E-01  0.00000000000E+00 0. -1.
     999901    1    3    3    0    0 -0.28300908118E-01 -0.41075033012E-01 -0.13161914879E+00  0.89118555872E+00  0.88000000000E+00 0. -1.
        -11    1    4    4    0    0  0.11534224368E-01  0.58507195820E-02  0.67692377223E-01  0.68918707958E-01  0.51100000000E-03 0. -1.
         11    1    4    4    0    0 -0.33741269459E-02  0.30711263312E-01  0.50496480484E-01  0.59200693316E-01  0.51100000000E-03 0.  1.
</event>
<event>
 8    1  0.1010879E+005  0.1043930E+01  0.7957747E-01            NaN
         13   -1    0    0    0    0  0.00000000000E+00  0.00000000000E+00  0.74505805969E-08  0.10566000000E+00  0.10566000000E+00 0. -1.
     999900   -1    0    0    0    0 -0.00000000000E+00 -0.00000000000E+00 -0.74505805969E-08  0.93827000000E+00  0.93827000000E+00 0. -1.
     999902    2    1    2    0    0  0.14419141914E-01  0.16280968846E-01 -0.67432497247E-02  0.10211604366E+01  0.10209065502E+01 0.  0.
     999903    2    3    3    0    0  0.37613908564E-01 -0.99608334845E-01  0.71118240140E-01  0.12985199420E+00  0.21612723774E-01 0.  0.
         14    1    1    2    0    0 -0.14419141914E-01 -0.16280968846E-01  0.67432497247E-02  0.22769563390E-01  0.00000000000E+00 0.  1.
     999901    1    3    3    0    0 -0.23194766649E-01  0.11588930369E+00 -0.77861489865E-01  0.89130844241E+00  0.88000000000E+00 0. -1.
        -11    1    4    4    0    0  0.20728084079E-01 -0.72113910583E-01  0.58727741195E-01  0.95285246896E-01  0.51100000000E-03 0.  1.
         11    1    4    4    0    0  0.16885824485E-01 -0.27494424262E-01  0.12390498945E-01  0.34566747303E-01  0.51100000000E-03 0. -1.
</event>
<event>
 8    1  0.1010879E+005  0.1043930E+01  0.7957747E-01            NaN
         13   -1    0    0    0    0  0.00000000000E+00  0.00000000000E+00  0.74505805969E-08  0.10566000000E+00  0.10566000000E+00 0. -1.
     999900   -1    0    0    0    0 -0.00000000000E+00 -0.00000000000E+00 -0.74505805969E-08  0.93827000000E+00  0.93827000000E+00 0. -1.
     999902    2    1    2    0    0 -0.59274456301E-03 -0.30935032078E-01 -0.11848926669E-01  0.10107980725E+01  0.10102549276E+01 0.  0.
     999903    2    3    3    0    0  0.31954503233E-01  0.10578315542E+00 -0.40038830094E-01  0.11920071003E+00  0.19862907840E-01 0.  0.
         14    1    1    2    0    0  0.59274456301E-03  0.30935032078E-01  0.11848926669E-01  0.33131927487E-01  0.00000000000E+00 0.  1.
     999901    1    3    3    0    0 -0.32547247796E-01 -0.13671818750E+00  0.28189903425E-01  0.89159736248E+00  0.88000000000E+00 0.  1.
        -11    1    4    4    0    0  0.11927155766E-01  0.25931987480E-01 -0.23102776303E-02  0.28641290527E-01  0.51100000000E-03 0.  1.
         11    1    4    4    0    0  0.20027347467E-01  0.79851167944E-01 -0.37728552464E-01  0.90559419502E-01  0.51100000000E-03 0. -1.
</event>
<event>
 8    1  0.1010879E+005  0.1043930E+01  0.7957747E-01            NaN
         13   -1    0    0    0    0  0.00000000000E+00  0.00000000000E+00  0.74505805969E-08  0.10566000000E+00  0.10566000000E+00 0.  1.
     999900   -1    0    0    0    0 -0.00000000000E+00 -0.00000000000E+00 -0.74505805969E-08  0.93827000000E+00  0.93827000000E+00 0. -1.
     999902    2    1    2    0    0  0.18914004205E-02  0.46686004887E-02 -0.26899080389E-01  0.10165633460E+01  0.10161949137E+01 0.  0.
     999903    2    3    3    0    0  0.38070984862E-01 -0.18682217716E-01  0.11486967106E+00  0.12417744184E+00  0.20653585255E-01 0.  0.
         14    1    1    2    0    0 -0.18914004205E-02 -0.46686004887E-02  0.26899080389E-01  0.27366654013E-01  0.00000000000E+00 0.  1.
     999901    1    3    3    0    0 -0.36179584441E-01  0.23350818204E-01 -0.14176875145E+00  0.89238590415E+00  0.88000000000E+00 0. -1.
        -11    1    4    4    0    0  0.23721109883E-01 -0.18125023488E-02  0.73409001059E-01  0.77169416068E-01  0.51100000000E-03 0.  1.
         11    1    4    4    0    0  0.14349874979E-01 -0.16869715367E-01  0.41460670003E-01  0.47008025767E-01  0.51100000000E-03 0. -1.
</event>
<event>
 8    1  0.1010879E+005  0.1043930E+01  0.7957747E-01            NaN
         13   -1    0    0    0    0  0.00000000000E+00  0.00000000000E+00  0.74505805969E-08  0.10566000000E+00  0.10566000000E+00 0.  1.
     999900   -1    0    0    0    0 -0.00000000000E+00 -0.00000000000E+00 -0.74505805969E-08  0.93827000000E+00  0.93827000000E+00 0. -1.
     999902    2    1    2    0    0 -0.14845329457E-01 -0.13875818160E-01 -0.12669954696E-01  0.10199831863E+01  0.10197020400E+01 0.  0.
     999903    2    3    3    0    0  0.10215395630E+00  0.67115361816E-01  0.31272720092E-01  0.12747023802E+00  0.18187247758E-01 0.  0.
         14    1    1    2    0    0  0.14845329457E-01  0.13875818160E-01  0.12669954696E-01  0.23946813740E-01  0.00000000000E+00 0.  1.
     999901    1    3    3    0    0 -0.11699928575E+00 -0.80991179976E-01 -0.43942674788E-01  0.89251294824E+00  0.88000000000E+00 0. -1.
        -11    1    4    4    0    0  0.44324078421E-01  0.35614492821E-01  0.70294513457E-02  0.57294767073E-01  0.51100000000E-03 0. -1.
         11    1    4    4    0    0  0.57829877877E-01  0.31500868995E-01  0.24243268747E-01  0.70175470951E-01  0.51100000000E-03 0.  1.
</event>
<event>
 8    1  0.1010879E+005  0.1043930E+01  0.7957747E-01            NaN
         13   -1    0    0    0    0  0.00000000000E+00  0.00000000000E+00  0.74505805969E-08  0.10566000000E+00  0.10566000000E+00 0. -1.
     999900   -1    0    0    0    0 -0.00000000000E+00 -0.00000000000E+00 -0.74505805969E-08  0.93827000000E+00  0.93827000000E+00 0.  1.
     999902    2    1    2    0    0 -0.62290269443E-03  0.23085930633E-01 -0.38325881468E-02  0.10205198113E+01  0.10202512673E+01 0.  0.
     999903    2    3    3    0    0  0.44955567332E-01  0.54850486901E-01 -0.11000293959E+00  0.13239902705E+00  0.19981909294E-01 0.  0.
         14    1    1    2    0    0  0.62290269443E-03 -0.23085930633E-01  0.38325881468E-02  0.23410188655E-01  0.00000000000E+00 0.  1.
     999901    1    3    3    0    0 -0.45578470026E-01 -0.31764556269E-01  0.10617035144E+00  0.88812078429E+00  0.88000000000E+00 0. -1.
        -11    1    4    4    0    0  0.42874099307E-02  0.11265425544E-01 -0.32180330648E-01  0.34367520979E-01  0.51100000000E-03 0.  1.
         11    1    4    4    0    0  0.40668157401E-01  0.43585061357E-01 -0.77822608942E-01  0.98031506075E-01  0.51100000000E-03 0. -1.
</event>
<event>
 8    1  0.1010879E+005  0.1043930E+01  0.7957747E-01            NaN
         13   -1    0    0    0    0  0.00000000000E+00  0.00000000000E+00  0.74505805969E-08  0.10566000000E+00  0.10566000000E+00 0. -1.
     999900   -1    0    0    0    0 -0.00000000000E+00 -0.00000000000E+00 -0.74505805969E-08  0.93827000000E+00  0.93827000000E+00 0.  1.
     999902    2    1    2    0    0  0.11102677462E-01  0.10332177033E-01 -0.16191556894E-01  0.10217446480E+01  0.10215037620E+01 0.  0.
     999903    2    3    3    0    0  0.47177889067E-01 -0.11841770255E-02 -0.12425725716E+00  0.13432578247E+00  0.19400886276E-01 0.  0.
         14    1    1    2    0    0 -0.11102677462E-01 -0.10332177033E-01  0.16191556894E-01  0.22185352008E-01  0.00000000000E+00 0. -1.
     999901    1    3    3    0    0 -0.36075211605E-01  0.11516354059E-01  0.10806570027E+00  0.88741886552E+00  0.88000000000E+00 0. -1.
        -11    1    4    4    0    0  0.43112825769E-01  0.51056851773E-02 -0.10877260714E+00  0.11711756893E+00  0.51100000000E-03 0.  1.
         11    1    4    4    0    0  0.40650632978E-02 -0.62898622028E-02 -0.15484650016E-01  0.17208213541E-01  0.51100000000E-03 0. -1.
</event>
<event>
 7    1  0.1014043E+005  0.1043930E+01  0.7957747E-01            NaN
         13   -1    0    0    0    0  0.00000000000E+00  0.00000000000E+00  0.74505805969E-08  0.10566000000E+00  0.10566000000E+00 0.  1.
     999900   -1    0    0    0    0 -0.00000000000E+00 -0.00000000000E+00 -0.74505805969E-08  0.93827000000E+00  0.93827000000E+00 0.  1.
     999902    2    1    2    0    0  0.22223038718E-01 -0.82128441567E-02  0.28653930785E-02  0.10200652826E+01  0.10197860835E+01 0.  0.
         14    1    1    2    0    0 -0.22223038718E-01  0.82128441567E-02 -0.28653930785E-02  0.23864717398E-01  0.00000000000E+00 0. -1.
     999901    1    3    3    0    0 -0.63524955818E-01 -0.95464679668E-01  0.35006197801E-01  0.88812969715E+00  0.88000000000E+00 0.  1.
        -11    1    3    3    0    0  0.18540813468E-01  0.12566770552E-01  0.79301625394E-02  0.23766238345E-01  0.51100000000E-03 0. -1.
         11    1    3    3    0    0  0.67207181068E-01  0.74685064959E-01 -0.40070967262E-01  0.10816934711E+00  0.51100000000E-03 0.  1.
</event>
<event>
 8    1  0.1010879E+005  0.1043930E+01  0.7957747E-01            NaN
         13   -1    0    0    0    0  0.00000000000E+00  0.00000000000E+00  0.74505805969E-08  0.10566000000E+00  0.10566000000E+00 0. -1.
     999900   -1    0    0    0    0 -0.00000000000E+00 -0.00000000000E+00 -0.74505805969E-08  0.93827000000E+00  0.93827000000E+00 0.  1.
     999902    2    1    2    0    0  0.51932539355E-02 -0.58627038627E-02  0.42886414448E-02  0.10350006311E+01  0.10349621118E+01 0.  0.
     999903    2    3    3    0    0  0.96372446881E-01 -0.74017614626E-01 -0.74796946490E-01  0.14415088661E+00  0.20460672360E-01 0.  0.
         14    1    1    2    0    0 -0.51932539355E-02  0.58627038627E-02 -0.42886414448E-02  0.89293688726E-02  0.00000000000E+00 0. -1.
     999901    1    3    3    0    0 -0.91179192946E-01  0.68154910763E-01  0.79085587935E-01  0.89084974452E+00  0.88000000000E+00 0.  1.
        -11    1    4    4    0    0  0.72405848971E-01 -0.43889710802E-01 -0.53395906162E-01  0.10010143653E+00  0.51100000000E-03 0.  1.
         11    1    4    4    0    0  0.23966597910E-01 -0.30127903825E-01 -0.21401040328E-01  0.44049450080E-01  0.51100000000E-03 0. -1.
</event>
<event>
 8    1  0.1010879E+005  0.1043930E+01  0.7957747E-01            NaN
         13   -1    0    0    0    0  0.00000000000E+00  0.00000000000E+00  0.74505805969E-08  0.10566000000E+00  0.10566000000E+00 0. -1.
     999900   -1    0    0    0    0 -0.00000000000E+00 -0.00000000000E+00 -0.74505805969E-08  0.93827000000E+00  0.93827000000E+00 0.  1.
     999902    2    1    2    0    0 -0.23334276945E-01  0.58654227052E-02 -0.85365683004E-03  0.10198546933E+01  0.10195704855E+01 0.  0.
     999903    2    3    3    0    0 -0.17494164386E-02  0.23735557797E-01  0.12656447958E+00  0.13023644401E+00  0.19404295769E-01 0.  0.
         14    1    1    2    0    0  0.23334276945E-01 -0.58654227052E-02  0.85365683004E-03  0.24075306728E-01  0.00000000000E+00 0. -1.
     999901    1    3    3    0    0 -0.21584860506E-01 -0.17870135091E-01 -0.12741813641E+00  0.88961824926E+00  0.88000000000E+00 0.  1.
        -11    1    4    4    0    0  0.75456744607E-02  0.98958754191E-02  0.34641201622E-01  0.36812219767E-01  0.51100000000E-03 0.  1.
         11    1    4    4    0    0 -0.92950908993E-02  0.13839682377E-01  0.91923277963E-01  0.93424224244E-01  0.51100000000E-03 0. -1.
</event>
<event>
 8    1  0.1010879E+005  0.1043930E+01  0.7957747E-01            NaN
         13   -1    0    0    0    0  0.00000000000E+00  0.00000000000E+00  0.74505805969E-08  0.10566000000E+00  0.10566000000E+00 0. -1.
     999900   -1    0    0    0    0 -0.00000000000E+00 -0.00000000000E+00 -0.74505805969E-08  0.93827000000E+00  0.93827000000E+00 0. -1.
     999902    2    1    2    0    0 -0.83419836960E-02 -0.26052452963E-01 -0.81423000153E-03  0.10165624651E+01  0.10161940088E+01 0.  0.
     999903    2    3    3    0    0 -0.41932529975E-01  0.37103529140E-01 -0.11187426005E+00  0.12670217652E+00  0.20064459361E-01 0.  0.
         14    1    1    2    0    0  0.83419836960E-02  0.26052452963E-01  0.81423000153E-03  0.27367534925E-01  0.00000000000E+00 0. -1.
     999901    1    3    3    0    0  0.33590546279E-01 -0.63155982103E-01  0.11106003004E+00  0.88986028856E+00  0.88000000000E+00 0. -1.
        -11    1    4    4    0    0 -0.27802862978E-01  0.35661753006E-01 -0.83011848182E-01  0.94530354262E-01  0.51100000000E-03 0.  1.
         11    1    4    4    0    0 -0.14129666996E-01  0.14417761347E-02 -0.28862411863E-01  0.32171822258E-01  0.51100000000E-03 0. -1.
</event>
<event>
 8    1  0.1010879E+005  0.1043930E+01  0.7957747E-01            NaN
         13   -1    0    0    0    0  0.00000000000E+00  0.00000000000E+00  0.74505805969E-08  0.10566000000E+00  0.10566000000E+00 0.  1.
     999900   -1    0    0    0    0 -0.00000000000E+00 -0.00000000000E+00 -0.74505805969E-08  0.93827000000E+00  0.93827000000E+00 0. -1.
     999902    2    1    2    0    0  0.22458592797E-03 -0.97723776047E-02 -0.20099144270E-01  0.10215799351E+01  0.10213354191E+01 0.  0.
     999903    2    3    3    0    0 -0.57443329115E-01  0.51375869229E-01  0.10162703824E+00  0.12923361213E+00  0.20834001179E-01 0.  0.
         14    1    1    2    0    0 -0.22458592797E-03  0.97723776047E-02  0.20099144270E-01  0.22350064950E-01  0.00000000000E+00 0.  1.
     999901    1    3    3    0    0  0.57667915043E-01 -0.61148246834E-01 -0.12172618251E+00  0.89234632292E+00  0.88000000000E+00 0. -1.
        -11    1    4    4    0    0 -0.38346647397E-01  0.39057103724E-01  0.56282091070E-01  0.78510238912E-01  0.51100000000E-03 0. -1.
         11    1    4    4    0    0 -0.19096681718E-01  0.12318765505E-01  0.45344947168E-01  0.50723373221E-01  0.51100000000E-03 0.  1.
</event>
<event>
 8    1  0.1010879E+005  0.1043930E+01  0.7957747E-01            NaN
         13   -1    0    0    0    0  0.00000000000E+00  0.00000000000E+00  0.74505805969E-08  0.10566000000E+00  0.10566000000E+00 0.  1.
     999900   -1    0    0    0    0 -0.00000000000E+00 -0.00000000000E+00 -0.74505805969E-08  0.93827000000E+00  0.93827000000E+00 0. -1.
     999902    2    1    2    0    0  0.13900837826E-01 -0.33379772443E-02 -0.18437446922E-01  0.10205994442E+01  0.10203327451E+01 0.  0.
     999903    2    3    3    0    0 -0.89807637590E-01  0.25734361559E-01  0.85335881579E-01  0.12797995503E+00  0.19209036177E-01 0.  0.
         14    1    1    2    0    0 -0.13900837826E-01  0.33379772443E-02  0.18437446922E-01  0.23330555787E-01  0.00000000000E+00 0.  1.
     999901    1    3    3    0    0  0.10370847542E+00 -0.29072338803E-01 -0.10377332850E+00  0.89261948918E+00  0.88000000000E+00 0. -1.
        -11    1    4    4    0    0 -0.59734637430E-01  0.14738705026E-01  0.43770789524E-01  0.75508936367E-01  0.51100000000E-03 0.  1.
         11    1    4    4    0    0 -0.30073000160E-01  0.10995656534E-01  0.41565092055E-01  0.52471018665E-01  0.51100000000E-03 0. -1.
</event>
<event>
 8    1  0.1171592E+005  0.1043930E+01  0.7957747E-01            NaN
         13   -1    0    0    0    0  0.00000000000E+00  0.00000000000E+00  0.74505805969E-08  0.10566000000E+00  0.10566000000E+00 0. -1.
     999900   -1    0    0    0    0 -0.00000000000E+00 -0.00000000000E+00 -0.74505805969E-08  0.93827000000E+00  0.93827000000E+00 0.  1.
     999902    2    1    2    0    0 -0.61862502945E-02  0.16206820795E-01 -0.16463545890E-01  0.10200139160E+01  0.10197334993E+01 0.  0.
     999903    2    3    3    0    0  0.11412189888E+00  0.42397653223E-01  0.39919527749E-01  0.12965496505E+00  0.19886489485E-01 0.  0.
         14    1    1    2    0    0  0.61862502945E-02 -0.16206820795E-01  0.16463545890E-01  0.23916084049E-01  0.00000000000E+00 0. -1.
     999901    1    3    3    0    0 -0.12030814917E+00 -0.26190832428E-01 -0.56383073639E-01  0.89035895090E+00  0.88000000000E+00 0.  1.
        -11    1    4    4    0    0  0.60821155065E-01  0.20338833661E-01  0.31172690601E-01  0.71308336248E-01  0.51100000000E-03 0. -1.
         11    1    4    4    0    0  0.53300743811E-01  0.22058819562E-01  0.87468371482E-02  0.58346628800E-01  0.51100000000E-03 0.  1.
</event>
<event>
 8    1  0.1010879E+005  0.1043930E+01  0.7957747E-01            NaN
         13   -1    0    0    0    0  0.00000000000E+00  0.00000000000E+00  0.74505805969E-08  0.10566000000E+00  0.10566000000E+00 0. -1.
     999900   -1    0    0    0    0 -0.00000000000E+00 -0.00000000000E+00 -0.74505805969E-08  0.93827000000E+00  0.93827000000E+00 0.  1.
     999902    2    1    2    0    0  0.81373866158E-02 -0.26017257587E-02 -0.22483517477E-01  0.10198780854E+01  0.10195944363E+01 0.  0.
     999903    2    3    3    0    0 -0.12398480178E+00  0.30443026910E-01 -0.34675417456E-02  0.12919866177E+00  0.19525916059E-01 0.  0.
         14    1    1    2    0    0 -0.81373866158E-02  0.26017257587E-02  0.22483517477E-01  0.24051914601E-01  0.00000000000E+00 0. -1.
     999901    1    3    3    0    0  0.13212218839E+00 -0.33044752669E-01 -0.19015975731E-01  0.89067942363E+00  0.88000000000E+00 0. -1.
        -11    1    4    4    0    0 -0.85316077914E-01  0.28387510385E-01  0.28426399287E-02  0.89961245096E-01  0.51100000000E-03 0.  1.
         11    1    4    4    0    0 -0.38668723863E-01  0.20555165253E-02 -0.63101816743E-02  0.39237416673E-01  0.51100000000E-03 0. -1.
</event>
<event>
 8    1  0.1010879E+005  0.1043930E+01  0.7957747E-01            NaN
         13   -1    0    0    0    0  0.00000000000E+00  0.00000000000E+00  0.74505805969E-08  0.10566000000E+00  0.10566000000E+00 0. -1.
     999900   -1    0    0    0    0 -0.00000000000E+00 -0.00000000000E+00 -0.74505805969E-08  0.93827000000E+00  0.93827000000E+00 0. -1.
     999902    2    1    2    0    0 -0.19809978302E-01 -0.22940676550E-01 -0.12105871554E-02  0.10135956069E+01  0.10131415888E+01 0.  0.
     999903    2    3    3    0    0  0.21387816162E-01  0.12060709483E-01 -0.11991400407E+00  0.12398172639E+00  0.19728170496E-01 0.  0.
         14    1    1    2    0    0  0.19809978302E-01  0.22940676550E-01  0.12105871554E-02  0.30334393057E-01  0.00000000000E+00 0.  1.
     999901    1    3    3    0    0 -0.41197794464E-01 -0.35001386033E-01  0.11870341692E+00  0.88961388056E+00  0.88000000000E+00 0.  1.
        -11    1    4    4    0    0  0.56541011267E-02  0.78099809049E-02 -0.83834372464E-01  0.84388552474E-01  0.51100000000E-03 0. -1.
         11    1    4    4    0    0  0.15733715036E-01  0.42507285784E-02 -0.36079631609E-01  0.39593173911E-01  0.51100000000E-03 0.  1.
</event>
<event>
 8    1  0.1010879E+005  0.1043930E+01  0.7957747E-01            NaN
         13   -1    0    0    0    0  0.00000000000E+00  0.00000000000E+00  0.74505805969E-08  0.10566000000E+00  0.10566000000E+00 0. -1.
     999900   -1    0    0    0    0 -0.00000000000E+00 -0.00000000000E+00 -0.74505805969E-08  0.93827000000E+00  0.93827000000E+00 0.  1.
     999902    2    1    2    0    0 -0.90228838148E-02 -0.16508185650E-01  0.14252090523E-01  0.10203279935E+01  0.10200549787E+01 0.  0.
     999903    2    3    3    0    0  0.11998166668E+00  0.89296395906E-02 -0.38755889325E-01  0.12898120190E+00  0.25666957029E-01 0.  0.
         14    1    1    2    0    0  0.90228838148E-02  0.16508185650E-01 -0.14252090523E-01  0.23602006483E-01  0.00000000000E+00 0.  1.
     999901    1    3    3    0    0 -0.12900455049E+00 -0.25437825240E-01  0.53007979848E-01  0.89134679162E+00  0.88000000000E+00 0. -1.
        -11    1    4    4    0    0  0.78713265187E-01 -0.19705320950E-02 -0.34878624071E-01  0.86118758997E-01  0.51100000000E-03 0. -1.
         11    1    4    4    0    0  0.41268401493E-01  0.10900171686E-01 -0.38772652542E-02  0.42862442901E-01  0.51100000000E-03 0.  1.
</event>
<event>
 8    1  0.1010879E+005  0.1043930E+01  0.7957747E-01            NaN
         13   -1    0    0    0    0  0.00000000000E+00  0.00000000000E+00  0.74505805969E-08  0.10566000000E+00  0.10566000000E+00 0. -1.
     999900   -1    0    0    0    0 -0.00000000000E+00 -0.00000000000E+00 -0.74505805969E-08  0.93827000000E+00  0.93827000000E+00 0. -1.
     999902    2    1    2    0    0 -0.28250114830E-01 -0.79749522243E-03  0.11435264298E-01  0.10134427854E+01  0.10129841109E+01 0.  0.
     999903    2    3    3    0    0 -0.11425701309E+00  0.53963259290E-01  0.11002286758E-01  0.12755559489E+00  0.13515956493E-01 0.  0.
         14    1    1    2    0    0  0.28250114830E-01  0.79749522243E-03 -0.11435264298E-01  0.30487214634E-01  0.00000000000E+00 0. -1.
     999901    1    3    3    0    0  0.86006898260E-01 -0.54760754512E-01  0.43297754070E-03  0.88588719048E+00  0.88000000000E+00 0.  1.
        -11    1    4    4    0    0 -0.89928100346E-01  0.39092986722E-01  0.37547021131E-02  0.98130952058E-01  0.51100000000E-03 0. -1.
         11    1    4    4    0    0 -0.24328912744E-01  0.14870272567E-01  0.72475846446E-02  0.29424642831E-01  0.51100000000E-03 0.  1.
</event>
<event>
 8    1  0.1010879E+005  0.1043930E+01  0.7957747E-01            NaN
         13   -1    0    0    0    0  0.00000000000E+00  0.00000000000E+00  0.74505805969E-08  0.10566000000E+00  0.10566000000E+00 0. -1.
     999900   -1    0    0    0    0 -0.00000000000E+00 -0.00000000000E+00 -0.74505805969E-08  0.93827000000E+00  0.93827000000E+00 0.  1.
     999902    2    1    2    0    0 -0.21361664701E-01 -0.70297448049E-02  0.70988843299E-02  0.10203475449E+01  0.10200749875E+01 0.  0.
     999903    2    3    3    0    0  0.46850803077E-01  0.95864302693E-01  0.70849213406E-01  0.12944674780E+00  0.18758656589E-01 0.  0.
         14    1    1    2    0    0  0.21361664701E-01  0.70297448049E-02 -0.70988843299E-02  0.23582455121E-01  0.00000000000E+00 0.  1.
     999901    1    3    3    0    0 -0.68212467778E-01 -0.10289404750E+00 -0.63750329076E-01  0.89090079707E+00  0.88000000000E+00 0.  1.
        -11    1    4    4    0    0  0.16424404329E-01  0.54717534226E-01  0.38842078541E-01  0.69085004130E-01  0.51100000000E-03 0.  1.
         11    1    4    4    0    0  0.30426398748E-01  0.41146768467E-01  0.32007134865E-01  0.60361743674E-01  0.51100000000E-03 0. -1.
</event>
<event>
 8    1  0.1010879E+005  0.1043930E+01  0.7957747E-01            NaN
         13   -1    0    0    0    0  0.00000000000E+00  0.00000000000E+00  0.74505805969E-08  0.10566000000E+00  0.10566000000E+00 0. -1.
     999900   -1    0    0    0    0 -0.00000000000E+00 -0.00000000000E+00 -0.74505805969E-08  0.93827000000E+00  0.93827000000E+00 0.  1.
     999902    2    1    2    0    0 -0.19051394467E-01  0.13318670375E-01 -0.36612292211E-02  0.10203981660E+01  0.10201267911E+01 0.  0.
     999903    2    3    3    0    0  0.46821232389E-01  0.10825904665E+00 -0.56795722641E-01  0.13125467230E+00  0.94755424697E-02 0.  0.
         14    1    1    2    0    0  0.19051394467E-01 -0.13318670375E-01  0.36612292211E-02  0.23531833993E-01  0.00000000000E+00 0. -1.
     999901    1    3    3    0    0 -0.65872626856E-01 -0.94940376276E-01  0.53134493420E-01  0.88914349371E+00  0.88000000000E+00 0. -1.
        -11    1    4    4    0    0  0.21399376599E-01  0.41620400269E-01 -0.18763460072E-01  0.50423403220E-01  0.51100000000E-03 0. -1.
         11    1    4    4    0    0  0.25421855790E-01  0.66638646382E-01 -0.38032262569E-01  0.80831269077E-01  0.51100000000E-03 0.  1.
</event>
<event>
 8    1  0.1010879E+005  0.1043930E+01  0.7957747E-01            NaN
         13   -1    0    0    0    0  0.00000000000E+00  0.00000000000E+00  0.74505805969E-08  0.10566000000E+00  0.10566000000E+00 0.  1.
     999900   -1    0    0    0    0 -0.00000000000E+00 -0.00000000000E+00 -0.74505805969E-08  0.93827000000E+00  0.93827000000E+00 0.  1.
     999902    2    1    2    0    0 -0.91411057536E-02  0.13266045520E-01 -0.18023052905E-01  0.10197560840E+01  0.10194695153E+01 0.  0.
     999903    2    3    3    0    0  0.76743929875E-01 -0.36186560318E-01 -0.97135487721E-01  0.13066633775E+00  0.20959268247E-01 0.  0.
         14    1    1    2    0    0  0.91411057536E-02 -0.13266045520E-01  0.18023052905E-01  0.24173915987E-01  0.00000000000E+00 0.  1.
     999901    1    3    3    0    0 -0.85885035629E-01  0.49452605838E-01  0.79112434816E-01  0.88908974626E+00  0.88000000000E+00 0.  1.
        -11    1    4    4    0    0  0.12993399653E-01 -0.70093327207E-03 -0.24309781121E-01  0.27578004300E-01  0.51100000000E-03 0. -1.
         11    1    4    4    0    0  0.63750530222E-01 -0.35485627046E-01 -0.72825706600E-01  0.10308833345E+00  0.51100000000E-03 0.  1.
</event>
<event>
 8    1  0.1010879E+005  0.1043930E+01  0.7957747E-01            NaN
         13   -1    0    0    0    0  0.00000000000E+00  0.00000000000E+00  0.74505805969E-08  0.10566000000E+00  0.10566000000E+00 0.  1.
     999900   -1    0    0    0    0 -0.00000000000E+00 -0.00000000000E+00 -0.74505805969E-08  0.93827000000E+00  0.93827000000E+00 0.  1.
     999902    2    1    2    0    0  0.21562200774E-01 -0.15549244687E-02  0.25972349291E-02  0.10221563480E+01  0.10219244139E+01 0.  0.
     999903    2    3    3    0    0  0.75159383666E-01 -0.84140410467E-01  0.69191471985E-01  0.13416546239E+00  0.22008404667E-01 0.  0.
         14    1    1    2    0    0 -0.21562200774E-01  0.15549244687E-02 -0.25972349291E-02  0.21773652004E-01  0.00000000000E+00 0. -1.
     999901    1    3    3    0    0 -0.53597182892E-01  0.82585485998E-01 -0.66594237056E-01  0.88799088561E+00  0.88000000000E+00 0.  1.
        -11    1    4    4    0    0  0.26114674428E-01 -0.28421931381E-01  0.36249962966E-01  0.52953784945E-01  0.51100000000E-03 0.  1.
         11    1    4    4    0    0  0.49044709238E-01 -0.55718479085E-01  0.32941509019E-01  0.81211677444E-01  0.51100000000E-03 0. -1.
</event>
<event>
 8    1  0.1010879E+005  0.1043930E+01  0.7957747E-01            NaN
         13   -1    0    0    0    0  0.00000000000E+00  0.00000000000E+00  0.74505805969E-08  0.10566000000E+00  0.10566000000E+00 0. -1.
     999900   -1    0    0    0    0 -0.00000000000E+00 -0.00000000000E+00 -0.74505805969E-08  0.93827000000E+00  0.93827000000E+00 0.  1.
     999902    2    1    2    0    0  0.64762747547E-02  0.13070642909E-01 -0.19383830635E-01  0.10196706362E+01  0.10193820136E+01 0.  0.
     999903    2    3    3    0    0 -0.62450487731E-01 -0.78077217512E-01  0.75995096284E-01  0.12717079267E+00  0.20025996513E-01 0.  0.
         14    1    1    2    0    0 -0.64762747547E-02 -0.13070642909E-01  0.19383830635E-01  0.24259363777E-01  0.00000000000E+00 0. -1.
     999901    1    3    3    0    0  0.68926762486E-01  0.91147860421E-01 -0.95378926919E-01  0.89249984356E+00  0.88000000000E+00 0.  1.
        -11    1    4    4    0    0 -0.22210637813E-01 -0.40947076886E-01  0.27963682497E-01  0.54334189948E-01  0.51100000000E-03 0. -1.
         11    1    4    4    0    0 -0.40239849919E-01 -0.37130140626E-01  0.48031413787E-01  0.72836602720E-01  0.51100000000E-03 0.  1.
</event>
<event>
 8    1  0.1010879E+005  0.1043930E+01  0.7957747E-01            NaN
         13   -1    0    0    0    0  0.00000000000E+00  0.00000000000E+00  0.74505805969E-08  0.10566000000E+00  0.10566000000E+00 0.  1.
     999900   -1    0    0    0    0 -0.00000000000E+00 -0.00000000000E+00 -0.74505805969E-08  0.93827000000E+00  0.93827000000E+00 0. -1.
     999902    2    1    2    0    0  0.19104079320E-01  0.74166091287E-02 -0.75604855321E-02  0.10220866285E+01  0.10218531907E+01 0.  0.
     999903    2    3    3    0    0 -0.10451840272E+00  0.67605704975E-01 -0.36438701747E-01  0.13094174874E+00  0.17981510674E-01 0.  0.
         14    1    1    2    0    0 -0.19104079320E-01 -0.74166091287E-02  0.75604855321E-02  0.21843371514E-01  0.00000000000E+00 0.  1.
     999901    1    3    3    0    0  0.12362248204E+00 -0.60189095846E-01  0.28878216215E-01  0.89114487975E+00  0.88000000000E+00 0.  1.
        -11    1    4    4    0    0 -0.55889257239E-01  0.43572233727E-01 -0.14004240254E-01  0.72239383253E-01  0.51100000000E-03 0.  1.
         11    1    4    4    0    0 -0.48629145480E-01  0.24033471248E-01 -0.22434461494E-01  0.58702365487E-01  0.51100000000E-03 0. -1.
</event>
<event>
 8    1  0.1010879E+005  0.1043930E+01  0.7957747E-01            NaN
         13   -1    0    0    0    0  0.00000000000E+00  0.00000000000E+00  0.74505805969E-08  0.10566000000E+00  0.10566000000E+00 0.  1.
     999900   -1    0    0    0    0 -0.00000000000E+00 -0.00000000000E+00 -0.74505805969E-08  0.93827000000E+00  0.93827000000E+00 0.  1.
     999902    2    1    2    0    0 -0.77434936109E-02  0.19773630635E-01 -0.10352790187E-01  0.10203050465E+01  0.10200314944E+01 0.  0.
     999903    2    3    3    0    0 -0.10614050710E+00 -0.31850912707E-01 -0.68208584831E-01  0.13143252546E+00  0.18488099352E-01 0.  0.
         14    1    1    2    0    0  0.77434936109E-02 -0.19773630635E-01  0.10352790187E-01  0.23624953470E-01  0.00000000000E+00 0. -1.
     999901    1    3    3    0    0  0.98397013484E-01  0.51624543342E-01  0.57855794644E-01  0.88887252107E+00  0.88000000000E+00 0.  1.
        -11    1    4    4    0    0 -0.59299112755E-01 -0.20406477927E-01 -0.28148894336E-01  0.68741766694E-01  0.51100000000E-03 0.  1.
         11    1    4    4    0    0 -0.46841394340E-01 -0.11444434780E-01 -0.40059690495E-01  0.62690758767E-01  0.51100000000E-03 0. -1.
</event>
<event>
 8    1  0.1010879E+005  0.1043930E+01  0.7957747E-01            NaN
         13   -1    0    0    0    0  0.00000000000E+00  0.00000000000E+00  0.74505805969E-08  0.10566000000E+00  0.10566000000E+00 0.  1.
     999900   -1    0    0    0    0 -0.00000000000E+00 -0.00000000000E+00 -0.74505805969E-08  0.93827000000E+00  0.93827000000E+00 0.  1.
     999902    2    1    2    0    0 -0.10235321709E-01 -0.18412644754E-01 -0.10118964197E-01  0.10205594901E+01  0.10202918661E+01 0.  0.
     999903    2    3    3    0    0  0.11722900466E+00  0.46211916134E-01  0.16212001549E-01  0.12864200056E+00  0.20192934052E-01 0.  0.
         14    1    1    2    0    0  0.10235321709E-01  0.18412644754E-01  0.10118964197E-01  0.23370509917E-01  0.00000000000E+00 0. -1.
     999901    1    3    3    0    0 -0.12746432637E+00 -0.64624560888E-01 -0.26330965747E-01  0.89191748953E+00  0.88000000000E+00 0. -1.
        -11    1    4    4    0    0  0.50673365073E-01  0.27866454000E-01  0.14308206211E-01  0.59576128377E-01  0.51100000000E-03 0. -1.
         11    1    4    4    0    0  0.66555639590E-01  0.18345462135E-01  0.19037953379E-02  0.69065872179E-01  0.51100000000E-03 0.  1.
</event>
<event>
 8    1  0.1010879E+005  0.1043930E+01  0.7957747E-01            NaN
         13   -1    0    0    0    0  0.00000000000E+00  0.00000000000E+00  0.74505805969E-08  0.10566000000E+00  0.10566000000E+00 0.  1.
     999900   -1    0    0    0    0 -0.00000000000E+00 -0.00000000000E+00 -0.74505805969E-08  0.93827000000E+00  0.93827000000E+00 0.  1.
     999902    2    1    2    0    0  0.21458573619E-01  0.14039692913E-02  0.10170153223E-01  0.10201419036E+01  0.10198645155E+01 0.  0.
     999903    2    3    3    0    0 -0.20950879067E-01  0.72001350116E-02 -0.12534355223E+00  0.12874069118E+00  0.19297103459E-01 0.  0.
         14    1    1    2    0    0 -0.21458573619E-01 -0.14039692913E-02 -0.10170153223E-01  0.23788096353E-01  0.00000000000E+00 0. -1.
     999901    1    3    3    0    0  0.42409452686E-01 -0.57961657204E-02  0.13551370546E+00  0.89140121246E+00  0.88000000000E+00 0. -1.
        -11    1    4    4    0    0 -0.16185657232E-01  0.28174168142E-02 -0.41360549976E-01  0.44506960723E-01  0.51100000000E-03 0.  1.
         11    1    4    4    0    0 -0.47652218355E-02  0.43827181974E-02 -0.83983002259E-01  0.84233730461E-01  0.51100000000E-03 0. -1.
</event>
<event>
 8    1  0.1166113E+005  0.1043930E+01  0.7957747E-01            NaN
         13   -1    0    0    0    0  0.00000000000E+00  0.00000000000E+00  0.74505805969E-08  0.10566000000E+00  0.10566000000E+00 0. -1.
     999900   -1    0    0    0    0 -0.00000000000E+00 -0.00000000000E+00 -0.74505805969E-08  0.93827000000E+00  0.93827000000E+00 0.  1.
     999902    2    1    2    0    0 -0.88798479419E-02  0.21534739309E-01 -0.19540923110E-02  0.10205544749E+01  0.10202867347E+01 0.  0.
     999903    2    3    3    0    0  0.51631756446E-01  0.46750847950E-01 -0.10980365305E+00  0.13154995627E+00  0.19926583089E-01 0.  0.
         14    1    1    2    0    0  0.88798479419E-02 -0.21534739309E-01  0.19540923110E-02  0.23375525092E-01  0.00000000000E+00 0. -1.
     999901    1    3    3    0    0 -0.60511604387E-01 -0.25216108641E-01  0.10784956074E+00  0.88900451863E+00  0.88000000000E+00 0. -1.
        -11    1    4    4    0    0  0.18174902793E-01  0.91404710827E-02 -0.45828514093E-01  0.50143684828E-01  0.51100000000E-03 0.  1.
         11    1    4    4    0    0  0.33456853653E-01  0.37610376868E-01 -0.63975138961E-01  0.81406271445E-01  0.51100000000E-03 0. -1.
</event>
<event>
 8    1  0.1010879E+005  0.1043930E+01  0.7957747E-01            NaN
         13   -1    0    0    0    0  0.00000000000E+00  0.00000000000E+00  0.74505805969E-08  0.10566000000E+00  0.10566000000E+00 0. -1.
     999900   -1    0    0    0    0 -0.00000000000E+00 -0.00000000000E+00 -0.74505805969E-08  0.93827000000E+00  0.93827000000E+00 0. -1.
     999902    2    1    2    0    0  0.66997111444E-02  0.11370368732E-01  0.16686635215E-01  0.10226552448E+01  0.10224339267E+01 0.  0.
     999903    2    3    3    0    0 -0.14038416810E-01  0.12745129889E+00  0.35652252288E-01  0.13458737186E+00  0.20044122200E-01 0.  0.
         14    1    1    2    0    0 -0.66997111444E-02 -0.11370368732E-01 -0.16686635215E-01  0.21274755211E-01  0.00000000000E+00 0. -1.
     999901    1    3    3    0    0  0.20738127955E-01 -0.11608093016E+00 -0.18965617073E-01  0.88806787293E+00  0.88000000000E+00 0. -1.
        -11    1    4    4    0    0 -0.11111371871E-01  0.26055316170E-01  0.71092234008E-02  0.29208633380E-01  0.51100000000E-03 0.  1.
         11    1    4    4    0    0 -0.29270449394E-02  0.10139598272E+00  0.28543028887E-01  0.10537873848E+00  0.51100000000E-03 0. -1.
</event>
<event>
 8    1  0.1010879E+005  0.1043930E+01  0.7957747E-01            NaN
         13   -1    0    0    0    0  0.00000000000E+00  0.00000000000E+00  0.74505805969E-08  0.10566000000E+00  0.10566000000E+00 0.  1.
     999900   -1    0    0    0    0 -0.00000000000E+00 -0.00000000000E+00 -0.74505805969E-08  0.93827000000E+00  0.93827000000E+00 0.  1.
     999902    2    1    2    0    0  0.40015196469E-02  0.22411723785E-01  0.84294439216E-02  0.10196534054E+01  0.10193643676E+01 0.  0.
     999903    2    3    3    0    0 -0.73546546096E-01 -0.86131484886E-01 -0.54664602940E-01  0.12736634987E+00  0.20155424397E-01 0.  0.
         14    1    1    2    0    0 -0.40015196469E-02 -0.22411723785E-01 -0.84294439216E-02  0.24276594640E-01  0.00000000000E+00 0. -1.
     999901    1    3    3    0    0  0.77548065743E-01  0.10854320867E+00  0.63094046862E-01  0.89228705549E+00  0.88000000000E+00 0. -1.
        -11    1    4    4    0    0 -0.23990138425E-02 -0.53175586794E-02  0.13301467134E-02  0.60051735199E-02  0.51100000000E-03 0. -1.
         11    1    4    4    0    0 -0.71147532253E-01 -0.80813926207E-01 -0.55994749654E-01  0.12136117635E+00  0.51100000000E-03 0.  1.
</event>
<event>
 8    1  0.1446827E+005  0.1043930E+01  0.7957747E-01            NaN
         13   -1    0    0    0    0  0.00000000000E+00  0.00000000000E+00  0.74505805969E-08  0.10566000000E+00  0.10566000000E+00 0.  1.
     999900   -1    0    0    0    0 -0.00000000000E+00 -0.00000000000E+00 -0.74505805969E-08  0.93827000000E+00  0.93827000000E+00 0. -1.
     999902    2    1    2    0    0  0.56454730404E-02 -0.19832141537E-01  0.13247769677E-01  0.10194210505E+01  0.10191263855E+01 0.  0.
     999903    2    3    3    0    0 -0.87506062119E-01  0.82079549680E-01 -0.37211439782E-01  0.12722749913E+00  0.20193610367E-01 0.  0.
         14    1    1    2    0    0 -0.56454730404E-02  0.19832141537E-01 -0.13247769677E-01  0.24508949492E-01  0.00000000000E+00 0. -1.
     999901    1    3    3    0    0  0.93151535160E-01 -0.10191169122E+00  0.50459209459E-01  0.89219355138E+00  0.88000000000E+00 0.  1.
        -11    1    4    4    0    0 -0.45680136324E-01  0.56322058148E-01 -0.23338741301E-01  0.76182721500E-01  0.51100000000E-03 0.  1.
         11    1    4    4    0    0 -0.41825925796E-01  0.25757491532E-01 -0.13872698481E-01  0.51044777625E-01  0.51100000000E-03 0. -1.
</event>
<event>
 8    1  0.1010879E+005  0.1043930E+01  0.7957747E-01            NaN
         13   -1    0    0    0    0  0.00000000000E+00  0.00000000000E+00  0.74505805969E-08  0.10566000000E+00  0.10566000000E+00 0. -1.
     999900   -1    0    0    0    0 -0.00000000000E+00 -0.00000000000E+00 -0.74505805969E-08  0.93827000000E+00  0.93827000000E+00 0.  1.
     999902    2    1    2    0    0  0.10985838670E-02  0.99384274534E-02  0.23758228518E-01  0.10181534089E+01  0.10178270636E+01 0.  0.
     999903    2    3    3    0    0 -0.98721152689E-01  0.79386797409E-01  0.22935853023E-01  0.12979102102E+00  0.16478051803E-01 0.  0.
         14    1    1    2    0    0 -0.10985838670E-02 -0.99384274534E-02 -0.23758228518E-01  0.25776591106E-01  0.00000000000E+00 0.  1.
     999901    1    3    3    0    0  0.99819736556E-01 -0.69448369956E-01  0.82237549480E-03  0.88836238788E+00  0.88000000000E+00 0. -1.
        -11    1    4    4    0    0 -0.72183491837E-01  0.49892470169E-01  0.11520072698E-01  0.88502476063E-01  0.51100000000E-03 0.  1.
         11    1    4    4    0    0 -0.26537660851E-01  0.29494327240E-01  0.11415780325E-01  0.41288544952E-01  0.51100000000E-03 0. -1.
</event>
<event>
 8    1  0.1010879E+005  0.1043930E+01  0.7957747E-01            NaN
         13   -1    0    0    0    0  0.00000000000E+00  0.00000000000E+00  0.74505805969E-08  0.10566000000E+00  0.10566000000E+00 0. -1.
     999900   -1    0    0    0    0 -0.00000000000E+00 -0.00000000000E+00 -0.74505805969E-08  0.93827000000E+00  0.93827000000E+00 0.  1.
     999902    2    1    2    0    0 -0.22121874054E-02  0.18525555791E-01  0.13743741839E-01  0.10207571618E+01  0.10204940975E+01 0.  0.
     999903    2    3    3    0    0  0.66514005989E-01 -0.10562122182E+00  0.26511953618E-01  0.12929839142E+00  0.20862282921E-01 0.  0.
         14    1    1    2    0    0  0.22121874054E-02 -0.18525555791E-01 -0.13743741839E-01  0.23172838199E-01  0.00000000000E+00 0.  1.
     999901    1    3    3    0    0 -0.68726193394E-01  0.12414677761E+00 -0.12768211780E-01  0.89145877038E+00  0.88000000000E+00 0.  1.
        -11    1    4    4    0    0  0.26278939845E-01 -0.39031004380E-01 -0.14145695801E-03  0.47056169770E-01  0.51100000000E-03 0.  1.
         11    1    4    4    0    0  0.40235066143E-01 -0.66590217440E-01  0.26653410576E-01  0.82242221654E-01  0.51100000000E-03 0. -1.
</event>
<event>
 8    1  0.1487457E+005  0.1043930E+01  0.7957747E-01            NaN
         13   -1    0    0    0    0  0.00000000000E+00  0.00000000000E+00  0.74505805969E-08  0.10566000000E+00  0.10566000000E+00 0. -1.
     999900   -1    0    0    0    0 -0.00000000000E+00 -0.00000000000E+00 -0.74505805969E-08  0.93827000000E+00  0.93827000000E+00 0. -1.
     999902    2    1    2    0    0  0.51675521528E-02 -0.60399026662E-02 -0.23148668423E-01  0.10194546069E+01  0.10191607580E+01 0.  0.
     999903    2    3    3    0    0  0.40402348187E-02  0.60956173046E-01 -0.11546853224E+00  0.13209182747E+00  0.19577804188E-01 0.  0.
         14    1    1    2    0    0 -0.51675521528E-02  0.60399026662E-02  0.23148668423E-01  0.24475393137E-01  0.00000000000E+00 0. -1.
     999901    1    3    3    0    0  0.11273173340E-02 -0.66996075712E-01  0.92319863812E-01  0.88736277940E+00  0.88000000000E+00 0.  1.
        -11    1    4    4    0    0  0.10546076548E-01  0.28519467194E-01 -0.64738792772E-01  0.71525884477E-01  0.51100000000E-03 0. -1.
         11    1    4    4    0    0 -0.65058417292E-02  0.32436705852E-01 -0.50729739463E-01  0.60565942989E-01  0.51100000000E-03 0.  1.
</event>
<event>
 8    1  0.1010879E+005  0.1043930E+01  0.7957747E-01            NaN
         13   -1    0    0    0    0  0.00000000000E+00  0.00000000000E+00  0.74505805969E-08  0.10566000000E+00  0.10566000000E+00 0. -1.
     999900   -1    0    0    0    0 -0.00000000000E+00 -0.00000000000E+00 -0.74505805969E-08  0.93827000000E+00  0.93827000000E+00 0. -1.
     999902    2    1    2    0    0  0.15879009652E-01  0.60452025050E-02  0.16334734219E-01  0.10203607199E+01  0.10200884706E+01 0.  0.
     999903    2    3    3    0    0 -0.98379461933E-01 -0.68022390459E-01  0.45437308751E-01  0.12941292881E+00  0.19431751948E-01 0.  0.
         14    1    1    2    0    0 -0.15879009652E-01 -0.60452025050E-02 -0.16334734219E-01  0.23569280066E-01  0.00000000000E+00 0.  1.
     999901    1    3    3    0    0  0.11425847158E+00  0.74067592964E-01 -0.29102574532E-01  0.89094779112E+00  0.88000000000E+00 0. -1.
        -11    1    4    4    0    0 -0.52755204248E-01 -0.31081879165E-01  0.13975061392E-01  0.62807310479E-01  0.51100000000E-03 0. -1.
         11    1    4    4    0    0 -0.45624257685E-01 -0.36940511295E-01  0.31462247359E-01  0.66605618336E-01  0.51100000000E-03 0.  1.
</event>
<event>
 8    1  0.1010879E+005  0.1043930E+01  0.7957747E-01            NaN
         13   -1    0    0    0    0  0.00000000000E+00  0.00000000000E+00  0.74505805969E-08  0.10566000000E+00  0.10566000000E+00 0.  1.
     999900   -1    0    0    0    0 -0.00000000000E+00 -0.00000000000E+00 -0.74505805969E-08  0.93827000000E+00  0.93827000000E+00 0.  1.
     999902    2    1    2    0    0  0.46420436505E-02 -0.10052085183E-01  0.20824051185E-01  0.10203453844E+01  0.10200727765E+01 0.  0.
     999903    2    3    3    0    0  0.62417485516E-01 -0.37871135672E-01  0.10997311832E+00  0.13351989004E+00  0.20082551372E-01 0.  0.
         14    1    1    2    0    0 -0.46420436505E-02  0.10052085183E-01 -0.20824051185E-01  0.23584615611E-01  0.00000000000E+00 0. -1.
     999901    1    3    3    0    0 -0.57775441865E-01  0.27819050489E-01 -0.89149067131E-01  0.88682549435E+00  0.88000000000E+00 0.  1.
        -11    1    4    4    0    0  0.11255943959E-02 -0.69586017192E-02  0.10679691016E-01  0.12806483586E-01  0.51100000000E-03 0.  1.
         11    1    4    4    0    0  0.61291891120E-01 -0.30912533953E-01  0.99293427299E-01  0.12071340646E+00  0.51100000000E-03 0. -1.
</event>
<event>
 8    1  0.1010879E+005  0.1043930E+01  0.7957747E-01            NaN
         13   -1    0    0    0    0  0.00000000000E+00  0.00000000000E+00  0.74505805969E-08  0.10566000000E+00  0.10566000000E+00 0. -1.
     999900   -1    0    0    0    0 -0.00000000000E+00 -0.00000000000E+00 -0.74505805969E-08  0.93827000000E+00  0.93827000000E+00 0. -1.
     999902    2    1    2    0    0  0.13786697022E-01  0.11271863285E-01 -0.15015702554E-01  0.10206362403E+01  0.10203703915E+01 0.  0.
     999903    2    3    3    0    0  0.12885046604E-02  0.11374519507E+00  0.62079900396E-01  0.13125402747E+00  0.20834491812E-01 0.  0.
         14    1    1    2    0    0 -0.13786697022E-01 -0.11271863285E-01  0.15015702554E-01  0.23293759677E-01  0.00000000000E+00 0.  1.
     999901    1    3    3    0    0  0.12498192362E-01 -0.10247333179E+00 -0.77095602950E-01  0.88938221285E+00  0.88000000000E+00 0. -1.
        -11    1    4    4    0    0 -0.63124184830E-02  0.58373078154E-01  0.23030921808E-01  0.63070970823E-01  0.51100000000E-03 0. -1.
         11    1    4    4    0    0  0.76009231434E-02  0.55372116916E-01  0.39048978588E-01  0.68183056650E-01  0.51100000000E-03 0.  1.
</event>
<event>
 8    1  0.1010879E+005  0.1043930E+01  0.7957747E-01            NaN
         13   -1    0    0    0    0  0.00000000000E+00  0.00000000000E+00  0.74505805969E-08  0.10566000000E+00  0.10566000000E+00 0. -1.
     999900   -1    0    0    0    0 -0.00000000000E+00 -0.00000000000E+00 -0.74505805969E-08  0.93827000000E+00  0.93827000000E+00 0.  1.
     999902    2    1    2    0    0 -0.21019404850E-02  0.18373918042E-01 -0.14949174920E-01  0.10201498224E+01  0.10198726211E+01 0.  0.
     999903    2    3    3    0    0 -0.88680078971E-01  0.17146296909E-01  0.90754496650E-01  0.12960473798E+00  0.20071311405E-01 0.  0.
         14    1    1    2    0    0  0.21019404850E-02 -0.18373918042E-01  0.14949174920E-01  0.23780177644E-01  0.00000000000E+00 0. -1.
     999901    1    3    3    0    0  0.86578138485E-01  0.12276211328E-02 -0.10570367157E+00  0.89054508437E+00  0.88000000000E+00 0.  1.
        -11    1    4    4    0    0 -0.73455237114E-02 -0.35940659061E-02  0.49598889310E-02  0.95778728087E-02  0.51100000000E-03 0. -1.
         11    1    4    4    0    0 -0.81334555259E-01  0.20740362815E-01  0.85794607719E-01  0.12002686517E+00  0.51100000000E-03 0.  1.
</event>
<event>
 8    1  0.1010879E+005  0.1043930E+01  0.7957747E-01            NaN
         13   -1    0    0    0    0  0.00000000000E+00  0.00000000000E+00  0.74505805969E-08  0.10566000000E+00  0.10566000000E+00 0.  1.
     999900   -1    0    0    0    0 -0.00000000000E+00 -0.00000000000E+00 -0.74505805969E-08  0.93827000000E+00  0.93827000000E+00 0. -1.
     999902    2    1    2    0    0  0.88849067897E-02 -0.18745935122E-01 -0.10263819222E-01  0.10207848572E+01  0.10205224284E+01 0.  0.
     999903    2    3    3    0    0 -0.18577486833E-01 -0.84669407100E-01  0.96830393964E-01  0.13142033250E+00  0.19522988574E-01 0.  0.
         14    1    1    2    0    0 -0.88849067897E-02  0.18745935122E-01  0.10263819222E-01  0.23145142845E-01  0.00000000000E+00 0. -1.
     999901    1    3    3    0    0  0.27462393623E-01  0.65923471977E-01 -0.10709421319E+00  0.88936452466E+00  0.88000000000E+00 0. -1.
        -11    1    4    4    0    0 -0.14135139262E-02 -0.46165228973E-01  0.57590554109E-01  0.73825195099E-01  0.51100000000E-03 0.  1.
         11    1    4    4    0    0 -0.17163972907E-01 -0.38504178127E-01  0.39239839855E-01  0.57595137399E-01  0.51100000000E-03 0. -1.
</event>
<event>
 8    1  0.1010879E+005  0.1043930E+01  0.7957747E-01            NaN
         13   -1    0    0    0    0  0.00000000000E+00  0.00000000000E+00  0.74505805969E-08  0.10566000000E+00  0.10566000000E+00 0. -1.
     999900   -1    0    0    0    0 -0.00000000000E+00 -0.00000000000E+00 -0.74505805969E-08  0.93827000000E+00  0.93827000000E+00 0.  1.
     999902    2    1    2    0    0 -0.11889548863E-02 -0.22558100633E-01  0.61764360953E-02  0.10205114202E+01  0.10202426813E+01 0.  0.
     999903    2    3    3    0    0  0.10710057497E+00 -0.73120617692E-01  0.19457879755E-01  0.13233374249E+00  0.17789109773E-01 0.  0.
         14    1    1    2    0    0  0.11889548863E-02  0.22558100633E-01 -0.61764360953E-02  0.23418579819E-01  0.00000000000E+00 0. -1.
     999901    1    3    3    0    0 -0.10828952985E+00  0.50562517059E-01 -0.13281443660E-01  0.88817767769E+00  0.88000000000E+00 0. -1.
        -11    1    4    4    0    0  0.10137518831E+00 -0.64531784602E-01  0.20636230333E-01  0.12193192835E+00  0.51100000000E-03 0.  1.
         11    1    4    4    0    0  0.57253866602E-02 -0.85888330901E-02 -0.11783505774E-02  0.10401814137E-01  0.51100000000E-03 0. -1.
</event>
<event>
 8    1  0.1010879E+005  0.1043930E+01  0.7957747E-01            NaN
         13   -1    0    0    0    0  0.00000000000E+00  0.00000000000E+00  0.74505805969E-08  0.10566000000E+00  0.10566000000E+00 0. -1.
     999900   -1    0    0    0    0 -0.00000000000E+00 -0.00000000000E+00 -0.74505805969E-08  0.93827000000E+00  0.93827000000E+00 0.  1.
     999902    2    1    2    0    0 -0.19949085182E-01 -0.70368029132E-02 -0.53970713062E-02  0.10220985783E+01  0.10218653986E+01 0.  0.
     999903    2    3    3    0    0 -0.10889420624E+00 -0.19350420710E-01 -0.73662467503E-01  0.13489903814E+00  0.23220776009E-01 0.  0.
         14    1    1    2    0    0  0.19949085182E-01  0.70368029132E-02  0.53970713062E-02  0.21831421701E-01  0.00000000000E+00 0. -1.
     999901    1    3    3    0    0  0.88945121055E-01  0.12313617797E-01  0.68265396197E-01  0.88719954016E+00  0.88000000000E+00 0. -1.
        -11    1    4    4    0    0 -0.10252793192E+00 -0.18259845310E-01 -0.61044839696E-01  0.12071508749E+00  0.51100000000E-03 0.  1.
         11    1    4    4    0    0 -0.63662743180E-02 -0.10905754000E-02 -0.12617627807E-01  0.14183950644E-01  0.51100000000E-03 0. -1.
</event>
<event>
 8    1  0.1010879E+005  0.1043930E+01  0.7957747E-01            NaN
         13   -1    0    0    0    0  0.00000000000E+00  0.00000000000E+00  0.74505805969E-08  0.10566000000E+00  0.10566000000E+00 0. -1.
     999900   -1    0    0    0    0 -0.00000000000E+00 -0.00000000000E+00 -0.74505805969E-08  0.93827000000E+00  0.93827000000E+00 0.  1.
     999902    2    1    2    0    0 -0.13855265610E-01 -0.88451914935E-02 -0.17195838617E-01  0.10201412913E+01  0.10198638887E+01 0.  0.
     999903    2    3    3    0    0 -0.29393321089E-01  0.98734607265E-01  0.74504921884E-01  0.12872451234E+00  0.20162507172E-01 0.  0.
         14    1    1    2    0    0  0.13855265610E-01  0.88451914935E-02  0.17195838617E-01  0.23788708738E-01  0.00000000000E+00 0. -1.
     999901    1    3    3    0    0  0.15538055479E-01 -0.10757979876E+00 -0.91700760501E-01  0.89141677892E+00  0.88000000000E+00 0. -1.
        -11    1    4    4    0    0 -0.26272912779E-01  0.65479648451E-01  0.58643409619E-01  0.91745086625E-01  0.51100000000E-03 0.  1.
         11    1    4    4    0    0 -0.31204083097E-02  0.33254958814E-01  0.15861512265E-01  0.36979425713E-01  0.51100000000E-03 0. -1.
</event>
<event>
 8    1  0.1017737E+005  0.1043930E+01  0.7957747E-01            NaN
         13   -1    0    0    0    0  0.00000000000E+00  0.00000000000E+00  0.74505805969E-08  0.10566000000E+00  0.10566000000E+00 0. -1.
     999900   -1    0    0    0    0 -0.00000000000E+00 -0.00000000000E+00 -0.74505805969E-08  0.93827000000E+00  0.93827000000E+00 0.  1.
     999902    2    1    2    0    0 -0.14275493111E-01 -0.16960138388E-01  0.48038263940E-02  0.10212471266E+01  0.10209951914E+01 0.  0.
     999903    2    3    3    0    0  0.10512037591E+00 -0.62612709838E-01 -0.41825800985E-01  0.13079002321E+00  0.19646569156E-01 0.  0.
         14    1    1    2    0    0  0.14275493111E-01  0.16960138388E-01 -0.48038263940E-02  0.22682873401E-01  0.00000000000E+00 0.  1.
     999901    1    3    3    0    0 -0.11939586902E+00  0.45652571450E-01  0.46629627379E-01  0.89045710338E+00  0.88000000000E+00 0. -1.
        -11    1    4    4    0    0  0.63919323463E-01 -0.37473175400E-01 -0.15105702761E-01  0.75619852971E-01  0.51100000000E-03 0.  1.
         11    1    4    4    0    0  0.41201052448E-01 -0.25139534438E-01 -0.26720098224E-01  0.55170170243E-01  0.51100000000E-03 0. -1.
</event>
<event>
 8    1  0.1010879E+005  0.1043930E+01  0.7957747E-01            NaN
         13   -1    0    0    0    0  0.00000000000E+00  0.00000000000E+00  0.74505805969E-08  0.10566000000E+00  0.10566000000E+00 0. -1.
     999900   -1    0    0    0    0 -0.00000000000E+00 -0.00000000000E+00 -0.74505805969E-08  0.93827000000E+00  0.93827000000E+00 0. -1.
     999902    2    1    2    0    0 -0.89713056285E-02  0.68852839444E-02 -0.22604414511E-01  0.10186544977E+01  0.10183408735E+01 0.  0.
     999903    2    3    3    0    0  0.12447636992E+00 -0.30096329174E-02 -0.94230974050E-02  0.12844107466E+00  0.30081395180E-01 0.  0.
         14    1    1    2    0    0  0.89713056285E-02 -0.68852839444E-02  0.22604414511E-01  0.25275502271E-01  0.00000000000E+00 0. -1.
     999901    1    3    3    0    0 -0.13344767555E+00  0.98949168617E-02 -0.13181317106E-01  0.89021342307E+00  0.88000000000E+00 0.  1.
        -11    1    4    4    0    0  0.46612086475E-01 -0.15699134498E-01 -0.45517299642E-02  0.49397659825E-01  0.51100000000E-03 0. -1.
         11    1    4    4    0    0  0.77864283448E-01  0.12689501581E-01 -0.48713674408E-02  0.79043414836E-01  0.51100000000E-03 0.  1.
</event>
<event>
 8    1  0.1010879E+005  0.1043930E+01  0.7957747E-01            NaN
         13   -1    0    0    0    0  0.00000000000E+00  0.00000000000E+00  0.74505805969E-08  0.10566000000E+00  0.10566000000E+00 0.  1.
     999900   -1    0    0    0    0 -0.00000000000E+00 -0.00000000000E+00 -0.74505805969E-08  0.93827000000E+00  0.93827000000E+00 0.  1.
     999902    2    1    2    0    0  0.15549300628E-01  0.15404107645E-01  0.89491591713E-02  0.10202835472E+01  0.10200094911E+01 0.  0.
     999903    2    3    3    0    0  0.11003576008E-01  0.13059151427E+00  0.76158323669E-02  0.13276420651E+00  0.19827035637E-01 0.  0.
         14    1    1    2    0    0 -0.15549300628E-01 -0.15404107645E-01 -0.89491591713E-02  0.23646452846E-01  0.00000000000E+00 0. -1.
     999901    1    3    3    0    0  0.45457246198E-02 -0.11518740663E+00  0.13333268044E-02  0.88751934064E+00  0.88000000000E+00 0. -1.
        -11    1    4    4    0    0  0.25170442583E-02  0.10916289617E+00  0.28907209410E-02  0.10923136363E+00  0.51100000000E-03 0. -1.
         11    1    4    4    0    0  0.84865317495E-02  0.21428618102E-01  0.47251114259E-02  0.23532842878E-01  0.51100000000E-03 0.  1.
</event>
<event>
 8    1  0.1010879E+005  0.1043930E+01  0.7957747E-01            NaN
         13   -1    0    0    0    0  0.00000000000E+00  0.00000000000E+00  0.74505805969E-08  0.10566000000E+00  0.10566000000E+00 0. -1.
     999900   -1    0    0    0    0 -0.00000000000E+00 -0.00000000000E+00 -0.74505805969E-08  0.93827000000E+00  0.93827000000E+00 0. -1.
     999902    2    1    2    0    0 -0.38857334856E-03  0.16347822957E-01  0.16926703386E-01  0.10203945885E+01  0.10201231302E+01 0.  0.
     999903    2    3    3    0    0  0.29585789502E-01  0.10856824047E+00 -0.64745045622E-01  0.13130891078E+00  0.19690793200E-01 0.  0.
         14    1    1    2    0    0  0.38857334856E-03 -0.16347822957E-01 -0.16926703386E-01  0.23535411452E-01  0.00000000000E+00 0.  1.
     999901    1    3    3    0    0 -0.29974362850E-01 -0.92220417514E-01  0.81671749008E-01  0.88908567777E+00  0.88000000000E+00 0.  1.
        -11    1    4    4    0    0  0.57707183665E-02  0.58414696246E-01 -0.32288148030E-01  0.66995250221E-01  0.51100000000E-03 0.  1.
         11    1    4    4    0    0  0.23815071135E-01  0.50153544225E-01 -0.32456897592E-01  0.64313660554E-01  0.51100000000E-03 0. -1.
</event>
<event>
 8    1  0.1010879E+005  0.1043930E+01  0.7957747E-01            NaN
         13   -1    0    0    0    0  0.00000000000E+00  0.00000000000E+00  0.74505805969E-08  0.10566000000E+00  0.10566000000E+00 0.  1.
     999900   -1    0    0    0    0 -0.00000000000E+00 -0.00000000000E+00 -0.74505805969E-08  0.93827000000E+00  0.93827000000E+00 0.  1.
     999902    2    1    2    0    0 -0.18447363609E-01 -0.88452939448E-02  0.12804990449E-01  0.10197947099E+01  0.10195090672E+01 0.  0.
     999903    2    3    3    0    0 -0.70500757546E-01  0.38003382102E-01 -0.10023998157E+00  0.12980396837E+00  0.19657121666E-01 0.  0.
         14    1    1    2    0    0  0.18447363609E-01  0.88452939448E-02 -0.12804990449E-01  0.24135290126E-01  0.00000000000E+00 0. -1.
     999901    1    3    3    0    0  0.52053393937E-01 -0.46848676047E-01  0.11304497202E+00  0.88999074151E+00  0.88000000000E+00 0. -1.
        -11    1    4    4    0    0 -0.48478951132E-01  0.23784545839E-01 -0.80716787160E-01  0.97115262313E-01  0.51100000000E-03 0.  1.
         11    1    4    4    0    0 -0.22021806414E-01  0.14218836263E-01 -0.19523194414E-01  0.32688706055E-01  0.51100000000E-03 0. -1.
</event>
<event>
 8    1  0.1010879E+005  0.1043930E+01  0.7957747E-01            NaN
         13   -1    0    0    0    0  0.00000000000E+00  0.00000000000E+00  0.74505805969E-08  0.10566000000E+00  0.10566000000E+00 0.  1.
     999900   -1    0    0    0    0 -0.00000000000E+00 -0.00000000000E+00 -0.74505805969E-08  0.93827000000E+00  0.93827000000E+00 0.  1.
     999902    2    1    2    0    0  0.92355061001E-02 -0.12439815958E-01 -0.19465058240E-01  0.10190516543E+01  0.10187479286E+01 0.  0.
     999903    2    3    3    0    0  0.11869726033E-01  0.82607630895E-01  0.93299707367E-01  0.12677543659E+00  0.20056541339E-01 0.  0.
         14    1    1    2    0    0 -0.92355061001E-02  0.12439815958E-01  0.19465058240E-01  0.24878345730E-01  0.00000000000E+00 0. -1.
     999901    1    3    3    0    0 -0.26342199331E-02 -0.95047446853E-01 -0.11276476561E+00  0.89227621768E+00  0.88000000000E+00 0.  1.
        -11    1    4    4    0    0 -0.19458134448E-02  0.26752674847E-01  0.41126439664E-01  0.49103329438E-01  0.51100000000E-03 0. -1.
         11    1    4    4    0    0  0.13815539478E-01  0.55854956048E-01  0.52173267703E-01  0.77672107156E-01  0.51100000000E-03 0.  1.
</event>
<event>
 8    1  0.1010879E+005  0.1043930E+01  0.7957747E-01            NaN
         13   -1    0    0    0    0  0.00000000000E+00  0.00000000000E+00  0.74505805969E-08  0.10566000000E+00  0.10566000000E+00 0. -1.
     999900   -1    0    0    0    0 -0.00000000000E+00 -0.00000000000E+00 -0.74505805969E-08  0.93827000000E+00  0.93827000000E+00 0. -1.
     999902    2    1    2    0    0 -0.14730000634E-01  0.13232691235E-01 -0.10800388106E-01  0.10213750578E+01  0.10211259879E+01 0.  0.
     999903    2    3    3    0    0 -0.14436819509E-01  0.11815792201E+00 -0.57947707557E-01  0.13388857351E+00  0.19962389946E-01 0.  0.
         14    1    1    2    0    0  0.14730000634E-01 -0.13232691235E-01  0.10800388106E-01  0.22554942235E-01  0.00000000000E+00 0. -1.
     999901    1    3    3    0    0 -0.29318112484E-03 -0.10492523078E+00  0.47147319451E-01  0.88748648426E+00  0.88000000000E+00 0.  1.
        -11    1    4    4    0    0 -0.98175918572E-02  0.45965145216E-01 -0.32728730565E-01  0.57276614862E-01  0.51100000000E-03 0.  1.
         11    1    4    4    0    0 -0.46192276517E-02  0.72192776798E-01 -0.25218976991E-01  0.76611958645E-01  0.51100000000E-03 0. -1.
</event>
<event>
 8    1  0.1010879E+005  0.1043930E+01  0.7957747E-01            NaN
         13   -1    0    0    0    0  0.00000000000E+00  0.00000000000E+00  0.74505805969E-08  0.10566000000E+00  0.10566000000E+00 0.  1.
     999900   -1    0    0    0    0 -0.00000000000E+00 -0.00000000000E+00 -0.74505805969E-08  0.93827000000E+00  0.93827000000E+00 0. -1.
     999902    2    1    2    0    0 -0.90060379207E-02  0.10478523510E-01  0.19439974861E-01  0.10200800357E+01  0.10198011858E+01 0.  0.
     999903    2    3    3    0    0  0.56013983218E-01 -0.83187307461E-01 -0.77874812711E-01  0.12740368959E+00  0.10465143500E-01 0.  0.
         14    1    1    2    0    0  0.90060379207E-02 -0.10478523510E-01 -0.19439974861E-01  0.23849964289E-01  0.00000000000E+00 0. -1.
     999901    1    3    3    0    0 -0.65020021138E-01  0.93665830972E-01  0.97314787571E-01  0.89267634612E+00  0.88000000000E+00 0. -1.
        -11    1    4    4    0    0  0.27679960400E-01 -0.36934510316E-01 -0.29968591804E-01  0.55033770321E-01  0.51100000000E-03 0.  1.
         11    1    4    4    0    0  0.28334022817E-01 -0.46252797145E-01 -0.47906220907E-01  0.72369919271E-01  0.51100000000E-03 0. -1.
</event>
<event>
 8    1  0.1010879E+005  0.1043930E+01  0.7957747E-01            NaN
         13   -1    0    0    0    0  0.00000000000E+00  0.00000000000E+00  0.74505805969E-08  0.10566000000E+00  0.10566000000E+00 0. -1.
     999900   -1    0    0    0    0 -0.00000000000E+00 -0.00000000000E+00 -0.74505805969E-08  0.93827000000E+00  0.93827000000E+00 0. -1.
     999902    2    1    2    0    0 -0.25699165469E-01 -0.11918581640E-02 -0.55822969554E-02  0.10176045433E+01  0.10172639662E+01 0.  0.
     999903    2    3    3    0    0 -0.21395453823E-01 -0.10505393759E+00 -0.69232045974E-01  0.12920308898E+00  0.20156060197E-01 0.  0.
         14    1    1    2    0    0  0.25699165469E-01  0.11918581640E-02  0.55822969554E-02  0.26325456710E-01  0.00000000000E+00 0. -1.
     999901    1    3    3    0    0 -0.43037116460E-02  0.10386207943E+00  0.63649749019E-01  0.88840145431E+00  0.88000000000E+00 0.  1.
        -11    1    4    4    0    0 -0.17922290446E-01 -0.74681745041E-01 -0.59376926465E-01  0.97079617091E-01  0.51100000000E-03 0.  1.
         11    1    4    4    0    0 -0.34731633771E-02 -0.30372192553E-01 -0.98551195092E-02  0.32123471884E-01  0.51100000000E-03 0. -1.
</event>
<event>
 8    1  0.1010879E+005  0.1043930E+01  0.7957747E-01            NaN
         13   -1    0    0    0    0  0.00000000000E+00  0.00000000000E+00  0.74505805969E-08  0.10566000000E+00  0.10566000000E+00 0.  1.
     999900   -1    0    0    0    0 -0.00000000000E+00 -0.00000000000E+00 -0.74505805969E-08  0.93827000000E+00  0.93827000000E+00 0.  1.
     999902    2    1    2    0    0  0.20128398967E-01 -0.94704351825E-02 -0.13980562951E-01  0.10176564824E+01  0.10173172654E+01 0.  0.
     999903    2    3    3    0    0 -0.65436204550E-01  0.77224299387E-01 -0.73895019952E-01  0.12724813756E+00  0.22048248377E-01 0.  0.
         14    1    1    2    0    0 -0.20128398967E-01  0.94704351825E-02  0.13980562951E-01  0.26273517617E-01  0.00000000000E+00 0.  1.
     999901    1    3    3    0    0  0.85564603517E-01 -0.86694734569E-01  0.59914457001E-01  0.89040834483E+00  0.88000000000E+00 0.  1.
        -11    1    4    4    0    0 -0.44915231282E-01  0.46237922685E-01 -0.34613291285E-01  0.73168740251E-01  0.51100000000E-03 0.  1.
         11    1    4    4    0    0 -0.20520973269E-01  0.30986376701E-01 -0.39281728668E-01  0.54079397307E-01  0.51100000000E-03 0. -1.
</event>
<event>
 8    1  0.1010879E+005  0.1043930E+01  0.7957747E-01            NaN
         13   -1    0    0    0    0  0.00000000000E+00  0.00000000000E+00  0.74505805969E-08  0.10566000000E+00  0.10566000000E+00 0.  1.
     999900   -1    0    0    0    0 -0.00000000000E+00 -0.00000000000E+00 -0.74505805969E-08  0.93827000000E+00  0.93827000000E+00 0. -1.
     999902    2    1    2    0    0  0.31604243716E-02  0.38168692395E-02  0.21056452124E-01  0.10222982883E+01  0.10220694005E+01 0.  0.
     999903    2    3    3    0    0 -0.58284290209E-01 -0.80112703438E-01  0.87595291499E-01  0.13367742247E+00  0.19534954540E-01 0.  0.
         14    1    1    2    0    0 -0.31604243716E-02 -0.38168692395E-02 -0.21056452124E-01  0.21631711653E-01  0.00000000000E+00 0. -1.
     999901    1    3    3    0    0  0.61444714581E-01  0.83929572678E-01 -0.66538839375E-01  0.88862086587E+00  0.88000000000E+00 0. -1.
        -11    1    4    4    0    0 -0.20967518627E-01 -0.42984911782E-01  0.48402091121E-01  0.68046770857E-01  0.51100000000E-03 0. -1.
         11    1    4    4    0    0 -0.37316771582E-01 -0.37127791657E-01  0.39193200379E-01  0.65630651616E-01  0.51100000000E-03 0.  1.
</event>
<event>
 8    1  0.1010879E+005  0.1043930E+01  0.7957747E-01            NaN
         13   -1    0    0    0    0  0.00000000000E+00  0.00000000000E+00  0.74505805969E-08  0.10566000000E+00  0.10566000000E+00 0. -1.
     999900   -1    0    0    0    0 -0.00000000000E+00 -0.00000000000E+00 -0.74505805969E-08  0.93827000000E+00  0.93827000000E+00 0. -1.
     999902    2    1    2    0    0  0.60801549663E-02 -0.20984660704E-01  0.87097287016E-02  0.10204101436E+01  0.10201390482E+01 0.  0.
     999903    2    3    3    0    0 -0.30001776489E-01 -0.12774050418E+00 -0.13027845548E-01  0.13295803900E+00  0.17040316159E-01 0.  0.
         14    1    1    2    0    0 -0.60801549663E-02  0.20984660704E-01 -0.87097287016E-02  0.23519856363E-01  0.00000000000E+00 0.  1.
     999901    1    3    3    0    0  0.36081931455E-01  0.10675584347E+00  0.21737574250E-01  0.88745210464E+00  0.88000000000E+00 0.  1.
        -11    1    4    4    0    0 -0.17095461251E-01 -0.71715807951E-01  0.11711520101E-02  0.73736318212E-01  0.51100000000E-03 0.  1.
         11    1    4    4    0    0 -0.12906315237E-01 -0.56024696226E-01 -0.14198997558E-01  0.59221720786E-01  0.51100000000E-03 0. -1.
</event>
<event>
 8    1  0.1010879E+005  0.1043930E+01  0.7957747E-01            NaN
         13   -1    0    0    0    0  0.00000000000E+00  0.00000000000E+00  0.74505805969E-08  0.10566000000E+00  0.10566000000E+00 0. -1.
     999900   -1    0    0    0    0 -0.00000000000E+00 -0.00000000000E+00 -0.74505805969E-08  0.93827000000E+00  0.93827000000E+00 0.  1.
     999902    2    1    2    0    0  0.62179636408E-02 -0.19310448154E-01 -0.11808111241E-01  0.10204568670E+01  0.10201868601E+01 0.  0.
     999903    2    3    3    0    0 -0.66107111139E-01  0.10582955537E+00 -0.23683761587E-01  0.12858693931E+00  0.20090681069E-01 0.  0.
         14    1    1    2    0    0 -0.62179636408E-02  0.19310448154E-01  0.11808111241E-01  0.23473132957E-01  0.00000000000E+00 0. -1.
     999901    1    3    3    0    0  0.72325074780E-01 -0.12514000352E+00  0.11875650346E-01  0.89186992773E+00  0.88000000000E+00 0.  1.
        -11    1    4    4    0    0 -0.31654787082E-01  0.33252629121E-01 -0.57815949108E-02  0.46275812789E-01  0.51100000000E-03 0. -1.
         11    1    4    4    0    0 -0.34452324057E-01  0.72576926246E-01 -0.17902166676E-01  0.82311126520E-01  0.51100000000E-03 0.  1.
</event>
<event>
 8    1  0.1010879E+005  0.1043930E+01  0.7957747E-01            NaN
         13   -1    0    0    0    0  0.00000000000E+00  0.00000000000E+00  0.74505805969E-08  0.10566000000E+00  0.10566000000E+00 0. -1.
     999900   -1    0    0    0    0 -0.00000000000E+00 -0.00000000000E+00 -0.74505805969E-08  0.93827000000E+00  0.93827000000E+00 0. -1.
     999902    2    1    2    0    0 -0.15811009704E-01 -0.16340505298E-01 -0.73694641334E-03  0.10211804235E+01  0.10209269876E+01 0.  0.
     999903    2    3    3    0    0 -0.10236576894E+00 -0.77825976352E-01 -0.32970232093E-01  0.13421302037E+00  0.19760197048E-01 0.  0.
         14    1    1    2    0    0  0.15811009704E-01  0.16340505298E-01  0.73694641334E-03  0.22749576508E-01  0.00000000000E+00 0.  1.
     999901    1    3    3    0    0  0.86554759232E-01  0.61485471054E-01  0.32233285680E-01  0.88696740312E+00  0.88000000000E+00 0. -1.
        -11    1    4    4    0    0 -0.73194105794E-01 -0.62043192233E-01 -0.17195249924E-01  0.97481652460E-01  0.51100000000E-03 0.  1.
         11    1    4    4    0    0 -0.29171663143E-01 -0.15782784119E-01 -0.15774982169E-01  0.36731367910E-01  0.51100000000E-03 0. -1.
</event>
<event>
 8    1  0.1010879E+005  0.1043930E+01  0.7957747E-01            NaN
         13   -1    0    0    0    0  0.00000000000E+00  0.00000000000E+00  0.74505805969E-08  0.10566000000E+00  0.10566000000E+00 0.  1.
     999900   -1    0    0    0    0 -0.00000000000E+00 -0.00000000000E+00 -0.74505805969E-08  0.93827000000E+00  0.93827000000E+00 0.  1.
     999902    2    1    2    0    0 -0.18432393131E-01 -0.10757699359E-01  0.72043755701E-02  0.10214048088E+01  0.10211564029E+01 0.  0.
     999903    2    3    3    0    0 -0.22987440530E-01 -0.11490737460E+00  0.61224494620E-01  0.13360636512E+00  0.19237850689E-01 0.  0.
         14    1    1    2    0    0  0.18432393131E-01  0.10757699359E-01 -0.72043755701E-02  0.22525191218E-01  0.00000000000E+00 0. -1.
     999901    1    3    3    0    0  0.45550473990E-02  0.10414967524E+00 -0.54020119050E-01  0.88779844366E+00  0.88000000000E+00 0.  1.
        -11    1    4    4    0    0 -0.81062957050E-02 -0.15233117344E-01  0.14394193058E-01  0.22476961736E-01  0.51100000000E-03 0. -1.
         11    1    4    4    0    0 -0.14881144825E-01 -0.99674257256E-01  0.46830301562E-01  0.11112940338E+00  0.51100000000E-03 0.  1.
</event>
<event>
 8    1  0.1010879E+005  0.1043930E+01  0.7957747E-01            NaN
         13   -1    0    0    0    0  0.00000000000E+00  0.00000000000E+00  0.74505805969E-08  0.10566000000E+00  0.10566000000E+00 0. -1.
     999900   -1    0    0    0    0 -0.00000000000E+00 -0.00000000000E+00 -0.74505805969E-08  0.93827000000E+00  0.93827000000E+00 0. -1.
     999902    2    1    2    0    0  0.14047355235E-01 -0.18495779517E-01 -0.97421428391E-02  0.10187440635E+01  0.10184326858E+01 0.  0.
     999903    2    3    3    0    0 -0.11646914923E+00  0.45329348776E-01 -0.83444471238E-02  0.12683030172E+00  0.19911882267E-01 0.  0.
         14    1    1    2    0    0 -0.14047355235E-01  0.18495779517E-01  0.97421428391E-02  0.25185936475E-01  0.00000000000E+00 0.  1.
     999901    1    3    3    0    0  0.13051650446E+00 -0.63825128293E-01 -0.13976957153E-02  0.89191376180E+00  0.88000000000E+00 0. -1.
        -11    1    4    4    0    0 -0.75072126780E-01  0.39175648186E-01 -0.45280540201E-02  0.84801651071E-01  0.51100000000E-03 0. -1.
         11    1    4    4    0    0 -0.41397022446E-01  0.61537005904E-02 -0.38163931037E-02  0.42028650653E-01  0.51100000000E-03 0.  1.
</event>
<event>
 8    1  0.1021891E+005  0.1043930E+01  0.7957747E-01            NaN
         13   -1    0    0    0    0  0.00000000000E+00  0.00000000000E+00  0.74505805969E-08  0.10566000000E+00  0.10566000000E+00 0. -1.
     999900   -1    0    0    0    0 -0.00000000000E+00 -0.00000000000E+00 -0.74505805969E-08  0.93827000000E+00  0.93827000000E+00 0.  1.
     999902    2    1    2    0    0 -0.40703037674E-02 -0.83340854550E-02 -0.21183456301E-01  0.10208050530E+01  0.10205430873E+01 0.  0.
     999903    2    3    3    0    0 -0.11468778642E+00 -0.31329166216E-01 -0.56334997661E-01  0.13288578185E+00  0.18713472310E-01 0.  0.
         14    1    1    2    0    0  0.40703037674E-02  0.83340854550E-02  0.21183456301E-01  0.23124947005E-01  0.00000000000E+00 0. -1.
     999901    1    3    3    0    0  0.11061748266E+00  0.22995080761E-01  0.35151541360E-01  0.88791927114E+00  0.88000000000E+00 0. -1.
        -11    1    4    4    0    0 -0.53728517628E-01 -0.18401107681E-01 -0.17377665635E-01  0.59393591862E-01  0.51100000000E-03 0.  1.
         11    1    4    4    0    0 -0.60959268796E-01 -0.12928058535E-01 -0.38957332027E-01  0.73492189989E-01  0.51100000000E-03 0. -1.
</event>
<event>
 8    1  0.1010879E+005  0.1043930E+01  0.7957747E-01            NaN
         13   -1    0    0    0    0  0.00000000000E+00  0.00000000000E+00  0.74505805969E-08  0.10566000000E+00  0.10566000000E+00 0.  1.
     999900   -1    0    0    0    0 -0.00000000000E+00 -0.00000000000E+00 -0.74505805969E-08  0.93827000000E+00  0.93827000000E+00 0.  1.
     999902    2    1    2    0    0  0.10006938230E-01  0.75846378752E-02  0.20686502052E-01  0.10197308903E+01  0.10194437168E+01 0.  0.
     999903    2    3    3    0    0  0.83639681072E-01 -0.93563656558E-01  0.31158178713E-01  0.13082008806E+00  0.19832026115E-01 0.  0.
         14    1    1    2    0    0 -0.10006938230E-01 -0.75846378752E-02 -0.20686502052E-01  0.24199109727E-01  0.00000000000E+00 0. -1.
     999901    1    3    3    0    0 -0.73632742842E-01  0.10114829443E+00 -0.10471676661E-01  0.88891080222E+00  0.88000000000E+00 0.  1.
        -11    1    4    4    0    0  0.70009958872E-01 -0.71791903855E-01  0.31554699289E-01  0.10512579117E+00  0.51100000000E-03 0. -1.
         11    1    4    4    0    0  0.13629722201E-01 -0.21771752703E-01 -0.39652057575E-03  0.25694296889E-01  0.51100000000E-03 0.  1.
</event>
<event>
 8    1  0.1010879E+005  0.1043930E+01  0.7957747E-01            NaN
         13   -1    0    0    0    0  0.00000000000E+00  0.00000000000E+00  0.74505805969E-08  0.10566000000E+00  0.10566000000E+00 0. -1.
     999900   -1    0    0    0    0 -0.00000000000E+00 -0.00000000000E+00 -0.74505805969E-08  0.93827000000E+00  0.93827000000E+00 0.  1.
     999902    2    1    2    0    0  0.17370492156E-01  0.14034840607E-01  0.23341934188E-02  0.10214765101E+01  0.10212297007E+01 0.  0.
     999903    2    3    3    0    0  0.94580657463E-01  0.87703128505E-02 -0.90988982217E-01  0.13316443659E+00  0.20769042681E-01 0.  0.
         14    1    1    2    0    0 -0.17370492156E-01 -0.14034840607E-01 -0.23341934188E-02  0.22453489874E-01  0.00000000000E+00 0. -1.
     999901    1    3    3    0    0 -0.77210165306E-01  0.52645277567E-02  0.93323175635E-01  0.88831207354E+00  0.88000000000E+00 0. -1.
        -11    1    4    4    0    0  0.55456777645E-01  0.15345067724E-01 -0.54874693726E-01  0.79513636709E-01  0.51100000000E-03 0.  1.
         11    1    4    4    0    0  0.39123879818E-01 -0.65747548734E-02 -0.36114288490E-01  0.53650799880E-01  0.51100000000E-03 0. -1.
</event>
<event>
 8    1  0.1010879E+005  0.1043930E+01  0.7957747E-01            NaN
         13   -1    0    0    0    0  0.00000000000E+00  0.00000000000E+00  0.74505805969E-08  0.10566000000E+00  0.10566000000E+00 0.  1.
     999900   -1    0    0    0    0 -0.00000000000E+00 -0.00000000000E+00 -0.74505805969E-08  0.93827000000E+00  0.93827000000E+00 0. -1.
     999902    2    1    2    0    0  0.17786321789E-01 -0.12583599204E-01 -0.95656479420E-02  0.10201350041E+01  0.10198574531E+01 0.  0.
     999903    2    3    3    0    0  0.73806804557E-01 -0.27876433408E-01 -0.10518040080E+00  0.13305307647E+00  0.20387851958E-01 0.  0.
         14    1    1    2    0    0 -0.17786321789E-01  0.12583599204E-01  0.95656479420E-02  0.23794995950E-01  0.00000000000E+00 0.  1.
     999901    1    3    3    0    0 -0.56020482768E-01  0.15292834203E-01  0.95614752862E-01  0.88708192758E+00  0.88000000000E+00 0.  1.
        -11    1    4    4    0    0  0.39229996812E-01 -0.74915258780E-02 -0.40169576705E-01  0.56647785690E-01  0.51100000000E-03 0.  1.
         11    1    4    4    0    0  0.34576807745E-01 -0.20384907530E-01 -0.65010824099E-01  0.76405290784E-01  0.51100000000E-03 0. -1.
</event>
<event>
 8    1  0.1010879E+005  0.1043930E+01  0.7957747E-01            NaN
         13   -1    0    0    0    0  0.00000000000E+00  0.00000000000E+00  0.74505805969E-08  0.10566000000E+00  0.10566000000E+00 0. -1.
     999900   -1    0    0    0    0 -0.00000000000E+00 -0.00000000000E+00 -0.74505805969E-08  0.93827000000E+00  0.93827000000E+00 0.  1.
     999902    2    1    2    0    0 -0.41244609770E-02  0.17119364866E-02 -0.22025714855E-01  0.10214561481E+01  0.10212088858E+01 0.  0.
     999903    2    3    3    0    0 -0.97288964357E-01 -0.82642635297E-01  0.23576893929E-01  0.13135788587E+00  0.20101654135E-01 0.  0.
         14    1    1    2    0    0  0.41244609770E-02 -0.17119364866E-02  0.22025714855E-01  0.22473851912E-01  0.00000000000E+00 0. -1.
     999901    1    3    3    0    0  0.93164503380E-01  0.84354571784E-01 -0.45602608784E-01  0.89009826222E+00  0.88000000000E+00 0. -1.
        -11    1    4    4    0    0 -0.33535485407E-01 -0.26613842480E-01 -0.15393032117E-02  0.42843388853E-01  0.51100000000E-03 0. -1.
         11    1    4    4    0    0 -0.63753478951E-01 -0.56028792817E-01  0.25116197140E-01  0.88514497020E-01  0.51100000000E-03 0.  1.
</event>
<event>
 8    1  0.1010879E+005  0.1043930E+01  0.7957747E-01            NaN
         13   -1    0    0    0    0  0.00000000000E+00  0.00000000000E+00  0.74505805969E-08  0.10566000000E+00  0.10566000000E+00 0.  1.
     999900   -1    0    0    0    0 -0.00000000000E+00 -0.00000000000E+00 -0.74505805969E-08  0.93827000000E+00  0.93827000000E+00 0. -1.
     999902    2    1    2    0    0  0.14843364735E-01  0.44487115400E-02 -0.18327731981E-01  0.10199295360E+01  0.10196471136E+01 0.  0.
     999903    2    3    3    0    0  0.12185387075E+00  0.46387867202E-01  0.48985371553E-02  0.13215163546E+00  0.20972816851E-01 0.  0.
         14    1    1    2    0    0 -0.14843364735E-01 -0.44487115400E-02  0.18327731981E-01  0.24000463966E-01  0.00000000000E+00 0.  1.
     999901    1    3    3    0    0 -0.10701050602E+00 -0.41939155662E-01 -0.23226269137E-01  0.88777790058E+00  0.88000000000E+00 0. -1.
        -11    1    4    4    0    0  0.72995150752E-01  0.35687325717E-01  0.10027683778E-01  0.81869975041E-01  0.51100000000E-03 0.  1.
         11    1    4    4    0    0  0.48858720000E-01  0.10700541485E-01 -0.51291466226E-02  0.50281660416E-01  0.51100000000E-03 0. -1.
</event>
<event>
 8    1  0.1010879E+005  0.1043930E+01  0.7957747E-01            NaN
         13   -1    0    0    0    0  0.00000000000E+00  0.00000000000E+00  0.74505805969E-08  0.10566000000E+00  0.10566000000E+00 0.  1.
     999900   -1    0    0    0    0 -0.00000000000E+00 -0.00000000000E+00 -0.74505805969E-08  0.93827000000E+00  0.93827000000E+00 0.  1.
     999902    2    1    2    0    0 -0.78938992652E-02 -0.19656145891E-01 -0.11006967438E-01  0.10200588658E+01  0.10197795147E+01 0.  0.
     999903    2    3    3    0    0  0.11093427205E+00  0.57670920138E-01  0.19843279123E-01  0.12817807377E+00  0.20087685871E-01 0.  0.
         14    1    1    2    0    0  0.78938992652E-02  0.19656145891E-01  0.11006967438E-01  0.23871134223E-01  0.00000000000E+00 0.  1.
     999901    1    3    3    0    0 -0.11882817132E+00 -0.77327066029E-01 -0.30850246562E-01  0.89188079201E+00  0.88000000000E+00 0.  1.
        -11    1    4    4    0    0  0.58017454067E-01  0.30195035858E-01  0.22616874549E-03  0.65407013692E-01  0.51100000000E-03 0.  1.
         11    1    4    4    0    0  0.52916817985E-01  0.27475884280E-01  0.19617110378E-01  0.62771060077E-01  0.51100000000E-03 0. -1.
</event>
<event>
 8    1  0.1010879E+005  0.1043930E+01  0.7957747E-01            NaN
         13   -1    0    0    0    0  0.00000000000E+00  0.00000000000E+00  0.74505805969E-08  0.10566000000E+00  0.10566000000E+00 0.  1.
     999900   -1    0    0    0    0 -0.00000000000E+00 -0.00000000000E+00 -0.74505805969E-08  0.93827000000E+00  0.93827000000E+00 0. -1.
     999902    2    1    2    0    0 -0.20838956906E-01 -0.95330489405E-02 -0.67640313043E-02  0.10200366271E+01  0.10197567492E+01 0.  0.
     999903    2    3    3    0    0 -0.98837860395E-01  0.73941662392E-01  0.40396598495E-01  0.13139947882E+00  0.19941057620E-01 0.  0.
         14    1    1    2    0    0  0.20838956906E-01  0.95330489405E-02  0.67640313043E-02  0.23893372858E-01  0.00000000000E+00 0.  1.
     999901    1    3    3    0    0  0.77998903489E-01 -0.83474711333E-01 -0.47160629799E-01  0.88863714832E+00  0.88000000000E+00 0. -1.
        -11    1    4    4    0    0 -0.67992156500E-01  0.60860134000E-01  0.33359180587E-01  0.97159586797E-01  0.51100000000E-03 0. -1.
         11    1    4    4    0    0 -0.30845703895E-01  0.13081528392E-01  0.70374179075E-02  0.34239892022E-01  0.51100000000E-03 0.  1.
</event>
<event>
 8    1  0.1010879E+005  0.1043930E+01  0.7957747E-01            NaN
         13   -1    0    0    0    0  0.00000000000E+00  0.00000000000E+00  0.74505805969E-08  0.10566000000E+00  0.10566000000E+00 0. -1.
     999900   -1    0    0    0    0 -0.00000000000E+00 -0.00000000000E+00 -0.74505805969E-08  0.93827000000E+00  0.93827000000E+00 0. -1.
     999902    2    1    2    0    0 -0.58634324293E-03 -0.33346008404E-02 -0.23344668130E-01  0.10203410854E+01  0.10200683770E+01 0.  0.
     999903    2    3    3    0    0  0.97112209537E-01 -0.84473336224E-01 -0.11809326756E-01  0.13114956179E+00  0.22231094984E-01 0.  0.
         14    1    1    2    0    0  0.58634324293E-03  0.33346008404E-02  0.23344668130E-01  0.23588914584E-01  0.00000000000E+00 0. -1.
     999901    1    3    3    0    0 -0.97698552780E-01  0.81138735384E-01 -0.11535341374E-01  0.88919152363E+00  0.88000000000E+00 0. -1.
        -11    1    4    4    0    0  0.14500445949E-01 -0.92373427293E-02  0.55443084439E-02  0.18071854098E-01  0.51100000000E-03 0.  1.
         11    1    4    4    0    0  0.82611763588E-01 -0.75235993495E-01 -0.17353635200E-01  0.11307770769E+00  0.51100000000E-03 0. -1.
</event>
<event>
 8    1  0.1010879E+005  0.1043930E+01  0.7957747E-01            NaN
         13   -1    0    0    0    0  0.00000000000E+00  0.00000000000E+00  0.74505805969E-08  0.10566000000E+00  0.10566000000E+00 0.  1.
     999900   -1    0    0    0    0 -0.00000000000E+00 -0.00000000000E+00 -0.74505805969E-08  0.93827000000E+00  0.93827000000E+00 0.  1.
     999902    2    1    2    0    0  0.25047477228E-02  0.23973608716E-01  0.62337407517E-02  0.10190328676E+01  0.10187286774E+01 0.  0.
     999903    2    3    3    0    0  0.12677343032E+00 -0.11075701375E-01 -0.12174315641E-01  0.12942058347E+00  0.20181666639E-01 0.  0.
         14    1    1    2    0    0 -0.25047477228E-02 -0.23973608716E-01 -0.62337407517E-02  0.24897132361E-01  0.00000000000E+00 0. -1.
     999901    1    3    3    0    0 -0.12426868259E+00  0.35049310091E-01  0.18408056393E-01  0.88961228417E+00  0.88000000000E+00 0. -1.
        -11    1    4    4    0    0  0.32914382831E-01  0.54939214122E-02 -0.60028283871E-02  0.33909214667E-01  0.51100000000E-03 0. -1.
         11    1    4    4    0    0  0.93859047485E-01 -0.16569622787E-01 -0.61714872537E-02  0.95511368800E-01  0.51100000000E-03 0.  1.
</event>
<event>
 8    1  0.1010879E+005  0.1043930E+01  0.7957747E-01            NaN
         13   -1    0    0    0    0  0.00000000000E+00  0.00000000000E+00  0.74505805969E-08  0.10566000000E+00  0.10566000000E+00 0. -1.
     999900   -1    0    0    0    0 -0.00000000000E+00 -0.00000000000E+00 -0.74505805969E-08  0.93827000000E+00  0.93827000000E+00 0. -1.
     999902    2    1    2    0    0  0.13226045648E-01  0.20220264179E-01 -0.17238009665E-02  0.10197068942E+01  0.10194191440E+01 0.  0.
     999903    2    3    3    0    0  0.26178759114E-01 -0.12168563711E+00 -0.21603175963E-01  0.12802295511E+00  0.20747484535E-01 0.  0.
         14    1    1    2    0    0 -0.13226045648E-01 -0.20220264179E-01  0.17238009665E-02  0.24223105843E-01  0.00000000000E+00 0. -1.
     999901    1    3    3    0    0 -0.12952713466E-01  0.14190590129E+00  0.19879374996E-01  0.89168393905E+00  0.88000000000E+00 0.  1.
        -11    1    4    4    0    0  0.22973681520E-01 -0.57551685663E-01 -0.10903096215E-01  0.62921579711E-01  0.51100000000E-03 0. -1.
         11    1    4    4    0    0  0.32050775938E-02 -0.64133951450E-01 -0.10700079747E-01  0.65101375397E-01  0.51100000000E-03 0.  1.
</event>
<event>
 8    1  0.1010879E+005  0.1043930E+01  0.7957747E-01            NaN
         13   -1    0    0    0    0  0.00000000000E+00  0.00000000000E+00  0.74505805969E-08  0.10566000000E+00  0.10566000000E+00 0.  1.
     999900   -1    0    0    0    0 -0.00000000000E+00 -0.00000000000E+00 -0.74505805969E-08  0.93827000000E+00  0.93827000000E+00 0.  1.
     999902    2    1    2    0    0 -0.78527590131E-02 -0.19015380316E-01  0.11323516764E-01  0.10204465474E+01  0.10201763003E+01 0.  0.
     999903    2    3    3    0    0 -0.70916298915E-01  0.22769786679E-01  0.10721095487E+00  0.13201117497E+00  0.19625922564E-01 0.  0.
         14    1    1    2    0    0  0.78527590131E-02  0.19015380316E-01 -0.11323516764E-01  0.23483452569E-01  0.00000000000E+00 0. -1.
     999901    1    3    3    0    0  0.63063539902E-01 -0.41785166995E-01 -0.95887438107E-01  0.88843537246E+00  0.88000000000E+00 0.  1.
        -11    1    4    4    0    0 -0.65473175825E-01  0.14690553095E-01  0.90536807784E-01  0.11269305120E+00  0.51100000000E-03 0.  1.
         11    1    4    4    0    0 -0.54431230897E-02  0.80792335840E-02  0.16674147086E-01  0.19318123779E-01  0.51100000000E-03 0. -1.
</event>
<event>
 8    1  0.1010879E+005  0.1043930E+01  0.7957747E-01            NaN
         13   -1    0    0    0    0  0.00000000000E+00  0.00000000000E+00  0.74505805969E-08  0.10566000000E+00  0.10566000000E+00 0. -1.
     999900   -1    0    0    0    0 -0.00000000000E+00 -0.00000000000E+00 -0.74505805969E-08  0.93827000000E+00  0.93827000000E+00 0. -1.
     999902    2    1    2    0    0 -0.11070340475E-01  0.41217757247E-02 -0.95608515874E-02  0.10287329162E+01  0.10286206597E+01 0.  0.
     999903    2    3    3    0    0 -0.87206193356E-01 -0.86163368265E-01 -0.62773242033E-01  0.13925012612E+00  0.20520027288E-01 0.  0.
         14    1    1    2    0    0  0.11070340475E-01 -0.41217757247E-02  0.95608515874E-02  0.15197083814E-01  0.00000000000E+00 0. -1.
     999901    1    3    3    0    0  0.76135852881E-01  0.90285143989E-01  0.53212390446E-01  0.88948279006E+00  0.88000000000E+00 0. -1.
        -11    1    4    4    0    0 -0.20498744662E-01 -0.21379077674E-01 -0.25433165650E-01  0.39043188021E-01  0.51100000000E-03 0.  1.
         11    1    4    4    0    0 -0.66707448694E-01 -0.64784290591E-01 -0.37340076383E-01  0.10020693810E+00  0.51100000000E-03 0. -1.
</event>
<event>
 8    1  0.1010879E+005  0.1043930E+01  0.7957747E-01            NaN
         13   -1    0    0    0    0  0.00000000000E+00  0.00000000000E+00  0.74505805969E-08  0.10566000000E+00  0.10566000000E+00 0. -1.
     999900   -1    0    0    0    0 -0.00000000000E+00 -0.00000000000E+00 -0.74505805969E-08  0.93827000000E+00  0.93827000000E+00 0.  1.
     999902    2    1    2    0    0 -0.15127847415E-01  0.16379007989E-01  0.71044764823E-02  0.10205292039E+01  0.10202608778E+01 0.  0.
     999903    2    3    3    0    0  0.66924557407E-01  0.57301008915E-01  0.95375820699E-01  0.13137284114E+00  0.19999355205E-01 0.  0.
         14    1    1    2    0    0  0.15127847415E-01 -0.16379007989E-01 -0.71044764823E-02  0.23400796059E-01  0.00000000000E+00 0.  1.
     999901    1    3    3    0    0 -0.82052404822E-01 -0.40922000926E-01 -0.88271344217E-01  0.88915636280E+00  0.88000000000E+00 0.  1.
        -11    1    4    4    0    0  0.54806791899E-01  0.53140633403E-01  0.88308081045E-01  0.11673169945E+00  0.51100000000E-03 0. -1.
         11    1    4    4    0    0  0.12117765508E-01  0.41603755117E-02  0.70677396544E-02  0.14641141695E-01  0.51100000000E-03 0.  1.
</event>
<event>
 8    1  0.1010879E+005  0.1043930E+01  0.7957747E-01            NaN
         13   -1    0    0    0    0  0.00000000000E+00  0.00000000000E+00  0.74505805969E-08  0.10566000000E+00  0.10566000000E+00 0.  1.
     999900   -1    0    0    0    0 -0.00000000000E+00 -0.00000000000E+00 -0.74505805969E-08  0.93827000000E+00  0.93827000000E+00 0. -1.
     999902    2    1    2    0    0  0.18893003753E-01  0.77800030181E-02  0.86631817448E-02  0.10217371012E+01  0.10214960496E+01 0.  0.
     999903    2    3    3    0    0 -0.57861428920E-02  0.12824256618E+00  0.29277731528E-01  0.13294845984E+00  0.18397613418E-01 0.  0.
         14    1    1    2    0    0 -0.18893003753E-01 -0.77800030181E-02 -0.86631817448E-02  0.22192898768E-01  0.00000000000E+00 0. -1.
     999901    1    3    3    0    0  0.24679146645E-01 -0.12046256317E+00 -0.20614549783E-01  0.88878864139E+00  0.88000000000E+00 0.  1.
        -11    1    4    4    0    0  0.36491290519E-02  0.63132316388E-02  0.27459026492E-02  0.78085939145E-02  0.51100000000E-03 0. -1.
         11    1    4    4    0    0 -0.94352719440E-02  0.12192933455E+00  0.26531828879E-01  0.12513986593E+00  0.51100000000E-03 0.  1.
</event>
<event>
 8    1  0.1010879E+005  0.1043930E+01  0.7957747E-01            NaN
         13   -1    0    0    0    0  0.00000000000E+00  0.00000000000E+00  0.74505805969E-08  0.10566000000E+00  0.10566000000E+00 0.  1.
     999900   -1    0    0    0    0 -0.00000000000E+00 -0.00000000000E+00 -0.74505805969E-08  0.93827000000E+00  0.93827000000E+00 0. -1.
     999902    2    1    2    0    0 -0.10567254383E-01 -0.31574804446E-01  0.11529538694E-01  0.10086941461E+01  0.10080785261E+01 0.  0.
     999903    2    3    3    0    0 -0.10919339547E+00 -0.20783395166E-01  0.47412139776E-01  0.12239220468E+00  0.19411173055E-01 0.  0.
         14    1    1    2    0    0  0.10567254383E-01  0.31574804446E-01 -0.11529538694E-01  0.35235853949E-01  0.00000000000E+00 0.  1.
     999901    1    3    3    0    0  0.98626141086E-01 -0.10791409280E-01 -0.35882601082E-01  0.88630194137E+00  0.88000000000E+00 0. -1.
        -11    1    4    4    0    0 -0.41283678789E-01 -0.17359619752E-01  0.20615894618E-01  0.49304916227E-01  0.51100000000E-03 0.  1.
         11    1    4    4    0    0 -0.67909716680E-01 -0.34237754142E-02  0.26796245158E-01  0.73087288452E-01  0.51100000000E-03 0. -1.
</event>
<event>
 8    1  0.1010879E+005  0.1043930E+01  0.7957747E-01            NaN
         13   -1    0    0    0    0  0.00000000000E+00  0.00000000000E+00  0.74505805969E-08  0.10566000000E+00  0.10566000000E+00 0.  1.
     999900   -1    0    0    0    0 -0.00000000000E+00 -0.00000000000E+00 -0.74505805969E-08  0.93827000000E+00  0.93827000000E+00 0.  1.
     999902    2    1    2    0    0 -0.33542670678E-02  0.22532704610E-01 -0.85691985895E-02  0.10195906276E+01  0.10193000750E+01 0.  0.
     999903    2    3    3    0    0 -0.10105204980E+00  0.13088964087E-01  0.78057539934E-01  0.12990628312E+00  0.19995627113E-01 0.  0.
         14    1    1    2    0    0  0.33542670678E-02 -0.22532704610E-01  0.85691985895E-02  0.24339372405E-01  0.00000000000E+00 0. -1.
     999901    1    3    3    0    0  0.97697782727E-01  0.94437405236E-02 -0.86626738523E-01  0.88968434448E+00  0.88000000000E+00 0.  1.
        -11    1    4    4    0    0 -0.60125653866E-01  0.15391451416E-01  0.39114567839E-01  0.73363489337E-01  0.51100000000E-03 0.  1.
         11    1    4    4    0    0 -0.40926395929E-01 -0.23024873290E-02  0.38942972095E-01  0.56542793778E-01  0.51100000000E-03 0. -1.
</event>
<event>
 8    1  0.1010879E+005  0.1043930E+01  0.7957747E-01            NaN
         13   -1    0    0    0    0  0.00000000000E+00  0.00000000000E+00  0.74505805969E-08  0.10566000000E+00  0.10566000000E+00 0.  1.
     999900   -1    0    0    0    0 -0.00000000000E+00 -0.00000000000E+00 -0.74505805969E-08  0.93827000000E+00  0.93827000000E+00 0.  1.
     999902    2    1    2    0    0  0.24831026816E-01 -0.77613920025E-04  0.49429768060E-02  0.10186116482E+01  0.10182969464E+01 0.  0.
     999903    2    3    3    0    0 -0.80276894405E-01  0.20703529771E-01  0.94736993713E-01  0.12757713907E+00  0.20683629172E-01 0.  0.
         14    1    1    2    0    0 -0.24831026816E-01  0.77613920025E-04 -0.49429768060E-02  0.25318351770E-01  0.00000000000E+00 0.  1.
     999901    1    3    3    0    0  0.10510792122E+00 -0.20781143691E-01 -0.89794016907E-01  0.89103450916E+00  0.88000000000E+00 0.  1.
        -11    1    4    4    0    0 -0.11695636171E-01 -0.28738533313E-02  0.20593710372E-01  0.23862291724E-01  0.51100000000E-03 0.  1.
         11    1    4    4    0    0 -0.68581258234E-01  0.23577383102E-01  0.74143283341E-01  0.10371484735E+00  0.51100000000E-03 0. -1.
</event>
<event>
 8    1  0.1010879E+005  0.1043930E+01  0.7957747E-01            NaN
         13   -1    0    0    0    0  0.00000000000E+00  0.00000000000E+00  0.74505805969E-08  0.10566000000E+00  0.10566000000E+00 0.  1.
     999900   -1    0    0    0    0 -0.00000000000E+00 -0.00000000000E+00 -0.74505805969E-08  0.93827000000E+00  0.93827000000E+00 0. -1.
     999902    2    1    2    0    0 -0.33102424229E-02 -0.22845316925E-01  0.86939026422E-03  0.10208297392E+01  0.10205683389E+01 0.  0.
     999903    2    3    3    0    0  0.68181543740E-01 -0.86228737844E-01 -0.71620728368E-01  0.13269497980E+00  0.19857260489E-01 0.  0.
         14    1    1    2    0    0  0.33102424229E-02  0.22845316925E-01 -0.86939026422E-03  0.23100260815E-01  0.00000000000E+00 0.  1.
     999901    1    3    3    0    0 -0.71491786163E-01  0.63383420919E-01  0.72490118632E-01  0.88813475939E+00  0.88000000000E+00 0.  1.
        -11    1    4    4    0    0  0.60106890712E-01 -0.81862051497E-01 -0.60305422821E-01  0.11811536280E+00  0.51100000000E-03 0. -1.
         11    1    4    4    0    0  0.80746530284E-02 -0.43666863469E-02 -0.11315305547E-01  0.14579616997E-01  0.51100000000E-03 0.  1.
</event>
<event>
 8    1  0.1010879E+005  0.1043930E+01  0.7957747E-01            NaN
         13   -1    0    0    0    0  0.00000000000E+00  0.00000000000E+00  0.74505805969E-08  0.10566000000E+00  0.10566000000E+00 0. -1.
     999900   -1    0    0    0    0 -0.00000000000E+00 -0.00000000000E+00 -0.74505805969E-08  0.93827000000E+00  0.93827000000E+00 0.  1.
     999902    2    1    2    0    0 -0.21567352477E-01  0.89872309860E-02 -0.47245974311E-02  0.10200921554E+01  0.10198135921E+01 0.  0.
     999903    2    3    3    0    0  0.52082553481E-01  0.11733066908E+00  0.10231308902E-01  0.13026841536E+00  0.19649480259E-01 0.  0.
         14    1    1    2    0    0  0.21567352477E-01 -0.89872309860E-02  0.47245974311E-02  0.23837844587E-01  0.00000000000E+00 0. -1.
     999901    1    3    3    0    0 -0.73649905958E-01 -0.10834343810E+00 -0.14955906333E-01  0.88982374005E+00  0.88000000000E+00 0.  1.
        -11    1    4    4    0    0  0.41822477371E-01  0.72710304298E-01  0.31897983708E-02  0.83942503532E-01  0.51100000000E-03 0.  1.
         11    1    4    4    0    0  0.10260076110E-01  0.44620364784E-01  0.70415105311E-02  0.46325911829E-01  0.51100000000E-03 0. -1.
</event>
<event>
 8    1  0.1010879E+005  0.1043930E+01  0.7957747E-01            NaN
         13   -1    0    0    0    0  0.00000000000E+00  0.00000000000E+00  0.74505805969E-08  0.10566000000E+00  0.10566000000E+00 0. -1.
     999900   -1    0    0    0    0 -0.00000000000E+00 -0.00000000000E+00 -0.74505805969E-08  0.93827000000E+00  0.93827000000E+00 0.  1.
     999902    2    1    2    0    0  0.21955227320E-01 -0.29609597239E-02 -0.71181954050E-02  0.10206605351E+01  0.10203952469E+01 0.  0.
     999903    2    3    3    0    0  0.63393461112E-01 -0.10153023850E+00 -0.56138948554E-01  0.13283393936E+00  0.12890060440E-01 0.  0.
         14    1    1    2    0    0 -0.21955227320E-01  0.29609597239E-02  0.71181954050E-02  0.23269464862E-01  0.00000000000E+00 0. -1.
     999901    1    3    3    0    0 -0.41438233792E-01  0.98569278778E-01  0.49020753149E-01  0.88782659578E+00  0.88000000000E+00 0.  1.
        -11    1    4    4    0    0  0.24409789866E-01 -0.50780866655E-01 -0.24440249712E-01  0.61417596717E-01  0.51100000000E-03 0.  1.
         11    1    4    4    0    0  0.38983671245E-01 -0.50749371847E-01 -0.31698698843E-01  0.71416342639E-01  0.51100000000E-03 0. -1.
</event>
<event>
 8    1  0.1010879E+005  0.1043930E+01  0.7957747E-01            NaN
         13   -1    0    0    0    0  0.00000000000E+00  0.00000000000E+00  0.74505805969E-08  0.10566000000E+00  0.10566000000E+00 0.  1.
     999900   -1    0    0    0    0 -0.00000000000E+00 -0.00000000000E+00 -0.74505805969E-08  0.93827000000E+00  0.93827000000E+00 0.  1.
     999902    2    1    2    0    0 -0.13090790101E-01  0.37640979160E-02 -0.19325337859E-01  0.10202866944E+01  0.10200127121E+01 0.  0.
     999903    2    3    3    0    0  0.75161224803E-01 -0.55974666416E-01 -0.86496546973E-01  0.13131587963E+00  0.31302309973E-01 0.  0.
         14    1    1    2    0    0  0.13090790101E-01 -0.37640979160E-02  0.19325337859E-01  0.23643305648E-01  0.00000000000E+00 0.  1.
     999901    1    3    3    0    0 -0.88252014904E-01  0.59738764332E-01  0.67171209114E-01  0.88897081472E+00  0.88000000000E+00 0. -1.
        -11    1    4    4    0    0  0.24052115293E-01 -0.34973416873E-01 -0.28029371440E-01  0.50867975409E-01  0.51100000000E-03 0. -1.
         11    1    4    4    0    0  0.51109109511E-01 -0.21001249543E-01 -0.58467175533E-01  0.80447904219E-01  0.51100000000E-03 0.  1.
</event>
<event>
 8    1  0.1010879E+005  0.1043930E+01  0.7957747E-01            NaN
         13   -1    0    0    0    0  0.00000000000E+00  0.00000000000E+00  0.74505805969E-08  0.10566000000E+00  0.10566000000E+00 0. -1.
     999900   -1    0    0    0    0 -0.00000000000E+00 -0.00000000000E+00 -0.74505805969E-08  0.93827000000E+00  0.93827000000E+00 0.  1.
     999902    2    1    2    0    0 -0.11283368069E-01 -0.10366909400E-01  0.17841684035E-01  0.10204116477E+01  0.10201405873E+01 0.  0.
     999903    2    3    3    0    0  0.44071121991E-01 -0.10551561602E+00 -0.59414635036E-01  0.13019485682E+00  0.18568598944E-01 0.  0.
         14    1    1    2    0    0  0.11283368069E-01  0.10366909400E-01 -0.17841684035E-01  0.23518352296E-01  0.00000000000E+00 0.  1.
     999901    1    3    3    0    0 -0.55354490060E-01  0.95148706623E-01  0.77256319071E-01  0.89021679089E+00  0.88000000000E+00 0. -1.
        -11    1    4    4    0    0  0.27973569050E-01 -0.60192188924E-01 -0.44197467123E-01  0.79745202953E-01  0.51100000000E-03 0.  1.
         11    1    4    4    0    0  0.16097552941E-01 -0.45323427099E-01 -0.15217167913E-01  0.50449653863E-01  0.51100000000E-03 0. -1.
</event>
<event>
 8    1  0.1010879E+005  0.1043930E+01  0.7957747E-01            NaN
         13   -1    0    0    0    0  0.00000000000E+00  0.00000000000E+00  0.74505805969E-08  0.10566000000E+00  0.10566000000E+00 0. -1.
     999900   -1    0    0    0    0 -0.00000000000E+00 -0.00000000000E+00 -0.74505805969E-08  0.93827000000E+00  0.93827000000E+00 0.  1.
     999902    2    1    2    0    0 -0.33846973230E-02 -0.25585372280E-01  0.42537325890E-02  0.10177735153E+01  0.10174373527E+01 0.  0.
     999903    2    3    3    0    0  0.15766084311E-01 -0.11211974772E+00 -0.62804162308E-01  0.13078326066E+00  0.18452404263E-01 0.  0.
         14    1    1    2    0    0  0.33846973230E-02  0.25585372280E-01 -0.42537325890E-02  0.26156484695E-01  0.00000000000E+00 0. -1.
     999901    1    3    3    0    0 -0.19150781634E-01  0.86534375436E-01  0.67057894897E-01  0.88699025465E+00  0.88000000000E+00 0. -1.
        -11    1    4    4    0    0 -0.36158120975E-02 -0.14070662234E-01 -0.10844838813E-01  0.18136407657E-01  0.51100000000E-03 0. -1.
         11    1    4    4    0    0  0.19381896408E-01 -0.98049085482E-01 -0.51959323495E-01  0.11264685300E+00  0.51100000000E-03 0.  1.
</event>
<event>
 8    1  0.1010879E+005  0.1043930E+01  0.7957747E-01            NaN
         13   -1    0    0    0    0  0.00000000000E+00  0.00000000000E+00  0.74505805969E-08  0.10566000000E+00  0.10566000000E+00 0.  1.
     999900   -1    0    0    0    0 -0.00000000000E+00 -0.00000000000E+00 -0.74505805969E-08  0.93827000000E+00  0.93827000000E+00 0. -1.
     999902    2    1    2    0    0  0.20659449388E-01 -0.17725582560E-02 -0.12065114866E-01  0.10199399644E+01  0.10196577902E+01 0.  0.
     999903    2    3    3    0    0 -0.67554542864E-01 -0.80025713174E-01 -0.74085515412E-01  0.12991086668E+00  0.20504600898E-01 0.  0.
         14    1    1    2    0    0 -0.20659449388E-01  0.17725582560E-02  0.12065114866E-01  0.23990035609E-01  0.00000000000E+00 0.  1.
     999901    1    3    3    0    0  0.88213992252E-01  0.78253154918E-01  0.62020400545E-01  0.89002909771E+00  0.88000000000E+00 0. -1.
        -11    1    4    4    0    0 -0.19869348550E-01 -0.14679996989E-01 -0.25685395298E-01  0.35641183707E-01  0.51100000000E-03 0.  1.
         11    1    4    4    0    0 -0.47685194314E-01 -0.65345716184E-01 -0.48400120114E-01  0.94269682976E-01  0.51100000000E-03 0. -1.
</event>
<event>
 8    1  0.1010879E+005  0.1043930E+01  0.7957747E-01            NaN
         13   -1    0    0    0    0  0.00000000000E+00  0.00000000000E+00  0.74505805969E-08  0.10566000000E+00  0.10566000000E+00 0. -1.
     999900   -1    0    0    0    0 -0.00000000000E+00 -0.00000000000E+00 -0.74505805969E-08  0.93827000000E+00  0.93827000000E+00 0.  1.
     999902    2    1    2    0    0 -0.13244146765E-01  0.19316359408E-03  0.19628498265E-01  0.10202504164E+01  0.10199755828E+01 0.  0.
     999903    2    3    3    0    0  0.11133499898E+00 -0.89012625938E-04  0.64349503566E-01  0.13035153928E+00  0.21334836785E-01 0.  0.
         14    1    1    2    0    0  0.13244146765E-01 -0.19316359408E-03 -0.19628498265E-01  0.23679583608E-01  0.00000000000E+00 0.  1.
     999901    1    3    3    0    0 -0.12457914575E+00  0.28217622002E-03 -0.44721005301E-01  0.88989887712E+00  0.88000000000E+00 0.  1.
        -11    1    4    4    0    0  0.65663638870E-01 -0.10108111022E-01  0.34327060341E-01  0.74782989849E-01  0.51100000000E-03 0. -1.
         11    1    4    4    0    0  0.45671360112E-01  0.10019098396E-01  0.30022443226E-01  0.55568549426E-01  0.51100000000E-03 0.  1.
</event>
<event>
 8    1  0.1010879E+005  0.1043930E+01  0.7957747E-01            NaN
         13   -1    0    0    0    0  0.00000000000E+00  0.00000000000E+00  0.74505805969E-08  0.10566000000E+00  0.10566000000E+00 0. -1.
     999900   -1    0    0    0    0 -0.00000000000E+00 -0.00000000000E+00 -0.74505805969E-08  0.93827000000E+00  0.93827000000E+00 0.  1.
     999902    2    1    2    0    0  0.81481656513E-02  0.67457901107E-03  0.22245781109E-01  0.10202293157E+01  0.10199539863E+01 0.  0.
     999903    2    3    3    0    0 -0.48107585528E-01  0.93829193841E-01  0.76993838723E-01  0.13183759936E+00  0.18298743171E-01 0.  0.
         14    1    1    2    0    0 -0.81481656513E-02 -0.67457901107E-03 -0.22245781109E-01  0.23700684325E-01  0.00000000000E+00 0.  1.
     999901    1    3    3    0    0  0.56255751180E-01 -0.93154614829E-01 -0.54748057614E-01  0.88839171632E+00  0.88000000000E+00 0. -1.
        -11    1    4    4    0    0 -0.39894139305E-01  0.66283549366E-01  0.48213157385E-01  0.91158219232E-01  0.51100000000E-03 0. -1.
         11    1    4    4    0    0 -0.82134462236E-02  0.27545644474E-01  0.28780681338E-01  0.40679380129E-01  0.51100000000E-03 0.  1.
</event>
<event>
 8    1  0.1010879E+005  0.1043930E+01  0.7957747E-01            NaN
         13   -1    0    0    0    0  0.00000000000E+00  0.00000000000E+00  0.74505805969E-08  0.10566000000E+00  0.10566000000E+00 0. -1.
     999900   -1    0    0    0    0 -0.00000000000E+00 -0.00000000000E+00 -0.74505805969E-08  0.93827000000E+00  0.93827000000E+00 0. -1.
     999902    2    1    2    0    0  0.18111855200E-01 -0.14008493488E-01 -0.28101952686E-02  0.10208610948E+01  0.10206004118E+01 0.  0.
     999903    2    3    3    0    0 -0.77766635620E-01  0.36806212789E-01 -0.94567178730E-01  0.12946098074E+00  0.20367801193E-01 0.  0.
         14    1    1    2    0    0 -0.18111855200E-01  0.14008493488E-01  0.28101952686E-02  0.23068905177E-01  0.00000000000E+00 0. -1.
     999901    1    3    3    0    0  0.95878490820E-01 -0.50814706277E-01  0.91756983461E-01  0.89140011408E+00  0.88000000000E+00 0.  1.
        -11    1    4    4    0    0 -0.47037649118E-01  0.30670126580E-01 -0.51480320931E-01  0.76181898527E-01  0.51100000000E-03 0. -1.
         11    1    4    4    0    0 -0.30728986502E-01  0.61360862091E-02 -0.43086857799E-01  0.53279082212E-01  0.51100000000E-03 0.  1.
</event>
<event>
 8    1  0.1010879E+005  0.1043930E+01  0.7957747E-01            NaN
         13   -1    0    0    0    0  0.00000000000E+00  0.00000000000E+00  0.74505805969E-08  0.10566000000E+00  0.10566000000E+00 0.  1.
     999900   -1    0    0    0    0 -0.00000000000E+00 -0.00000000000E+00 -0.74505805969E-08  0.93827000000E+00  0.93827000000E+00 0. -1.
     999902    2    1    2    0    0  0.10471944570E-01  0.20747386483E-01  0.23461148862E-02  0.10205714914E+01  0.10203041454E+01 0.  0.
     999903    2    3    3    0    0  0.13029239833E+00 -0.52459590628E-02 -0.64359379672E-02  0.13202789674E+00  0.19654899464E-01 0.  0.
         14    1    1    2    0    0 -0.10471944570E-01 -0.20747386483E-01 -0.23461148862E-02  0.23358508600E-01  0.00000000000E+00 0. -1.
     999901    1    3    3    0    0 -0.11982045376E+00  0.25993345546E-01  0.87820528533E-02  0.88854359466E+00  0.88000000000E+00 0. -1.
        -11    1    4    4    0    0  0.12030196872E+00 -0.10143010620E-01 -0.61494541518E-02  0.12088639812E+00  0.51100000000E-03 0. -1.
         11    1    4    4    0    0  0.99904296045E-02  0.48970515567E-02 -0.28648381538E-03  0.11141498625E-01  0.51100000000E-03 0.  1.
</event>
<event>
 8    1  0.1010879E+005  0.1043930E+01  0.7957747E-01            NaN
         13   -1    0    0    0    0  0.00000000000E+00  0.00000000000E+00  0.74505805969E-08  0.10566000000E+00  0.10566000000E+00 0.  1.
     999900   -1    0    0    0    0 -0.00000000000E+00 -0.00000000000E+00 -0.74505805969E-08  0.93827000000E+00  0.93827000000E+00 0. -1.
     999902    2    1    2    0    0 -0.48888663764E-02  0.18514754561E-01 -0.15154710784E-01  0.10195094675E+01  0.10192169503E+01 0.  0.
     999903    2    3    3    0    0  0.34414490692E-01  0.49805451522E-01 -0.11629635151E+00  0.13229275600E+00  0.17651961531E-01 0.  0.
         14    1    1    2    0    0  0.48888663764E-02 -0.18514754561E-01  0.15154710784E-01  0.24420532547E-01  0.00000000000E+00 0.  1.
     999901    1    3    3    0    0 -0.39303357068E-01 -0.31290696961E-01  0.10114164072E+00  0.88721671145E+00  0.88000000000E+00 0.  1.
        -11    1    4    4    0    0  0.26897063700E-01  0.44029313030E-01 -0.10796750509E+00  0.11966317612E+00  0.51100000000E-03 0.  1.
         11    1    4    4    0    0  0.75174269915E-02  0.57761384929E-02 -0.83288464119E-02  0.12629579883E-01  0.51100000000E-03 0. -1.
</event>
<event>
 8    1  0.1010879E+005  0.1043930E+01  0.7957747E-01            NaN
         13   -1    0    0    0    0  0.00000000000E+00  0.00000000000E+00  0.74505805969E-08  0.10566000000E+00  0.10566000000E+00 0.  1.
     999900   -1    0    0    0    0 -0.00000000000E+00 -0.00000000000E+00 -0.74505805969E-08  0.93827000000E+00  0.93827000000E+00 0. -1.
     999902    2    1    2    0    0  0.15062708799E-01  0.28385745812E-02  0.18760686817E-01  0.10197038556E+01  0.10194160324E+01 0.  0.
     999903    2    3    3    0    0 -0.14543426796E-01  0.69877022602E-01  0.10930483472E+00  0.13202772126E+00  0.19734810300E-01 0.  0.
         14    1    1    2    0    0 -0.15062708799E-01 -0.28385745812E-02 -0.18760686817E-01  0.24226144387E-01  0.00000000000E+00 0. -1.
     999901    1    3    3    0    0  0.29606135595E-01 -0.67038448021E-01 -0.90544147903E-01  0.88767613435E+00  0.88000000000E+00 0. -1.
        -11    1    4    4    0    0 -0.16739719512E-01  0.54585980958E-01  0.73835514536E-01  0.93336980100E-01  0.51100000000E-03 0.  1.
         11    1    4    4    0    0  0.21962927158E-02  0.15291041644E-01  0.35469320184E-01  0.38690741161E-01  0.51100000000E-03 0. -1.
</event>
<event>
 8    1  0.1010879E+005  0.1043930E+01  0.7957747E-01            NaN
         13   -1    0    0    0    0  0.00000000000E+00  0.00000000000E+00  0.74505805969E-08  0.10566000000E+00  0.10566000000E+00 0. -1.
     999900   -1    0    0    0    0 -0.00000000000E+00 -0.00000000000E+00 -0.74505805969E-08  0.93827000000E+00  0.93827000000E+00 0.  1.
     999902    2    1    2    0    0  0.11357183953E-01 -0.89568079859E-02  0.13401868623E-01  0.10242114778E+01  0.10240216458E+01 0.  0.
     999903    2    3    3    0    0  0.44584508436E-01 -0.84103654067E-01  0.95810894264E-01  0.13655030869E+00  0.20126011140E-01 0.  0.
         14    1    1    2    0    0 -0.11357183953E-01  0.89568079859E-02 -0.13401868623E-01  0.19718522237E-01  0.00000000000E+00 0.  1.
     999901    1    3    3    0    0 -0.33227324483E-01  0.75146846081E-01 -0.82409025641E-01  0.88766116907E+00  0.88000000000E+00 0.  1.
        -11    1    4    4    0    0  0.17892036709E-01 -0.38558475699E-01  0.56611079477E-01  0.70795172621E-01  0.51100000000E-03 0. -1.
         11    1    4    4    0    0  0.26692471727E-01 -0.45545178368E-01  0.39199814787E-01  0.65755136072E-01  0.51100000000E-03 0.  1.
</event>
<event>
 8    1  0.1010879E+005  0.1043930E+01  0.7957747E-01            NaN
         13   -1    0    0    0    0  0.00000000000E+00  0.00000000000E+00  0.74505805969E-08  0.10566000000E+00  0.10566000000E+00 0.  1.
     999900   -1    0    0    0    0 -0.00000000000E+00 -0.00000000000E+00 -0.74505805969E-08  0.93827000000E+00  0.93827000000E+00 0. -1.
     999902    2    1    2    0    0  0.18638793946E-01  0.71662817884E-04  0.14205296306E-01  0.10204949788E+01  0.10202258581E+01 0.  0.
     999903    2    3    3    0    0 -0.52426279242E-01 -0.85610341907E-01 -0.78270118390E-01  0.12867473185E+00  0.18797068556E-01 0.  0.
         14    1    1    2    0    0 -0.18638793946E-01 -0.71662817884E-04 -0.14205296306E-01  0.23435021196E-01  0.00000000000E+00 0. -1.
     999901    1    3    3    0    0  0.71065073187E-01  0.85682004725E-01  0.92475414696E-01  0.89182024696E+00  0.88000000000E+00 0.  1.
        -11    1    4    4    0    0 -0.21975472354E-01 -0.50477818169E-01 -0.49223390104E-01  0.73852114164E-01  0.51100000000E-03 0.  1.
         11    1    4    4    0    0 -0.30450806887E-01 -0.35132523739E-01 -0.29046728286E-01  0.54822617682E-01  0.51100000000E-03 0. -1.
</event>
<event>
 8    1  0.1010879E+005  0.1043930E+01  0.7957747E-01            NaN
         13   -1    0    0    0    0  0.00000000000E+00  0.00000000000E+00  0.74505805969E-08  0.10566000000E+00  0.10566000000E+00 0. -1.
     999900   -1    0    0    0    0 -0.00000000000E+00 -0.00000000000E+00 -0.74505805969E-08  0.93827000000E+00  0.93827000000E+00 0.  1.
     999902    2    1    2    0    0 -0.12504224493E-01 -0.17343288206E-01  0.12243242242E-01  0.10192917725E+01  0.10189939525E+01 0.  0.
     999903    2    3    3    0    0  0.33526871237E-01 -0.10634818466E+00  0.69170026801E-01  0.13177760797E+00  0.12118493238E-01 0.  0.
         14    1    1    2    0    0  0.12504224493E-01  0.17343288206E-01 -0.12243242242E-01  0.24638227545E-01  0.00000000000E+00 0.  1.
     999901    1    3    3    0    0 -0.46031095730E-01  0.89004896454E-01 -0.56926784559E-01  0.88751416449E+00  0.88000000000E+00 0.  1.
        -11    1    4    4    0    0  0.78906431974E-02 -0.36598198535E-01  0.17955032179E-01  0.41525109122E-01  0.51100000000E-03 0.  1.
         11    1    4    4    0    0  0.25636228040E-01 -0.69749986125E-01  0.51214994622E-01  0.90252498844E-01  0.51100000000E-03 0. -1.
</event>
<event>
 8    1  0.1010879E+005  0.1043930E+01  0.7957747E-01            NaN
         13   -1    0    0    0    0  0.00000000000E+00  0.00000000000E+00  0.74505805969E-08  0.10566000000E+00  0.10566000000E+00 0.  1.
     999900   -1    0    0    0    0 -0.00000000000E+00 -0.00000000000E+00 -0.74505805969E-08  0.93827000000E+00  0.93827000000E+00 0.  1.
     999902    2    1    2    0    0 -0.23670226074E-01  0.46099736402E-02 -0.21936253260E-02  0.10197154702E+01  0.10194279262E+01 0.  0.
     999903    2    3    3    0    0 -0.10747565597E+00 -0.53513403850E-01  0.51556288755E-01  0.13219604490E+00  0.20075914943E-01 0.  0.
         14    1    1    2    0    0  0.23670226074E-01 -0.46099736402E-02  0.21936253260E-02  0.24214529759E-01  0.00000000000E+00 0.  1.
     999901    1    3    3    0    0  0.83805429891E-01  0.58123377490E-01 -0.53749914081E-01  0.88751942534E+00  0.88000000000E+00 0. -1.
        -11    1    4    4    0    0 -0.82404100417E-01 -0.42166454582E-01  0.30236750228E-01  0.97380531129E-01  0.51100000000E-03 0.  1.
         11    1    4    4    0    0 -0.25071555548E-01 -0.11346949268E-01  0.21319538527E-01  0.34815513774E-01  0.51100000000E-03 0. -1.
</event>
<event>
 8    1  0.1066619E+005  0.1043930E+01  0.7957747E-01            NaN
         13   -1    0    0    0    0  0.00000000000E+00  0.00000000000E+00  0.74505805969E-08  0.10566000000E+00  0.10566000000E+00 0.  1.
     999900   -1    0    0    0    0 -0.00000000000E+00 -0.00000000000E+00 -0.74505805969E-08  0.93827000000E+00  0.93827000000E+00 0.  1.
     999902    2    1    2    0    0  0.38809443247E-02  0.16317443826E-01 -0.16218304524E-01  0.10205986026E+01  0.10203318840E+01 0.  0.
     999903    2    3    3    0    0  0.66026012817E-03  0.33980764274E-01 -0.12751739128E+00  0.13340648566E+00  0.19531437518E-01 0.  0.
         14    1    1    2    0    0 -0.38809443247E-02 -0.16317443826E-01  0.16218304524E-01  0.23331397375E-01  0.00000000000E+00 0.  1.
     999901    1    3    3    0    0  0.32206841965E-02 -0.17663320448E-01  0.11129908676E+00  0.88719211697E+00  0.88000000000E+00 0. -1.
        -11    1    4    4    0    0  0.94082297541E-02  0.12804379473E-01 -0.61618418746E-01  0.63636134158E-01  0.51100000000E-03 0. -1.
         11    1    4    4    0    0 -0.87479696259E-02  0.21176384801E-01 -0.65898972538E-01  0.69770351499E-01  0.51100000000E-03 0.  1.
</event>
<event>
 8    1  0.1010879E+005  0.1043930E+01  0.7957747E-01            NaN
         13   -1    0    0    0    0  0.00000000000E+00  0.00000000000E+00  0.74505805969E-08  0.10566000000E+00  0.10566000000E+00 0. -1.
     999900   -1    0    0    0    0 -0.00000000000E+00 -0.00000000000E+00 -0.74505805969E-08  0.93827000000E+00  0.93827000000E+00 0. -1.
     999902    2    1    2    0    0  0.21886973136E-02 -0.99916456641E-02  0.20857831722E-01  0.10206991472E+01  0.10204347488E+01 0.  0.
     999903    2    3    3    0    0 -0.10483617600E+00  0.58432984508E-01  0.48878802906E-01  0.13113665451E+00  0.20066073503E-01 0.  0.
         14    1    1    2    0    0 -0.21886973136E-02  0.99916456641E-02 -0.20857831722E-01  0.23230852829E-01  0.00000000000E+00 0.  1.
     999901    1    3    3    0    0  0.10702487331E+00 -0.68424630172E-01 -0.28020971184E-01  0.88956249266E+00  0.88000000000E+00 0.  1.
        -11    1    4    4    0    0 -0.97329331102E-01  0.47448046458E-01  0.41903841174E-01  0.11610559346E+00  0.51100000000E-03 0. -1.
         11    1    4    4    0    0 -0.75068448983E-02  0.10984938050E-01  0.69749617320E-02  0.15031061055E-01  0.51100000000E-03 0.  1.
</event>
<event>
 8    1  0.1010879E+005  0.1043930E+01  0.7957747E-01            NaN
         13   -1    0    0    0    0  0.00000000000E+00  0.00000000000E+00  0.74505805969E-08  0.10566000000E+00  0.10566000000E+00 0.  1.
     999900   -1    0    0    0    0 -0.00000000000E+00 -0.00000000000E+00 -0.74505805969E-08  0.93827000000E+00  0.93827000000E+00 0.  1.
     999902    2    1    2    0    0  0.16473023959E-01  0.73294695567E-02  0.14989634147E-01  0.10204828088E+01  0.10202134053E+01 0.  0.
     999903    2    3    3    0    0  0.72198881923E-01  0.10944196514E+00  0.49822077795E-02  0.13277087267E+00  0.20323876369E-01 0.  0.
         14    1    1    2    0    0 -0.16473023959E-01 -0.73294695567E-02 -0.14989634147E-01  0.23447191179E-01  0.00000000000E+00 0.  1.
     999901    1    3    3    0    0 -0.55725857965E-01 -0.10211249558E+00  0.10007426367E-01  0.88771193615E+00  0.88000000000E+00 0. -1.
        -11    1    4    4    0    0  0.58428334234E-01  0.10048097680E+00  0.47455649743E-02  0.11633176027E+00  0.51100000000E-03 0. -1.
         11    1    4    4    0    0  0.13770547689E-01  0.89609883451E-02  0.23664280518E-03  0.16439112403E-01  0.51100000000E-03 0.  1.
</event>
<event>
 8    1  0.1010879E+005  0.1043930E+01  0.7957747E-01            NaN
         13   -1    0    0    0    0  0.00000000000E+00  0.00000000000E+00  0.74505805969E-08  0.10566000000E+00  0.10566000000E+00 0. -1.
     999900   -1    0    0    0    0 -0.00000000000E+00 -0.00000000000E+00 -0.74505805969E-08  0.93827000000E+00  0.93827000000E+00 0.  1.
     999902    2    1    2    0    0  0.14080109203E-01 -0.74308800394E-02 -0.22953580535E-01  0.10159955354E+01  0.10156114383E+01 0.  0.
     999903    2    3    3    0    0 -0.85184419936E-02 -0.10297594619E+00 -0.74319129714E-01  0.12904684814E+00  0.21287240948E-01 0.  0.
         14    1    1    2    0    0 -0.14080109203E-01  0.74308800394E-02  0.22953580535E-01  0.27934464604E-01  0.00000000000E+00 0. -1.
     999901    1    3    3    0    0  0.22598551196E-01  0.95545066146E-01  0.51365549179E-01  0.88694868726E+00  0.88000000000E+00 0. -1.
        -11    1    4    4    0    0  0.58951376753E-02 -0.53222285465E-01 -0.34387121753E-01  0.63640392690E-01  0.51100000000E-03 0.  1.
         11    1    4    4    0    0 -0.14413579669E-01 -0.49753660720E-01 -0.39932007961E-01  0.65406455451E-01  0.51100000000E-03 0. -1.
</event>
<event>
 8    1  0.1010879E+005  0.1043930E+01  0.7957747E-01            NaN
         13   -1    0    0    0    0  0.00000000000E+00  0.00000000000E+00  0.74505805969E-08  0.10566000000E+00  0.10566000000E+00 0.  1.
     999900   -1    0    0    0    0 -0.00000000000E+00 -0.00000000000E+00 -0.74505805969E-08  0.93827000000E+00  0.93827000000E+00 0. -1.
     999902    2    1    2    0    0 -0.18545651971E-01 -0.11625130242E-02 -0.13979501409E-01  0.10206766324E+01  0.10204117154E+01 0.  0.
     999903    2    3    3    0    0 -0.16349387915E-01  0.96359267533E-01 -0.86889454164E-01  0.13228978963E+00  0.19959966687E-01 0.  0.
         14    1    1    2    0    0  0.18545651971E-01  0.11625130242E-02  0.13979501409E-01  0.23253367567E-01  0.00000000000E+00 0.  1.
     999901    1    3    3    0    0 -0.21962640563E-02 -0.97521780557E-01  0.72909952755E-01  0.88838684281E+00  0.88000000000E+00 0.  1.
        -11    1    4    4    0    0 -0.17946086475E-01  0.68627554879E-01 -0.70610199374E-01  0.10008928357E+00  0.51100000000E-03 0. -1.
         11    1    4    4    0    0  0.15966985607E-02  0.27731712654E-01 -0.16279254791E-01  0.32200506061E-01  0.51100000000E-03 0.  1.
</event>
<event>
 8    1  0.1010879E+005  0.1043930E+01  0.7957747E-01            NaN
         13   -1    0    0    0    0  0.00000000000E+00  0.00000000000E+00  0.74505805969E-08  0.10566000000E+00  0.10566000000E+00 0. -1.
     999900   -1    0    0    0    0 -0.00000000000E+00 -0.00000000000E+00 -0.74505805969E-08  0.93827000000E+00  0.93827000000E+00 0.  1.
     999902    2    1    2    0    0  0.97649936234E-02 -0.20381046727E-01 -0.42298037528E-02  0.10209379708E+01  0.10206790420E+01 0.  0.
     999903    2    3    3    0    0  0.40271326576E-01  0.20553597756E-01 -0.12232504726E+00  0.13158271671E+00  0.17503257541E-01 0.  0.
         14    1    1    2    0    0 -0.97649936234E-02  0.20381046727E-01  0.42298037528E-02  0.22992029183E-01  0.00000000000E+00 0. -1.
     999901    1    3    3    0    0 -0.30506332953E-01 -0.40934644483E-01  0.11809524351E+00  0.88935525411E+00  0.88000000000E+00 0. -1.
        -11    1    4    4    0    0  0.15541507390E-01  0.27752245469E-02 -0.24727710866E-01  0.29342139133E-01  0.51100000000E-03 0.  1.
         11    1    4    4    0    0  0.24729819186E-01  0.17778373209E-01 -0.97597336394E-01  0.10224057758E+00  0.51100000000E-03 0. -1.
</event>
<event>
 8    1  0.1010879E+005  0.1043930E+01  0.7957747E-01            NaN
         13   -1    0    0    0    0  0.00000000000E+00  0.00000000000E+00  0.74505805969E-08  0.10566000000E+00  0.10566000000E+00 0.  1.
     999900   -1    0    0    0    0 -0.00000000000E+00 -0.00000000000E+00 -0.74505805969E-08  0.93827000000E+00  0.93827000000E+00 0. -1.
     999902    2    1    2    0    0 -0.12720039357E-01  0.64057446329E-02 -0.18971788144E-01  0.10202074008E+01  0.10199315560E+01 0.  0.
     999903    2    3    3    0    0  0.18805429494E-01  0.66636382793E-01  0.10660289600E+00  0.12869711696E+00  0.20117623867E-01 0.  0.
         14    1    1    2    0    0  0.12720039357E-01 -0.64057446329E-02  0.18971788144E-01  0.23722599160E-01  0.00000000000E+00 0.  1.
     999901    1    3    3    0    0 -0.31525468851E-01 -0.60230638160E-01 -0.12557468414E+00  0.89151028388E+00  0.88000000000E+00 0. -1.
        -11    1    4    4    0    0  0.16131327209E-01  0.25374563054E-01  0.53740858713E-01  0.61582701986E-01  0.51100000000E-03 0.  1.
         11    1    4    4    0    0  0.26741022857E-02  0.41261819739E-01  0.52862037282E-01  0.67114414978E-01  0.51100000000E-03 0. -1.
</event>
<event>
 8    1  0.1048513E+005  0.1043930E+01  0.7957747E-01            NaN
         13   -1    0    0    0    0  0.00000000000E+00  0.00000000000E+00  0.74505805969E-08  0.10566000000E+00  0.10566000000E+00 0.  1.
     999900   -1    0    0    0    0 -0.00000000000E+00 -0.00000000000E+00 -0.74505805969E-08  0.93827000000E+00  0.93827000000E+00 0. -1.
     999902    2    1    2    0    0 -0.10585437262E-01 -0.10312026550E-01 -0.21409417026E-01  0.10179155327E+01  0.10175830576E+01 0.  0.
     999903    2    3    3    0    0 -0.45259409764E-01 -0.61295892913E-01 -0.10559641006E+00  0.13175014810E+00  0.20047419927E-01 0.  0.
         14    1    1    2    0    0  0.10585437262E-01  0.10312026550E-01  0.21409417026E-01  0.26014467340E-01  0.00000000000E+00 0.  1.
     999901    1    3    3    0    0  0.34673972502E-01  0.50983866363E-01  0.84186993036E-01  0.88616538456E+00  0.88000000000E+00 0.  1.
        -11    1    4    4    0    0 -0.18582811972E-01 -0.15222201097E-01 -0.45552820725E-01  0.51501037893E-01  0.51100000000E-03 0. -1.
         11    1    4    4    0    0 -0.26676597792E-01 -0.46073691816E-01 -0.60043589337E-01  0.80249110206E-01  0.51100000000E-03 0.  1.
</event>
<event>
 8    1  0.1010879E+005  0.1043930E+01  0.7957747E-01            NaN
         13   -1    0    0    0    0  0.00000000000E+00  0.00000000000E+00  0.74505805969E-08  0.10566000000E+00  0.10566000000E+00 0.  1.
     999900   -1    0    0    0    0 -0.00000000000E+00 -0.00000000000E+00 -0.74505805969E-08  0.93827000000E+00  0.93827000000E+00 0.  1.
     999902    2    1    2    0    0  0.24385923852E-02  0.31182088396E-02  0.22731813154E-01  0.10208560907E+01  0.10205952933E+01 0.  0.
     999903    2    3    3    0    0 -0.12131705865E+00  0.41782595702E-01 -0.14036668102E-01  0.13059639987E+00  0.19869010694E-01 0.  0.
         14    1    1    2    0    0 -0.24385923852E-02 -0.31182088396E-02 -0.22731813154E-01  0.23073909259E-01  0.00000000000E+00 0. -1.
     999901    1    3    3    0    0  0.12375565103E+00 -0.38664386862E-01  0.36768481256E-01  0.89025969087E+00  0.88000000000E+00 0. -1.
        -11    1    4    4    0    0 -0.12102676609E-01  0.43120189083E-02 -0.76358813570E-02  0.14954467335E-01  0.51100000000E-03 0. -1.
         11    1    4    4    0    0 -0.10921438204E+00  0.37470576794E-01 -0.64007867449E-02  0.11564193254E+00  0.51100000000E-03 0.  1.
</event>
<event>
 8    1  0.1010879E+005  0.1043930E+01  0.7957747E-01            NaN
         13   -1    0    0    0    0  0.00000000000E+00  0.00000000000E+00  0.74505805969E-08  0.10566000000E+00  0.10566000000E+00 0.  1.
     999900   -1    0    0    0    0 -0.00000000000E+00 -0.00000000000E+00 -0.74505805969E-08  0.93827000000E+00  0.93827000000E+00 0. -1.
     999902    2    1    2    0    0 -0.16471531413E-01 -0.16804527054E-01 -0.20387484746E-02  0.10203109405E+01  0.10200375264E+01 0.  0.
     999903    2    3    3    0    0  0.12637215627E-02 -0.10592701072E+00  0.76443137858E-01  0.13215737113E+00  0.19997220481E-01 0.  0.
         14    1    1    2    0    0  0.16471531413E-01  0.16804527054E-01  0.20387484746E-02  0.23619059506E-01  0.00000000000E+00 0. -1.
     999901    1    3    3    0    0 -0.17735252975E-01  0.89122483661E-01 -0.78481886333E-01  0.88815356936E+00  0.88000000000E+00 0. -1.
        -11    1    4    4    0    0 -0.41770344690E-03 -0.34410590373E-01  0.36731807444E-01  0.50336368612E-01  0.51100000000E-03 0.  1.
         11    1    4    4    0    0  0.16814250096E-02 -0.71516420342E-01  0.39711330415E-01  0.81821002517E-01  0.51100000000E-03 0. -1.
</event>
<event>
 8    1  0.1010879E+005  0.1043930E+01  0.7957747E-01            NaN
         13   -1    0    0    0    0  0.00000000000E+00  0.00000000000E+00  0.74505805969E-08  0.10566000000E+00  0.10566000000E+00 0.  1.
     999900   -1    0    0    0    0 -0.00000000000E+00 -0.00000000000E+00 -0.74505805969E-08  0.93827000000E+00  0.93827000000E+00 0. -1.
     999902    2    1    2    0    0 -0.31662531978E-02 -0.14253051653E-01  0.18848473313E-01  0.10200880289E+01  0.10198093680E+01 0.  0.
     999903    2    3    3    0    0  0.83445093838E-01 -0.99402081488E-01 -0.58099039553E-02  0.13140365392E+00  0.19730884189E-01 0.  0.
         14    1    1    2    0    0  0.31662531978E-02  0.14253051653E-01 -0.18848473313E-01  0.23841971122E-01  0.00000000000E+00 0.  1.
     999901    1    3    3    0    0 -0.86611347036E-01  0.85149029835E-01  0.24658377268E-01  0.88868437495E+00  0.88000000000E+00 0.  1.
        -11    1    4    4    0    0  0.50332718895E-01 -0.55757965625E-01  0.60097038975E-02  0.75357222506E-01  0.51100000000E-03 0. -1.
         11    1    4    4    0    0  0.33112374944E-01 -0.43644115864E-01 -0.11819607853E-01  0.56046431418E-01  0.51100000000E-03 0.  1.
</event>
<event>
 8    1  0.1010879E+005  0.1043930E+01  0.7957747E-01            NaN
         13   -1    0    0    0    0  0.00000000000E+00  0.00000000000E+00  0.74505805969E-08  0.10566000000E+00  0.10566000000E+00 0. -1.
     999900   -1    0    0    0    0 -0.00000000000E+00 -0.00000000000E+00 -0.74505805969E-08  0.93827000000E+00  0.93827000000E+00 0.  1.
     999902    2    1    2    0    0 -0.23925712475E-01  0.73702688344E-03 -0.78387746269E-02  0.10187421197E+01  0.10184306933E+01 0.  0.
     999903    2    3    3    0    0  0.17017765935E-01 -0.67080375055E-01 -0.10781634368E+00  0.12954524457E+00  0.19189198872E-01 0.  0.
         14    1    1    2    0    0  0.23925712475E-01 -0.73702688344E-03  0.78387746269E-02  0.25187880294E-01  0.00000000000E+00 0. -1.
     999901    1    3    3    0    0 -0.40943478409E-01  0.67817401938E-01  0.99977569049E-01  0.88919687513E+00  0.88000000000E+00 0. -1.
        -11    1    4    4    0    0  0.53928002064E-02 -0.52104585680E-01 -0.72311655651E-01  0.89292814979E-01  0.51100000000E-03 0. -1.
         11    1    4    4    0    0  0.11624965728E-01 -0.14975789375E-01 -0.35504688025E-01  0.40252429596E-01  0.51100000000E-03 0.  1.
</event>
<event>
 8    1  0.1010879E+005  0.1043930E+01  0.7957747E-01            NaN
         13   -1    0    0    0    0  0.00000000000E+00  0.00000000000E+00  0.74505805969E-08  0.10566000000E+00  0.10566000000E+00 0. -1.
     999900   -1    0    0    0    0 -0.00000000000E+00 -0.00000000000E+00 -0.74505805969E-08  0.93827000000E+00  0.93827000000E+00 0.  1.
     999902    2    1    2    0    0 -0.63375452063E-02 -0.10406068539E-01  0.21687369585E-01  0.10190544550E+01  0.10187507985E+01 0.  0.
     999903    2    3    3    0    0 -0.31336356418E-01  0.95059755329E-01 -0.75999224578E-01  0.12703951604E+00  0.18569657591E-01 0.  0.
         14    1    1    2    0    0  0.63375452063E-02  0.10406068539E-01 -0.21687369585E-01  0.24875545043E-01  0.00000000000E+00 0.  1.
     999901    1    3    3    0    0  0.24998811212E-01 -0.10546582387E+00  0.97686594164E-01  0.89201493891E+00  0.88000000000E+00 0. -1.
        -11    1    4    4    0    0 -0.11566991531E-01  0.62389823858E-01 -0.44018496041E-01  0.77228068271E-01  0.51100000000E-03 0.  1.
         11    1    4    4    0    0 -0.19769364887E-01  0.32669931471E-01 -0.31980728537E-01  0.49811447772E-01  0.51100000000E-03 0. -1.
</event>
<event>
 8    1  0.1010879E+005  0.1043930E+01  0.7957747E-01            NaN
         13   -1    0    0    0    0  0.00000000000E+00  0.00000000000E+00  0.74505805969E-08  0.10566000000E+00  0.10566000000E+00 0.  1.
     999900   -1    0    0    0    0 -0.00000000000E+00 -0.00000000000E+00 -0.74505805969E-08  0.93827000000E+00  0.93827000000E+00 0.  1.
     999902    2    1    2    0    0  0.87062690800E-02  0.99853575612E-02  0.19079231362E-01  0.10207023536E+01  0.10204380291E+01 0.  0.
     999903    2    3    3    0    0  0.10216174417E+00  0.22084172997E-01  0.80713452420E-01  0.13352757695E+00  0.19753980240E-01 0.  0.
         14    1    1    2    0    0 -0.87062690800E-02 -0.99853575612E-02 -0.19079231362E-01  0.23227646379E-01  0.00000000000E+00 0. -1.
     999901    1    3    3    0    0 -0.93455475090E-01 -0.12098815436E-01 -0.61634221058E-01  0.88717477667E+00  0.88000000000E+00 0.  1.
        -11    1    4    4    0    0  0.33329348736E-01  0.13935463118E-02  0.16842480396E-01  0.37372686890E-01  0.51100000000E-03 0. -1.
         11    1    4    4    0    0  0.68832395434E-01  0.20690626685E-01  0.63870972024E-01  0.96154890059E-01  0.51100000000E-03 0.  1.
</event>
<event>
 8    1  0.1010879E+005  0.1043930E+01  0.7957747E-01            NaN
         13   -1    0    0    0    0  0.00000000000E+00  0.00000000000E+00  0.74505805969E-08  0.10566000000E+00  0.10566000000E+00 0.  1.
     999900   -1    0    0    0    0 -0.00000000000E+00 -0.00000000000E+00 -0.74505805969E-08  0.93827000000E+00  0.93827000000E+00 0. -1.
     999902    2    1    2    0    0 -0.14165792860E-01 -0.93615657947E-02  0.16238128939E-01  0.10204356298E+01  0.10201651283E+01 0.  0.
     999903    2    3    3    0    0 -0.11882006359E+00  0.26574307878E-01 -0.45011687052E-01  0.13139376159E+00  0.20343727843E-01 0.  0.
         14    1    1    2    0    0  0.14165792860E-01  0.93615657947E-02 -0.16238128939E-01  0.23494370239E-01  0.00000000000E+00 0. -1.
     999901    1    3    3    0    0  0.10465427073E+00 -0.35935873672E-01  0.61249815991E-01  0.88904186817E+00  0.88000000000E+00 0.  1.
        -11    1    4    4    0    0 -0.82716541669E-01  0.87604877293E-02 -0.30196039281E-01  0.88492001448E-01  0.51100000000E-03 0.  1.
         11    1    4    4    0    0 -0.36103521924E-01  0.17813820148E-01 -0.14815647771E-01  0.42901760144E-01  0.51100000000E-03 0. -1.
</event>
<event>
 8    1  0.1010879E+005  0.1043930E+01  0.7957747E-01            NaN
         13   -1    0    0    0    0  0.00000000000E+00  0.00000000000E+00  0.74505805969E-08  0.10566000000E+00  0.10566000000E+00 0.  1.
     999900   -1    0    0    0    0 -0.00000000000E+00 -0.00000000000E+00 -0.74505805969E-08  0.93827000000E+00  0.93827000000E+00 0. -1.
     999902    2    1    2    0    0  0.22165926092E-02  0.22813266370E-02 -0.24123048156E-01  0.10195981446E+01  0.10193077736E+01 0.  0.
     999903    2    3    3    0    0  0.11694735512E+00 -0.48091360357E-01  0.20685160195E-01  0.12959346429E+00  0.19419766320E-01 0.  0.
         14    1    1    2    0    0 -0.22165926092E-02 -0.22813266370E-02  0.24123048156E-01  0.24331855383E-01  0.00000000000E+00 0.  1.
     999901    1    3    3    0    0 -0.11473076251E+00  0.50372686994E-01 -0.44808208351E-01  0.89000468032E+00  0.88000000000E+00 0. -1.
        -11    1    4    4    0    0  0.18270424068E-01 -0.98711117756E-02 -0.34428716732E-02  0.21056156574E-01  0.51100000000E-03 0. -1.
         11    1    4    4    0    0  0.98676931056E-01 -0.38220248581E-01  0.24128031869E-01  0.10853730772E+00  0.51100000000E-03 0.  1.
</event>
<event>
 8    1  0.1010879E+005  0.1043930E+01  0.7957747E-01            NaN
         13   -1    0    0    0    0  0.00000000000E+00  0.00000000000E+00  0.74505805969E-08  0.10566000000E+00  0.10566000000E+00 0.  1.
     999900   -1    0    0    0    0 -0.00000000000E+00 -0.00000000000E+00 -0.74505805969E-08  0.93827000000E+00  0.93827000000E+00 0. -1.
     999902    2    1    2    0    0 -0.27539065314E-01 -0.78942503257E-02  0.58369072793E-02  0.10146932287E+01  0.10142719358E+01 0.  0.
     999903    2    3    3    0    0  0.68989847286E-01  0.99491471822E-01 -0.94699214789E-02  0.12279423038E+00  0.18182178291E-01 0.  0.
         14    1    1    2    0    0  0.27539065314E-01  0.78942503257E-02 -0.58369072793E-02  0.29236771251E-01  0.00000000000E+00 0. -1.
     999901    1    3    3    0    0 -0.96528912600E-01 -0.10738572215E+00  0.15306828758E-01  0.89189899837E+00  0.88000000000E+00 0. -1.
        -11    1    4    4    0    0  0.17056712328E-01  0.26154829741E-01  0.54459058854E-02  0.31700560975E-01  0.51100000000E-03 0. -1.
         11    1    4    4    0    0  0.51933134958E-01  0.73336642081E-01 -0.14915827364E-01  0.91093669403E-01  0.51100000000E-03 0.  1.
</event>
<event>
 8    1  0.1010879E+005  0.1043930E+01  0.7957747E-01            NaN
         13   -1    0    0    0    0  0.00000000000E+00  0.00000000000E+00  0.74505805969E-08  0.10566000000E+00  0.10566000000E+00 0.  1.
     999900   -1    0    0    0    0 -0.00000000000E+00 -0.00000000000E+00 -0.74505805969E-08  0.93827000000E+00  0.93827000000E+00 0.  1.
     999902    2    1    2    0    0 -0.22982132840E-01 -0.50932610384E-02 -0.37181189608E-02  0.10200984212E+01  0.10198200061E+01 0.  0.
     999903    2    3    3    0    0  0.11338260051E+00  0.57472282712E-02 -0.55671261408E-01  0.12801547345E+00  0.20000684121E-01 0.  0.
         14    1    1    2    0    0  0.22982132840E-01  0.50932610384E-02  0.37181189608E-02  0.23831578766E-01  0.00000000000E+00 0.  1.
     999901    1    3    3    0    0 -0.13636473335E+00 -0.10840489310E-01  0.51953142448E-01  0.89208294778E+00  0.88000000000E+00 0. -1.
        -11    1    4    4    0    0  0.31679956356E-01 -0.73350154904E-02 -0.14969675154E-01  0.35801876797E-01  0.51100000000E-03 0. -1.
         11    1    4    4    0    0  0.81702644155E-01  0.13082243762E-01 -0.40701586255E-01  0.92213596657E-01  0.51100000000E-03 0.  1.
</event>
<event>
 8    1  0.1010879E+005  0.1043930E+01  0.7957747E-01            NaN
         13   -1    0    0    0    0  0.00000000000E+00  0.00000000000E+00  0.74505805969E-08  0.10566000000E+00  0.10566000000E+00 0.  1.
     999900   -1    0    0    0    0 -0.00000000000E+00 -0.00000000000E+00 -0.74505805969E-08  0.93827000000E+00  0.93827000000E+00 0. -1.
     999902    2    1    2    0    0 -0.10329544055E-01 -0.16939740460E-01  0.13240356283E-01  0.10200770899E+01  0.10197981702E+01 0.  0.
     999903    2    3    3    0    0 -0.63632376132E-01 -0.23337712725E-01  0.11119670523E+00  0.13301589003E+00  0.27107040024E-01 0.  0.
         14    1    1    2    0    0  0.10329544055E-01  0.16939740460E-01 -0.13240356283E-01  0.23852910131E-01  0.00000000000E+00 0.  1.
     999901    1    3    3    0    0  0.53302832077E-01  0.63979722651E-02 -0.97956348950E-01  0.88706119984E+00  0.88000000000E+00 0. -1.
        -11    1    4    4    0    0 -0.60563247512E-01 -0.14346083687E-01  0.10351926720E+00  0.12078997007E+00  0.51100000000E-03 0.  1.
         11    1    4    4    0    0 -0.30691286198E-02 -0.89916290375E-02  0.76774380365E-02  0.12225919967E-01  0.51100000000E-03 0. -1.
</event>
<event>
 8    1  0.1010879E+005  0.1043930E+01  0.7957747E-01            NaN
         13   -1    0    0    0    0  0.00000000000E+00  0.00000000000E+00  0.74505805969E-08  0.10566000000E+00  0.10566000000E+00 0. -1.
     999900   -1    0    0    0    0 -0.00000000000E+00 -0.00000000000E+00 -0.74505805969E-08  0.93827000000E+00  0.93827000000E+00 0.  1.
     999902    2    1    2    0    0  0.21451275042E-01 -0.64110620889E-02 -0.10665427333E-01  0.10191305996E+01  0.10188288222E+01 0.  0.
     999903    2    3    3    0    0 -0.28211207582E-01 -0.75377183763E-01 -0.10099971349E+00  0.13043325443E+00  0.18283863682E-01 0.  0.
         14    1    1    2    0    0 -0.21451275042E-01  0.64110620889E-02  0.10665427333E-01  0.24799400360E-01  0.00000000000E+00 0. -1.
     999901    1    3    3    0    0  0.49662482624E-01  0.68966121674E-01  0.90334286161E-01  0.88869734521E+00  0.88000000000E+00 0.  1.
        -11    1    4    4    0    0 -0.27757687045E-02 -0.12041818468E-01 -0.27367950864E-01  0.30032917598E-01  0.51100000000E-03 0.  1.
         11    1    4    4    0    0 -0.25435438878E-01 -0.63335365295E-01 -0.73631762630E-01  0.10040033684E+00  0.51100000000E-03 0. -1.
</event>
<event>
 8    1  0.1010879E+005  0.1043930E+01  0.7957747E-01            NaN
         13   -1    0    0    0    0  0.00000000000E+00  0.00000000000E+00  0.74505805969E-08  0.10566000000E+00  0.10566000000E+00 0.  1.
     999900   -1    0    0    0    0 -0.00000000000E+00 -0.00000000000E+00 -0.74505805969E-08  0.93827000000E+00  0.93827000000E+00 0. -1.
     999902    2    1    2    0    0  0.12528710701E-01  0.10857799586E-01 -0.78750243057E-02  0.10255758067E+01  0.10254115559E+01 0.  0.
     999903    2    3    3    0    0  0.79061893062E-01 -0.10215659117E+00 -0.33991449597E-01  0.13547413580E+00  0.22606874419E-01 0.  0.
         14    1    1    2    0    0 -0.12528710701E-01 -0.10857799586E-01  0.78750243057E-02  0.18354193295E-01  0.00000000000E+00 0.  1.
     999901    1    3    3    0    0 -0.66533182360E-01  0.11301439076E+00  0.26116425291E-01  0.89010167090E+00  0.88000000000E+00 0. -1.
        -11    1    4    4    0    0  0.63630531147E-01 -0.85170487957E-01 -0.36443681647E-01  0.11238887652E+00  0.51100000000E-03 0.  1.
         11    1    4    4    0    0  0.15431361915E-01 -0.16986103216E-01  0.24522320496E-02  0.23085259280E-01  0.51100000000E-03 0. -1.
</event>
<event>
 8    1  0.1010879E+005  0.1043930E+01  0.7957747E-01            NaN
         13   -1    0    0    0    0  0.00000000000E+00  0.00000000000E+00  0.74505805969E-08  0.10566000000E+00  0.10566000000E+00 0. -1.
     999900   -1    0    0    0    0 -0.00000000000E+00 -0.00000000000E+00 -0.74505805969E-08  0.93827000000E+00  0.93827000000E+00 0.  1.
     999902    2    1    2    0    0 -0.16900967216E-01  0.17707209683E-01 -0.31179089022E-02  0.10192539119E+01  0.10189551647E+01 0.  0.
     999903    2    3    3    0    0 -0.14052050925E-01 -0.12314085146E+00  0.20966154295E-01  0.12772357886E+00  0.22640749451E-01 0.  0.
         14    1    1    2    0    0  0.16900967216E-01 -0.17707209683E-01  0.31179089022E-02  0.24676088092E-01  0.00000000000E+00 0.  1.
     999901    1    3    3    0    0 -0.28489162909E-02  0.14084806115E+00 -0.24084063197E-01  0.89153033305E+00  0.88000000000E+00 0.  1.
        -11    1    4    4    0    0 -0.27079824699E-02 -0.33258646522E-01  0.15949548473E-01  0.36988105588E-01  0.51100000000E-03 0. -1.
         11    1    4    4    0    0 -0.11344068455E-01 -0.89882204940E-01  0.50166058220E-02  0.90735473267E-01  0.51100000000E-03 0.  1.
</event>
<event>
 8    1  0.1010879E+005  0.1043930E+01  0.7957747E-01            NaN
         13   -1    0    0    0    0  0.00000000000E+00  0.00000000000E+00  0.74505805969E-08  0.10566000000E+00  0.10566000000E+00 0. -1.
     999900   -1    0    0    0    0 -0.00000000000E+00 -0.00000000000E+00 -0.74505805969E-08  0.93827000000E+00  0.93827000000E+00 0.  1.
     999902    2    1    2    0    0  0.16437514005E-01  0.16569886934E-01  0.16715327673E-02  0.10205302769E+01  0.10202619757E+01 0.  0.
     999903    2    3    3    0    0  0.84267098817E-01 -0.82193082083E-01 -0.53000807377E-01  0.13073027611E+00  0.20607591383E-01 0.  0.
         14    1    1    2    0    0 -0.16437514005E-01 -0.16569886934E-01 -0.16715327673E-02  0.23399723107E-01  0.00000000000E+00 0. -1.
     999901    1    3    3    0    0 -0.67829584812E-01  0.98762969018E-01  0.54672340144E-01  0.88980000079E+00  0.88000000000E+00 0. -1.
        -11    1    4    4    0    0  0.74743147695E-01 -0.80286168426E-01 -0.49999680549E-01  0.12055138383E+00  0.51100000000E-03 0.  1.
         11    1    4    4    0    0  0.95239511221E-02 -0.19069136574E-02 -0.30011268283E-02  0.10178892273E-01  0.51100000000E-03 0. -1.
</event>
<event>
 8    1  0.1010879E+005  0.1043930E+01  0.7957747E-01            NaN
         13   -1    0    0    0    0  0.00000000000E+00  0.00000000000E+00  0.74505805969E-08  0.10566000000E+00  0.10566000000E+00 0.  1.
     999900   -1    0    0    0    0 -0.00000000000E+00 -0.00000000000E+00 -0.74505805969E-08  0.93827000000E+00  0.93827000000E+00 0.  1.
     999902    2    1    2    0    0  0.28443247859E-02 -0.91260472617E-02  0.21497553792E-01  0.10204029997E+01  0.10201317376E+01 0.  0.
     999903    2    3    3    0    0  0.71626792047E-01 -0.10385832277E+00 -0.29553498331E-01  0.13118343082E+00  0.20463008351E-01 0.  0.
         14    1    1    2    0    0 -0.28443247859E-02  0.91260472617E-02 -0.21497553792E-01  0.23527000258E-01  0.00000000000E+00 0. -1.
     999901    1    3    3    0    0 -0.68782467261E-01  0.94732275511E-01  0.51051052123E-01  0.88921956892E+00  0.88000000000E+00 0.  1.
        -11    1    4    4    0    0  0.34678871901E-01 -0.36516912509E-01 -0.53426090720E-02  0.50644976535E-01  0.51100000000E-03 0.  1.
         11    1    4    4    0    0  0.36947920146E-01 -0.67341410263E-01 -0.24210889259E-01  0.80538454288E-01  0.51100000000E-03 0. -1.
</event>
<event>
 8    1  0.1010879E+005  0.1043930E+01  0.7957747E-01            NaN
         13   -1    0    0    0    0  0.00000000000E+00  0.00000000000E+00  0.74505805969E-08  0.10566000000E+00  0.10566000000E+00 0.  1.
     999900   -1    0    0    0    0 -0.00000000000E+00 -0.00000000000E+00 -0.74505805969E-08  0.93827000000E+00  0.93827000000E+00 0.  1.
     999902    2    1    2    0    0 -0.13587846630E-01  0.17816962235E-01 -0.83706807537E-03  0.10215073685E+01  0.10212612445E+01 0.  0.
     999903    2    3    3    0    0 -0.13504527326E-01 -0.76338702655E-01 -0.10333896445E+00  0.13056857437E+00  0.18953660793E-01 0.  0.
         14    1    1    2    0    0  0.13587846630E-01 -0.17816962235E-01  0.83706807537E-03  0.22422631475E-01  0.00000000000E+00 0.  1.
     999901    1    3    3    0    0 -0.83319304581E-04  0.94155664889E-01  0.10250189638E+00  0.89093879416E+00  0.88000000000E+00 0. -1.
        -11    1    4    4    0    0 -0.14576999657E-01 -0.47657126624E-01 -0.76286094384E-01  0.91123652003E-01  0.51100000000E-03 0.  1.
         11    1    4    4    0    0  0.10724723312E-02 -0.28681576031E-01 -0.27052870067E-01  0.39444922365E-01  0.51100000000E-03 0. -1.
</event>
<event>
 8    1  0.1010879E+005  0.1043930E+01  0.7957747E-01            NaN
         13   -1    0    0    0    0  0.00000000000E+00  0.00000000000E+00  0.74505805969E-08  0.10566000000E+00  0.10566000000E+00 0.  1.
     999900   -1    0    0    0    0 -0.00000000000E+00 -0.00000000000E+00 -0.74505805969E-08  0.93827000000E+00  0.93827000000E+00 0.  1.
     999902    2    1    2    0    0  0.93866878117E-02  0.23341798995E-01 -0.12838148558E-01  0.10156852209E+01  0.10152924211E+01 0.  0.
     999903    2    3    3    0    0 -0.10355841483E+00  0.70262756166E-01  0.46863458716E-02  0.12705409363E+00  0.21437833005E-01 0.  0.
         14    1    1    2    0    0 -0.93866878117E-02 -0.23341798995E-01  0.12838148558E-01  0.28244779107E-01  0.00000000000E+00 0.  1.
     999901    1    3    3    0    0  0.11294510265E+00 -0.46920957170E-01 -0.17524494430E-01  0.88863112726E+00  0.88000000000E+00 0.  1.
        -11    1    4    4    0    0 -0.24445166503E-01  0.86880043269E-02  0.66325186197E-02  0.26782438440E-01  0.51100000000E-03 0. -1.
         11    1    4    4    0    0 -0.79113248331E-01  0.61574751839E-01 -0.19461727481E-02  0.10027165519E+00  0.51100000000E-03 0.  1.
</event>
<event>
 8    1  0.1010879E+005  0.1043930E+01  0.7957747E-01            NaN
         13   -1    0    0    0    0  0.00000000000E+00  0.00000000000E+00  0.74505805969E-08  0.10566000000E+00  0.10566000000E+00 0. -1.
     999900   -1    0    0    0    0 -0.00000000000E+00 -0.00000000000E+00 -0.74505805969E-08  0.93827000000E+00  0.93827000000E+00 0.  1.
     999902    2    1    2    0    0 -0.13971240128E-01  0.43594755543E-02  0.17826649305E-01  0.10208650915E+01  0.10206044998E+01 0.  0.
     999903    2    3    3    0    0  0.75758856779E-01  0.68636104806E-01 -0.75735660606E-01  0.12904847293E+00  0.21617095408E-01 0.  0.
         14    1    1    2    0    0  0.13971240128E-01 -0.43594755543E-02 -0.17826649305E-01  0.23064908482E-01  0.00000000000E+00 0.  1.
     999901    1    3    3    0    0 -0.89730096908E-01 -0.64276629252E-01  0.93562309912E-01  0.89181661859E+00  0.88000000000E+00 0. -1.
        -11    1    4    4    0    0  0.24434517511E-01  0.99901686871E-02 -0.16212087731E-01  0.30982931204E-01  0.51100000000E-03 0.  1.
         11    1    4    4    0    0  0.51324339268E-01  0.58645936119E-01 -0.59523572875E-01  0.98065541723E-01  0.51100000000E-03 0. -1.
</event>
<event>
 8    1  0.1010879E+005  0.1043930E+01  0.7957747E-01            NaN
         13   -1    0    0    0    0  0.00000000000E+00  0.00000000000E+00  0.74505805969E-08  0.10566000000E+00  0.10566000000E+00 0. -1.
     999900   -1    0    0    0    0 -0.00000000000E+00 -0.00000000000E+00 -0.74505805969E-08  0.93827000000E+00  0.93827000000E+00 0. -1.
     999902    2    1    2    0    0  0.70107772644E-02  0.18866201416E-01 -0.14996057184E-01  0.10188308708E+01  0.10185216626E+01 0.  0.
     999903    2    3    3    0    0 -0.54279048856E-01  0.65296907984E-01 -0.97950599445E-01  0.13159149537E+00  0.22629635104E-01 0.  0.
         14    1    1    2    0    0 -0.70107772644E-02 -0.18866201416E-01  0.14996057184E-01  0.25099129164E-01  0.00000000000E+00 0. -1.
     999901    1    3    3    0    0  0.61289826120E-01 -0.46430706567E-01  0.82954542261E-01  0.88723937547E+00  0.88000000000E+00 0. -1.
        -11    1    4    4    0    0 -0.31297239262E-02  0.12958752616E-01 -0.24550636097E-01  0.27941354566E-01  0.51100000000E-03 0. -1.
         11    1    4    4    0    0 -0.51149324930E-01  0.52338155367E-01 -0.73399963348E-01  0.10365014080E+00  0.51100000000E-03 0.  1.
</event>
<event>
 8    1  0.1010879E+005  0.1043930E+01  0.7957747E-01            NaN
         13   -1    0    0    0    0  0.00000000000E+00  0.00000000000E+00  0.74505805969E-08  0.10566000000E+00  0.10566000000E+00 0. -1.
     999900   -1    0    0    0    0 -0.00000000000E+00 -0.00000000000E+00 -0.74505805969E-08  0.93827000000E+00  0.93827000000E+00 0. -1.
     999902    2    1    2    0    0 -0.21162332624E-01 -0.43041645958E-02 -0.94066256387E-02  0.10203746448E+01  0.10201027208E+01 0.  0.
     999903    2    3    3    0    0  0.93724944923E-01 -0.37973387931E-01  0.76254046895E-01  0.12814684090E+00  0.19508707642E-01 0.  0.
         14    1    1    2    0    0  0.21162332624E-01  0.43041645958E-02  0.94066256387E-02  0.23555355248E-01  0.00000000000E+00 0.  1.
     999901    1    3    3    0    0 -0.11488727755E+00  0.33669223335E-01 -0.85660672533E-01  0.89222780385E+00  0.88000000000E+00 0. -1.
        -11    1    4    4    0    0  0.80954756185E-01 -0.35486823974E-01  0.57990034570E-01  0.10571703957E+00  0.51100000000E-03 0. -1.
         11    1    4    4    0    0  0.12770188738E-01 -0.24865639566E-02  0.18264012324E-01  0.22429801334E-01  0.51100000000E-03 0.  1.
</event>
<event>
 8    1  0.1010879E+005  0.1043930E+01  0.7957747E-01            NaN
         13   -1    0    0    0    0  0.00000000000E+00  0.00000000000E+00  0.74505805969E-08  0.10566000000E+00  0.10566000000E+00 0.  1.
     999900   -1    0    0    0    0 -0.00000000000E+00 -0.00000000000E+00 -0.74505805969E-08  0.93827000000E+00  0.93827000000E+00 0.  1.
     999902    2    1    2    0    0  0.16988969376E-01 -0.15601824211E-01 -0.59805949538E-02  0.10201012460E+01  0.10198228977E+01 0.  0.
     999903    2    3    3    0    0  0.42714270944E-01  0.10778738200E+00  0.53122286572E-01  0.12915801668E+00  0.20425162935E-01 0.  0.
         14    1    1    2    0    0 -0.16988969376E-01  0.15601824211E-01  0.59805949538E-02  0.23828753958E-01  0.00000000000E+00 0.  1.
     999901    1    3    3    0    0 -0.25725301567E-01 -0.12338920621E+00 -0.59102881526E-01  0.89094322937E+00  0.88000000000E+00 0.  1.
        -11    1    4    4    0    0  0.31733615207E-01  0.53505424678E-01  0.25028232769E-01  0.67056143347E-01  0.51100000000E-03 0. -1.
         11    1    4    4    0    0  0.10980655736E-01  0.54281957319E-01  0.28094053803E-01  0.62101873328E-01  0.51100000000E-03 0.  1.
</event>
<event>
 8    1  0.1010879E+005  0.1043930E+01  0.7957747E-01            NaN
         13   -1    0    0    0    0  0.00000000000E+00  0.00000000000E+00  0.74505805969E-08  0.10566000000E+00  0.10566000000E+00 0. -1.
     999900   -1    0    0    0    0 -0.00000000000E+00 -0.00000000000E+00 -0.74505805969E-08  0.93827000000E+00  0.93827000000E+00 0. -1.
     999902    2    1    2    0    0 -0.95877430396E-03  0.17908489287E-01  0.15185711726E-01  0.10204302324E+01  0.10201596052E+01 0.  0.
     999903    2    3    3    0    0  0.13260949193E-01 -0.10031741096E+00 -0.75543214633E-01  0.12778735750E+00  0.19580493974E-01 0.  0.
         14    1    1    2    0    0  0.95877430396E-03 -0.17908489287E-01 -0.15185711726E-01  0.23499767601E-01  0.00000000000E+00 0.  1.
     999901    1    3    3    0    0 -0.14219723497E-01  0.11822590025E+00  0.90728926359E-01  0.89264287490E+00  0.88000000000E+00 0.  1.
        -11    1    4    4    0    0 -0.17304176157E-02 -0.47217202545E-01 -0.27811609008E-01  0.54828872666E-01  0.51100000000E-03 0. -1.
         11    1    4    4    0    0  0.14991366808E-01 -0.53100208419E-01 -0.47731605625E-01  0.72958484835E-01  0.51100000000E-03 0.  1.
</event>
<event>
 8    1  0.1010879E+005  0.1043930E+01  0.7957747E-01            NaN
         13   -1    0    0    0    0  0.00000000000E+00  0.00000000000E+00  0.74505805969E-08  0.10566000000E+00  0.10566000000E+00 0.  1.
     999900   -1    0    0    0    0 -0.00000000000E+00 -0.00000000000E+00 -0.74505805969E-08  0.93827000000E+00  0.93827000000E+00 0. -1.
     999902    2    1    2    0    0  0.19619172315E-02 -0.18533791807E-01 -0.10551741695E-01  0.10225129551E+01  0.10222886352E+01 0.  0.
     999903    2    3    3    0    0  0.87235509993E-01 -0.29341122321E-01  0.93010478352E-01  0.13228067228E+00  0.19398234780E-01 0.  0.
         14    1    1    2    0    0 -0.19619172315E-02  0.18533791807E-01  0.10551741695E-01  0.21417044866E-01  0.00000000000E+00 0.  1.
     999901    1    3    3    0    0 -0.85273592762E-01  0.10807330513E-01 -0.10356222005E+00  0.89023228285E+00  0.88000000000E+00 0. -1.
        -11    1    4    4    0    0  0.53225026067E-01 -0.12013950963E-01  0.43624386098E-01  0.69861195244E-01  0.51100000000E-03 0.  1.
         11    1    4    4    0    0  0.34010483927E-01 -0.17327171358E-01  0.49386092255E-01  0.62419477035E-01  0.51100000000E-03 0. -1.
</event>
<event>
 8    1  0.1010879E+005  0.1043930E+01  0.7957747E-01            NaN
         13   -1    0    0    0    0  0.00000000000E+00  0.00000000000E+00  0.74505805969E-08  0.10566000000E+00  0.10566000000E+00 0. -1.
     999900   -1    0    0    0    0 -0.00000000000E+00 -0.00000000000E+00 -0.74505805969E-08  0.93827000000E+00  0.93827000000E+00 0. -1.
     999902    2    1    2    0    0 -0.17440970264E-01 -0.73340546034E-02  0.10906099844E-01  0.10220915290E+01  0.10218581971E+01 0.  0.
     999903    2    3    3    0    0 -0.49286610783E-03 -0.12090950908E+00  0.52883653820E-01  0.13363852682E+00  0.21052855027E-01 0.  0.
         14    1    1    2    0    0  0.17440970264E-01  0.73340546034E-02 -0.10906099844E-01  0.21838470974E-01  0.00000000000E+00 0.  1.
     999901    1    3    3    0    0 -0.16948104157E-01  0.11357545448E+00 -0.41977553976E-01  0.88845300221E+00  0.88000000000E+00 0.  1.
        -11    1    4    4    0    0 -0.95861106929E-04 -0.94769692830E-01  0.31527422314E-01  0.99877641879E-01  0.51100000000E-03 0.  1.
         11    1    4    4    0    0 -0.39700500090E-03 -0.26139816254E-01  0.21356231505E-01  0.33760884939E-01  0.51100000000E-03 0. -1.
</event>
<event>
 8    1  0.1010879E+005  0.1043930E+01  0.7957747E-01            NaN
         13   -1    0    0    0    0  0.00000000000E+00  0.00000000000E+00  0.74505805969E-08  0.10566000000E+00  0.10566000000E+00 0. -1.
     999900   -1    0    0    0    0 -0.00000000000E+00 -0.00000000000E+00 -0.74505805969E-08  0.93827000000E+00  0.93827000000E+00 0.  1.
     999902    2    1    2    0    0 -0.19100018341E-02 -0.22683430221E-01 -0.24315373263E-02  0.10210368026E+01  0.10207801202E+01 0.  0.
     999903    2    3    3    0    0 -0.39988356881E-01  0.22458290927E-01 -0.12121396134E+00  0.13109466944E+00  0.19736879581E-01 0.  0.
         14    1    1    2    0    0  0.19100018341E-02  0.22683430221E-01  0.24315373263E-02  0.22893197404E-01  0.00000000000E+00 0. -1.
     999901    1    3    3    0    0  0.38078355047E-01 -0.45141721149E-01  0.11878242401E+00  0.88994213316E+00  0.88000000000E+00 0. -1.
        -11    1    4    4    0    0 -0.12320949501E-01  0.61596321989E-02 -0.16154458357E-01  0.21236160463E-01  0.51100000000E-03 0. -1.
         11    1    4    4    0    0 -0.27667407380E-01  0.16298658728E-01 -0.10505950298E+00  0.10985850898E+00  0.51100000000E-03 0.  1.
</event>
<event>
 8    1  0.1010879E+005  0.1043930E+01  0.7957747E-01            NaN
         13   -1    0    0    0    0  0.00000000000E+00  0.00000000000E+00  0.74505805969E-08  0.10566000000E+00  0.10566000000E+00 0. -1.
     999900   -1    0    0    0    0 -0.00000000000E+00 -0.00000000000E+00 -0.74505805969E-08  0.93827000000E+00  0.93827000000E+00 0.  1.
     999902    2    1    2    0    0 -0.83844602843E-03  0.16499752342E-01  0.17207661585E-01  0.10200752639E+01  0.10197963010E+01 0.  0.
     999903    2    3    3    0    0  0.92183566778E-02 -0.71329501867E-01 -0.10337005083E+00  0.12746442934E+00  0.19721495886E-01 0.  0.
         14    1    1    2    0    0  0.83844602843E-03 -0.16499752342E-01 -0.17207661585E-01  0.23854736141E-01  0.00000000000E+00 0.  1.
     999901    1    3    3    0    0 -0.10056802706E-01  0.87829254210E-01  0.12057771242E+00  0.89261083452E+00  0.88000000000E+00 0. -1.
        -11    1    4    4    0    0  0.47349027259E-02 -0.33604671593E-01 -0.32182718109E-01  0.46772659990E-01  0.51100000000E-03 0.  1.
         11    1    4    4    0    0  0.44834539519E-02 -0.37724830274E-01 -0.71187332725E-01  0.80691769346E-01  0.51100000000E-03 0. -1.
</event>
<event>
 8    1  0.1010879E+005  0.1043930E+01  0.7957747E-01            NaN
         13   -1    0    0    0    0  0.00000000000E+00  0.00000000000E+00  0.74505805969E-08  0.10566000000E+00  0.10566000000E+00 0. -1.
     999900   -1    0    0    0    0 -0.00000000000E+00 -0.00000000000E+00 -0.74505805969E-08  0.93827000000E+00  0.93827000000E+00 0. -1.
     999902    2    1    2    0    0  0.23493196052E-01  0.32367777089E-02 -0.72121070392E-02  0.10191424733E+01  0.10188409883E+01 0.  0.
     999903    2    3    3    0    0 -0.47912211134E-01  0.11046771116E+00 -0.42760939784E-01  0.12905207074E+00  0.18089881344E-01 0.  0.
         14    1    1    2    0    0 -0.23493196052E-01 -0.32367777089E-02  0.72121070392E-02  0.24787526674E-01  0.00000000000E+00 0.  1.
     999901    1    3    3    0    0  0.71405407186E-01 -0.10723093345E+00  0.35548832744E-01  0.89009040258E+00  0.88000000000E+00 0. -1.
        -11    1    4    4    0    0 -0.19005263222E-01  0.39165103456E-01 -0.24567217809E-01  0.49989145529E-01  0.51100000000E-03 0.  1.
         11    1    4    4    0    0 -0.28906947913E-01  0.71302607702E-01 -0.18193721974E-01  0.79062925212E-01  0.51100000000E-03 0. -1.
</event>
<event>
 8    1  0.1010879E+005  0.1043930E+01  0.7957747E-01            NaN
         13   -1    0    0    0    0  0.00000000000E+00  0.00000000000E+00  0.74505805969E-08  0.10566000000E+00  0.10566000000E+00 0. -1.
     999900   -1    0    0    0    0 -0.00000000000E+00 -0.00000000000E+00 -0.74505805969E-08  0.93827000000E+00  0.93827000000E+00 0.  1.
     999902    2    1    2    0    0 -0.12987377579E-01  0.19593062732E-01  0.66322223074E-02  0.10195056995E+01  0.10192130910E+01 0.  0.
     999903    2    3    3    0    0  0.17560487011E-01 -0.70299590012E-01  0.10477851504E+00  0.12897408531E+00  0.20133911867E-01 0.  0.
         14    1    1    2    0    0  0.12987377579E-01 -0.19593062732E-01 -0.66322223074E-02  0.24424300529E-01  0.00000000000E+00 0. -1.
     999901    1    3    3    0    0 -0.30547864589E-01  0.89892652744E-01 -0.98146292732E-01  0.89053161416E+00  0.88000000000E+00 0.  1.
        -11    1    4    4    0    0  0.13984772198E-01 -0.21574032794E-01  0.28473962916E-01  0.38367179067E-01  0.51100000000E-03 0.  1.
         11    1    4    4    0    0  0.35757148122E-02 -0.48725557218E-01  0.76304552123E-01  0.90606906240E-01  0.51100000000E-03 0. -1.
</event>
<event>
 8    1  0.1010879E+005  0.1043930E+01  0.7957747E-01            NaN
         13   -1    0    0    0    0  0.00000000000E+00  0.00000000000E+00  0.74505805969E-08  0.10566000000E+00  0.10566000000E+00 0. -1.
     999900   -1    0    0    0    0 -0.00000000000E+00 -0.00000000000E+00 -0.74505805969E-08  0.93827000000E+00  0.93827000000E+00 0. -1.
     999902    2    1    2    0    0 -0.58139910493E-02 -0.12771621511E-01 -0.19849213632E-01  0.10196213989E+01  0.10193315893E+01 0.  0.
     999903    2    3    3    0    0 -0.11675480190E+00  0.46203078946E-01 -0.30156755027E-01  0.13063763960E+00  0.19757396997E-01 0.  0.
         14    1    1    2    0    0  0.58139910493E-02  0.12771621511E-01  0.19849213632E-01  0.24308601147E-01  0.00000000000E+00 0.  1.
     999901    1    3    3    0    0  0.11094081085E+00 -0.58974700457E-01  0.10307541395E-01  0.88898375925E+00  0.88000000000E+00 0. -1.
        -11    1    4    4    0    0 -0.48054369139E-01  0.88196815249E-02 -0.13086739650E-01  0.50581943925E-01  0.51100000000E-03 0. -1.
         11    1    4    4    0    0 -0.68700432759E-01  0.37383397421E-01 -0.17070015377E-01  0.80055695675E-01  0.51100000000E-03 0.  1.
</event>
<event>
 8    1  0.1010879E+005  0.1043930E+01  0.7957747E-01            NaN
         13   -1    0    0    0    0  0.00000000000E+00  0.00000000000E+00  0.74505805969E-08  0.10566000000E+00  0.10566000000E+00 0.  1.
     999900   -1    0    0    0    0 -0.00000000000E+00 -0.00000000000E+00 -0.74505805969E-08  0.93827000000E+00  0.93827000000E+00 0.  1.
     999902    2    1    2    0    0  0.24049903141E-02  0.21828825000E-01 -0.88872278409E-02  0.10202389806E+01  0.10199638784E+01 0.  0.
     999903    2    3    3    0    0  0.58429397241E-01 -0.65034538859E-01  0.91740243852E-01  0.12849357628E+00  0.21233019009E-01 0.  0.
         14    1    1    2    0    0 -0.24049903141E-02 -0.21828825000E-01  0.88872278409E-02  0.23691019353E-01  0.00000000000E+00 0. -1.
     999901    1    3    3    0    0 -0.56024406927E-01  0.86863363860E-01 -0.10062747169E+00  0.89174540437E+00  0.88000000000E+00 0.  1.
        -11    1    4    4    0    0  0.39505482852E-01 -0.37429299343E-01  0.69638954388E-01  0.88382581508E-01  0.51100000000E-03 0. -1.
         11    1    4    4    0    0  0.18923914390E-01 -0.27605239516E-01  0.22101289464E-01  0.40110994771E-01  0.51100000000E-03 0.  1.
</event>
<event>
 8    1  0.1010879E+005  0.1043930E+01  0.7957747E-01            NaN
         13   -1    0    0    0    0  0.00000000000E+00  0.00000000000E+00  0.74505805969E-08  0.10566000000E+00  0.10566000000E+00 0.  1.
     999900   -1    0    0    0    0 -0.00000000000E+00 -0.00000000000E+00 -0.74505805969E-08  0.93827000000E+00  0.93827000000E+00 0. -1.
     999902    2    1    2    0    0  0.28856946019E-02  0.23231761992E-01 -0.48254736290E-02  0.10200275484E+01  0.10197474551E+01 0.  0.
     999903    2    3    3    0    0  0.10774591791E+00 -0.19975165269E-01 -0.68244909134E-01  0.13048579566E+00  0.18999610316E-01 0.  0.
         14    1    1    2    0    0 -0.28856946019E-02 -0.23231761992E-01  0.48254736290E-02  0.23902451639E-01  0.00000000000E+00 0.  1.
     999901    1    3    3    0    0 -0.10486022331E+00  0.43206927261E-01  0.63419435505E-01  0.88954175270E+00  0.88000000000E+00 0.  1.
        -11    1    4    4    0    0  0.33081619465E-01  0.72940402331E-03 -0.26988141836E-01  0.42703003377E-01  0.51100000000E-03 0.  1.
         11    1    4    4    0    0  0.74664298449E-01 -0.20704569292E-01 -0.41256767298E-01  0.87782792284E-01  0.51100000000E-03 0. -1.
</event>
<event>
 7    1  0.1010879E+005  0.1043930E+01  0.7957747E-01            NaN
         13   -1    0    0    0    0  0.00000000000E+00  0.00000000000E+00  0.74505805969E-08  0.10566000000E+00  0.10566000000E+00 0.  1.
     999900   -1    0    0    0    0 -0.00000000000E+00 -0.00000000000E+00 -0.74505805969E-08  0.93827000000E+00  0.93827000000E+00 0. -1.
     999903    2    1    2    0    0 -0.83681699920E-01  0.61409340227E-01 -0.26464262506E-01  0.10881087762E+00  0.19123700739E-01 0.  0.
         14    1    1    2    0    0 -0.42457526964E-01 -0.51049566667E-02  0.11229597056E-01  0.44213188401E-01  0.00000000000E+00 0.  1.
     999901    1    1    2    0    0  0.12613922688E+00 -0.56304383560E-01  0.15234665450E-01  0.89090593398E+00  0.88000000000E+00 0.  1.
        -11    1    3    3    0    0 -0.50155566235E-01  0.36081011778E-01 -0.60192595373E-02  0.62079890799E-01  0.51100000000E-03 0. -1.
         11    1    3    3    0    0 -0.33526133686E-01  0.25328328449E-01 -0.20445002969E-01  0.46730986821E-01  0.51100000000E-03 0.  1.
</event>
<event>
 8    1  0.1010879E+005  0.1043930E+01  0.7957747E-01            NaN
         13   -1    0    0    0    0  0.00000000000E+00  0.00000000000E+00  0.74505805969E-08  0.10566000000E+00  0.10566000000E+00 0.  1.
     999900   -1    0    0    0    0 -0.00000000000E+00 -0.00000000000E+00 -0.74505805969E-08  0.93827000000E+00  0.93827000000E+00 0. -1.
     999902    2    1    2    0    0  0.56895723047E-02  0.29599374648E-01 -0.16532481243E-02  0.10137434559E+01  0.10132939194E+01 0.  0.
     999903    2    3    3    0    0  0.13936196334E-01 -0.78128823726E-01  0.90924066839E-01  0.12231542701E+00  0.19888365655E-01 0.  0.
         14    1    1    2    0    0 -0.56895723047E-02 -0.29599374648E-01  0.16532481243E-02  0.30186544054E-01  0.00000000000E+00 0. -1.
     999901    1    3    3    0    0 -0.82466240289E-02  0.10772819837E+00 -0.92577314963E-01  0.89142802894E+00  0.88000000000E+00 0.  1.
        -11    1    4    4    0    0  0.44840496192E-02 -0.67197774201E-01  0.74239731314E-01  0.10023695120E+00  0.51100000000E-03 0. -1.
         11    1    4    4    0    0  0.94521467144E-02 -0.10931049524E-01  0.16684335525E-01  0.22078475811E-01  0.51100000000E-03 0.  1.
</event>
<event>
 8    1  0.1010879E+005  0.1043930E+01  0.7957747E-01            NaN
         13   -1    0    0    0    0  0.00000000000E+00  0.00000000000E+00  0.74505805969E-08  0.10566000000E+00  0.10566000000E+00 0. -1.
     999900   -1    0    0    0    0 -0.00000000000E+00 -0.00000000000E+00 -0.74505805969E-08  0.93827000000E+00  0.93827000000E+00 0. -1.
     999902    2    1    2    0    0 -0.14812502453E-03  0.23575930906E-01 -0.23982531945E-02  0.10202319394E+01  0.10199566716E+01 0.  0.
     999903    2    3    3    0    0 -0.17959864522E-01  0.42596955356E-01 -0.12171248964E+00  0.13179795508E+00  0.20486910196E-01 0.  0.
         14    1    1    2    0    0  0.14812502453E-03 -0.23575930906E-01  0.23982531945E-02  0.23698060628E-01  0.00000000000E+00 0. -1.
     999901    1    3    3    0    0  0.17811739497E-01 -0.19021024450E-01  0.11931423644E+00  0.88843398430E+00  0.88000000000E+00 0.  1.
        -11    1    4    4    0    0  0.16028697825E-02  0.10600997926E-02 -0.21215807267E-01  0.21308791662E-01  0.51100000000E-03 0.  1.
         11    1    4    4    0    0 -0.19562734304E-01  0.41536855564E-01 -0.10049668237E+00  0.11048916341E+00  0.51100000000E-03 0. -1.
</event>
<event>
 8    1  0.1010879E+005  0.1043930E+01  0.7957747E-01            NaN
         13   -1    0    0    0    0  0.00000000000E+00  0.00000000000E+00  0.74505805969E-08  0.10566000000E+00  0.10566000000E+00 0. -1.
     999900   -1    0    0    0    0 -0.00000000000E+00 -0.00000000000E+00 -0.74505805969E-08  0.93827000000E+00  0.93827000000E+00 0. -1.
     999902    2    1    2    0    0 -0.24953182647E-01  0.12180853398E-01  0.98106801351E-02  0.10144803148E+01  0.10140527724E+01 0.  0.
     999903    2    3    3    0    0  0.10062507625E+00 -0.47564782729E-01  0.47776071588E-01  0.12275120173E+00  0.19937150868E-01 0.  0.
         14    1    1    2    0    0  0.24953182647E-01 -0.12180853398E-01 -0.98106801351E-02  0.29449685201E-01  0.00000000000E+00 0. -1.
     999901    1    3    3    0    0 -0.12557825889E+00  0.59745636127E-01 -0.37965391453E-01  0.89172911307E+00  0.88000000000E+00 0.  1.
        -11    1    4    4    0    0  0.51822235418E-01 -0.21052514409E-01  0.13704933276E-01  0.57592002603E-01  0.51100000000E-03 0.  1.
         11    1    4    4    0    0  0.48802840827E-01 -0.26512268320E-01  0.34071138312E-01  0.65159199129E-01  0.51100000000E-03 0. -1.
</event>
<event>
 8    1  0.1010879E+005  0.1043930E+01  0.7957747E-01            NaN
         13   -1    0    0    0    0  0.00000000000E+00  0.00000000000E+00  0.74505805969E-08  0.10566000000E+00  0.10566000000E+00 0.  1.
     999900   -1    0    0    0    0 -0.00000000000E+00 -0.00000000000E+00 -0.74505805969E-08  0.93827000000E+00  0.93827000000E+00 0. -1.
     999902    2    1    2    0    0  0.37408318536E-02 -0.16255843241E-01 -0.72584310828E-02  0.10257384887E+01  0.10255771624E+01 0.  0.
     999903    2    3    3    0    0  0.63656358019E-01  0.54774449545E-02 -0.11899548919E+00  0.13638626585E+00  0.18951325683E-01 0.  0.
         14    1    1    2    0    0 -0.37408318536E-02  0.16255843241E-01  0.72584310828E-02  0.18191511323E-01  0.00000000000E+00 0.  1.
     999901    1    3    3    0    0 -0.59915526166E-01 -0.21733288195E-01  0.11173705811E+00  0.88935222283E+00  0.88000000000E+00 0.  1.
        -11    1    4    4    0    0  0.38662059797E-01  0.47784234003E-02 -0.52752788435E-01  0.65579768272E-01  0.51100000000E-03 0. -1.
         11    1    4    4    0    0  0.24994298222E-01  0.69902155419E-03 -0.66242700758E-01  0.70806497579E-01  0.51100000000E-03 0.  1.
</event>
<event>
 8    1  0.1010879E+005  0.1043930E+01  0.7957747E-01            NaN
         13   -1    0    0    0    0  0.00000000000E+00  0.00000000000E+00  0.74505805969E-08  0.10566000000E+00  0.10566000000E+00 0. -1.
     999900   -1    0    0    0    0 -0.00000000000E+00 -0.00000000000E+00 -0.74505805969E-08  0.93827000000E+00  0.93827000000E+00 0.  1.
     999902    2    1    2    0    0 -0.64799453145E-02  0.30222681356E-02  0.22156884653E-01  0.10206480041E+01  0.10203824268E+01 0.  0.
     999903    2    3    3    0    0  0.11298579941E+00  0.57048932655E-01  0.26807783288E-01  0.13092188022E+00  0.20037711680E-01 0.  0.
         14    1    1    2    0    0  0.64799453145E-02 -0.30222681356E-02 -0.22156884653E-01  0.23281995909E-01  0.00000000000E+00 0.  1.
     999901    1    3    3    0    0 -0.11946574473E+00 -0.54026664520E-01 -0.46508986351E-02  0.88972612387E+00  0.88000000000E+00 0.  1.
        -11    1    4    4    0    0  0.24717656074E-01  0.21849697036E-01  0.94452720456E-02  0.34319762053E-01  0.51100000000E-03 0.  1.
         11    1    4    4    0    0  0.88268143338E-01  0.35199235619E-01  0.17362511243E-01  0.96602118166E-01  0.51100000000E-03 0. -1.
</event>
<event>
 8    1  0.1112654E+005  0.1043930E+01  0.7957747E-01            NaN
         13   -1    0    0    0    0  0.00000000000E+00  0.00000000000E+00  0.74505805969E-08  0.10566000000E+00  0.10566000000E+00 0.  1.
     999900   -1    0    0    0    0 -0.00000000000E+00 -0.00000000000E+00 -0.74505805969E-08  0.93827000000E+00  0.93827000000E+00 0.  1.
     999902    2    1    2    0    0 -0.11704955645E-01 -0.20704544987E-01 -0.15611038137E-01  0.10154802429E+01  0.10150816396E+01 0.  0.
     999903    2    3    3    0    0 -0.12472591396E+00 -0.20043475021E-01 -0.10221334914E-01  0.12823550608E+00  0.19533940473E-01 0.  0.
         14    1    1    2    0    0  0.11704955645E-01  0.20704544987E-01  0.15611038137E-01  0.28449757143E-01  0.00000000000E+00 0. -1.
     999901    1    3    3    0    0  0.11302095831E+00 -0.66106996593E-03 -0.53897032226E-02  0.88724473677E+00  0.88000000000E+00 0.  1.
        -11    1    4    4    0    0 -0.54734992066E-01  0.96862617301E-03 -0.48003937207E-02  0.54956005077E-01  0.51100000000E-03 0. -1.
         11    1    4    4    0    0 -0.69990921889E-01 -0.21012101194E-01 -0.54209411934E-02  0.73279501007E-01  0.51100000000E-03 0.  1.
</event>
<event>
 8    1  0.1010879E+005  0.1043930E+01  0.7957747E-01            NaN
         13   -1    0    0    0    0  0.00000000000E+00  0.00000000000E+00  0.74505805969E-08  0.10566000000E+00  0.10566000000E+00 0.  1.
     999900   -1    0    0    0    0 -0.00000000000E+00 -0.00000000000E+00 -0.74505805969E-08  0.93827000000E+00  0.93827000000E+00 0.  1.
     999902    2    1    2    0    0 -0.20431187436E-01  0.98588160180E-02 -0.42222053269E-02  0.10208549769E+01  0.10205941540E+01 0.  0.
     999903    2    3    3    0    0 -0.11766578427E+00  0.58362336042E-01  0.17083216626E-01  0.13391581366E+00  0.19753728851E-01 0.  0.
         14    1    1    2    0    0  0.20431187436E-01 -0.98588160180E-02  0.42222053269E-02  0.23075023101E-01  0.00000000000E+00 0. -1.
     999901    1    3    3    0    0  0.97234596831E-01 -0.48503520024E-01 -0.21305421953E-01  0.88693916324E+00  0.88000000000E+00 0.  1.
        -11    1    4    4    0    0 -0.29143547309E-01  0.80233641565E-02  0.99640821813E-02  0.31831820194E-01  0.51100000000E-03 0. -1.
         11    1    4    4    0    0 -0.88522236957E-01  0.50338971886E-01  0.71191344451E-02  0.10208399347E+00  0.51100000000E-03 0.  1.
</event>
<event>
 8    1  0.1010879E+005  0.1043930E+01  0.7957747E-01            NaN
         13   -1    0    0    0    0  0.00000000000E+00  0.00000000000E+00  0.74505805969E-08  0.10566000000E+00  0.10566000000E+00 0. -1.
     999900   -1    0    0    0    0 -0.00000000000E+00 -0.00000000000E+00 -0.74505805969E-08  0.93827000000E+00  0.93827000000E+00 0. -1.
     999902    2    1    2    0    0  0.96685144351E-02  0.14928989612E-01 -0.13679365182E-01  0.10214916415E+01  0.10212451682E+01 0.  0.
     999903    2    3    3    0    0  0.27179041947E-01  0.11131009775E+00  0.63872614944E-01  0.13266643581E+00  0.19799850232E-01 0.  0.
         14    1    1    2    0    0 -0.96685144351E-02 -0.14928989612E-01  0.13679365182E-01  0.22438358540E-01  0.00000000000E+00 0.  1.
     999901    1    3    3    0    0 -0.17510527512E-01 -0.96381108133E-01 -0.77551980125E-01  0.88882520565E+00  0.88000000000E+00 0. -1.
        -11    1    4    4    0    0  0.14785910822E-01  0.68965161233E-01  0.28343160298E-01  0.76015869919E-01  0.51100000000E-03 0.  1.
         11    1    4    4    0    0  0.12393131125E-01  0.42344936512E-01  0.35529454645E-01  0.56650565890E-01  0.51100000000E-03 0. -1.
</event>
<event>
 8    1  0.1122880E+005  0.1043930E+01  0.7957747E-01            NaN
         13   -1    0    0    0    0  0.00000000000E+00  0.00000000000E+00  0.74505805969E-08  0.10566000000E+00  0.10566000000E+00 0. -1.
     999900   -1    0    0    0    0 -0.00000000000E+00 -0.00000000000E+00 -0.74505805969E-08  0.93827000000E+00  0.93827000000E+00 0. -1.
     999902    2    1    2    0    0 -0.98602991991E-02 -0.43750237287E-03  0.27343076534E-01  0.10148600715E+01  0.10144436426E+01 0.  0.
     999903    2    3    3    0    0 -0.25255783764E-01 -0.56077610625E-01 -0.10474521176E+00  0.12313132435E+00  0.20179460386E-01 0.  0.
         14    1    1    2    0    0  0.98602991991E-02  0.43750237287E-03 -0.27343076534E-01  0.29069928500E-01  0.00000000000E+00 0.  1.
     999901    1    3    3    0    0  0.15395484565E-01  0.55640108253E-01  0.13208828830E+00  0.89172874715E+00  0.88000000000E+00 0.  1.
        -11    1    4    4    0    0 -0.63278484714E-02 -0.24648726620E-01 -0.26684395947E-01  0.36877086359E-01  0.51100000000E-03 0.  1.
         11    1    4    4    0    0 -0.18927935293E-01 -0.31428884006E-01 -0.78060815816E-01  0.86254237990E-01  0.51100000000E-03 0. -1.
</event>
<event>
 8    1  0.1010879E+005  0.1043930E+01  0.7957747E-01            NaN
         13   -1    0    0    0    0  0.00000000000E+00  0.00000000000E+00  0.74505805969E-08  0.10566000000E+00  0.10566000000E+00 0. -1.
     999900   -1    0    0    0    0 -0.00000000000E+00 -0.00000000000E+00 -0.74505805969E-08  0.93827000000E+00  0.93827000000E+00 0. -1.
     999902    2    1    2    0    0  0.16348486993E-01  0.10653908096E-01  0.14701653091E-01  0.10194981071E+01  0.10192053145E+01 0.  0.
     999903    2    3    3    0    0 -0.51542092678E-01 -0.63248193169E-01 -0.95166313969E-01  0.12700630239E+00  0.20421857777E-01 0.  0.
         14    1    1    2    0    0 -0.16348486993E-01 -0.10653908096E-01 -0.14701653091E-01  0.24431892851E-01  0.00000000000E+00 0.  1.
     999901    1    3    3    0    0  0.67890579671E-01  0.73902101264E-01  0.10986796706E+00  0.89249180476E+00  0.88000000000E+00 0.  1.
        -11    1    4    4    0    0 -0.86120073859E-02 -0.16518457797E-02 -0.13136339377E-01  0.15802525080E-01  0.51100000000E-03 0.  1.
         11    1    4    4    0    0 -0.42930085292E-01 -0.61596347389E-01 -0.82029974593E-01  0.11120377731E+00  0.51100000000E-03 0. -1.
</event>
<event>
 8    1  0.1010879E+005  0.1043930E+01  0.7957747E-01            NaN
         13   -1    0    0    0    0  0.00000000000E+00  0.00000000000E+00  0.74505805969E-08  0.10566000000E+00  0.10566000000E+00 0.  1.
     999900   -1    0    0    0    0 -0.00000000000E+00 -0.00000000000E+00 -0.74505805969E-08  0.93827000000E+00  0.93827000000E+00 0. -1.
     999902    2    1    2    0    0 -0.62562508938E-03  0.19739537191E-01 -0.13434883145E-01  0.10200440874E+01  0.10197643862E+01 0.  0.
     999903    2    3    3    0    0  0.70779269404E-01 -0.10342442805E+00  0.18025857789E-01  0.12804756302E+00  0.19103129411E-01 0.  0.
         14    1    1    2    0    0  0.62562508938E-03 -0.19739537191E-01  0.13434883145E-01  0.23885912593E-01  0.00000000000E+00 0.  1.
     999901    1    3    3    0    0 -0.71404894493E-01  0.12316396524E+00 -0.31460740934E-01  0.89199652438E+00  0.88000000000E+00 0.  1.
        -11    1    4    4    0    0  0.81140878483E-02 -0.19048201497E-01  0.89245579147E-02  0.22551746204E-01  0.51100000000E-03 0.  1.
         11    1    4    4    0    0  0.62665181555E-01 -0.84376226550E-01  0.91012998742E-02  0.10549581682E+00  0.51100000000E-03 0. -1.
</event>
<event>
 8    1  0.1010879E+005  0.1043930E+01  0.7957747E-01            NaN
         13   -1    0    0    0    0  0.00000000000E+00  0.00000000000E+00  0.74505805969E-08  0.10566000000E+00  0.10566000000E+00 0.  1.
     999900   -1    0    0    0    0 -0.00000000000E+00 -0.00000000000E+00 -0.74505805969E-08  0.93827000000E+00  0.93827000000E+00 0.  1.
     999902    2    1    2    0    0 -0.19166985181E-01  0.11860601611E-01 -0.89858758409E-02  0.10196649396E+01  0.10193761798E+01 0.  0.
     999903    2    3    3    0    0 -0.36229319042E-01 -0.94359549652E-01  0.77825902456E-01  0.12887308478E+00  0.18306084182E-01 0.  0.
         14    1    1    2    0    0  0.19166985181E-01 -0.11860601611E-01  0.89858758409E-02  0.24265060398E-01  0.00000000000E+00 0.  1.
     999901    1    3    3    0    0  0.17062333861E-01  0.10622015126E+00 -0.86811778297E-01  0.89079185482E+00  0.88000000000E+00 0.  1.
        -11    1    4    4    0    0 -0.34820434794E-01 -0.71593914764E-01  0.56330876522E-01  0.97527329920E-01  0.51100000000E-03 0.  1.
         11    1    4    4    0    0 -0.14088842475E-02 -0.22765634887E-01  0.21495025934E-01  0.31345754857E-01  0.51100000000E-03 0. -1.
</event>
<event>
 8    1  0.1010879E+005  0.1043930E+01  0.7957747E-01            NaN
         13   -1    0    0    0    0  0.00000000000E+00  0.00000000000E+00  0.74505805969E-08  0.10566000000E+00  0.10566000000E+00 0.  1.
     999900   -1    0    0    0    0 -0.00000000000E+00 -0.00000000000E+00 -0.74505805969E-08  0.93827000000E+00  0.93827000000E+00 0. -1.
     999902    2    1    2    0    0 -0.65011600512E-02 -0.19963033680E-01 -0.78912156711E-02  0.10215010214E+01  0.10212547565E+01 0.  0.
     999903    2    3    3    0    0 -0.46004951510E-01  0.11764399335E+00  0.19908379007E-01  0.12949818459E+00  0.20417431855E-01 0.  0.
         14    1    1    2    0    0  0.65011600512E-02  0.19963033680E-01  0.78912156711E-02  0.22428978587E-01  0.00000000000E+00 0. -1.
     999901    1    3    3    0    0  0.39503791459E-01 -0.13760702703E+00 -0.27799594678E-01  0.89200283682E+00  0.88000000000E+00 0.  1.
        -11    1    4    4    0    0 -0.44072142659E-01  0.10797310180E+00  0.12783824030E-01  0.11732106269E+00  0.51100000000E-03 0.  1.
         11    1    4    4    0    0 -0.19328088506E-02  0.96708915467E-02  0.71245549774E-02  0.12177121909E-01  0.51100000000E-03 0. -1.
</event>
<event>
 8    1  0.1010879E+005  0.1043930E+01  0.7957747E-01            NaN
         13   -1    0    0    0    0  0.00000000000E+00  0.00000000000E+00  0.74505805969E-08  0.10566000000E+00  0.10566000000E+00 0.  1.
     999900   -1    0    0    0    0 -0.00000000000E+00 -0.00000000000E+00 -0.74505805969E-08  0.93827000000E+00  0.93827000000E+00 0. -1.
     999902    2    1    2    0    0 -0.11981373121E-01  0.41199659853E-02 -0.20584272355E-01  0.10197589493E+01  0.10194724494E+01 0.  0.
     999903    2    3    3    0    0  0.87899759235E-01 -0.33694695876E-01 -0.89014276437E-01  0.13066454788E+00  0.16970045936E-01 0.  0.
         14    1    1    2    0    0  0.11981373121E-01 -0.41199659853E-02  0.20584272355E-01  0.24171050659E-01  0.00000000000E+00 0.  1.
     999901    1    3    3    0    0 -0.99881132356E-01  0.37814661862E-01  0.68430004082E-01  0.88909440146E+00  0.88000000000E+00 0.  1.
        -11    1    4    4    0    0  0.32086127294E-01 -0.12883573804E-01 -0.44203869341E-01  0.56122626670E-01  0.51100000000E-03 0.  1.
         11    1    4    4    0    0  0.55813631941E-01 -0.20811122072E-01 -0.44810407096E-01  0.74541921209E-01  0.51100000000E-03 0. -1.
</event>
<event>
 8    1  0.1010879E+005  0.1043930E+01  0.7957747E-01            NaN
         13   -1    0    0    0    0  0.00000000000E+00  0.00000000000E+00  0.74505805969E-08  0.10566000000E+00  0.10566000000E+00 0.  1.
     999900   -1    0    0    0    0 -0.00000000000E+00 -0.00000000000E+00 -0.74505805969E-08  0.93827000000E+00  0.93827000000E+00 0.  1.
     999902    2    1    2    0    0  0.64253325275E-02 -0.22009600051E-01 -0.46361561303E-02  0.10205376650E+01  0.10202695352E+01 0.  0.
     999903    2    3    3    0    0  0.61573751070E-01 -0.66634419622E-01  0.94179093106E-01  0.13216996182E+00  0.19176144834E-01 0.  0.
         14    1    1    2    0    0 -0.64253325275E-02  0.22009600051E-01  0.46361561303E-02  0.23392334988E-01  0.00000000000E+00 0. -1.
     999901    1    3    3    0    0 -0.55148418543E-01  0.44624819571E-01 -0.98815249236E-01  0.88836770319E+00  0.88000000000E+00 0.  1.
        -11    1    4    4    0    0  0.26910222900E-01 -0.22594343250E-01  0.48344607023E-01  0.59767270246E-01  0.51100000000E-03 0. -1.
         11    1    4    4    0    0  0.34663528171E-01 -0.44040076372E-01  0.45834486082E-01  0.72402691576E-01  0.51100000000E-03 0.  1.
</event>
<event>
 7    1  0.1010879E+005  0.1043930E+01  0.7957747E-01            NaN
         13   -1    0    0    0    0  0.00000000000E+00  0.00000000000E+00  0.74505805969E-08  0.10566000000E+00  0.10566000000E+00 0.  1.
     999900   -1    0    0    0    0 -0.00000000000E+00 -0.00000000000E+00 -0.74505805969E-08  0.93827000000E+00  0.93827000000E+00 0. -1.
     999903    2    1    2    0    0  0.71494951380E-01  0.37592437406E-01  0.74964390616E-01  0.11157950650E+00  0.17481618556E-01 0.  0.
         14    1    1    2    0    0 -0.17449352482E-01  0.40609931451E-01 -0.25443219633E-02  0.44273242582E-01  0.00000000000E+00 0. -1.
     999901    1    1    2    0    0 -0.54045598898E-01 -0.78202368857E-01 -0.72420068653E-01  0.88807725092E+00  0.88000000000E+00 0. -1.
        -11    1    3    3    0    0  0.34642852382E-01  0.16214044617E-01  0.47068672074E-01  0.60652646075E-01  0.51100000000E-03 0. -1.
         11    1    3    3    0    0  0.36852098998E-01  0.21378392790E-01  0.27895718542E-01  0.50926860425E-01  0.51100000000E-03 0.  1.
</event>
<event>
 8    1  0.1010879E+005  0.1043930E+01  0.7957747E-01            NaN
         13   -1    0    0    0    0  0.00000000000E+00  0.00000000000E+00  0.74505805969E-08  0.10566000000E+00  0.10566000000E+00 0. -1.
     999900   -1    0    0    0    0 -0.00000000000E+00 -0.00000000000E+00 -0.74505805969E-08  0.93827000000E+00  0.93827000000E+00 0.  1.
     999902    2    1    2    0    0  0.10620338902E-01  0.16489320061E-01 -0.13712090967E-01  0.10199986249E+01  0.10197178454E+01 0.  0.
     999903    2    3    3    0    0  0.23467181626E-01 -0.10450001978E+00  0.67137867652E-01  0.12795592553E+00  0.19856053477E-01 0.  0.
         14    1    1    2    0    0 -0.10620338902E-01 -0.16489320061E-01  0.13712090967E-01  0.23931375078E-01  0.00000000000E+00 0. -1.
     999901    1    3    3    0    0 -0.12846842725E-01  0.12098933984E+00 -0.80849958620E-01  0.89204269939E+00  0.88000000000E+00 0.  1.
        -11    1    4    4    0    0  0.32345584153E-02 -0.20223014485E-01  0.22620784438E-01  0.30518743300E-01  0.51100000000E-03 0.  1.
         11    1    4    4    0    0  0.20232623211E-01 -0.84277005291E-01  0.44517083214E-01  0.97437182234E-01  0.51100000000E-03 0. -1.
</event>
<event>
 8    1  0.1010879E+005  0.1043930E+01  0.7957747E-01            NaN
         13   -1    0    0    0    0  0.00000000000E+00  0.00000000000E+00  0.74505805969E-08  0.10566000000E+00  0.10566000000E+00 0. -1.
     999900   -1    0    0    0    0 -0.00000000000E+00 -0.00000000000E+00 -0.74505805969E-08  0.93827000000E+00  0.93827000000E+00 0. -1.
     999902    2    1    2    0    0  0.13666017125E-01  0.16767131509E-01  0.10578981158E-01  0.10198507233E+01  0.10195664207E+01 0.  0.
     999903    2    3    3    0    0 -0.33747118124E-01 -0.89825983601E-01 -0.82366439948E-01  0.12729879268E+00  0.14600577957E-01 0.  0.
         14    1    1    2    0    0 -0.13666017125E-01 -0.16767131509E-01 -0.10578981158E-01  0.24079276680E-01  0.00000000000E+00 0.  1.
     999901    1    3    3    0    0  0.47413135249E-01  0.10659311511E+00  0.92945421106E-01  0.89255193064E+00  0.88000000000E+00 0.  1.
        -11    1    4    4    0    0 -0.13027213972E-01 -0.17496674477E-01 -0.18352784645E-01  0.28511887816E-01  0.51100000000E-03 0.  1.
         11    1    4    4    0    0 -0.20719904153E-01 -0.72329309125E-01 -0.64013655303E-01  0.98786904865E-01  0.51100000000E-03 0. -1.
</event>
<event>
 8    1  0.1010879E+005  0.1043930E+01  0.7957747E-01            NaN
         13   -1    0    0    0    0  0.00000000000E+00  0.00000000000E+00  0.74505805969E-08  0.10566000000E+00  0.10566000000E+00 0.  1.
     999900   -1    0    0    0    0 -0.00000000000E+00 -0.00000000000E+00 -0.74505805969E-08  0.93827000000E+00  0.93827000000E+00 0.  1.
     999902    2    1    2    0    0  0.13201564119E-01 -0.17940290146E-01  0.42416717422E-02  0.10212556293E+01  0.10210038851E+01 0.  0.
     999903    2    3    3    0    0  0.10098440157E+00 -0.77109670725E-01  0.38890685486E-01  0.13423398569E+00  0.19040136964E-01 0.  0.
         14    1    1    2    0    0 -0.13201564119E-01  0.17940290146E-01 -0.42416717422E-02  0.22674370661E-01  0.00000000000E+00 0. -1.
     999901    1    3    3    0    0 -0.87782837456E-01  0.59169380579E-01 -0.34649013744E-01  0.88702164365E+00  0.88000000000E+00 0. -1.
        -11    1    4    4    0    0  0.42264951606E-01 -0.27997778933E-01  0.24626947831E-01  0.56364434175E-01  0.51100000000E-03 0. -1.
         11    1    4    4    0    0  0.58719449969E-01 -0.49111891792E-01  0.14263737656E-01  0.77869551514E-01  0.51100000000E-03 0.  1.
</event>
<event>
 8    1  0.1010879E+005  0.1043930E+01  0.7957747E-01            NaN
         13   -1    0    0    0    0  0.00000000000E+00  0.00000000000E+00  0.74505805969E-08  0.10566000000E+00  0.10566000000E+00 0. -1.
     999900   -1    0    0    0    0 -0.00000000000E+00 -0.00000000000E+00 -0.74505805969E-08  0.93827000000E+00  0.93827000000E+00 0. -1.
     999902    2    1    2    0    0  0.38061678237E-02 -0.57089179373E-02 -0.21864356222E-01  0.10210143126E+01  0.10207571199E+01 0.  0.
     999903    2    3    3    0    0 -0.87969448464E-01 -0.30518509436E-01 -0.92890271170E-01  0.13304868251E+00  0.20083479713E-01 0.  0.
         14    1    1    2    0    0 -0.38061678237E-02  0.57089179373E-02  0.21864356222E-01  0.22915687433E-01  0.00000000000E+00 0. -1.
     999901    1    3    3    0    0  0.91775616287E-01  0.24809591499E-01  0.71025914948E-01  0.88796563006E+00  0.88000000000E+00 0.  1.
        -11    1    4    4    0    0 -0.71901727609E-01 -0.28570662360E-01 -0.85305505266E-01  0.11516697239E+00  0.51100000000E-03 0. -1.
         11    1    4    4    0    0 -0.16067720855E-01 -0.19478470764E-02 -0.75847659044E-02  0.17881710112E-01  0.51100000000E-03 0.  1.
</event>
<event>
 8    1  0.1010879E+005  0.1043930E+01  0.7957747E-01            NaN
         13   -1    0    0    0    0  0.00000000000E+00  0.00000000000E+00  0.74505805969E-08  0.10566000000E+00  0.10566000000E+00 0.  1.
     999900   -1    0    0    0    0 -0.00000000000E+00 -0.00000000000E+00 -0.74505805969E-08  0.93827000000E+00  0.93827000000E+00 0.  1.
     999902    2    1    2    0    0 -0.82780787475E-02  0.46278455292E-02 -0.28178686170E-01  0.10141981670E+01  0.10137622699E+01 0.  0.
     999903    2    3    3    0    0 -0.27474254630E-01 -0.38058582728E-02 -0.12412635914E+00  0.12873468579E+00  0.19898418721E-01 0.  0.
         14    1    1    2    0    0  0.82780787475E-02 -0.46278455292E-02  0.28178686170E-01  0.29731833046E-01  0.00000000000E+00 0.  1.
     999901    1    3    3    0    0  0.19196175882E-01  0.84337038020E-02  0.95947672968E-01  0.88546348116E+00  0.88000000000E+00 0. -1.
        -11    1    4    4    0    0  0.74324263890E-03 -0.57518443762E-02 -0.23089413419E-01  0.23812145145E-01  0.51100000000E-03 0. -1.
         11    1    4    4    0    0 -0.28217497268E-01  0.19459861034E-02 -0.10103694572E+00  0.10492254064E+00  0.51100000000E-03 0.  1.
</event>
<event>
 8    1  0.1010879E+005  0.1043930E+01  0.7957747E-01            NaN
         13   -1    0    0    0    0  0.00000000000E+00  0.00000000000E+00  0.74505805969E-08  0.10566000000E+00  0.10566000000E+00 0. -1.
     999900   -1    0    0    0    0 -0.00000000000E+00 -0.00000000000E+00 -0.74505805969E-08  0.93827000000E+00  0.93827000000E+00 0. -1.
     999902    2    1    2    0    0 -0.89132168748E-02  0.13865325331E-02 -0.21442957284E-01  0.10206669752E+01  0.10204018355E+01 0.  0.
     999903    2    3    3    0    0  0.76682163379E-01 -0.80577467429E-02  0.10009731626E+00  0.12814929936E+00  0.21393661190E-01 0.  0.
         14    1    1    2    0    0  0.89132168748E-02 -0.13865325331E-02  0.21442957284E-01  0.23263024838E-01  0.00000000000E+00 0. -1.
     999901    1    3    3    0    0 -0.85595380254E-01  0.94442792759E-02 -0.12154027355E+00  0.89251767581E+00  0.88000000000E+00 0. -1.
        -11    1    4    4    0    0  0.51588674337E-01  0.38028134894E-02  0.57944478468E-01  0.77676743084E-01  0.51100000000E-03 0.  1.
         11    1    4    4    0    0  0.25093489042E-01 -0.11860560232E-01  0.42152837796E-01  0.50472556272E-01  0.51100000000E-03 0. -1.
</event>
<event>
 8    1  0.1010879E+005  0.1043930E+01  0.7957747E-01            NaN
         13   -1    0    0    0    0  0.00000000000E+00  0.00000000000E+00  0.74505805969E-08  0.10566000000E+00  0.10566000000E+00 0. -1.
     999900   -1    0    0    0    0 -0.00000000000E+00 -0.00000000000E+00 -0.74505805969E-08  0.93827000000E+00  0.93827000000E+00 0. -1.
     999902    2    1    2    0    0 -0.17214792251E-01  0.14644864679E-01  0.30494476810E-02  0.10211238547E+01  0.10208691426E+01 0.  0.
     999903    2    3    3    0    0 -0.57770698573E-01  0.96795293784E-01  0.69268476284E-01  0.13389308746E+00  0.20553699167E-01 0.  0.
         14    1    1    2    0    0  0.17214792251E-01 -0.14644864679E-01 -0.30494476810E-02  0.22806145331E-01  0.00000000000E+00 0.  1.
     999901    1    3    3    0    0  0.40555906322E-01 -0.82150429106E-01 -0.66219028603E-01  0.88723076721E+00  0.88000000000E+00 0.  1.
        -11    1    4    4    0    0 -0.42320233219E-01  0.51266364250E-01  0.38907629304E-01  0.77027962340E-01  0.51100000000E-03 0.  1.
         11    1    4    4    0    0 -0.15450465354E-01  0.45528929534E-01  0.30360846980E-01  0.56865125117E-01  0.51100000000E-03 0. -1.
</event>
<event>
 8    1  0.1010879E+005  0.1043930E+01  0.7957747E-01            NaN
         13   -1    0    0    0    0  0.00000000000E+00  0.00000000000E+00  0.74505805969E-08  0.10566000000E+00  0.10566000000E+00 0.  1.
     999900   -1    0    0    0    0 -0.00000000000E+00 -0.00000000000E+00 -0.74505805969E-08  0.93827000000E+00  0.93827000000E+00 0. -1.
     999902    2    1    2    0    0  0.24395646248E-02 -0.15463350352E-01 -0.17348219122E-01  0.10205627711E+01  0.10202952231E+01 0.  0.
     999903    2    3    3    0    0  0.10099580017E+00 -0.73412867564E-01  0.36497935538E-01  0.13153471391E+00  0.19485401899E-01 0.  0.
         14    1    1    2    0    0 -0.24395646248E-02  0.15463350352E-01  0.17348219122E-01  0.23367228898E-01  0.00000000000E+00 0.  1.
     999901    1    3    3    0    0 -0.98556235548E-01  0.57949517212E-01 -0.53846154660E-01  0.88902805720E+00  0.88000000000E+00 0. -1.
        -11    1    4    4    0    0  0.43689665805E-01 -0.41911191076E-01  0.12135971219E-01  0.61748504062E-01  0.51100000000E-03 0. -1.
         11    1    4    4    0    0  0.57306134368E-01 -0.31501676488E-01  0.24361964319E-01  0.69786209843E-01  0.51100000000E-03 0.  1.
</event>
<event>
 8    1  0.1010879E+005  0.1043930E+01  0.7957747E-01            NaN
         13   -1    0    0    0    0  0.00000000000E+00  0.00000000000E+00  0.74505805969E-08  0.10566000000E+00  0.10566000000E+00 0.  1.
     999900   -1    0    0    0    0 -0.00000000000E+00 -0.00000000000E+00 -0.74505805969E-08  0.93827000000E+00  0.93827000000E+00 0. -1.
     999902    2    1    2    0    0  0.75539331430E-02 -0.13619649975E-01 -0.16936659138E-01  0.10209211497E+01  0.10206618375E+01 0.  0.
     999903    2    3    3    0    0 -0.95501218193E-01 -0.67401020128E-01  0.53871861624E-01  0.13045686255E+00  0.21294020800E-01 0.  0.
         14    1    1    2    0    0 -0.75539331430E-02  0.13619649975E-01  0.16936659138E-01  0.23008850344E-01  0.00000000000E+00 0.  1.
     999901    1    3    3    0    0  0.10305515134E+00  0.53781370153E-01 -0.70808520763E-01  0.89046428710E+00  0.88000000000E+00 0. -1.
        -11    1    4    4    0    0 -0.34212391151E-01 -0.36161714059E-01  0.26704137521E-01  0.56493622239E-01  0.51100000000E-03 0. -1.
         11    1    4    4    0    0 -0.61288827042E-01 -0.31239306069E-01  0.27167724103E-01  0.73963240315E-01  0.51100000000E-03 0.  1.
</event>
<event>
 8    1  0.1010879E+005  0.1043930E+01  0.7957747E-01            NaN
         13   -1    0    0    0    0  0.00000000000E+00  0.00000000000E+00  0.74505805969E-08  0.10566000000E+00  0.10566000000E+00 0.  1.
     999900   -1    0    0    0    0 -0.00000000000E+00 -0.00000000000E+00 -0.74505805969E-08  0.93827000000E+00  0.93827000000E+00 0. -1.
     999902    2    1    2    0    0  0.15550109545E-01 -0.13578985792E-01 -0.11133444615E-01  0.10204747586E+01  0.10202051678E+01 0.  0.
     999903    2    3    3    0    0 -0.10650115472E+00  0.29682300046E-01 -0.64955277676E-01  0.12937159973E+00  0.17154819351E-01 0.  0.
         14    1    1    2    0    0 -0.15550109545E-01  0.13578985792E-01  0.11133444615E-01  0.23455241440E-01  0.00000000000E+00 0.  1.
     999901    1    3    3    0    0  0.12205126426E+00 -0.43261285838E-01  0.53821833061E-01  0.89110315883E+00  0.88000000000E+00 0. -1.
        -11    1    4    4    0    0 -0.37717742035E-01  0.15711999106E-01 -0.31620807909E-01  0.51668477759E-01  0.51100000000E-03 0. -1.
         11    1    4    4    0    0 -0.68783412683E-01  0.13970300940E-01 -0.33334469767E-01  0.77703121973E-01  0.51100000000E-03 0.  1.
</event>
<event>
 8    1  0.1010879E+005  0.1043930E+01  0.7957747E-01            NaN
         13   -1    0    0    0    0  0.00000000000E+00  0.00000000000E+00  0.74505805969E-08  0.10566000000E+00  0.10566000000E+00 0. -1.
     999900   -1    0    0    0    0 -0.00000000000E+00 -0.00000000000E+00 -0.74505805969E-08  0.93827000000E+00  0.93827000000E+00 0. -1.
     999902    2    1    2    0    0 -0.34630261735E-02 -0.19190458708E-01 -0.12627649126E-01  0.10206980440E+01  0.10204336202E+01 0.  0.
     999903    2    3    3    0    0 -0.39079613461E-01 -0.10156912864E+00 -0.75633634253E-01  0.13389223625E+00  0.19057287789E-01 0.  0.
         14    1    1    2    0    0  0.34630261735E-02  0.19190458708E-01  0.12627649126E-01  0.23231955969E-01  0.00000000000E+00 0. -1.
     999901    1    3    3    0    0  0.35616587288E-01  0.82378669929E-01  0.63005985127E-01  0.88680580778E+00  0.88000000000E+00 0.  1.
        -11    1    4    4    0    0 -0.38744533707E-01 -0.80017555582E-01 -0.59906048897E-01  0.10720514871E+00  0.51100000000E-03 0.  1.
         11    1    4    4    0    0 -0.33507975392E-03 -0.21551573055E-01 -0.15727585356E-01  0.26687087546E-01  0.51100000000E-03 0. -1.
</event>
<event>
 8    1  0.1010879E+005  0.1043930E+01  0.7957747E-01            NaN
         13   -1    0    0    0    0  0.00000000000E+00  0.00000000000E+00  0.74505805969E-08  0.10566000000E+00  0.10566000000E+00 0.  1.
     999900   -1    0    0    0    0 -0.00000000000E+00 -0.00000000000E+00 -0.74505805969E-08  0.93827000000E+00  0.93827000000E+00 0.  1.
     999902    2    1    2    0    0  0.15154411827E-01 -0.17642406012E-01 -0.52571665918E-02  0.10200857452E+01  0.10198070303E+01 0.  0.
     999903    2    3    3    0    0 -0.10879670663E+00  0.49280752185E-01  0.40655086359E-01  0.12770100537E+00  0.19733089347E-01 0.  0.
         14    1    1    2    0    0 -0.15154411827E-01  0.17642406012E-01  0.52571665918E-02  0.23844254828E-01  0.00000000000E+00 0. -1.
     999901    1    3    3    0    0  0.12395111846E+00 -0.66923158197E-01 -0.45912252951E-01  0.89238473981E+00  0.88000000000E+00 0.  1.
        -11    1    4    4    0    0 -0.97242215847E-01  0.47923108810E-01  0.41364342207E-01  0.11603423128E+00  0.51100000000E-03 0. -1.
         11    1    4    4    0    0 -0.11554490782E-01  0.13576433749E-02 -0.70925584800E-03  0.11666774088E-01  0.51100000000E-03 0.  1.
</event>
<event>
 8    1  0.1010879E+005  0.1043930E+01  0.7957747E-01            NaN
         13   -1    0    0    0    0  0.00000000000E+00  0.00000000000E+00  0.74505805969E-08  0.10566000000E+00  0.10566000000E+00 0. -1.
     999900   -1    0    0    0    0 -0.00000000000E+00 -0.00000000000E+00 -0.74505805969E-08  0.93827000000E+00  0.93827000000E+00 0.  1.
     999902    2    1    2    0    0 -0.16846193523E-01  0.10355383060E-01 -0.13733312341E-01  0.10198544509E+01  0.10195702374E+01 0.  0.
     999903    2    3    3    0    0  0.99123051613E-01  0.60149023352E-01 -0.55034809915E-01  0.12989148198E+00  0.19992058826E-01 0.  0.
         14    1    1    2    0    0  0.16846193523E-01 -0.10355383060E-01  0.13733312341E-01  0.24075549057E-01  0.00000000000E+00 0.  1.
     999901    1    3    3    0    0 -0.11596924514E+00 -0.49793640292E-01  0.41301497574E-01  0.88996296897E+00  0.88000000000E+00 0.  1.
        -11    1    4    4    0    0  0.58041845861E-01  0.28586503454E-01 -0.21515447501E-01  0.68185186462E-01  0.51100000000E-03 0. -1.
         11    1    4    4    0    0  0.41081205752E-01  0.31562519898E-01 -0.33519362415E-01  0.61706295514E-01  0.51100000000E-03 0.  1.
</event>
<event>
 8    1  0.1010879E+005  0.1043930E+01  0.7957747E-01            NaN
         13   -1    0    0    0    0  0.00000000000E+00  0.00000000000E+00  0.74505805969E-08  0.10566000000E+00  0.10566000000E+00 0.  1.
     999900   -1    0    0    0    0 -0.00000000000E+00 -0.00000000000E+00 -0.74505805969E-08  0.93827000000E+00  0.93827000000E+00 0. -1.
     999902    2    1    2    0    0 -0.20310270616E-01  0.99973382961E-02 -0.56189834986E-02  0.10206056170E+01  0.10203390606E+01 0.  0.
     999903    2    3    3    0    0  0.17722966460E-02  0.13043943686E+00 -0.74611024762E-02  0.13212526706E+00  0.19591590593E-01 0.  0.
         14    1    1    2    0    0  0.20310270616E-01 -0.99973382961E-02  0.56189834986E-02  0.23324382973E-01  0.00000000000E+00 0.  1.
     999901    1    3    3    0    0 -0.22082567262E-01 -0.12044209856E+00  0.18421189776E-02  0.88848034997E+00  0.88000000000E+00 0.  1.
        -11    1    4    4    0    0 -0.45876166456E-02  0.16115949924E-01  0.34156986676E-02  0.17108424440E-01  0.51100000000E-03 0.  1.
         11    1    4    4    0    0  0.63599132916E-02  0.11432348693E+00 -0.10876801144E-01  0.11501684262E+00  0.51100000000E-03 0. -1.
</event>
<event>
 8    1  0.1010879E+005  0.1043930E+01  0.7957747E-01            NaN
         13   -1    0    0    0    0  0.00000000000E+00  0.00000000000E+00  0.74505805969E-08  0.10566000000E+00  0.10566000000E+00 0. -1.
     999900   -1    0    0    0    0 -0.00000000000E+00 -0.00000000000E+00 -0.74505805969E-08  0.93827000000E+00  0.93827000000E+00 0.  1.
     999902    2    1    2    0    0  0.52259443144E-02  0.13100543498E-01  0.20330586371E-01  0.10191859608E+01  0.10188855457E+01 0.  0.
     999903    2    3    3    0    0  0.11748052353E+00 -0.26559324551E-01  0.46601284721E-01  0.13078056613E+00  0.20610812920E-01 0.  0.
         14    1    1    2    0    0 -0.52259443144E-02 -0.13100543498E-01 -0.20330586371E-01  0.24744039204E-01  0.00000000000E+00 0. -1.
     999901    1    3    3    0    0 -0.11225457921E+00  0.39659868049E-01 -0.26270698350E-01  0.88840539467E+00  0.88000000000E+00 0.  1.
        -11    1    4    4    0    0  0.65337987423E-01 -0.13942220174E-01  0.36691915686E-01  0.76223329116E-01  0.51100000000E-03 0. -1.
         11    1    4    4    0    0  0.52142536106E-01 -0.12617104377E-01  0.99093690357E-02  0.54557237009E-01  0.51100000000E-03 0.  1.
</event>
<event>
 8    1  0.1010879E+005  0.1043930E+01  0.7957747E-01            NaN
         13   -1    0    0    0    0  0.00000000000E+00  0.00000000000E+00  0.74505805969E-08  0.10566000000E+00  0.10566000000E+00 0.  1.
     999900   -1    0    0    0    0 -0.00000000000E+00 -0.00000000000E+00 -0.74505805969E-08  0.93827000000E+00  0.93827000000E+00 0.  1.
     999902    2    1    2    0    0  0.19060758766E-01  0.91833758492E-02  0.11342263619E-01  0.10199238787E+01  0.10196413215E+01 0.  0.
     999903    2    3    3    0    0 -0.98595606854E-01  0.73020773578E-01 -0.33205826730E-01  0.12868722881E+00  0.20115885898E-01 0.  0.
         14    1    1    2    0    0 -0.19060758766E-01 -0.91833758492E-02 -0.11342263619E-01  0.24006121318E-01  0.00000000000E+00 0. -1.
     999901    1    3    3    0    0  0.11765636562E+00 -0.63837397729E-01  0.44548090348E-01  0.89123664987E+00  0.88000000000E+00 0. -1.
        -11    1    4    4    0    0 -0.28846220602E-01  0.20491992926E-01 -0.19174577632E-01  0.40248624392E-01  0.51100000000E-03 0. -1.
         11    1    4    4    0    0 -0.69749386252E-01  0.52528780652E-01 -0.14031249097E-01  0.88438604419E-01  0.51100000000E-03 0.  1.
</event>
<event>
 7    1  0.1010879E+005  0.1043930E+01  0.7957747E-01            NaN
         13   -1    0    0    0    0  0.00000000000E+00  0.00000000000E+00  0.74505805969E-08  0.10566000000E+00  0.10566000000E+00 0.  1.
     999900   -1    0    0    0    0 -0.00000000000E+00 -0.00000000000E+00 -0.74505805969E-08  0.93827000000E+00  0.93827000000E+00 0. -1.
     999903    2    1    2    0    0  0.10150772052E+00  0.12361330089E-01  0.34816295135E-01  0.10996834284E+00  0.20597140884E-01 0.  0.
         14    1    1    2    0    0 -0.44112936376E-01 -0.13352487369E-01 -0.24135878010E-01  0.52026730456E-01  0.00000000000E+00 0. -1.
     999901    1    1    2    0    0 -0.57394784143E-01  0.99115727920E-03 -0.10680417126E-01  0.88193492671E+00  0.88000000000E+00 0.  1.
        -11    1    3    3    0    0  0.68032429338E-01  0.15446722773E-01  0.16535185496E-01  0.71698578553E-01  0.51100000000E-03 0.  1.
         11    1    3    3    0    0  0.33475291180E-01 -0.30853926835E-02  0.18281109639E-01  0.38269764282E-01  0.51100000000E-03 0. -1.
</event>
<event>
 8    1  0.1010879E+005  0.1043930E+01  0.7957747E-01            NaN
         13   -1    0    0    0    0  0.00000000000E+00  0.00000000000E+00  0.74505805969E-08  0.10566000000E+00  0.10566000000E+00 0.  1.
     999900   -1    0    0    0    0 -0.00000000000E+00 -0.00000000000E+00 -0.74505805969E-08  0.93827000000E+00  0.93827000000E+00 0. -1.
     999902    2    1    2    0    0  0.15849195355E-01  0.12486391483E-01 -0.66220409371E-02  0.10226942191E+01  0.10224737196E+01 0.  0.
     999903    2    3    3    0    0 -0.46187104980E-01 -0.10736974358E+00 -0.55535435817E-01  0.13106284015E+00  0.20779146582E-01 0.  0.
         14    1    1    2    0    0 -0.15849195355E-01 -0.12486391483E-01  0.66220409371E-02  0.21235780933E-01  0.00000000000E+00 0. -1.
     999901    1    3    3    0    0  0.62036300335E-01  0.11985613507E+00  0.48913394880E-01  0.89163137892E+00  0.88000000000E+00 0. -1.
        -11    1    4    4    0    0 -0.46937556949E-02 -0.14879143768E-02 -0.30306700542E-02  0.58044219087E-02  0.51100000000E-03 0. -1.
         11    1    4    4    0    0 -0.41493349285E-01 -0.10588182921E+00 -0.52504765762E-01  0.12525841824E+00  0.51100000000E-03 0.  1.
</event>
<event>
 8    1  0.1010879E+005  0.1043930E+01  0.7957747E-01            NaN
         13   -1    0    0    0    0  0.00000000000E+00  0.00000000000E+00  0.74505805969E-08  0.10566000000E+00  0.10566000000E+00 0.  1.
     999900   -1    0    0    0    0 -0.00000000000E+00 -0.00000000000E+00 -0.74505805969E-08  0.93827000000E+00  0.93827000000E+00 0. -1.
     999902    2    1    2    0    0 -0.95024521146E-02  0.22195274044E-01 -0.30369173827E-02  0.10195958747E+01  0.10193054489E+01 0.  0.
     999903    2    3    3    0    0 -0.80466353382E-01 -0.97698639888E-01 -0.12386421566E-01  0.12858642521E+00  0.19004921645E-01 0.  0.
         14    1    1    2    0    0  0.95024521146E-02 -0.22195274044E-01  0.30369173827E-02  0.24334125283E-01  0.00000000000E+00 0. -1.
     999901    1    3    3    0    0  0.70963901267E-01  0.11989391393E+00  0.93495041831E-02  0.89100944951E+00  0.88000000000E+00 0. -1.
        -11    1    4    4    0    0 -0.33370940169E-01 -0.46331381759E-01 -0.14319178117E-01  0.58868638224E-01  0.51100000000E-03 0. -1.
         11    1    4    4    0    0 -0.47095413213E-01 -0.51367258130E-01  0.19327565508E-02  0.69717786987E-01  0.51100000000E-03 0.  1.
</event>
<event>
 8    1  0.1010879E+005  0.1043930E+01  0.7957747E-01            NaN
         13   -1    0    0    0    0  0.00000000000E+00  0.00000000000E+00  0.74505805969E-08  0.10566000000E+00  0.10566000000E+00 0.  1.
     999900   -1    0    0    0    0 -0.00000000000E+00 -0.00000000000E+00 -0.74505805969E-08  0.93827000000E+00  0.93827000000E+00 0. -1.
     999902    2    1    2    0    0 -0.16153882130E-02 -0.19866921761E-01  0.13396765956E-01  0.10199138097E+01  0.10196310126E+01 0.  0.
     999903    2    3    3    0    0  0.23254862758E-01  0.11880648976E+00 -0.34066932313E-01  0.12744440007E+00  0.20633675900E-01 0.  0.
         14    1    1    2    0    0  0.16153882130E-02  0.19866921761E-01 -0.13396765956E-01  0.24016190319E-01  0.00000000000E+00 0. -1.
     999901    1    3    3    0    0 -0.24870250971E-01 -0.13867341152E+00  0.47463698269E-01  0.89246940961E+00  0.88000000000E+00 0.  1.
        -11    1    4    4    0    0  0.22831450196E-01  0.73182009451E-01 -0.15679286415E-01  0.78249490534E-01  0.51100000000E-03 0. -1.
         11    1    4    4    0    0  0.42341256254E-03  0.45624480304E-01 -0.18387645898E-01  0.49194909532E-01  0.51100000000E-03 0.  1.
</event>
<event>
 8    1  0.1010879E+005  0.1043930E+01  0.7957747E-01            NaN
         13   -1    0    0    0    0  0.00000000000E+00  0.00000000000E+00  0.74505805969E-08  0.10566000000E+00  0.10566000000E+00 0.  1.
     999900   -1    0    0    0    0 -0.00000000000E+00 -0.00000000000E+00 -0.74505805969E-08  0.93827000000E+00  0.93827000000E+00 0.  1.
     999902    2    1    2    0    0 -0.11210203081E-01 -0.20444576580E-01 -0.72944560552E-02  0.10194993133E+01  0.10192065499E+01 0.  0.
     999903    2    3    3    0    0 -0.20111290565E-01 -0.26932957902E-01 -0.12541314822E+00  0.13153909238E+00  0.21076689694E-01 0.  0.
         14    1    1    2    0    0  0.11210203081E-01  0.20444576580E-01  0.72944560552E-02  0.24430686723E-01  0.00000000000E+00 0.  1.
     999901    1    3    3    0    0  0.89010874834E-02  0.64883813220E-02  0.11811869217E+00  0.88796022089E+00  0.88000000000E+00 0. -1.
        -11    1    4    4    0    0 -0.67512700556E-04 -0.10433813726E-01 -0.64229711375E-01  0.65073696462E-01  0.51100000000E-03 0. -1.
         11    1    4    4    0    0 -0.20043777864E-01 -0.16499144175E-01 -0.61183436847E-01  0.66465395921E-01  0.51100000000E-03 0.  1.
</event>
<event>
 8    1  0.1010879E+005  0.1043930E+01  0.7957747E-01            NaN
         13   -1    0    0    0    0  0.00000000000E+00  0.00000000000E+00  0.74505805969E-08  0.10566000000E+00  0.10566000000E+00 0.  1.
     999900   -1    0    0    0    0 -0.00000000000E+00 -0.00000000000E+00 -0.74505805969E-08  0.93827000000E+00  0.93827000000E+00 0. -1.
     999902    2    1    2    0    0 -0.20270255402E-01 -0.23669529771E-02  0.94462811339E-02  0.10214418265E+01  0.10211942455E+01 0.  0.
     999903    2    3    3    0    0 -0.71080563149E-01 -0.56633573679E-01 -0.93957180414E-01  0.13227433420E+00  0.20217309673E-01 0.  0.
         14    1    1    2    0    0  0.20270255402E-01  0.23669529771E-02 -0.94462811339E-02  0.22488173508E-01  0.00000000000E+00 0.  1.
     999901    1    3    3    0    0  0.50810307747E-01  0.54266620702E-01  0.10340346155E+00  0.88916749230E+00  0.88000000000E+00 0.  1.
        -11    1    4    4    0    0 -0.35797032990E-01 -0.39688563003E-01 -0.60990755862E-01  0.81097120946E-01  0.51100000000E-03 0. -1.
         11    1    4    4    0    0 -0.35283530159E-01 -0.16945010675E-01 -0.32966424553E-01  0.51177213250E-01  0.51100000000E-03 0.  1.
</event>
<event>
 8    1  0.1010879E+005  0.1043930E+01  0.7957747E-01            NaN
         13   -1    0    0    0    0  0.00000000000E+00  0.00000000000E+00  0.74505805969E-08  0.10566000000E+00  0.10566000000E+00 0. -1.
     999900   -1    0    0    0    0 -0.00000000000E+00 -0.00000000000E+00 -0.74505805969E-08  0.93827000000E+00  0.93827000000E+00 0.  1.
     999902    2    1    2    0    0 -0.27470178168E-02  0.73018992424E-02  0.20411224299E-01  0.10220786404E+01  0.10218450299E+01 0.  0.
     999903    2    3    3    0    0  0.12587540375E+00  0.86796725711E-02  0.36287947517E-01  0.13258569723E+00  0.18498594270E-01 0.  0.
         14    1    1    2    0    0  0.27470178168E-02 -0.73018992424E-02 -0.20411224299E-01  0.21851359610E-01  0.00000000000E+00 0.  1.
     999901    1    3    3    0    0 -0.12862242157E+00 -0.13777733286E-02 -0.15876723218E-01  0.88949294316E+00  0.88000000000E+00 0.  1.
        -11    1    4    4    0    0  0.88288389454E-01  0.69845453831E-02  0.34066223785E-01  0.94891476490E-01  0.51100000000E-03 0.  1.
         11    1    4    4    0    0  0.37587014296E-01  0.16951271879E-02  0.22217237326E-02  0.37694220741E-01  0.51100000000E-03 0. -1.
</event>
<event>
 8    1  0.1010879E+005  0.1043930E+01  0.7957747E-01            NaN
         13   -1    0    0    0    0  0.00000000000E+00  0.00000000000E+00  0.74505805969E-08  0.10566000000E+00  0.10566000000E+00 0.  1.
     999900   -1    0    0    0    0 -0.00000000000E+00 -0.00000000000E+00 -0.74505805969E-08  0.93827000000E+00  0.93827000000E+00 0. -1.
     999902    2    1    2    0    0 -0.69286139221E-03 -0.24242676892E-01 -0.82131840745E-02  0.10183244570E+01  0.10180024832E+01 0.  0.
     999903    2    3    3    0    0 -0.81774334681E-01 -0.42781359465E-01 -0.90470506332E-01  0.13058341642E+00  0.18703732181E-01 0.  0.
         14    1    1    2    0    0  0.69286139221E-03  0.24242676892E-01  0.82131840745E-02  0.25605543002E-01  0.00000000000E+00 0.  1.
     999901    1    3    3    0    0  0.81081473289E-01  0.18538682573E-01  0.82257322257E-01  0.88774104058E+00  0.88000000000E+00 0.  1.
        -11    1    4    4    0    0 -0.76286472659E-01 -0.33705475986E-01 -0.82441239852E-01  0.11727107133E+00  0.51100000000E-03 0. -1.
         11    1    4    4    0    0 -0.54878620226E-02 -0.90758834786E-02 -0.80292664804E-02  0.13312345087E-01  0.51100000000E-03 0.  1.
</event>
<event>
 8    1  0.1010879E+005  0.1043930E+01  0.7957747E-01            NaN
         13   -1    0    0    0    0  0.00000000000E+00  0.00000000000E+00  0.74505805969E-08  0.10566000000E+00  0.10566000000E+00 0.  1.
     999900   -1    0    0    0    0 -0.00000000000E+00 -0.00000000000E+00 -0.74505805969E-08  0.93827000000E+00  0.93827000000E+00 0.  1.
     999902    2    1    2    0    0  0.11880916775E-01 -0.22460200065E-01  0.36161698021E-03  0.10185184369E+01  0.10182013842E+01 0.  0.
     999903    2    3    3    0    0 -0.49248493090E-01  0.11729376929E-01  0.11617842098E+00  0.12817060378E+00  0.19164702345E-01 0.  0.
         14    1    1    2    0    0 -0.11880916775E-01  0.22460200065E-01 -0.36161698021E-03  0.25411563061E-01  0.00000000000E+00 0.  1.
     999901    1    3    3    0    0  0.61129409865E-01 -0.34189576994E-01 -0.11581680400E+00  0.89034783316E+00  0.88000000000E+00 0.  1.
        -11    1    4    4    0    0 -0.88826483704E-02  0.56245135240E-02  0.44033727629E-01  0.45274351286E-01  0.51100000000E-03 0.  1.
         11    1    4    4    0    0 -0.40365844720E-01  0.61048634046E-02  0.72144693353E-01  0.82896252492E-01  0.51100000000E-03 0. -1.
</event>
<event>
 8    1  0.1010879E+005  0.1043930E+01  0.7957747E-01            NaN
         13   -1    0    0    0    0  0.00000000000E+00  0.00000000000E+00  0.74505805969E-08  0.10566000000E+00  0.10566000000E+00 0. -1.
     999900   -1    0    0    0    0 -0.00000000000E+00 -0.00000000000E+00 -0.74505805969E-08  0.93827000000E+00  0.93827000000E+00 0.  1.
     999902    2    1    2    0    0 -0.22659345223E-01 -0.90634969373E-02 -0.29985725048E-02  0.10193417032E+01  0.10190451038E+01 0.  0.
     999903    2    3    3    0    0  0.65128809391E-01  0.49127345907E-03 -0.10893977869E+00  0.12859954472E+00  0.20687299446E-01 0.  0.
         14    1    1    2    0    0  0.22659345223E-01  0.90634969373E-02  0.29985725048E-02  0.24588296804E-01  0.00000000000E+00 0. -1.
     999901    1    3    3    0    0 -0.87788154614E-01 -0.95547703963E-02  0.10594120618E+00  0.89074215848E+00  0.88000000000E+00 0. -1.
        -11    1    4    4    0    0  0.57468477472E-01  0.64313181411E-02 -0.99345801579E-01  0.11495145570E+00  0.51100000000E-03 0. -1.
         11    1    4    4    0    0  0.76603319191E-02 -0.59400446820E-02 -0.95939771082E-02  0.13648089012E-01  0.51100000000E-03 0.  1.
</event>
<event>
 8    1  0.1010879E+005  0.1043930E+01  0.7957747E-01            NaN
         13   -1    0    0    0    0  0.00000000000E+00  0.00000000000E+00  0.74505805969E-08  0.10566000000E+00  0.10566000000E+00 0.  1.
     999900   -1    0    0    0    0 -0.00000000000E+00 -0.00000000000E+00 -0.74505805969E-08  0.93827000000E+00  0.93827000000E+00 0.  1.
     999902    2    1    2    0    0  0.67668054502E-02 -0.17655607916E-01  0.15357146649E-01  0.10195711802E+01  0.10192801575E+01 0.  0.
     999903    2    3    3    0    0  0.45966319739E-01 -0.12027146961E+00 -0.17739977865E-01  0.13212425978E+00  0.23748352653E-01 0.  0.
         14    1    1    2    0    0 -0.67668054502E-02  0.17655607916E-01 -0.15357146649E-01  0.24358819760E-01  0.00000000000E+00 0. -1.
     999901    1    3    3    0    0 -0.39199514288E-01  0.10261586169E+00  0.33097124514E-01  0.88744692047E+00  0.88000000000E+00 0. -1.
        -11    1    4    4    0    0  0.14307127092E-01 -0.69774556410E-01 -0.71258774974E-02  0.71583670337E-01  0.51100000000E-03 0.  1.
         11    1    4    4    0    0  0.31659192646E-01 -0.50496913201E-01 -0.10614100368E-01  0.60540589438E-01  0.51100000000E-03 0. -1.
</event>
<event>
 8    1  0.1010879E+005  0.1043930E+01  0.7957747E-01            NaN
         13   -1    0    0    0    0  0.00000000000E+00  0.00000000000E+00  0.74505805969E-08  0.10566000000E+00  0.10566000000E+00 0. -1.
     999900   -1    0    0    0    0 -0.00000000000E+00 -0.00000000000E+00 -0.74505805969E-08  0.93827000000E+00  0.93827000000E+00 0.  1.
     999902    2    1    2    0    0 -0.36551554505E-03  0.25116247320E-01  0.11397304915E-01  0.10163463447E+01  0.10159719653E+01 0.  0.
     999903    2    3    3    0    0  0.11575026686E+00 -0.26216058006E-01 -0.36561547054E-01  0.12594310347E+00  0.20964556073E-01 0.  0.
         14    1    1    2    0    0  0.36551554505E-03 -0.25116247320E-01 -0.11397304915E-01  0.27583655312E-01  0.00000000000E+00 0. -1.
     999901    1    3    3    0    0 -0.11611578241E+00  0.51332305326E-01  0.47958851970E-01  0.89040324122E+00  0.88000000000E+00 0. -1.
        -11    1    4    4    0    0  0.19189427267E-01  0.10413686749E-02 -0.21048485150E-03  0.19225607725E-01  0.51100000000E-03 0. -1.
         11    1    4    4    0    0  0.96560839598E-01 -0.27257426681E-01 -0.36351062203E-01  0.10671749574E+00  0.51100000000E-03 0.  1.
</event>
<event>
 8    1  0.1010879E+005  0.1043930E+01  0.7957747E-01            NaN
         13   -1    0    0    0    0  0.00000000000E+00  0.00000000000E+00  0.74505805969E-08  0.10566000000E+00  0.10566000000E+00 0. -1.
     999900   -1    0    0    0    0 -0.00000000000E+00 -0.00000000000E+00 -0.74505805969E-08  0.93827000000E+00  0.93827000000E+00 0. -1.
     999902    2    1    2    0    0  0.92144758213E-02 -0.20143323639E-01  0.75229301304E-02  0.10205365281E+01  0.10202683718E+01 0.  0.
     999903    2    3    3    0    0 -0.62549957720E-01  0.63471213359E-01  0.92108902576E-01  0.12964017524E+00  0.19530308943E-01 0.  0.
         14    1    1    2    0    0 -0.92144758213E-02  0.20143323639E-01 -0.75229301304E-02  0.23393471945E-01  0.00000000000E+00 0.  1.
     999901    1    3    3    0    0  0.71764433542E-01 -0.83614536998E-01 -0.84585972445E-01  0.89089635281E+00  0.88000000000E+00 0. -1.
        -11    1    4    4    0    0 -0.59968742550E-01  0.55130515756E-01  0.88192264392E-01  0.12005732160E+00  0.51100000000E-03 0. -1.
         11    1    4    4    0    0 -0.25812151710E-02  0.83406976033E-02  0.39166381834E-02  0.95828536423E-02  0.51100000000E-03 0.  1.
</event>
<event>
 7    1  0.1010879E+005  0.1043930E+01  0.7957747E-01            NaN
         13   -1    0    0    0    0  0.00000000000E+00  0.00000000000E+00  0.74505805969E-08  0.10566000000E+00  0.10566000000E+00 0. -1.
     999900   -1    0    0    0    0 -0.00000000000E+00 -0.00000000000E+00 -0.74505805969E-08  0.93827000000E+00  0.93827000000E+00 0.  1.
     999903    2    1    2    0    0  0.58004852333E-01 -0.57777642018E-03  0.96134782382E-01  0.11310986740E+00  0.13676585827E-01 0.  0.
         14    1    1    2    0    0  0.76699674656E-02 -0.35914561539E-01 -0.25681195283E-01  0.44813032955E-01  0.00000000000E+00 0.  1.
     999901    1    1    2    0    0 -0.65674819799E-01  0.36492337959E-01 -0.70453587099E-01  0.88600709964E+00  0.88000000000E+00 0.  1.
        -11    1    3    3    0    0  0.49640960575E-01  0.34563701004E-02  0.85957876859E-01  0.99323658693E-01  0.51100000000E-03 0. -1.
         11    1    3    3    0    0  0.83638917585E-02 -0.40341465206E-02  0.10176905523E-01  0.13786208708E-01  0.51100000000E-03 0.  1.
</event>
<event>
 8    1  0.1451838E+005  0.1043930E+01  0.7957747E-01            NaN
         13   -1    0    0    0    0  0.00000000000E+00  0.00000000000E+00  0.74505805969E-08  0.10566000000E+00  0.10566000000E+00 0. -1.
     999900   -1    0    0    0    0 -0.00000000000E+00 -0.00000000000E+00 -0.74505805969E-08  0.93827000000E+00  0.93827000000E+00 0. -1.
     999902    2    1    2    0    0 -0.79495067039E-03  0.23670498016E-01  0.49394182479E-02  0.10197365654E+01  0.10194495282E+01 0.  0.
     999903    2    3    3    0    0 -0.67254379031E-01  0.10755832350E+00 -0.32258129950E-01  0.13247241060E+00  0.20406081654E-01 0.  0.
         14    1    1    2    0    0  0.79495067039E-03 -0.23670498016E-01 -0.49394182479E-02  0.24193434554E-01  0.00000000000E+00 0.  1.
     999901    1    3    3    0    0  0.66459428360E-01 -0.83887825488E-01  0.37197548198E-01  0.88726415485E+00  0.88000000000E+00 0. -1.
        -11    1    4    4    0    0 -0.25320870438E-01  0.40705482193E-01 -0.20945948208E-02  0.47986781605E-01  0.51100000000E-03 0. -1.
         11    1    4    4    0    0 -0.41933508592E-01  0.66852841311E-01 -0.30163535129E-01  0.84485628995E-01  0.51100000000E-03 0.  1.
</event>
<event>
 8    1  0.1010879E+005  0.1043930E+01  0.7957747E-01            NaN
         13   -1    0    0    0    0  0.00000000000E+00  0.00000000000E+00  0.74505805969E-08  0.10566000000E+00  0.10566000000E+00 0. -1.
     999900   -1    0    0    0    0 -0.00000000000E+00 -0.00000000000E+00 -0.74505805969E-08  0.93827000000E+00  0.93827000000E+00 0. -1.
     999902    2    1    2    0    0 -0.11458689290E-01 -0.17268114346E-01  0.13370878805E-01  0.10192668750E+01  0.10189684454E+01 0.  0.
     999903    2    3    3    0    0  0.24803708146E-01  0.58049435475E-01  0.11170230273E+00  0.12985315594E+00  0.19986915104E-01 0.  0.
         14    1    1    2    0    0  0.11458689290E-01  0.17268114346E-01 -0.13370878805E-01  0.24663124971E-01  0.00000000000E+00 0.  1.
     999901    1    3    3    0    0 -0.36262397436E-01 -0.75317549821E-01 -0.98331423923E-01  0.88941371909E+00  0.88000000000E+00 0. -1.
        -11    1    4    4    0    0  0.12001896135E-01  0.14969873929E-01  0.49675968758E-01  0.53255099562E-01  0.51100000000E-03 0. -1.
         11    1    4    4    0    0  0.12801812012E-01  0.43079561546E-01  0.62026333970E-01  0.76598056375E-01  0.51100000000E-03 0.  1.
</event>
<event>
 8    1  0.1010879E+005  0.1043930E+01  0.7957747E-01            NaN
         13   -1    0    0    0    0  0.00000000000E+00  0.00000000000E+00  0.74505805969E-08  0.10566000000E+00  0.10566000000E+00 0. -1.
     999900   -1    0    0    0    0 -0.00000000000E+00 -0.00000000000E+00 -0.74505805969E-08  0.93827000000E+00  0.93827000000E+00 0. -1.
     999902    2    1    2    0    0  0.74503955810E-02  0.18818434350E-01  0.12141642026E-01  0.10203278531E+01  0.10200548351E+01 0.  0.
     999903    2    3    3    0    0  0.80725641061E-01  0.10105173180E+00  0.25631760359E-01  0.13335910503E+00  0.19989550593E-01 0.  0.
         14    1    1    2    0    0 -0.74503955810E-02 -0.18818434350E-01 -0.12141642026E-01  0.23602146868E-01  0.00000000000E+00 0.  1.
     999901    1    3    3    0    0 -0.73275245480E-01 -0.82233297445E-01 -0.13490118334E-01  0.88696874810E+00  0.88000000000E+00 0.  1.
        -11    1    4    4    0    0  0.19295192261E-01  0.38829703983E-01  0.10574950014E-01  0.44633407271E-01  0.51100000000E-03 0. -1.
         11    1    4    4    0    0  0.61430448801E-01  0.62222027812E-01  0.15056810345E-01  0.88725697764E-01  0.51100000000E-03 0.  1.
</event>
<event>
 8    1  0.1010879E+005  0.1043930E+01  0.7957747E-01            NaN
         13   -1    0    0    0    0  0.00000000000E+00  0.00000000000E+00  0.74505805969E-08  0.10566000000E+00  0.10566000000E+00 0. -1.
     999900   -1    0    0    0    0 -0.00000000000E+00 -0.00000000000E+00 -0.74505805969E-08  0.93827000000E+00  0.93827000000E+00 0. -1.
     999902    2    1    2    0    0  0.73646939236E-02 -0.21544245854E-01 -0.59746564360E-02  0.10203908886E+01  0.10201193439E+01 0.  0.
     999903    2    3    3    0    0  0.93333566676E-01 -0.35093783811E-01  0.83737243853E-01  0.13155881103E+00  0.18790061762E-01 0.  0.
         14    1    1    2    0    0 -0.73646939236E-02  0.21544245854E-01  0.59746564360E-02  0.23539111401E-01  0.00000000000E+00 0.  1.
     999901    1    3    3    0    0 -0.85968872753E-01  0.13549537957E-01 -0.89711900289E-01  0.88883207757E+00  0.88000000000E+00 0. -1.
        -11    1    4    4    0    0  0.50368519577E-01 -0.20177603867E-01  0.57453172234E-01  0.79026904172E-01  0.51100000000E-03 0. -1.
         11    1    4    4    0    0  0.42965047099E-01 -0.14916179944E-01  0.26284071619E-01  0.52531906859E-01  0.51100000000E-03 0.  1.
</event>
<event>
 8    1  0.1010879E+005  0.1043930E+01  0.7957747E-01            NaN
         13   -1    0    0    0    0  0.00000000000E+00  0.00000000000E+00  0.74505805969E-08  0.10566000000E+00  0.10566000000E+00 0. -1.
     999900   -1    0    0    0    0 -0.00000000000E+00 -0.00000000000E+00 -0.74505805969E-08  0.93827000000E+00  0.93827000000E+00 0.  1.
     999902    2    1    2    0    0 -0.89486411509E-02 -0.62876702744E-02  0.21394057436E-01  0.10199025434E+01  0.10196194778E+01 0.  0.
     999903    2    3    3    0    0 -0.35534040623E-01  0.83539317624E-01 -0.88159857265E-01  0.12817515714E+00  0.20377066599E-01 0.  0.
         14    1    1    2    0    0  0.89486411509E-02  0.62876702744E-02 -0.21394057436E-01  0.24027456576E-01  0.00000000000E+00 0.  1.
     999901    1    3    3    0    0  0.26585399472E-01 -0.89826987898E-01  0.10955391470E+00  0.89172738628E+00  0.88000000000E+00 0. -1.
        -11    1    4    4    0    0 -0.22298810969E-01  0.64268270666E-01 -0.75335939131E-01  0.10150572610E+00  0.51100000000E-03 0.  1.
         11    1    4    4    0    0 -0.13235229654E-01  0.19271046958E-01 -0.12823918134E-01  0.26669431043E-01  0.51100000000E-03 0. -1.
</event>
<event>
 8    1  0.1010879E+005  0.1043930E+01  0.7957747E-01            NaN
         13   -1    0    0    0    0  0.00000000000E+00  0.00000000000E+00  0.74505805969E-08  0.10566000000E+00  0.10566000000E+00 0. -1.
     999900   -1    0    0    0    0 -0.00000000000E+00 -0.00000000000E+00 -0.74505805969E-08  0.93827000000E+00  0.93827000000E+00 0.  1.
     999902    2    1    2    0    0  0.40472745969E-03  0.12307091064E-01  0.20049985270E-01  0.10204006523E+01  0.10201293354E+01 0.  0.
     999903    2    3    3    0    0  0.31565179376E-01 -0.16650776246E-01  0.12635077899E+00  0.13298339383E+00  0.21129476705E-01 0.  0.
         14    1    1    2    0    0 -0.40472745969E-03 -0.12307091064E-01 -0.20049985270E-01  0.23529347720E-01  0.00000000000E+00 0.  1.
     999901    1    3    3    0    0 -0.31160451916E-01  0.28957867310E-01 -0.10630079372E+00  0.88741725845E+00  0.88000000000E+00 0.  1.
        -11    1    4    4    0    0  0.21134313959E-01 -0.21038464382E-01  0.83745319710E-01  0.88897783461E-01  0.51100000000E-03 0. -1.
         11    1    4    4    0    0  0.10430865417E-01  0.43876881358E-02  0.42605459279E-01  0.44085610373E-01  0.51100000000E-03 0.  1.
</event>
<event>
 8    1  0.1010879E+005  0.1043930E+01  0.7957747E-01            NaN
         13   -1    0    0    0    0  0.00000000000E+00  0.00000000000E+00  0.74505805969E-08  0.10566000000E+00  0.10566000000E+00 0.  1.
     999900   -1    0    0    0    0 -0.00000000000E+00 -0.00000000000E+00 -0.74505805969E-08  0.93827000000E+00  0.93827000000E+00 0.  1.
     999902    2    1    2    0    0 -0.10881670363E-01 -0.16337926474E-01 -0.12161864412E-01  0.10208378035E+01  0.10205765878E+01 0.  0.
     999903    2    3    3    0    0  0.80020443685E-01  0.86570355431E-01 -0.42763620816E-01  0.12966454524E+00  0.32961631921E-01 0.  0.
         14    1    1    2    0    0  0.10881670363E-01  0.16337926474E-01  0.12161864412E-01  0.23092196460E-01  0.00000000000E+00 0.  1.
     999901    1    3    3    0    0 -0.90902114048E-01 -0.10290828190E+00  0.30601756404E-01  0.89117325830E+00  0.88000000000E+00 0. -1.
        -11    1    4    4    0    0  0.42427992511E-01  0.66639793348E-01 -0.35011085954E-01  0.86412000710E-01  0.51100000000E-03 0.  1.
         11    1    4    4    0    0  0.37592451173E-01  0.19930562083E-01 -0.77525348626E-02  0.43252544526E-01  0.51100000000E-03 0. -1.
</event>
<event>
 8    1  0.1010879E+005  0.1043930E+01  0.7957747E-01            NaN
         13   -1    0    0    0    0  0.00000000000E+00  0.00000000000E+00  0.74505805969E-08  0.10566000000E+00  0.10566000000E+00 0. -1.
     999900   -1    0    0    0    0 -0.00000000000E+00 -0.00000000000E+00 -0.74505805969E-08  0.93827000000E+00  0.93827000000E+00 0. -1.
     999902    2    1    2    0    0 -0.15314107069E-01 -0.16594457886E-01  0.96404947564E-02  0.10193772599E+01  0.10190815281E+01 0.  0.
     999903    2    3    3    0    0 -0.18766258200E-01  0.83775489259E-02  0.12799216299E+00  0.13109654083E+00  0.19543629586E-01 0.  0.
         14    1    1    2    0    0  0.15314107069E-01  0.16594457886E-01 -0.96404947564E-02  0.24552740112E-01  0.00000000000E+00 0.  1.
     999901    1    3    3    0    0  0.34521511313E-02 -0.24972006812E-01 -0.11835166824E+00  0.88828071906E+00  0.88000000000E+00 0. -1.
        -11    1    4    4    0    0 -0.14433379274E-01  0.14419263635E-01  0.81818942040E-01  0.84325784897E-01  0.51100000000E-03 0.  1.
         11    1    4    4    0    0 -0.43328789267E-02 -0.60417147091E-02  0.46173220954E-01  0.46770755935E-01  0.51100000000E-03 0. -1.
</event>
<event>
 8    1  0.1010879E+005  0.1043930E+01  0.7957747E-01            NaN
         13   -1    0    0    0    0  0.00000000000E+00  0.00000000000E+00  0.74505805969E-08  0.10566000000E+00  0.10566000000E+00 0. -1.
     999900   -1    0    0    0    0 -0.00000000000E+00 -0.00000000000E+00 -0.74505805969E-08  0.93827000000E+00  0.93827000000E+00 0. -1.
     999902    2    1    2    0    0 -0.11304710068E-01 -0.16056904910E-01 -0.13639982655E-01  0.10200203829E+01  0.10197401197E+01 0.  0.
     999903    2    3    3    0    0 -0.96280630605E-01  0.23077676786E-01  0.81910427822E-01  0.12991797106E+00  0.19152598305E-01 0.  0.
         14    1    1    2    0    0  0.11304710068E-01  0.16056904910E-01  0.13639982655E-01  0.23909617141E-01  0.00000000000E+00 0. -1.
     999901    1    3    3    0    0  0.84975920537E-01 -0.39134581696E-01 -0.95550410476E-01  0.89010241180E+00  0.88000000000E+00 0.  1.
        -11    1    4    4    0    0 -0.37451366410E-01  0.45027236886E-04  0.26488693671E-01  0.45875035552E-01  0.51100000000E-03 0.  1.
         11    1    4    4    0    0 -0.58829264195E-01  0.23032649549E-01  0.55421734150E-01  0.84042935504E-01  0.51100000000E-03 0. -1.
</event>
<event>
 8    1  0.1010879E+005  0.1043930E+01  0.7957747E-01            NaN
         13   -1    0    0    0    0  0.00000000000E+00  0.00000000000E+00  0.74505805969E-08  0.10566000000E+00  0.10566000000E+00 0.  1.
     999900   -1    0    0    0    0 -0.00000000000E+00 -0.00000000000E+00 -0.74505805969E-08  0.93827000000E+00  0.93827000000E+00 0.  1.
     999902    2    1    2    0    0  0.46715412735E-02  0.10253273686E-01  0.21129861207E-01  0.10199837278E+01  0.10197025944E+01 0.  0.
     999903    2    3    3    0    0  0.56463746733E-01  0.83609577743E-01 -0.79028174202E-01  0.12976172627E+00  0.20345444260E-01 0.  0.
         14    1    1    2    0    0 -0.46715412735E-02 -0.10253273686E-01 -0.21129861207E-01  0.23946272231E-01  0.00000000000E+00 0. -1.
     999901    1    3    3    0    0 -0.51792205459E-01 -0.73356304057E-01  0.10015803541E+00  0.89022200150E+00  0.88000000000E+00 0. -1.
        -11    1    4    4    0    0  0.17723401525E-01  0.43694052223E-01 -0.39630377543E-01  0.61596404981E-01  0.51100000000E-03 0. -1.
         11    1    4    4    0    0  0.38740345207E-01  0.39915525520E-01 -0.39397796658E-01  0.68165321292E-01  0.51100000000E-03 0.  1.
</event>
<event>
 8    1  0.1010879E+005  0.1043930E+01  0.7957747E-01            NaN
         13   -1    0    0    0    0  0.00000000000E+00  0.00000000000E+00  0.74505805969E-08  0.10566000000E+00  0.10566000000E+00 0.  1.
     999900   -1    0    0    0    0 -0.00000000000E+00 -0.00000000000E+00 -0.74505805969E-08  0.93827000000E+00  0.93827000000E+00 0. -1.
     999902    2    1    2    0    0 -0.15304531552E-01  0.13266471906E-01  0.12283850358E-01  0.10202420085E+01  0.10199669774E+01 0.  0.
     999903    2    3    3    0    0  0.38596439823E-01 -0.11480717088E+00 -0.36343838706E-01  0.12801287600E+00  0.19901008935E-01 0.  0.
         14    1    1    2    0    0  0.15304531552E-01 -0.13266471906E-01 -0.12283850358E-01  0.23687991525E-01  0.00000000000E+00 0.  1.
     999901    1    3    3    0    0 -0.53900971375E-01  0.12807364279E+00  0.48627689064E-01  0.89222913247E+00  0.88000000000E+00 0.  1.
        -11    1    4    4    0    0  0.18916506837E-01 -0.40641210865E-01 -0.49437794018E-02  0.45102597788E-01  0.51100000000E-03 0. -1.
         11    1    4    4    0    0  0.19679932985E-01 -0.74165960020E-01 -0.31400059305E-01  0.82910278212E-01  0.51100000000E-03 0.  1.
</event>
<event>
 8    1  0.1010879E+005  0.1043930E+01  0.7957747E-01            NaN
         13   -1    0    0    0    0  0.00000000000E+00  0.00000000000E+00  0.74505805969E-08  0.10566000000E+00  0.10566000000E+00 0. -1.
     999900   -1    0    0    0    0 -0.00000000000E+00 -0.00000000000E+00 -0.74505805969E-08  0.93827000000E+00  0.93827000000E+00 0. -1.
     999902    2    1    2    0    0  0.21154506148E-01  0.74612668425E-02  0.12727740571E-01  0.10181389354E+01  0.10178122188E+01 0.  0.
     999903    2    3    3    0    0 -0.99478261088E-02 -0.10926859148E+00  0.63744884357E-01  0.12842214683E+00  0.19754826919E-01 0.  0.
         14    1    1    2    0    0 -0.21154506148E-01 -0.74612668425E-02 -0.12727740571E-01  0.25791064602E-01  0.00000000000E+00 0.  1.
     999901    1    3    3    0    0  0.31102332257E-01  0.11672985832E+00 -0.51017143786E-01  0.88971678857E+00  0.88000000000E+00 0. -1.
        -11    1    4    4    0    0 -0.12517649203E-01 -0.54412128215E-01  0.24797280309E-01  0.61094496235E-01  0.51100000000E-03 0. -1.
         11    1    4    4    0    0  0.25698230945E-02 -0.54856463266E-01  0.38947604048E-01  0.67327650597E-01  0.51100000000E-03 0.  1.
</event>
<event>
 8    1  0.1010879E+005  0.1043930E+01  0.7957747E-01            NaN
         13   -1    0    0    0    0  0.00000000000E+00  0.00000000000E+00  0.74505805969E-08  0.10566000000E+00  0.10566000000E+00 0. -1.
     999900   -1    0    0    0    0 -0.00000000000E+00 -0.00000000000E+00 -0.74505805969E-08  0.93827000000E+00  0.93827000000E+00 0.  1.
     999902    2    1    2    0    0 -0.20657315308E-01  0.12201263742E-01 -0.10049114471E-01  0.10179188444E+01  0.10175864551E+01 0.  0.
     999903    2    3    3    0    0  0.19891000952E-02  0.57495162645E-03 -0.12808677772E+00  0.12967286430E+00  0.20113229999E-01 0.  0.
         14    1    1    2    0    0  0.20657315308E-01 -0.12201263742E-01  0.10049114471E-01  0.26011155574E-01  0.00000000000E+00 0. -1.
     999901    1    3    3    0    0 -0.22646415403E-01  0.11626312116E-01  0.11803766325E+00  0.88824598013E+00  0.88000000000E+00 0. -1.
        -11    1    4    4    0    0 -0.85889231649E-02  0.44425885858E-03 -0.37933465218E-01  0.38899561328E-01  0.51100000000E-03 0.  1.
         11    1    4    4    0    0  0.10578023260E-01  0.13069276787E-03 -0.90153312500E-01  0.90773302972E-01  0.51100000000E-03 0. -1.
</event>
<event>
 8    1  0.1010879E+005  0.1043930E+01  0.7957747E-01            NaN
         13   -1    0    0    0    0  0.00000000000E+00  0.00000000000E+00  0.74505805969E-08  0.10566000000E+00  0.10566000000E+00 0.  1.
     999900   -1    0    0    0    0 -0.00000000000E+00 -0.00000000000E+00 -0.74505805969E-08  0.93827000000E+00  0.93827000000E+00 0. -1.
     999902    2    1    2    0    0 -0.87525585764E-02  0.77119012486E-02  0.19296476167E-01  0.10213815035E+01  0.10211325776E+01 0.  0.
     999903    2    3    3    0    0  0.28971768632E-01 -0.86982048943E-01 -0.88492466979E-01  0.12896426624E+00  0.19890325276E-01 0.  0.
         14    1    1    2    0    0  0.87525585764E-02 -0.77119012486E-02 -0.19296476167E-01  0.22548496512E-01  0.00000000000E+00 0. -1.
     999901    1    3    3    0    0 -0.37724327208E-01  0.94693950192E-01  0.10778894315E+00  0.89241723724E+00  0.88000000000E+00 0.  1.
        -11    1    4    4    0    0  0.90104316867E-02 -0.56803038851E-01 -0.51246279021E-01  0.77033858377E-01  0.51100000000E-03 0. -1.
         11    1    4    4    0    0  0.19961336945E-01 -0.30179010093E-01 -0.37246187958E-01  0.51930407867E-01  0.51100000000E-03 0.  1.
</event>
<event>
 8    1  0.1010879E+005  0.1043930E+01  0.7957747E-01            NaN
         13   -1    0    0    0    0  0.00000000000E+00  0.00000000000E+00  0.74505805969E-08  0.10566000000E+00  0.10566000000E+00 0.  1.
     999900   -1    0    0    0    0 -0.00000000000E+00 -0.00000000000E+00 -0.74505805969E-08  0.93827000000E+00  0.93827000000E+00 0.  1.
     999902    2    1    2    0    0  0.21106985967E-01  0.13918700845E-02  0.91312055163E-02  0.10208904455E+01  0.10206304329E+01 0.  0.
     999903    2    3    3    0    0 -0.13257173790E-01 -0.11712919151E+00  0.53915183428E-01  0.13115242661E+00  0.19977783707E-01 0.  0.
         14    1    1    2    0    0 -0.21106985967E-01 -0.13918700845E-02 -0.91312055163E-02  0.23039554534E-01  0.00000000000E+00 0. -1.
     999901    1    3    3    0    0  0.34364159757E-01  0.11852106159E+00 -0.44783977911E-01  0.88973801885E+00  0.88000000000E+00 0.  1.
        -11    1    4    4    0    0  0.11064957458E-02 -0.73786559015E-01  0.30718219618E-01  0.79934665581E-01  0.51100000000E-03 0. -1.
         11    1    4    4    0    0 -0.14363669536E-01 -0.43342632494E-01  0.23196963810E-01  0.51217761031E-01  0.51100000000E-03 0.  1.
</event>
<event>
 8    1  0.1010879E+005  0.1043930E+01  0.7957747E-01            NaN
         13   -1    0    0    0    0  0.00000000000E+00  0.00000000000E+00  0.74505805969E-08  0.10566000000E+00  0.10566000000E+00 0. -1.
     999900   -1    0    0    0    0 -0.00000000000E+00 -0.00000000000E+00 -0.74505805969E-08  0.93827000000E+00  0.93827000000E+00 0.  1.
     999902    2    1    2    0    0  0.41701724612E-02  0.11390203716E-01 -0.20096877690E-01  0.10204563643E+01  0.10201863457E+01 0.  0.
     999903    2    3    3    0    0 -0.17485955918E-01  0.10880143531E+00  0.67327883618E-01  0.13051197009E+00  0.18889665018E-01 0.  0.
         14    1    1    2    0    0 -0.41701724612E-02 -0.11390203716E-01  0.20096877690E-01  0.23473635678E-01  0.00000000000E+00 0.  1.
     999901    1    3    3    0    0  0.21656128379E-01 -0.97411231593E-01 -0.87424761308E-01  0.88994439423E+00  0.88000000000E+00 0.  1.
        -11    1    4    4    0    0 -0.20589106117E-02  0.67790826996E-01  0.37455362649E-01  0.77479033615E-01  0.51100000000E-03 0.  1.
         11    1    4    4    0    0 -0.15427045306E-01  0.41010608313E-01  0.29872520969E-01  0.53032936474E-01  0.51100000000E-03 0. -1.
</event>
<event>
 8    1  0.1010879E+005  0.1043930E+01  0.7957747E-01            NaN
         13   -1    0    0    0    0  0.00000000000E+00  0.00000000000E+00  0.74505805969E-08  0.10566000000E+00  0.10566000000E+00 0. -1.
     999900   -1    0    0    0    0 -0.00000000000E+00 -0.00000000000E+00 -0.74505805969E-08  0.93827000000E+00  0.93827000000E+00 0. -1.
     999902    2    1    2    0    0 -0.15549864552E-01  0.45709448591E-02  0.16882422961E-01  0.10205268372E+01  0.10202584562E+01 0.  0.
     999903    2    3    3    0    0  0.33445987918E-01  0.31966328939E-01 -0.11814139374E+00  0.12846039812E+00  0.20104842125E-01 0.  0.
         14    1    1    2    0    0  0.15549864552E-01 -0.45709448591E-02 -0.16882422961E-01  0.23403162811E-01  0.00000000000E+00 0.  1.
     999901    1    3    3    0    0 -0.48995852470E-01 -0.27395384079E-01  0.13502381671E+00  0.89206643906E+00  0.88000000000E+00 0.  1.
        -11    1    4    4    0    0  0.25214485759E-01  0.11166112921E-01 -0.56240168568E-01  0.62639205386E-01  0.51100000000E-03 0. -1.
         11    1    4    4    0    0  0.82315021588E-02  0.20800216018E-01 -0.61901225176E-01  0.65821192738E-01  0.51100000000E-03 0.  1.
</event>
<event>
 8    1  0.1010879E+005  0.1043930E+01  0.7957747E-01            NaN
         13   -1    0    0    0    0  0.00000000000E+00  0.00000000000E+00  0.74505805969E-08  0.10566000000E+00  0.10566000000E+00 0.  1.
     999900   -1    0    0    0    0 -0.00000000000E+00 -0.00000000000E+00 -0.74505805969E-08  0.93827000000E+00  0.93827000000E+00 0. -1.
     999902    2    1    2    0    0 -0.16795119439E-01 -0.13999469958E-01 -0.82398023279E-02  0.10205643085E+01  0.10202967962E+01 0.  0.
     999903    2    3    3    0    0 -0.12304908883E+00 -0.21609681444E-01  0.40306530059E-01  0.13281177108E+00  0.20156725426E-01 0.  0.
         14    1    1    2    0    0  0.16795119439E-01  0.13999469958E-01  0.82398023279E-02  0.23365691483E-01  0.00000000000E+00 0. -1.
     999901    1    3    3    0    0  0.10625396939E+00  0.76102114860E-02 -0.48546332387E-01  0.88775253743E+00  0.88000000000E+00 0. -1.
        -11    1    4    4    0    0 -0.27491213764E-01 -0.10321639719E-02  0.16926906217E-01  0.32305006914E-01  0.51100000000E-03 0.  1.
         11    1    4    4    0    0 -0.95557875064E-01 -0.20577517472E-01  0.23379623842E-01  0.10050676417E+00  0.51100000000E-03 0. -1.
</event>
<event>
 8    1  0.1010879E+005  0.1043930E+01  0.7957747E-01            NaN
         13   -1    0    0    0    0  0.00000000000E+00  0.00000000000E+00  0.74505805969E-08  0.10566000000E+00  0.10566000000E+00 0.  1.
     999900   -1    0    0    0    0 -0.00000000000E+00 -0.00000000000E+00 -0.74505805969E-08  0.93827000000E+00  0.93827000000E+00 0. -1.
     999902    2    1    2    0    0  0.21601869697E-02 -0.20339754530E-01 -0.10876918821E-01  0.10207636584E+01  0.10205007432E+01 0.  0.
     999903    2    3    3    0    0 -0.88247346018E-01  0.91489274552E-01 -0.10800338946E-01  0.12909148786E+00  0.19750531143E-01 0.  0.
         14    1    1    2    0    0 -0.21601869697E-02  0.20339754530E-01  0.10876918821E-01  0.23166341643E-01  0.00000000000E+00 0.  1.
     999901    1    3    3    0    0  0.90407532988E-01 -0.11182902908E+00 -0.76579875251E-04  0.89167217049E+00  0.88000000000E+00 0. -1.
        -11    1    4    4    0    0 -0.27414359176E-01  0.16655695297E-01 -0.32951126651E-03  0.32083157163E-01  0.51100000000E-03 0.  1.
         11    1    4    4    0    0 -0.60832986842E-01  0.74833579255E-01 -0.10470827679E-01  0.97008330701E-01  0.51100000000E-03 0. -1.
</event>
<event>
 8    1  0.1110042E+005  0.1043930E+01  0.7957747E-01            NaN
         13   -1    0    0    0    0  0.00000000000E+00  0.00000000000E+00  0.74505805969E-08  0.10566000000E+00  0.10566000000E+00 0.  1.
     999900   -1    0    0    0    0 -0.00000000000E+00 -0.00000000000E+00 -0.74505805969E-08  0.93827000000E+00  0.93827000000E+00 0.  1.
     999902    2    1    2    0    0 -0.11410820437E-01 -0.20050816839E-01  0.41407948816E-02  0.10204909671E+01  0.10202217532E+01 0.  0.
     999903    2    3    3    0    0 -0.48420107332E-01  0.11157706507E+00 -0.37684797536E-01  0.12895018468E+00  0.20348413204E-01 0.  0.
         14    1    1    2    0    0  0.11410820437E-01  0.20050816839E-01 -0.41407948816E-02  0.23439032855E-01  0.00000000000E+00 0. -1.
     999901    1    3    3    0    0  0.37009286895E-01 -0.13162788191E+00  0.41825592418E-01  0.89154078246E+00  0.88000000000E+00 0. -1.
        -11    1    4    4    0    0 -0.88410614604E-02  0.44650865881E-01 -0.12239851661E-01  0.47137450943E-01  0.51100000000E-03 0. -1.
         11    1    4    4    0    0 -0.39579045872E-01  0.66926199191E-01 -0.25444945875E-01  0.81812733739E-01  0.51100000000E-03 0.  1.
</event>
<event>
 8    1  0.1010879E+005  0.1043930E+01  0.7957747E-01            NaN
         13   -1    0    0    0    0  0.00000000000E+00  0.00000000000E+00  0.74505805969E-08  0.10566000000E+00  0.10566000000E+00 0. -1.
     999900   -1    0    0    0    0 -0.00000000000E+00 -0.00000000000E+00 -0.74505805969E-08  0.93827000000E+00  0.93827000000E+00 0. -1.
     999902    2    1    2    0    0 -0.22826635198E-01 -0.70931133026E-02 -0.16367696259E-03  0.10200261442E+01  0.10197460177E+01 0.  0.
     999903    2    3    3    0    0  0.30976603906E-01 -0.98749329184E-01  0.76671016090E-01  0.13030752550E+00  0.19764273071E-01 0.  0.
         14    1    1    2    0    0  0.22826635198E-01  0.70931133026E-02  0.16367696259E-03  0.23903855776E-01  0.00000000000E+00 0. -1.
     999901    1    3    3    0    0 -0.53803239104E-01  0.91656215881E-01 -0.76834693053E-01  0.88971861872E+00  0.88000000000E+00 0. -1.
        -11    1    4    4    0    0  0.32564196349E-01 -0.80429164248E-01  0.66184505114E-01  0.10913261283E+00  0.51100000000E-03 0.  1.
         11    1    4    4    0    0 -0.15875924436E-02 -0.18320164936E-01  0.10486510976E-01  0.21174912668E-01  0.51100000000E-03 0. -1.
</event>
<event>
 8    1  0.1010879E+005  0.1043930E+01  0.7957747E-01            NaN
         13   -1    0    0    0    0  0.00000000000E+00  0.00000000000E+00  0.74505805969E-08  0.10566000000E+00  0.10566000000E+00 0.  1.
     999900   -1    0    0    0    0 -0.00000000000E+00 -0.00000000000E+00 -0.74505805969E-08  0.93827000000E+00  0.93827000000E+00 0.  1.
     999902    2    1    2    0    0 -0.43933389743E-02  0.18605411305E-01  0.11840702964E-01  0.10214430037E+01  0.10211954488E+01 0.  0.
     999903    2    3    3    0    0 -0.94911861140E-01  0.91915731699E-01  0.64127222746E-02  0.13375078848E+00  0.19783510665E-01 0.  0.
         14    1    1    2    0    0  0.43933389743E-02 -0.18605411305E-01 -0.11840702964E-01  0.22486996328E-01  0.00000000000E+00 0. -1.
     999901    1    3    3    0    0  0.90518522166E-01 -0.73310320394E-01  0.54279806890E-02  0.88769221519E+00  0.88000000000E+00 0. -1.
        -11    1    4    4    0    0 -0.26805161174E-01  0.37150103309E-01 -0.26235427196E-02  0.45888897773E-01  0.51100000000E-03 0.  1.
         11    1    4    4    0    0 -0.68106699966E-01  0.54765628391E-01  0.90362649941E-02  0.87861890711E-01  0.51100000000E-03 0. -1.
</event>
<event>
 8    1  0.1010879E+005  0.1043930E+01  0.7957747E-01            NaN
         13   -1    0    0    0    0  0.00000000000E+00  0.00000000000E+00  0.74505805969E-08  0.10566000000E+00  0.10566000000E+00 0. -1.
     999900   -1    0    0    0    0 -0.00000000000E+00 -0.00000000000E+00 -0.74505805969E-08  0.93827000000E+00  0.93827000000E+00 0.  1.
     999902    2    1    2    0    0  0.31580871694E-02  0.20614171575E-01 -0.80022719629E-02  0.10215927231E+01  0.10213484899E+01 0.  0.
     999903    2    3    3    0    0 -0.62376084976E-01 -0.36394788265E-01  0.10663313605E+00  0.12991675838E+00  0.17099175872E-01 0.  0.
         14    1    1    2    0    0 -0.31580871694E-02 -0.20614171575E-01  0.80022719629E-02  0.22337276935E-01  0.00000000000E+00 0. -1.
     999901    1    3    3    0    0  0.65534172146E-01  0.57008959840E-01 -0.11463540801E+00  0.89167596468E+00  0.88000000000E+00 0.  1.
        -11    1    4    4    0    0 -0.12793512398E-01 -0.16254998298E-01  0.30250715471E-01  0.36650591218E-01  0.51100000000E-03 0. -1.
         11    1    4    4    0    0 -0.49582572578E-01 -0.20139789967E-01  0.76382420578E-01  0.93266167166E-01  0.51100000000E-03 0.  1.
</event>
<event>
 8    1  0.1010879E+005  0.1043930E+01  0.7957747E-01            NaN
         13   -1    0    0    0    0  0.00000000000E+00  0.00000000000E+00  0.74505805969E-08  0.10566000000E+00  0.10566000000E+00 0.  1.
     999900   -1    0    0    0    0 -0.00000000000E+00 -0.00000000000E+00 -0.74505805969E-08  0.93827000000E+00  0.93827000000E+00 0.  1.
     999902    2    1    2    0    0 -0.11247377350E-01 -0.19449623870E-01  0.10104226810E-01  0.10192949281E+01  0.10189971854E+01 0.  0.
     999903    2    3    3    0    0  0.11013589739E+00 -0.30435177527E-01  0.57348088654E-01  0.12963962171E+00  0.21480510260E-01 0.  0.
         14    1    1    2    0    0  0.11247377350E-01  0.19449623870E-01 -0.10104226810E-01  0.24635071856E-01  0.00000000000E+00 0. -1.
     999901    1    3    3    0    0 -0.12138327474E+00  0.10985553657E-01 -0.47243861844E-01  0.88965530643E+00  0.88000000000E+00 0.  1.
        -11    1    4    4    0    0  0.41878658667E-01 -0.21025085988E-01  0.29143487337E-01  0.55185870182E-01  0.51100000000E-03 0.  1.
         11    1    4    4    0    0  0.68257238723E-01 -0.94100915391E-02  0.28204601316E-01  0.74453751532E-01  0.51100000000E-03 0. -1.
</event>
<event>
 8    1  0.1010879E+005  0.1043930E+01  0.7957747E-01            NaN
         13   -1    0    0    0    0  0.00000000000E+00  0.00000000000E+00  0.74505805969E-08  0.10566000000E+00  0.10566000000E+00 0. -1.
     999900   -1    0    0    0    0 -0.00000000000E+00 -0.00000000000E+00 -0.74505805969E-08  0.93827000000E+00  0.93827000000E+00 0.  1.
     999902    2    1    2    0    0 -0.19848473944E-01 -0.80518890527E-02  0.99313285432E-02  0.10203201266E+01  0.10200469277E+01 0.  0.
     999903    2    3    3    0    0 -0.57967409175E-02 -0.33874413304E-01  0.12625829306E+00  0.13217812409E+00  0.18676772733E-01 0.  0.
         14    1    1    2    0    0  0.19848473944E-01  0.80518890527E-02 -0.99313285432E-02  0.23609873397E-01  0.00000000000E+00 0.  1.
     999901    1    3    3    0    0 -0.14051733026E-01  0.25822524251E-01 -0.11632696451E+00  0.88814200252E+00  0.88000000000E+00 0.  1.
        -11    1    4    4    0    0 -0.77067854423E-02 -0.23310500936E-01  0.56628081172E-01  0.61723372348E-01  0.51100000000E-03 0. -1.
         11    1    4    4    0    0  0.19100445249E-02 -0.10563912368E-01  0.69630211884E-01  0.70454751739E-01  0.51100000000E-03 0.  1.
</event>
<event>
 8    1  0.1010879E+005  0.1043930E+01  0.7957747E-01            NaN
         13   -1    0    0    0    0  0.00000000000E+00  0.00000000000E+00  0.74505805969E-08  0.10566000000E+00  0.10566000000E+00 0.  1.
     999900   -1    0    0    0    0 -0.00000000000E+00 -0.00000000000E+00 -0.74505805969E-08  0.93827000000E+00  0.93827000000E+00 0. -1.
     999902    2    1    2    0    0 -0.17901845236E-01  0.10663931178E-01 -0.11639148060E-01  0.10200623386E+01  0.10197830698E+01 0.  0.
     999903    2    3    3    0    0 -0.43935785830E-01 -0.20713576330E-01 -0.12139157617E+00  0.13230791905E+00  0.20250065596E-01 0.  0.
         14    1    1    2    0    0  0.17901845236E-01 -0.10663931178E-01  0.11639148060E-01  0.23867661356E-01  0.00000000000E+00 0.  1.
     999901    1    3    3    0    0  0.26033940595E-01  0.31377507508E-01  0.10975242811E+00  0.88775441960E+00  0.88000000000E+00 0. -1.
        -11    1    4    4    0    0 -0.22155728691E-01 -0.36804520783E-02 -0.34921892999E-01  0.41523749505E-01  0.51100000000E-03 0. -1.
         11    1    4    4    0    0 -0.21780057139E-01 -0.17033124252E-01 -0.86469683170E-01  0.90784169541E-01  0.51100000000E-03 0.  1.
</event>
<event>
 8    1  0.1010879E+005  0.1043930E+01  0.7957747E-01            NaN
         13   -1    0    0    0    0  0.00000000000E+00  0.00000000000E+00  0.74505805969E-08  0.10566000000E+00  0.10566000000E+00 0.  1.
     999900   -1    0    0    0    0 -0.00000000000E+00 -0.00000000000E+00 -0.74505805969E-08  0.93827000000E+00  0.93827000000E+00 0.  1.
     999902    2    1    2    0    0 -0.68761243915E-02  0.12254967626E-01 -0.18746303874E-01  0.10205016149E+01  0.10202326484E+01 0.  0.
     999903    2    3    3    0    0  0.50984847913E-01 -0.94344373283E-02 -0.11967866712E+00  0.13257951004E+00  0.23788228071E-01 0.  0.
         14    1    1    2    0    0  0.68761243915E-02 -0.12254967626E-01  0.18746303874E-01  0.23428385072E-01  0.00000000000E+00 0.  1.
     999901    1    3    3    0    0 -0.57860972305E-01  0.21689404954E-01  0.10093236324E+00  0.88792210489E+00  0.88000000000E+00 0. -1.
        -11    1    4    4    0    0  0.30902538258E-02  0.32784152116E-02 -0.21250047875E-02  0.50074386022E-02  0.51100000000E-03 0.  1.
         11    1    4    4    0    0  0.47894594087E-01 -0.12712852540E-01 -0.11755366233E+00  0.12757207144E+00  0.51100000000E-03 0. -1.
</event>
<event>
 8    1  0.1010879E+005  0.1043930E+01  0.7957747E-01            NaN
         13   -1    0    0    0    0  0.00000000000E+00  0.00000000000E+00  0.74505805969E-08  0.10566000000E+00  0.10566000000E+00 0. -1.
     999900   -1    0    0    0    0 -0.00000000000E+00 -0.00000000000E+00 -0.74505805969E-08  0.93827000000E+00  0.93827000000E+00 0.  1.
     999902    2    1    2    0    0  0.68276552327E-02 -0.14240090421E-01 -0.19898873141E-01  0.10185260199E+01  0.10182091588E+01 0.  0.
     999903    2    3    3    0    0  0.11403609346E-01  0.10777478599E+00  0.62013670847E-01  0.12632748021E+00  0.19170030810E-01 0.  0.
         14    1    1    2    0    0 -0.68276552327E-02  0.14240090421E-01  0.19898873141E-01  0.25403980071E-01  0.00000000000E+00 0. -1.
     999901    1    3    3    0    0 -0.45759541129E-02 -0.12201487641E+00 -0.81912543988E-01  0.89219853972E+00  0.88000000000E+00 0.  1.
        -11    1    4    4    0    0  0.15244866018E-01  0.74001764062E-01  0.37056490980E-01  0.84155283072E-01  0.51100000000E-03 0.  1.
         11    1    4    4    0    0 -0.38412566721E-02  0.33773021931E-01  0.24957179867E-01  0.42172197134E-01  0.51100000000E-03 0. -1.
</event>
<event>
 8    1  0.1010879E+005  0.1043930E+01  0.7957747E-01            NaN
         13   -1    0    0    0    0  0.00000000000E+00  0.00000000000E+00  0.74505805969E-08  0.10566000000E+00  0.10566000000E+00 0. -1.
     999900   -1    0    0    0    0 -0.00000000000E+00 -0.00000000000E+00 -0.74505805969E-08  0.93827000000E+00  0.93827000000E+00 0. -1.
     999902    2    1    2    0    0 -0.10900777586E-01 -0.18926679615E-01 -0.85050639002E-02  0.10204910951E+01  0.10202218841E+01 0.  0.
     999903    2    3    3    0    0 -0.69968350479E-02 -0.66996886039E-01 -0.11288040986E+00  0.13301140607E+00  0.20310312036E-01 0.  0.
         14    1    1    2    0    0  0.10900777586E-01  0.18926679615E-01  0.85050639002E-02  0.23438904949E-01  0.00000000000E+00 0.  1.
     999901    1    3    3    0    0 -0.39039425381E-02  0.48070206423E-01  0.10437534596E+00  0.88747968898E+00  0.88000000000E+00 0.  1.
        -11    1    4    4    0    0  0.67600579938E-02 -0.24103046325E-01 -0.34874220561E-01  0.42931662057E-01  0.51100000000E-03 0. -1.
         11    1    4    4    0    0 -0.13756893042E-01 -0.42893839713E-01 -0.78006189297E-01  0.90079744012E-01  0.51100000000E-03 0.  1.
</event>
<event>
 8    1  0.1010879E+005  0.1043930E+01  0.7957747E-01            NaN
         13   -1    0    0    0    0  0.00000000000E+00  0.00000000000E+00  0.74505805969E-08  0.10566000000E+00  0.10566000000E+00 0.  1.
     999900   -1    0    0    0    0 -0.00000000000E+00 -0.00000000000E+00 -0.74505805969E-08  0.93827000000E+00  0.93827000000E+00 0.  1.
     999902    2    1    2    0    0 -0.16762706676E-01  0.17165566933E-01  0.12039062652E-02  0.10199072105E+01  0.10196242561E+01 0.  0.
     999903    2    3    3    0    0 -0.77738992372E-01 -0.33518405955E-01  0.98002859755E-01  0.13105569880E+00  0.20104755524E-01 0.  0.
         14    1    1    2    0    0  0.16762706676E-01 -0.17165566933E-01 -0.12039062652E-02  0.24022789461E-01  0.00000000000E+00 0. -1.
     999901    1    3    3    0    0  0.60976285697E-01  0.50683972888E-01 -0.96798953490E-01  0.88885151174E+00  0.88000000000E+00 0.  1.
        -11    1    4    4    0    0 -0.29507337634E-01 -0.46913837292E-02  0.43487591417E-01  0.52764796823E-01  0.51100000000E-03 0. -1.
         11    1    4    4    0    0 -0.48231654738E-01 -0.28827022226E-01  0.54515268338E-01  0.78290901976E-01  0.51100000000E-03 0.  1.
</event>
<event>
 8    1  0.1010879E+005  0.1043930E+01  0.7957747E-01            NaN
         13   -1    0    0    0    0  0.00000000000E+00  0.00000000000E+00  0.74505805969E-08  0.10566000000E+00  0.10566000000E+00 0.  1.
     999900   -1    0    0    0    0 -0.00000000000E+00 -0.00000000000E+00 -0.74505805969E-08  0.93827000000E+00  0.93827000000E+00 0.  1.
     999902    2    1    2    0    0  0.19813417379E-01  0.12202570251E-01  0.46263343120E-02  0.10202049668E+01  0.10199290648E+01 0.  0.
     999903    2    3    3    0    0 -0.87920427570E-01 -0.44505013290E-01 -0.79295261264E-01  0.12786805425E+00  0.18756413475E-01 0.  0.
         14    1    1    2    0    0 -0.19813417379E-01 -0.12202570251E-01 -0.46263343120E-02  0.23725033154E-01  0.00000000000E+00 0. -1.
     999901    1    3    3    0    0  0.10773384495E+00  0.56707583541E-01  0.83921595576E-01  0.89233691260E+00  0.88000000000E+00 0. -1.
        -11    1    4    4    0    0 -0.72298883846E-02 -0.68890862724E-02 -0.15089671964E-01  0.18102213033E-01  0.51100000000E-03 0.  1.
         11    1    4    4    0    0 -0.80690539185E-01 -0.37615927018E-01 -0.64205589301E-01  0.10976584122E+00  0.51100000000E-03 0. -1.
</event>
<event>
 8    1  0.1010879E+005  0.1043930E+01  0.7957747E-01            NaN
         13   -1    0    0    0    0  0.00000000000E+00  0.00000000000E+00  0.74505805969E-08  0.10566000000E+00  0.10566000000E+00 0. -1.
     999900   -1    0    0    0    0 -0.00000000000E+00 -0.00000000000E+00 -0.74505805969E-08  0.93827000000E+00  0.93827000000E+00 0. -1.
     999902    2    1    2    0    0 -0.32258670740E-01  0.74420313235E-02  0.47149719921E-02  0.10104899547E+01  0.10099364891E+01 0.  0.
     999903    2    3    3    0    0 -0.92046533581E-01 -0.75482312865E-01  0.29687451324E-01  0.12421987165E+00  0.19470178397E-01 0.  0.
         14    1    1    2    0    0  0.32258670740E-01 -0.74420313235E-02 -0.47149719921E-02  0.33440045291E-01  0.00000000000E+00 0.  1.
     999901    1    3    3    0    0  0.59787862841E-01  0.82924344188E-01 -0.24972479332E-01  0.88627008306E+00  0.88000000000E+00 0.  1.
        -11    1    4    4    0    0 -0.36702741911E-01 -0.39790677108E-01  0.71084531021E-02  0.54600187500E-01  0.51100000000E-03 0.  1.
         11    1    4    4    0    0 -0.55343791671E-01 -0.35691635757E-01  0.22578998222E-01  0.69619684150E-01  0.51100000000E-03 0. -1.
</event>
<event>
 8    1  0.1010879E+005  0.1043930E+01  0.7957747E-01            NaN
         13   -1    0    0    0    0  0.00000000000E+00  0.00000000000E+00  0.74505805969E-08  0.10566000000E+00  0.10566000000E+00 0.  1.
     999900   -1    0    0    0    0 -0.00000000000E+00 -0.00000000000E+00 -0.74505805969E-08  0.93827000000E+00  0.93827000000E+00 0. -1.
     999902    2    1    2    0    0 -0.37476185036E-02 -0.24255104305E-01  0.66218165794E-02  0.10185094732E+01  0.10181921939E+01 0.  0.
     999903    2    3    3    0    0 -0.97529971488E-01  0.22910861059E-01  0.80346025574E-01  0.12920917687E+00  0.14231116195E-01 0.  0.
         14    1    1    2    0    0  0.37476185036E-02  0.24255104305E-01 -0.66218165794E-02  0.25420526826E-01  0.00000000000E+00 0. -1.
     999901    1    3    3    0    0  0.93782352984E-01 -0.47165965364E-01 -0.73724208995E-01  0.88930029631E+00  0.88000000000E+00 0. -1.
        -11    1    4    4    0    0 -0.72481825760E-01  0.19018844930E-01  0.67174908075E-01  0.10063826769E+00  0.51100000000E-03 0. -1.
         11    1    4    4    0    0 -0.25048145727E-01  0.38920161290E-02  0.13171117499E-01  0.28570909175E-01  0.51100000000E-03 0.  1.
</event>
<event>
 8    1  0.1010879E+005  0.1043930E+01  0.7957747E-01            NaN
         13   -1    0    0    0    0  0.00000000000E+00  0.00000000000E+00  0.74505805969E-08  0.10566000000E+00  0.10566000000E+00 0. -1.
     999900   -1    0    0    0    0 -0.00000000000E+00 -0.00000000000E+00 -0.74505805969E-08  0.93827000000E+00  0.93827000000E+00 0. -1.
     999902    2    1    2    0    0 -0.49546377471E-03  0.20817196191E-01  0.14800504135E-01  0.10183828658E+01  0.10180623779E+01 0.  0.
     999903    2    3    3    0    0  0.51694117332E-01  0.33992826740E-01 -0.11019332638E+00  0.12792185754E+00  0.19840323104E-01 0.  0.
         14    1    1    2    0    0  0.49546377471E-03 -0.20817196191E-01 -0.14800504135E-01  0.25547134170E-01  0.00000000000E+00 0.  1.
     999901    1    3    3    0    0 -0.52189581107E-01 -0.13175630549E-01  0.12499383052E+00  0.89046100829E+00  0.88000000000E+00 0.  1.
        -11    1    4    4    0    0  0.25019813750E-01  0.22623638818E-01 -0.42380868331E-01  0.54168433935E-01  0.51100000000E-03 0.  1.
         11    1    4    4    0    0  0.26674303582E-01  0.11369187922E-01 -0.67812458052E-01  0.73753423606E-01  0.51100000000E-03 0. -1.
</event>
<event>
 8    1  0.1010879E+005  0.1043930E+01  0.7957747E-01            NaN
         13   -1    0    0    0    0  0.00000000000E+00  0.00000000000E+00  0.74505805969E-08  0.10566000000E+00  0.10566000000E+00 0.  1.
     999900   -1    0    0    0    0 -0.00000000000E+00 -0.00000000000E+00 -0.74505805969E-08  0.93827000000E+00  0.93827000000E+00 0.  1.
     999902    2    1    2    0    0 -0.12219553521E-01  0.47362296349E-02  0.18946112879E-01  0.10208929743E+01  0.10206330195E+01 0.  0.
     999903    2    3    3    0    0 -0.10029080382E+00 -0.68339955969E-01  0.50368089686E-01  0.13292675048E+00  0.20099294107E-01 0.  0.
         14    1    1    2    0    0  0.12219553521E-01 -0.47362296349E-02 -0.18946112879E-01  0.23037025690E-01  0.00000000000E+00 0. -1.
     999901    1    3    3    0    0  0.88071250295E-01  0.73076185603E-01 -0.31421976807E-01  0.88796622383E+00  0.88000000000E+00 0.  1.
        -11    1    4    4    0    0 -0.35524718556E-01 -0.32242917636E-01  0.12072341480E-01  0.49473365723E-01  0.51100000000E-03 0.  1.
         11    1    4    4    0    0 -0.64766085259E-01 -0.36097038333E-01  0.38295748206E-01  0.83453384760E-01  0.51100000000E-03 0. -1.
</event>
<event>
 8    1  0.1010879E+005  0.1043930E+01  0.7957747E-01            NaN
         13   -1    0    0    0    0  0.00000000000E+00  0.00000000000E+00  0.74505805969E-08  0.10566000000E+00  0.10566000000E+00 0. -1.
     999900   -1    0    0    0    0 -0.00000000000E+00 -0.00000000000E+00 -0.74505805969E-08  0.93827000000E+00  0.93827000000E+00 0.  1.
     999902    2    1    2    0    0  0.14307346531E-01 -0.18492011094E-01 -0.20472689583E-02  0.10204598924E+01  0.10201899559E+01 0.  0.
     999903    2    3    3    0    0  0.42259008021E-01 -0.37169167189E-01  0.11746948600E+00  0.13174487272E+00  0.19755014558E-01 0.  0.
         14    1    1    2    0    0 -0.14307346531E-01  0.18492011094E-01  0.20472689583E-02  0.23470107567E-01  0.00000000000E+00 0.  1.
     999901    1    3    3    0    0 -0.27951661491E-01  0.18677156096E-01 -0.11951675496E+00  0.88871501971E+00  0.88000000000E+00 0.  1.
        -11    1    4    4    0    0  0.10903642669E-01 -0.29315444523E-02  0.38635891132E-01  0.40255143533E-01  0.51100000000E-03 0. -1.
         11    1    4    4    0    0  0.31355365352E-01 -0.34237622737E-01  0.78833594866E-01  0.91489729191E-01  0.51100000000E-03 0.  1.
</event>
<event>
 8    1  0.1010879E+005  0.1043930E+01  0.7957747E-01            NaN
         13   -1    0    0    0    0  0.00000000000E+00  0.00000000000E+00  0.74505805969E-08  0.10566000000E+00  0.10566000000E+00 0. -1.
     999900   -1    0    0    0    0 -0.00000000000E+00 -0.00000000000E+00 -0.74505805969E-08  0.93827000000E+00  0.93827000000E+00 0.  1.
     999902    2    1    2    0    0  0.12348429246E-02 -0.13207805076E-01  0.18362026466E-01  0.10212775174E+01  0.10210262644E+01 0.  0.
     999903    2    3    3    0    0 -0.10635537864E+00  0.16876324735E-01  0.74494521588E-01  0.13244031766E+00  0.19867739974E-01 0.  0.
         14    1    1    2    0    0 -0.12348429246E-02  0.13207805076E-01 -0.18362026466E-01  0.22652482599E-01  0.00000000000E+00 0.  1.
     999901    1    3    3    0    0  0.10759022157E+00 -0.30084129811E-01 -0.56132495122E-01  0.88883719975E+00  0.88000000000E+00 0.  1.
        -11    1    4    4    0    0 -0.37572319556E-01  0.51420662813E-02  0.38027095513E-01  0.53706993554E-01  0.51100000000E-03 0. -1.
         11    1    4    4    0    0 -0.68783059085E-01  0.11734258454E-01  0.36467426075E-01  0.78733324102E-01  0.51100000000E-03 0.  1.
</event>
<event>
 7    1  0.1010879E+005  0.1043930E+01  0.7957747E-01            NaN
         13   -1    0    0    0    0  0.00000000000E+00  0.00000000000E+00  0.74505805969E-08  0.10566000000E+00  0.10566000000E+00 0.  1.
     999900   -1    0    0    0    0 -0.00000000000E+00 -0.00000000000E+00 -0.74505805969E-08  0.93827000000E+00  0.93827000000E+00 0. -1.
     999902    2    1    2    0    0 -0.11069356484E-01  0.21578134919E-01 -0.18282485437E-02  0.10196094521E+01  0.10193193541E+01 0.  0.
         14    1    1    2    0    0  0.11069356484E-01 -0.21578134919E-01  0.18282485437E-02  0.24320547944E-01  0.00000000000E+00 0. -1.
     999901    1    3    3    0    0 -0.81281029590E-02  0.74709078648E-01 -0.11293710219E+00  0.89039446401E+00  0.88000000000E+00 0. -1.
        -11    1    3    3    0    0  0.96123691125E-02 -0.51373787813E-01  0.79366685419E-01  0.95031550496E-01  0.51100000000E-03 0. -1.
         11    1    3    3    0    0 -0.12553622638E-01 -0.17571559156E-02  0.31742168223E-01  0.34183437550E-01  0.51100000000E-03 0.  1.
</event>
<event>
 8    1  0.1010879E+005  0.1043930E+01  0.7957747E-01            NaN
         13   -1    0    0    0    0  0.00000000000E+00  0.00000000000E+00  0.74505805969E-08  0.10566000000E+00  0.10566000000E+00 0.  1.
     999900   -1    0    0    0    0 -0.00000000000E+00 -0.00000000000E+00 -0.74505805969E-08  0.93827000000E+00  0.93827000000E+00 0.  1.
     999902    2    1    2    0    0  0.84360580913E-03 -0.19142847194E-01  0.16542187810E-01  0.10186158884E+01  0.10183012932E+01 0.  0.
     999903    2    3    3    0    0 -0.11633899200E+00  0.67835690581E-02 -0.49309882634E-01  0.12803156589E+00  0.19489470760E-01 0.  0.
         14    1    1    2    0    0 -0.84360580913E-03  0.19142847194E-01 -0.16542187810E-01  0.25314111618E-01  0.00000000000E+00 0. -1.
     999901    1    3    3    0    0  0.11718259781E+00 -0.25926416252E-01  0.65852070444E-01  0.89058432249E+00  0.88000000000E+00 0. -1.
        -11    1    4    4    0    0 -0.63887671077E-01  0.10502561698E-01 -0.34674669726E-01  0.73447478918E-01  0.51100000000E-03 0.  1.
         11    1    4    4    0    0 -0.52451320921E-01 -0.37189926400E-02 -0.14635212908E-01  0.54584086971E-01  0.51100000000E-03 0. -1.
</event>
<event>
 8    1  0.1010879E+005  0.1043930E+01  0.7957747E-01            NaN
         13   -1    0    0    0    0  0.00000000000E+00  0.00000000000E+00  0.74505805969E-08  0.10566000000E+00  0.10566000000E+00 0.  1.
     999900   -1    0    0    0    0 -0.00000000000E+00 -0.00000000000E+00 -0.74505805969E-08  0.93827000000E+00  0.93827000000E+00 0. -1.
     999902    2    1    2    0    0 -0.12166779553E-02 -0.21411555560E-01 -0.10819296367E-01  0.10199093383E+01  0.10196264346E+01 0.  0.
     999903    2    3    3    0    0 -0.21210499407E-01 -0.12963072006E+00  0.33886793417E-02  0.13294090193E+00  0.20193845346E-01 0.  0.
         14    1    1    2    0    0  0.12166779553E-02  0.21411555560E-01  0.10819296367E-01  0.24020661744E-01  0.00000000000E+00 0. -1.
     999901    1    3    3    0    0  0.19993821451E-01  0.10821916450E+00 -0.14207975709E-01  0.88696843632E+00  0.88000000000E+00 0.  1.
        -11    1    4    4    0    0 -0.48538579657E-02 -0.28181563993E-01  0.91219859565E-02  0.30020530226E-01  0.51100000000E-03 0. -1.
         11    1    4    4    0    0 -0.16356641441E-01 -0.10144915607E+00 -0.57333066148E-02  0.10292037171E+00  0.51100000000E-03 0.  1.
</event>
<event>
 8    1  0.1024692E+005  0.1043930E+01  0.7957747E-01            NaN
         13   -1    0    0    0    0  0.00000000000E+00  0.00000000000E+00  0.74505805969E-08  0.10566000000E+00  0.10566000000E+00 0. -1.
     999900   -1    0    0    0    0 -0.00000000000E+00 -0.00000000000E+00 -0.74505805969E-08  0.93827000000E+00  0.93827000000E+00 0. -1.
     999902    2    1    2    0    0 -0.10795119740E-01 -0.20980074864E-01  0.15002008210E-02  0.10202879029E+01  0.10200139490E+01 0.  0.
     999903    2    3    3    0    0 -0.91375704286E-01  0.44992282923E-01 -0.79031084706E-01  0.13049530319E+00  0.20230841516E-01 0.  0.
         14    1    1    2    0    0  0.10795119740E-01  0.20980074864E-01 -0.15002008210E-02  0.23642097073E-01  0.00000000000E+00 0.  1.
     999901    1    3    3    0    0  0.80580584546E-01 -0.65972357787E-01  0.80531285527E-01  0.88979259974E+00  0.88000000000E+00 0.  1.
        -11    1    4    4    0    0 -0.74795770240E-01  0.28872503456E-01 -0.55584670980E-01  0.97559958336E-01  0.51100000000E-03 0. -1.
         11    1    4    4    0    0 -0.16579934047E-01  0.16119779467E-01 -0.23446413726E-01  0.32935344854E-01  0.51100000000E-03 0.  1.
</event>
<event>
 8    1  0.1010879E+005  0.1043930E+01  0.7957747E-01            NaN
         13   -1    0    0    0    0  0.00000000000E+00  0.00000000000E+00  0.74505805969E-08  0.10566000000E+00  0.10566000000E+00 0. -1.
     999900   -1    0    0    0    0 -0.00000000000E+00 -0.00000000000E+00 -0.74505805969E-08  0.93827000000E+00  0.93827000000E+00 0.  1.
     999902    2    1    2    0    0 -0.25487448978E-02 -0.20987131440E-01 -0.10223293187E-01  0.10204465695E+01  0.10201763228E+01 0.  0.
     999903    2    3    3    0    0 -0.94816833803E-01  0.10274703643E-01  0.86058260310E-01  0.12985079128E+00  0.18957909179E-01 0.  0.
         14    1    1    2    0    0  0.25487448978E-02  0.20987131440E-01  0.10223293187E-01  0.23483430546E-01  0.00000000000E+00 0. -1.
     999901    1    3    3    0    0  0.92268088905E-01 -0.31261835083E-01 -0.96281553496E-01  0.89059577818E+00  0.88000000000E+00 0.  1.
        -11    1    4    4    0    0 -0.32668749512E-01  0.84885441624E-03  0.41375574931E-01  0.52727289617E-01  0.51100000000E-03 0. -1.
         11    1    4    4    0    0 -0.62148084290E-01  0.94258492264E-02  0.44682685378E-01  0.77123501659E-01  0.51100000000E-03 0.  1.
</event>
<event>
 8    1  0.1010879E+005  0.1043930E+01  0.7957747E-01            NaN
         13   -1    0    0    0    0  0.00000000000E+00  0.00000000000E+00  0.74505805969E-08  0.10566000000E+00  0.10566000000E+00 0.  1.
     999900   -1    0    0    0    0 -0.00000000000E+00 -0.00000000000E+00 -0.74505805969E-08  0.93827000000E+00  0.93827000000E+00 0. -1.
     999902    2    1    2    0    0  0.78188072852E-02  0.40152729928E-02 -0.22293799242E-01  0.10199660761E+01  0.10196845231E+01 0.  0.
     999903    2    3    3    0    0  0.26658968439E-01 -0.44155026602E-01 -0.12079794851E+00  0.13296077912E+00  0.20641159032E-01 0.  0.
         14    1    1    2    0    0 -0.78188072852E-02 -0.40152729928E-02  0.22293799242E-01  0.23963923911E-01  0.00000000000E+00 0.  1.
     999901    1    3    3    0    0 -0.18840161154E-01  0.48170299595E-01  0.98504149269E-01  0.88700529697E+00  0.88000000000E+00 0.  1.
        -11    1    4    4    0    0  0.15623976879E-02 -0.21529375992E-01 -0.52240729706E-01  0.56527073852E-01  0.51100000000E-03 0. -1.
         11    1    4    4    0    0  0.25096570751E-01 -0.22625650611E-01 -0.68557218805E-01  0.76433705263E-01  0.51100000000E-03 0.  1.
</event>
<event>
 8    1  0.1010879E+005  0.1043930E+01  0.7957747E-01            NaN
         13   -1    0    0    0    0  0.00000000000E+00  0.00000000000E+00  0.74505805969E-08  0.10566000000E+00  0.10566000000E+00 0. -1.
     999900   -1    0    0    0    0 -0.00000000000E+00 -0.00000000000E+00 -0.74505805969E-08  0.93827000000E+00  0.93827000000E+00 0.  1.
     999902    2    1    2    0    0 -0.11438937816E-01  0.97109954014E-02  0.18106752341E-01  0.10204138947E+01  0.10201428867E+01 0.  0.
     999903    2    3    3    0    0  0.12268047659E+00 -0.15641889070E-01  0.33951410652E-01  0.12975018749E+00  0.19678537512E-01 0.  0.
         14    1    1    2    0    0  0.11438937816E-01 -0.97109954014E-02 -0.18106752341E-01  0.23516105340E-01  0.00000000000E+00 0.  1.
     999901    1    3    3    0    0 -0.13411941441E+00  0.25352884472E-01 -0.15844658311E-01  0.89066370717E+00  0.88000000000E+00 0.  1.
        -11    1    4    4    0    0  0.10120712059E+00 -0.60622311751E-02  0.23870312234E-01  0.10416182042E+00  0.51100000000E-03 0.  1.
         11    1    4    4    0    0  0.21473355997E-01 -0.95796578953E-02  0.10081098418E-01  0.25588367073E-01  0.51100000000E-03 0. -1.
</event>
<event>
 8    1  0.1010879E+005  0.1043930E+01  0.7957747E-01            NaN
         13   -1    0    0    0    0  0.00000000000E+00  0.00000000000E+00  0.74505805969E-08  0.10566000000E+00  0.10566000000E+00 0.  1.
     999900   -1    0    0    0    0 -0.00000000000E+00 -0.00000000000E+00 -0.74505805969E-08  0.93827000000E+00  0.93827000000E+00 0. -1.
     999902    2    1    2    0    0  0.12309536360E-01  0.14691905187E-02 -0.20530466939E-01  0.10199470211E+01  0.10196650148E+01 0.  0.
     999903    2    3    3    0    0  0.25176431248E-01  0.11257770695E+00 -0.61242669415E-01  0.13193342722E+00  0.18659364115E-01 0.  0.
         14    1    1    2    0    0 -0.12309536360E-01 -0.14691905187E-02  0.20530466939E-01  0.23982978942E-01  0.00000000000E+00 0.  1.
     999901    1    3    3    0    0 -0.12866894887E-01 -0.11110851643E+00  0.40712202476E-01  0.88801359384E+00  0.88000000000E+00 0.  1.
        -11    1    4    4    0    0  0.30660509388E-02  0.56356435767E-01 -0.29324289868E-01  0.63605216908E-01  0.51100000000E-03 0. -1.
         11    1    4    4    0    0  0.22110380309E-01  0.56221271183E-01 -0.31918379547E-01  0.68328210314E-01  0.51100000000E-03 0.  1.
</event>
<event>
 8    1  0.1010879E+005  0.1043930E+01  0.7957747E-01            NaN
         13   -1    0    0    0    0  0.00000000000E+00  0.00000000000E+00  0.74505805969E-08  0.10566000000E+00  0.10566000000E+00 0. -1.
     999900   -1    0    0    0    0 -0.00000000000E+00 -0.00000000000E+00 -0.74505805969E-08  0.93827000000E+00  0.93827000000E+00 0. -1.
     999902    2    1    2    0    0 -0.90592674499E-02 -0.21639680065E-01 -0.36836971834E-02  0.10201830906E+01  0.10199066735E+01 0.  0.
     999903    2    3    3    0    0  0.75041427355E-01  0.10587972926E-01  0.10276876608E+00  0.12920403620E+00  0.19721630247E-01 0.  0.
         14    1    1    2    0    0  0.90592674499E-02  0.21639680065E-01  0.36836971834E-02  0.23746909378E-01  0.00000000000E+00 0. -1.
     999901    1    3    3    0    0 -0.84100694805E-01 -0.32227652991E-01 -0.10645246326E+00  0.89097905442E+00  0.88000000000E+00 0. -1.
        -11    1    4    4    0    0  0.54629561732E-01 -0.25673349675E-03  0.64876311950E-01  0.84815398958E-01  0.51100000000E-03 0. -1.
         11    1    4    4    0    0  0.20411865623E-01  0.10844706422E-01  0.37892454126E-01  0.44388637243E-01  0.51100000000E-03 0.  1.
</event>
<event>
 8    1  0.1010879E+005  0.1043930E+01  0.7957747E-01            NaN
         13   -1    0    0    0    0  0.00000000000E+00  0.00000000000E+00  0.74505805969E-08  0.10566000000E+00  0.10566000000E+00 0. -1.
     999900   -1    0    0    0    0 -0.00000000000E+00 -0.00000000000E+00 -0.74505805969E-08  0.93827000000E+00  0.93827000000E+00 0.  1.
     999902    2    1    2    0    0  0.14722394264E-02 -0.13511585783E-01  0.18645268521E-01  0.10208567151E+01  0.10205959319E+01 0.  0.
     999903    2    3    3    0    0  0.10175108145E+00 -0.82095587536E-01 -0.13699121277E-02  0.13228470397E+00  0.20109653769E-01 0.  0.
         14    1    1    2    0    0 -0.14722394264E-02  0.13511585783E-01 -0.18645268521E-01  0.23073284931E-01  0.00000000000E+00 0.  1.
     999901    1    3    3    0    0 -0.10027884203E+00  0.68584001753E-01  0.20015180649E-01  0.88857201110E+00  0.88000000000E+00 0.  1.
        -11    1    4    4    0    0  0.58997744743E-01 -0.34875996899E-01  0.90901255859E-03  0.68543099356E-01  0.51100000000E-03 0.  1.
         11    1    4    4    0    0  0.42753336712E-01 -0.47219590636E-01 -0.22789246862E-02  0.63741604613E-01  0.51100000000E-03 0. -1.
</event>
<event>
 8    1  0.1010879E+005  0.1043930E+01  0.7957747E-01            NaN
         13   -1    0    0    0    0  0.00000000000E+00  0.00000000000E+00  0.74505805969E-08  0.10566000000E+00  0.10566000000E+00 0. -1.
     999900   -1    0    0    0    0 -0.00000000000E+00 -0.00000000000E+00 -0.74505805969E-08  0.93827000000E+00  0.93827000000E+00 0. -1.
     999902    2    1    2    0    0  0.73649559173E-02  0.85448293803E-02  0.21146080239E-01  0.10199630771E+01  0.10196814528E+01 0.  0.
     999903    2    3    3    0    0 -0.12049715617E+00  0.28111902412E-01  0.35522197014E-01  0.13039112227E+00  0.20740650504E-01 0.  0.
         14    1    1    2    0    0 -0.73649559173E-02 -0.85448293803E-02 -0.21146080239E-01  0.23966922921E-01  0.00000000000E+00 0.  1.
     999901    1    3    3    0    0  0.12786211209E+00 -0.19567073031E-01 -0.14376116774E-01  0.88957195481E+00  0.88000000000E+00 0. -1.
        -11    1    4    4    0    0 -0.88365339610E-01  0.24778338581E-01  0.17608918532E-01  0.93449100799E-01  0.51100000000E-03 0. -1.
         11    1    4    4    0    0 -0.32131816559E-01  0.33335638309E-02  0.17913278482E-01  0.36942021468E-01  0.51100000000E-03 0.  1.
</event>
<event>
 8    1  0.1010879E+005  0.1043930E+01  0.7957747E-01            NaN
         13   -1    0    0    0    0  0.00000000000E+00  0.00000000000E+00  0.74505805969E-08  0.10566000000E+00  0.10566000000E+00 0. -1.
     999900   -1    0    0    0    0 -0.00000000000E+00 -0.00000000000E+00 -0.74505805969E-08  0.93827000000E+00  0.93827000000E+00 0.  1.
     999902    2    1    2    0    0 -0.52777736583E-03 -0.63318416899E-02  0.24241387537E-01  0.10188697598E+01  0.10185615209E+01 0.  0.
     999903    2    3    3    0    0 -0.36324373620E-01  0.23052038639E-01  0.12340336260E+00  0.13209024606E+00  0.19198609296E-01 0.  0.
         14    1    1    2    0    0  0.52777736583E-03  0.63318416899E-02 -0.24241387537E-01  0.25060240179E-01  0.00000000000E+00 0.  1.
     999901    1    3    3    0    0  0.35796596255E-01 -0.29383880329E-01 -0.99161975064E-01  0.88677951376E+00  0.88000000000E+00 0.  1.
        -11    1    4    4    0    0  0.15693338925E-02 -0.11281799689E-02  0.78481761328E-02  0.80988016719E-02  0.51100000000E-03 0.  1.
         11    1    4    4    0    0 -0.37893707513E-01  0.24180218608E-01  0.11555518647E+00  0.12399144439E+00  0.51100000000E-03 0. -1.
</event>
<event>
 8    1  0.1010879E+005  0.1043930E+01  0.7957747E-01            NaN
         13   -1    0    0    0    0  0.00000000000E+00  0.00000000000E+00  0.74505805969E-08  0.10566000000E+00  0.10566000000E+00 0.  1.
     999900   -1    0    0    0    0 -0.00000000000E+00 -0.00000000000E+00 -0.74505805969E-08  0.93827000000E+00  0.93827000000E+00 0.  1.
     999902    2    1    2    0    0 -0.95877730677E-02  0.12438087853E-01  0.17355501252E-01  0.10205239143E+01  0.10202554655E+01 0.  0.
     999903    2    3    3    0    0 -0.12835607963E+00 -0.68808472998E-02  0.24034641617E-01  0.13231012093E+00  0.20141372009E-01 0.  0.
         14    1    1    2    0    0  0.95877730677E-02 -0.12438087853E-01 -0.17355501252E-01  0.23406085652E-01  0.00000000000E+00 0. -1.
     999901    1    3    3    0    0  0.11876830656E+00  0.19318935153E-01 -0.66791403652E-02  0.88821379342E+00  0.88000000000E+00 0.  1.
        -11    1    4    4    0    0 -0.63092973105E-01  0.49790221745E-02  0.17434846188E-01  0.65648677821E-01  0.51100000000E-03 0.  1.
         11    1    4    4    0    0 -0.65263106523E-01 -0.11859869474E-01  0.65997954293E-02  0.66661443111E-01  0.51100000000E-03 0. -1.
</event>
<event>
 8    1  0.1010879E+005  0.1043930E+01  0.7957747E-01            NaN
         13   -1    0    0    0    0  0.00000000000E+00  0.00000000000E+00  0.74505805969E-08  0.10566000000E+00  0.10566000000E+00 0. -1.
     999900   -1    0    0    0    0 -0.00000000000E+00 -0.00000000000E+00 -0.74505805969E-08  0.93827000000E+00  0.93827000000E+00 0. -1.
     999902    2    1    2    0    0  0.66448493154E-02 -0.22778942376E-01 -0.34511138568E-02  0.10199520012E+01  0.10196701135E+01 0.  0.
     999903    2    3    3    0    0 -0.74268462264E-01  0.44596880388E-01 -0.93245417991E-01  0.12913805739E+00  0.21845907234E-01 0.  0.
         14    1    1    2    0    0 -0.66448493154E-02  0.22778942376E-01  0.34511138568E-02  0.23977998770E-01  0.00000000000E+00 0.  1.
     999901    1    3    3    0    0  0.80913311579E-01 -0.67375822764E-01  0.89794304134E-01  0.89081394384E+00  0.88000000000E+00 0.  1.
        -11    1    4    4    0    0 -0.25941776001E-01  0.25771190373E-01 -0.47751896306E-01  0.60146776449E-01  0.51100000000E-03 0.  1.
         11    1    4    4    0    0 -0.48326686263E-01  0.18825690015E-01 -0.45493521685E-01  0.68991280942E-01  0.51100000000E-03 0. -1.
</event>
<event>
 8    1  0.1010879E+005  0.1043930E+01  0.7957747E-01            NaN
         13   -1    0    0    0    0  0.00000000000E+00  0.00000000000E+00  0.74505805969E-08  0.10566000000E+00  0.10566000000E+00 0.  1.
     999900   -1    0    0    0    0 -0.00000000000E+00 -0.00000000000E+00 -0.74505805969E-08  0.93827000000E+00  0.93827000000E+00 0. -1.
     999902    2    1    2    0    0 -0.24358631057E-02  0.20878429258E-01  0.11798805554E-01  0.10198249373E+01  0.10195400181E+01 0.  0.
     999903    2    3    3    0    0  0.17104388430E-02  0.12676020513E+00  0.35680599130E-01  0.13314659516E+00  0.19591718690E-01 0.  0.
         14    1    1    2    0    0  0.24358631057E-02 -0.20878429258E-01 -0.11798805554E-01  0.24105062743E-01  0.00000000000E+00 0. -1.
     999901    1    3    3    0    0 -0.41463019487E-02 -0.10588177588E+00 -0.23881793576E-01  0.88667834210E+00  0.88000000000E+00 0. -1.
        -11    1    4    4    0    0 -0.79095505898E-02  0.31519483774E-01  0.10655085881E-01  0.34202789711E-01  0.51100000000E-03 0.  1.
         11    1    4    4    0    0  0.96199894328E-02  0.95240721360E-01  0.25025513250E-01  0.98943805447E-01  0.51100000000E-03 0. -1.
</event>
<event>
 8    1  0.1010879E+005  0.1043930E+01  0.7957747E-01            NaN
         13   -1    0    0    0    0  0.00000000000E+00  0.00000000000E+00  0.74505805969E-08  0.10566000000E+00  0.10566000000E+00 0.  1.
     999900   -1    0    0    0    0 -0.00000000000E+00 -0.00000000000E+00 -0.74505805969E-08  0.93827000000E+00  0.93827000000E+00 0.  1.
     999902    2    1    2    0    0  0.22596773293E-01 -0.37030367590E-02 -0.34613658380E-02  0.10207716819E+01  0.10205089509E+01 0.  0.
     999903    2    3    3    0    0 -0.54819106018E-01 -0.89937091833E-01 -0.73993279932E-01  0.13037610601E+00  0.20714938384E-01 0.  0.
         14    1    1    2    0    0 -0.22596773293E-01  0.37030367590E-02  0.34613658380E-02  0.23158318116E-01  0.00000000000E+00 0.  1.
     999901    1    3    3    0    0  0.77415879311E-01  0.86234055073E-01  0.70531914094E-01  0.89039557587E+00  0.88000000000E+00 0. -1.
        -11    1    4    4    0    0 -0.14326327906E-01 -0.41647799141E-01 -0.25868014820E-01  0.51080310847E-01  0.51100000000E-03 0. -1.
         11    1    4    4    0    0 -0.40492778113E-01 -0.48289292692E-01 -0.48125265112E-01  0.79295795166E-01  0.51100000000E-03 0.  1.
</event>
<event>
 8    1  0.1010879E+005  0.1043930E+01  0.7957747E-01            NaN
         13   -1    0    0    0    0  0.00000000000E+00  0.00000000000E+00  0.74505805969E-08  0.10566000000E+00  0.10566000000E+00 0.  1.
     999900   -1    0    0    0    0 -0.00000000000E+00 -0.00000000000E+00 -0.74505805969E-08  0.93827000000E+00  0.93827000000E+00 0.  1.
     999902    2    1    2    0    0 -0.45539088457E-02  0.14552148146E-01 -0.17318077668E-01  0.10208557955E+01  0.10205949913E+01 0.  0.
     999903    2    3    3    0    0 -0.10939015645E+00  0.23197354605E-01 -0.68442794773E-01  0.13311759355E+00  0.23055454187E-01 0.  0.
         14    1    1    2    0    0  0.45539088457E-02 -0.14552148146E-01  0.17318077668E-01  0.23074204549E-01  0.00000000000E+00 0.  1.
     999901    1    3    3    0    0  0.10483624761E+00 -0.86452064583E-02  0.51124717104E-01  0.88773820190E+00  0.88000000000E+00 0. -1.
        -11    1    4    4    0    0 -0.97427829714E-01  0.27706654085E-01 -0.62380567185E-01  0.11895981240E+00  0.51100000000E-03 0.  1.
         11    1    4    4    0    0 -0.11962326739E-01 -0.45092994807E-02 -0.60622275878E-02  0.14157781152E-01  0.51100000000E-03 0. -1.
</event>
<event>
 8    1  0.1010879E+005  0.1043930E+01  0.7957747E-01            NaN
         13   -1    0    0    0    0  0.00000000000E+00  0.00000000000E+00  0.74505805969E-08  0.10566000000E+00  0.10566000000E+00 0. -1.
     999900   -1    0    0    0    0 -0.00000000000E+00 -0.00000000000E+00 -0.74505805969E-08  0.93827000000E+00  0.93827000000E+00 0.  1.
     999902    2    1    2    0    0 -0.96654158138E-02  0.11441222667E-01 -0.17410024149E-01  0.10209641388E+01  0.10207058058E+01 0.  0.
     999903    2    3    3    0    0 -0.42635941626E-01  0.81404884133E-01  0.91318743795E-01  0.13090576181E+00  0.18778360639E-01 0.  0.
         14    1    1    2    0    0  0.96654158138E-02 -0.11441222667E-01  0.17410024149E-01  0.22965861182E-01  0.00000000000E+00 0. -1.
     999901    1    3    3    0    0  0.32970525812E-01 -0.69963661467E-01 -0.10872876794E+00  0.89005837701E+00  0.88000000000E+00 0.  1.
        -11    1    4    4    0    0 -0.16561494143E-01  0.26874201802E-01  0.43929336157E-01  0.54097629402E-01  0.51100000000E-03 0. -1.
         11    1    4    4    0    0 -0.26074447484E-01  0.54530682331E-01  0.47389407638E-01  0.76808132411E-01  0.51100000000E-03 0.  1.
</event>
<event>
 8    1  0.1010879E+005  0.1043930E+01  0.7957747E-01            NaN
         13   -1    0    0    0    0  0.00000000000E+00  0.00000000000E+00  0.74505805969E-08  0.10566000000E+00  0.10566000000E+00 0. -1.
     999900   -1    0    0    0    0 -0.00000000000E+00 -0.00000000000E+00 -0.74505805969E-08  0.93827000000E+00  0.93827000000E+00 0. -1.
     999902    2    1    2    0    0  0.23230447726E-02 -0.20332926079E-01 -0.46789993755E-02  0.10229367283E+01  0.10227212879E+01 0.  0.
     999903    2    3    3    0    0 -0.76710447934E-01 -0.43350454013E-01  0.97675977812E-01  0.13318808916E+00  0.20849838544E-01 0.  0.
         14    1    1    2    0    0 -0.23230447726E-02  0.20332926079E-01  0.46789993755E-02  0.20993271663E-01  0.00000000000E+00 0. -1.
     999901    1    3    3    0    0  0.79033492707E-01  0.23017527934E-01 -0.10235497719E+00  0.88974863918E+00  0.88000000000E+00 0. -1.
        -11    1    4    4    0    0 -0.40868598395E-01 -0.20371117714E-01  0.35557227551E-01  0.57877476827E-01  0.51100000000E-03 0. -1.
         11    1    4    4    0    0 -0.35841849539E-01 -0.22979336299E-01  0.62118750261E-01  0.75310612334E-01  0.51100000000E-03 0.  1.
</event>
<event>
 8    1  0.1010879E+005  0.1043930E+01  0.7957747E-01            NaN
         13   -1    0    0    0    0  0.00000000000E+00  0.00000000000E+00  0.74505805969E-08  0.10566000000E+00  0.10566000000E+00 0.  1.
     999900   -1    0    0    0    0 -0.00000000000E+00 -0.00000000000E+00 -0.74505805969E-08  0.93827000000E+00  0.93827000000E+00 0.  1.
     999902    2    1    2    0    0  0.21145734235E-01  0.44849056889E-02 -0.81656784698E-02  0.10208229716E+01  0.10205614164E+01 0.  0.
     999903    2    3    3    0    0  0.79894099570E-01 -0.52028446334E-01  0.88924126482E-01  0.13173829646E+00  0.18906403942E-01 0.  0.
         14    1    1    2    0    0 -0.21145734235E-01 -0.44849056889E-02  0.81656784698E-02  0.23107028374E-01  0.00000000000E+00 0. -1.
     999901    1    3    3    0    0 -0.58748365334E-01  0.56513352023E-01 -0.97089804952E-01  0.88908467516E+00  0.88000000000E+00 0.  1.
        -11    1    4    4    0    0  0.57954195271E-01 -0.40555944485E-01  0.75923338994E-01  0.10376939774E+00  0.51100000000E-03 0. -1.
         11    1    4    4    0    0  0.21939904299E-01 -0.11472501849E-01  0.13000787488E-01  0.27968898721E-01  0.51100000000E-03 0.  1.
</event>
<event>
 8    1  0.1010879E+005  0.1043930E+01  0.7957747E-01            NaN
         13   -1    0    0    0    0  0.00000000000E+00  0.00000000000E+00  0.74505805969E-08  0.10566000000E+00  0.10566000000E+00 0.  1.
     999900   -1    0    0    0    0 -0.00000000000E+00 -0.00000000000E+00 -0.74505805969E-08  0.93827000000E+00  0.93827000000E+00 0.  1.
     999902    2    1    2    0    0 -0.94599914147E-02 -0.13559405182E-01 -0.16587724948E-01  0.10205098906E+01  0.10202411162E+01 0.  0.
     999903    2    3    3    0    0  0.16901502851E-01  0.11551966309E+00 -0.51670079586E-01  0.13001165596E+00  0.24551582453E-01 0.  0.
         14    1    1    2    0    0  0.94599914147E-02  0.13559405182E-01  0.16587724948E-01  0.23420109424E-01  0.00000000000E+00 0.  1.
     999901    1    3    3    0    0 -0.26361494266E-01 -0.12907906828E+00  0.35082354638E-01  0.89049823462E+00  0.88000000000E+00 0. -1.
        -11    1    4    4    0    0 -0.18224991015E-03  0.30159225996E-01 -0.24364654403E-01  0.38775116155E-01  0.51100000000E-03 0.  1.
         11    1    4    4    0    0  0.17083752761E-01  0.85360437099E-01 -0.27305425184E-01  0.91236539805E-01  0.51100000000E-03 0. -1.
</event>
<event>
 8    1  0.1010879E+005  0.1043930E+01  0.7957747E-01            NaN
         13   -1    0    0    0    0  0.00000000000E+00  0.00000000000E+00  0.74505805969E-08  0.10566000000E+00  0.10566000000E+00 0.  1.
     999900   -1    0    0    0    0 -0.00000000000E+00 -0.00000000000E+00 -0.74505805969E-08  0.93827000000E+00  0.93827000000E+00 0. -1.
     999902    2    1    2    0    0  0.11388624336E-01 -0.67097223730E-02 -0.18992875839E-01  0.10207901973E+01  0.10205278910E+01 0.  0.
     999903    2    3    3    0    0  0.37190612157E-02 -0.12692810346E+00  0.27046095437E-01  0.13139103589E+00  0.20187574627E-01 0.  0.
         14    1    1    2    0    0 -0.11388624336E-01  0.67097223730E-02  0.18992875839E-01  0.23139802748E-01  0.00000000000E+00 0.  1.
     999901    1    3    3    0    0  0.76695631199E-02  0.12021838109E+00 -0.46038971276E-01  0.88939916136E+00  0.88000000000E+00 0.  1.
        -11    1    4    4    0    0  0.10959492398E-01 -0.50329497594E-01  0.13679359966E-01  0.53296855552E-01  0.51100000000E-03 0.  1.
         11    1    4    4    0    0 -0.72404311818E-02 -0.76598605870E-01  0.13366735471E-01  0.78094180341E-01  0.51100000000E-03 0. -1.
</event>
<event>
 8    1  0.1167160E+005  0.1043930E+01  0.7957747E-01            NaN
         13   -1    0    0    0    0  0.00000000000E+00  0.00000000000E+00  0.74505805969E-08  0.10566000000E+00  0.10566000000E+00 0. -1.
     999900   -1    0    0    0    0 -0.00000000000E+00 -0.00000000000E+00 -0.74505805969E-08  0.93827000000E+00  0.93827000000E+00 0. -1.
     999902    2    1    2    0    0  0.32684270682E-03 -0.18302118971E-01 -0.15300768456E-01  0.10200723408E+01  0.10197933088E+01 0.  0.
     999903    2    3    3    0    0 -0.12619884852E+00 -0.23478884290E-01 -0.16712017120E-01  0.13100679711E+00  0.20151476275E-01 0.  0.
         14    1    1    2    0    0 -0.32684270682E-03  0.18302118971E-01  0.15300768456E-01  0.23857659154E-01  0.00000000000E+00 0. -1.
     999901    1    3    3    0    0  0.12652569123E+00  0.51767653195E-02  0.14112486638E-02  0.88906554374E+00  0.88000000000E+00 0. -1.
        -11    1    4    4    0    0 -0.54644894742E-01 -0.40279327863E-02  0.85425064393E-03  0.54802186352E-01  0.51100000000E-03 0. -1.
         11    1    4    4    0    0 -0.71553953781E-01 -0.19450951504E-01 -0.17566267764E-01  0.76204610755E-01  0.51100000000E-03 0.  1.
</event>
<event>
 8    1  0.1010879E+005  0.1043930E+01  0.7957747E-01            NaN
         13   -1    0    0    0    0  0.00000000000E+00  0.00000000000E+00  0.74505805969E-08  0.10566000000E+00  0.10566000000E+00 0.  1.
     999900   -1    0    0    0    0 -0.00000000000E+00 -0.00000000000E+00 -0.74505805969E-08  0.93827000000E+00  0.93827000000E+00 0.  1.
     999902    2    1    2    0    0 -0.69355346450E-02  0.96718892195E-02 -0.16457507413E-01  0.10236199869E+01  0.10234184779E+01 0.  0.
     999903    2    3    3    0    0 -0.10622926392E+00  0.27074855444E-02 -0.81898152452E-01  0.13559395935E+00  0.19657757898E-01 0.  0.
         14    1    1    2    0    0  0.69355346450E-02 -0.96718892195E-02  0.16457507413E-01  0.20310013100E-01  0.00000000000E+00 0.  1.
     999901    1    3    3    0    0  0.99293729271E-01  0.69644036751E-02  0.65440645039E-01  0.88802602755E+00  0.88000000000E+00 0. -1.
        -11    1    4    4    0    0 -0.25748324782E-01 -0.68999225558E-03 -0.10049989393E-01  0.27653493924E-01  0.51100000000E-03 0.  1.
         11    1    4    4    0    0 -0.80480939134E-01  0.33974778000E-02 -0.71848163059E-01  0.10794046542E+00  0.51100000000E-03 0. -1.
</event>
<event>
 8    1  0.1010879E+005  0.1043930E+01  0.7957747E-01            NaN
         13   -1    0    0    0    0  0.00000000000E+00  0.00000000000E+00  0.74505805969E-08  0.10566000000E+00  0.10566000000E+00 0.  1.
     999900   -1    0    0    0    0 -0.00000000000E+00 -0.00000000000E+00 -0.74505805969E-08  0.93827000000E+00  0.93827000000E+00 0. -1.
     999902    2    1    2    0    0  0.19480843872E-01 -0.65508724620E-02 -0.10452811335E-01  0.10208718459E+01  0.10206114085E+01 0.  0.
     999903    2    3    3    0    0 -0.51128677853E-01 -0.11775428221E+00 -0.19552083444E-01  0.13102090347E+00  0.17435036605E-01 0.  0.
         14    1    1    2    0    0 -0.19480843872E-01  0.65508724620E-02  0.10452811335E-01  0.23058154150E-01  0.00000000000E+00 0. -1.
     999901    1    3    3    0    0  0.70609521725E-01  0.11120340975E+00  0.90992721083E-02  0.88985094238E+00  0.88000000000E+00 0.  1.
        -11    1    4    4    0    0 -0.61638133613E-02 -0.32491444707E-01 -0.29348960366E-02  0.33204838654E-01  0.51100000000E-03 0. -1.
         11    1    4    4    0    0 -0.44964864492E-01 -0.85262837505E-01 -0.16617187407E-01  0.97816064819E-01  0.51100000000E-03 0.  1.
</event>
<event>
 8    1  0.1010879E+005  0.1043930E+01  0.7957747E-01            NaN
         13   -1    0    0    0    0  0.00000000000E+00  0.00000000000E+00  0.74505805969E-08  0.10566000000E+00  0.10566000000E+00 0.  1.
     999900   -1    0    0    0    0 -0.00000000000E+00 -0.00000000000E+00 -0.74505805969E-08  0.93827000000E+00  0.93827000000E+00 0. -1.
     999902    2    1    2    0    0 -0.14394142080E-03 -0.12244764538E-01 -0.19915730014E-01  0.10205507083E+01  0.10202828809E+01 0.  0.
     999903    2    3    3    0    0 -0.12574104335E+00 -0.30352428100E-01  0.68868247320E-02  0.13104472383E+00  0.19829559121E-01 0.  0.
         14    1    1    2    0    0  0.14394142080E-03  0.12244764538E-01  0.19915730014E-01  0.23379291686E-01  0.00000000000E+00 0.  1.
     999901    1    3    3    0    0  0.12559710193E+00  0.18107663562E-01 -0.26802554746E-01  0.88950598448E+00  0.88000000000E+00 0. -1.
        -11    1    4    4    0    0 -0.76247647520E-01 -0.23901561900E-01 -0.38031524323E-02  0.79998209374E-01  0.51100000000E-03 0.  1.
         11    1    4    4    0    0 -0.49493395828E-01 -0.64508661993E-02  0.10689977164E-01  0.51046514456E-01  0.51100000000E-03 0. -1.
</event>
<event>
 8    1  0.1010879E+005  0.1043930E+01  0.7957747E-01            NaN
         13   -1    0    0    0    0  0.00000000000E+00  0.00000000000E+00  0.74505805969E-08  0.10566000000E+00  0.10566000000E+00 0. -1.
     999900   -1    0    0    0    0 -0.00000000000E+00 -0.00000000000E+00 -0.74505805969E-08  0.93827000000E+00  0.93827000000E+00 0.  1.
     999902    2    1    2    0    0  0.22045322755E-01 -0.72737422582E-02  0.67868909253E-02  0.10197439406E+01  0.10194570805E+01 0.  0.
     999903    2    3    3    0    0  0.28595583309E-01 -0.87973090441E-01 -0.90490552712E-01  0.13068927873E+00  0.18280465515E-01 0.  0.
         14    1    1    2    0    0 -0.22045322755E-01  0.72737422582E-02 -0.67868909253E-02  0.24186059419E-01  0.00000000000E+00 0.  1.
     999901    1    3    3    0    0 -0.65502605549E-02  0.80699348182E-01  0.97277443638E-01  0.88905466185E+00  0.88000000000E+00 0. -1.
        -11    1    4    4    0    0  0.10328659509E-01 -0.11050908793E-01 -0.12445910802E-01  0.19595040421E-01  0.51100000000E-03 0. -1.
         11    1    4    4    0    0  0.18266923801E-01 -0.76922181647E-01 -0.78044641911E-01  0.11109423831E+00  0.51100000000E-03 0.  1.
</event>
<event>
 8    1  0.1010879E+005  0.1043930E+01  0.7957747E-01            NaN
         13   -1    0    0    0    0  0.00000000000E+00  0.00000000000E+00  0.74505805969E-08  0.10566000000E+00  0.10566000000E+00 0.  1.
     999900   -1    0    0    0    0 -0.00000000000E+00 -0.00000000000E+00 -0.74505805969E-08  0.93827000000E+00  0.93827000000E+00 0.  1.
     999902    2    1    2    0    0  0.66955065379E-02  0.23971089213E-01 -0.52978402227E-02  0.10184837815E+01  0.10181658525E+01 0.  0.
     999903    2    3    3    0    0 -0.39884754764E-01 -0.31264118074E-01 -0.11645465434E+00  0.12855317397E+00  0.19899579853E-01 0.  0.
         14    1    1    2    0    0 -0.66955065379E-02 -0.23971089213E-01  0.52978402227E-02  0.25446218518E-01  0.00000000000E+00 0.  1.
     999901    1    3    3    0    0  0.46580261302E-01  0.55235207287E-01  0.11115681412E+00  0.88993060751E+00  0.88000000000E+00 0. -1.
        -11    1    4    4    0    0 -0.14419997585E-01 -0.74955557006E-03 -0.25858575917E-01  0.29621364475E-01  0.51100000000E-03 0.  1.
         11    1    4    4    0    0 -0.25464757179E-01 -0.30514562504E-01 -0.90596078422E-01  0.98931809492E-01  0.51100000000E-03 0. -1.
</event>
<event>
 8    1  0.1010879E+005  0.1043930E+01  0.7957747E-01            NaN
         13   -1    0    0    0    0  0.00000000000E+00  0.00000000000E+00  0.74505805969E-08  0.10566000000E+00  0.10566000000E+00 0. -1.
     999900   -1    0    0    0    0 -0.00000000000E+00 -0.00000000000E+00 -0.74505805969E-08  0.93827000000E+00  0.93827000000E+00 0.  1.
     999902    2    1    2    0    0 -0.31207277677E-02 -0.57502980720E-02 -0.24324065915E-01  0.10187414103E+01  0.10184299662E+01 0.  0.
     999903    2    3    3    0    0  0.10906739096E+00 -0.61993581434E-01  0.20491458535E-01  0.12870887596E+00  0.20178576976E-01 0.  0.
         14    1    1    2    0    0  0.31207277677E-02  0.57502980720E-02  0.24324065915E-01  0.25188589725E-01  0.00000000000E+00 0. -1.
     999901    1    3    3    0    0 -0.11218811872E+00  0.56243283362E-01 -0.44815524450E-01  0.89003253431E+00  0.88000000000E+00 0.  1.
        -11    1    4    4    0    0  0.52058690005E-01 -0.24909288615E-01  0.12395110067E-03  0.57713571621E-01  0.51100000000E-03 0.  1.
         11    1    4    4    0    0  0.57008700952E-01 -0.37084292819E-01  0.20367507434E-01  0.70995304339E-01  0.51100000000E-03 0. -1.
</event>
<event>
 8    1  0.1010879E+005  0.1043930E+01  0.7957747E-01            NaN
         13   -1    0    0    0    0  0.00000000000E+00  0.00000000000E+00  0.74505805969E-08  0.10566000000E+00  0.10566000000E+00 0. -1.
     999900   -1    0    0    0    0 -0.00000000000E+00 -0.00000000000E+00 -0.74505805969E-08  0.93827000000E+00  0.93827000000E+00 0. -1.
     999902    2    1    2    0    0 -0.31732007788E-02 -0.22340888979E-01 -0.62553418908E-03  0.10213562140E+01  0.10211067231E+01 0.  0.
     999903    2    3    3    0    0  0.39383400737E-01 -0.27850367224E-01 -0.12126301257E+00  0.13208976351E+00  0.20403239912E-01 0.  0.
         14    1    1    2    0    0  0.31732007788E-02  0.22340888979E-01  0.62553418908E-03  0.22573786049E-01  0.00000000000E+00 0.  1.
     999901    1    3    3    0    0 -0.42556601516E-01  0.55094782449E-02  0.12063747838E+00  0.88926645044E+00  0.88000000000E+00 0.  1.
        -11    1    4    4    0    0 -0.27251474369E-03 -0.27700416919E-02 -0.23267504408E-01  0.23438969211E-01  0.51100000000E-03 0.  1.
         11    1    4    4    0    0  0.39655915481E-01 -0.25080325532E-01 -0.97995508164E-01  0.10865079430E+00  0.51100000000E-03 0. -1.
</event>
<event>
 8    1  0.1010879E+005  0.1043930E+01  0.7957747E-01            NaN
         13   -1    0    0    0    0  0.00000000000E+00  0.00000000000E+00  0.74505805969E-08  0.10566000000E+00  0.10566000000E+00 0. -1.
     999900   -1    0    0    0    0 -0.00000000000E+00 -0.00000000000E+00 -0.74505805969E-08  0.93827000000E+00  0.93827000000E+00 0.  1.
     999902    2    1    2    0    0 -0.19043673620E-02 -0.41244225326E-02  0.24157529147E-01  0.10193490380E+01  0.10190526177E+01 0.  0.
     999903    2    3    3    0    0  0.95440697113E-01 -0.84426938214E-01  0.17735529762E-01  0.13032384285E+00  0.20806740222E-01 0.  0.
         14    1    1    2    0    0  0.19043673620E-02  0.41244225326E-02 -0.24157529147E-01  0.24580961958E-01  0.00000000000E+00 0.  1.
     999901    1    3    3    0    0 -0.97345064475E-01  0.80302515682E-01  0.64219993848E-02  0.88902519519E+00  0.88000000000E+00 0. -1.
        -11    1    4    4    0    0  0.31091099550E-01 -0.22317920327E-01 -0.33968869172E-02  0.38425850683E-01  0.51100000000E-03 0. -1.
         11    1    4    4    0    0  0.64349597563E-01 -0.62109017887E-01  0.21132416680E-01  0.91897992172E-01  0.51100000000E-03 0.  1.
</event>
<event>
 8    1  0.1010879E+005  0.1043930E+01  0.7957747E-01            NaN
         13   -1    0    0    0    0  0.00000000000E+00  0.00000000000E+00  0.74505805969E-08  0.10566000000E+00  0.10566000000E+00 0.  1.
     999900   -1    0    0    0    0 -0.00000000000E+00 -0.00000000000E+00 -0.74505805969E-08  0.93827000000E+00  0.93827000000E+00 0. -1.
     999902    2    1    2    0    0 -0.39264794262E-02 -0.21433589389E-01  0.97587174385E-02  0.10200543103E+01  0.10197748513E+01 0.  0.
     999903    2    3    3    0    0  0.11084999340E-01  0.33652212322E-01  0.12422064768E+00  0.13080669372E+00  0.20597893286E-01 0.  0.
         14    1    1    2    0    0  0.39264794262E-02  0.21433589389E-01 -0.97587174385E-02  0.23875689745E-01  0.00000000000E+00 0. -1.
     999901    1    3    3    0    0 -0.15011478766E-01 -0.55085801710E-01 -0.11446193024E+00  0.88924761654E+00  0.88000000000E+00 0. -1.
        -11    1    4    4    0    0 -0.75038992807E-03  0.11852647092E-01  0.72204675295E-01  0.73176666934E-01  0.51100000000E-03 0. -1.
         11    1    4    4    0    0  0.11835389268E-01  0.21799565230E-01  0.52015972380E-01  0.57630026783E-01  0.51100000000E-03 0.  1.
</event>
<event>
 8    1  0.1010879E+005  0.1043930E+01  0.7957747E-01            NaN
         13   -1    0    0    0    0  0.00000000000E+00  0.00000000000E+00  0.74505805969E-08  0.10566000000E+00  0.10566000000E+00 0. -1.
     999900   -1    0    0    0    0 -0.00000000000E+00 -0.00000000000E+00 -0.74505805969E-08  0.93827000000E+00  0.93827000000E+00 0. -1.
     999902    2    1    2    0    0  0.58288322102E-02 -0.12273650936E-01 -0.19152305063E-01  0.10204474835E+01  0.10201772581E+01 0.  0.
     999903    2    3    3    0    0 -0.76569886200E-01  0.83089812377E-01  0.57206641392E-01  0.12819503736E+00  0.19862109419E-01 0.  0.
         14    1    1    2    0    0 -0.58288322102E-02  0.12273650936E-01  0.19152305063E-01  0.23482516506E-01  0.00000000000E+00 0. -1.
     999901    1    3    3    0    0  0.82398718410E-01 -0.95363463313E-01 -0.76358946455E-01  0.89225244614E+00  0.88000000000E+00 0. -1.
        -11    1    4    4    0    0 -0.27560332339E-01  0.30180202442E-01  0.31589936515E-01  0.51658510897E-01  0.51100000000E-03 0.  1.
         11    1    4    4    0    0 -0.49009553860E-01  0.52909609936E-01  0.25616704878E-01  0.76536526462E-01  0.51100000000E-03 0. -1.
</event>
<event>
 8    1  0.1010879E+005  0.1043930E+01  0.7957747E-01            NaN
         13   -1    0    0    0    0  0.00000000000E+00  0.00000000000E+00  0.74505805969E-08  0.10566000000E+00  0.10566000000E+00 0.  1.
     999900   -1    0    0    0    0 -0.00000000000E+00 -0.00000000000E+00 -0.74505805969E-08  0.93827000000E+00  0.93827000000E+00 0. -1.
     999902    2    1    2    0    0 -0.30118393074E-02 -0.29601433047E-01  0.22637323529E-02  0.10140897504E+01  0.10136506209E+01 0.  0.
     999903    2    3    3    0    0  0.25461824727E-01  0.48704166262E-01  0.10909116386E+00  0.12372206420E+00  0.19643492761E-01 0.  0.
         14    1    1    2    0    0  0.30118393074E-02  0.29601433047E-01 -0.22637323529E-02  0.29840249641E-01  0.00000000000E+00 0. -1.
     999901    1    3    3    0    0 -0.28473664035E-01 -0.78305599309E-01 -0.10682743151E+00  0.89036768616E+00  0.88000000000E+00 0. -1.
        -11    1    4    4    0    0  0.22773417840E-01  0.30507173302E-01  0.87030729747E-01  0.94994343118E-01  0.51100000000E-03 0.  1.
         11    1    4    4    0    0  0.26884068876E-02  0.18196992960E-01  0.22060434117E-01  0.28727721086E-01  0.51100000000E-03 0. -1.
</event>
<event>
 8    1  0.1010879E+005  0.1043930E+01  0.7957747E-01            NaN
         13   -1    0    0    0    0  0.00000000000E+00  0.00000000000E+00  0.74505805969E-08  0.10566000000E+00  0.10566000000E+00 0.  1.
     999900   -1    0    0    0    0 -0.00000000000E+00 -0.00000000000E+00 -0.74505805969E-08  0.93827000000E+00  0.93827000000E+00 0.  1.
     999902    2    1    2    0    0  0.17935752549E-01 -0.68257325852E-02  0.13937805394E-01  0.10202119844E+01  0.10199362474E+01 0.  0.
     999903    2    3    3    0    0 -0.89441856758E-02  0.77609776975E-02 -0.12704128171E+00  0.12846627726E+00  0.14962148965E-01 0.  0.
         14    1    1    2    0    0 -0.17935752549E-01  0.68257325852E-02 -0.13937805394E-01  0.23718015601E-01  0.00000000000E+00 0. -1.
     999901    1    3    3    0    0  0.26879938225E-01 -0.14586710283E-01  0.14097908711E+00  0.89174570714E+00  0.88000000000E+00 0. -1.
        -11    1    4    4    0    0 -0.12053016830E-01  0.44002649491E-02 -0.65129698398E-01  0.66383554294E-01  0.51100000000E-03 0.  1.
         11    1    4    4    0    0  0.31088311543E-02  0.33607127484E-02 -0.61911583317E-01  0.62082722968E-01  0.51100000000E-03 0. -1.
</event>
<event>
 8    1  0.1010879E+005  0.1043930E+01  0.7957747E-01            NaN
         13   -1    0    0    0    0  0.00000000000E+00  0.00000000000E+00  0.74505805969E-08  0.10566000000E+00  0.10566000000E+00 0. -1.
     999900   -1    0    0    0    0 -0.00000000000E+00 -0.00000000000E+00 -0.74505805969E-08  0.93827000000E+00  0.93827000000E+00 0.  1.
     999902    2    1    2    0    0 -0.22331149884E-01 -0.19492747133E-02  0.15325254882E-02  0.10214616097E+01  0.10212144689E+01 0.  0.
     999903    2    3    3    0    0  0.83421666475E-02 -0.34006117634E-01  0.12538007604E+00  0.13168258699E+00  0.19852769817E-01 0.  0.
         14    1    1    2    0    0  0.22331149884E-01  0.19492747133E-02 -0.15325254882E-02  0.22468390272E-01  0.00000000000E+00 0. -1.
     999901    1    3    3    0    0 -0.30673316531E-01  0.32056842920E-01 -0.12384755055E+00  0.88977902274E+00  0.88000000000E+00 0.  1.
        -11    1    4    4    0    0  0.14171301025E-03 -0.50185694212E-02  0.53579277253E-01  0.53816411935E-01  0.51100000000E-03 0.  1.
         11    1    4    4    0    0  0.82004536372E-02 -0.28987548213E-01  0.71800798782E-01  0.77866175057E-01  0.51100000000E-03 0. -1.
</event>
<event>
 8    1  0.1010879E+005  0.1043930E+01  0.7957747E-01            NaN
         13   -1    0    0    0    0  0.00000000000E+00  0.00000000000E+00  0.74505805969E-08  0.10566000000E+00  0.10566000000E+00 0. -1.
     999900   -1    0    0    0    0 -0.00000000000E+00 -0.00000000000E+00 -0.74505805969E-08  0.93827000000E+00  0.93827000000E+00 0.  1.
     999902    2    1    2    0    0 -0.56446629630E-02 -0.21432783719E-01  0.59348910070E-02  0.10209855155E+01  0.10207276686E+01 0.  0.
     999903    2    3    3    0    0  0.12873876396E+00 -0.10533141740E-01 -0.11446198411E-02  0.13068903280E+00  0.19841792228E-01 0.  0.
         14    1    1    2    0    0  0.56446629630E-02  0.21432783719E-01 -0.59348910070E-02  0.22944484505E-01  0.00000000000E+00 0. -1.
     999901    1    3    3    0    0 -0.13438342692E+00 -0.10899641980E-01  0.70795108481E-02  0.89029648270E+00  0.88000000000E+00 0.  1.
        -11    1    4    4    0    0  0.13142669628E-01  0.49511461941E-02  0.10031578823E-04  0.14053641350E-01  0.51100000000E-03 0. -1.
         11    1    4    4    0    0  0.11559609433E+00 -0.15484287934E-01 -0.11546514200E-02  0.11663539145E+00  0.51100000000E-03 0.  1.
</event>
<event>
 8    1  0.1010879E+005  0.1043930E+01  0.7957747E-01            NaN
         13   -1    0    0    0    0  0.00000000000E+00  0.00000000000E+00  0.74505805969E-08  0.10566000000E+00  0.10566000000E+00 0. -1.
     999900   -1    0    0    0    0 -0.00000000000E+00 -0.00000000000E+00 -0.74505805969E-08  0.93827000000E+00  0.93827000000E+00 0. -1.
     999902    2    1    2    0    0 -0.16481324233E-01 -0.10221008656E-01 -0.10695856192E-01  0.10217826659E+01  0.10215426139E+01 0.  0.
     999903    2    3    3    0    0 -0.11608149267E+00 -0.34142606127E-01  0.53264951279E-01  0.13353527851E+00  0.18811833489E-01 0.  0.
         14    1    1    2    0    0  0.16481324233E-01  0.10221008656E-01  0.10695856192E-01  0.22147334063E-01  0.00000000000E+00 0.  1.
     999901    1    3    3    0    0  0.99600168434E-01  0.23921597471E-01 -0.63960807471E-01  0.88824738743E+00  0.88000000000E+00 0. -1.
        -11    1    4    4    0    0 -0.66192248114E-01 -0.27598155453E-01  0.25857530732E-01  0.76236112908E-01  0.51100000000E-03 0. -1.
         11    1    4    4    0    0 -0.49889244553E-01 -0.65444506739E-02  0.27407420547E-01  0.57299165602E-01  0.51100000000E-03 0.  1.
</event>
<event>
 8    1  0.1010879E+005  0.1043930E+01  0.7957747E-01            NaN
         13   -1    0    0    0    0  0.00000000000E+00  0.00000000000E+00  0.74505805969E-08  0.10566000000E+00  0.10566000000E+00 0. -1.
     999900   -1    0    0    0    0 -0.00000000000E+00 -0.00000000000E+00 -0.74505805969E-08  0.93827000000E+00  0.93827000000E+00 0.  1.
     999902    2    1    2    0    0 -0.20850069922E-01  0.18283981459E-02  0.10573134161E-01  0.10204809143E+01  0.10202114667E+01 0.  0.
     999903    2    3    3    0    0  0.23487823857E-01 -0.12602913374E+00  0.85417851777E-02  0.13013405845E+00  0.20661332357E-01 0.  0.
         14    1    1    2    0    0  0.20850069922E-01 -0.18283981459E-02 -0.10573134161E-01  0.23449085728E-01  0.00000000000E+00 0. -1.
     999901    1    3    3    0    0 -0.44337893778E-01  0.12785753189E+00  0.20313489833E-02  0.89034685582E+00  0.88000000000E+00 0. -1.
        -11    1    4    4    0    0 -0.11880525022E-02 -0.44223172039E-01 -0.17582845457E-03  0.44242428173E-01  0.51100000000E-03 0.  1.
         11    1    4    4    0    0  0.24675876359E-01 -0.81805961701E-01  0.87176136322E-02  0.85891630282E-01  0.51100000000E-03 0. -1.
</event>
<event>
 8    1  0.1010879E+005  0.1043930E+01  0.7957747E-01            NaN
         13   -1    0    0    0    0  0.00000000000E+00  0.00000000000E+00  0.74505805969E-08  0.10566000000E+00  0.10566000000E+00 0.  1.
     999900   -1    0    0    0    0 -0.00000000000E+00 -0.00000000000E+00 -0.74505805969E-08  0.93827000000E+00  0.93827000000E+00 0. -1.
     999902    2    1    2    0    0  0.11236019757E-01  0.24814534228E-01 -0.18467159482E-02  0.10166276263E+01  0.10162609463E+01 0.  0.
     999903    2    3    3    0    0  0.44768251736E-01  0.56450841681E-01  0.10506684978E+00  0.12895889471E+00  0.20011489532E-01 0.  0.
         14    1    1    2    0    0 -0.11236019757E-01 -0.24814534228E-01  0.18467159482E-02  0.27302373683E-01  0.00000000000E+00 0.  1.
     999901    1    3    3    0    0 -0.33532231978E-01 -0.31636307454E-01 -0.10691356573E+00  0.88766873160E+00  0.88000000000E+00 0. -1.
        -11    1    4    4    0    0  0.89005585593E-02  0.14659037500E-01  0.41169028093E-01  0.44601090998E-01  0.51100000000E-03 0.  1.
         11    1    4    4    0    0  0.35867693176E-01  0.41791804181E-01  0.63897821686E-01  0.84357803715E-01  0.51100000000E-03 0. -1.
</event>
<event>
 7    1  0.1010879E+005  0.1043930E+01  0.7957747E-01            NaN
         13   -1    0    0    0    0  0.00000000000E+00  0.00000000000E+00  0.74505805969E-08  0.10566000000E+00  0.10566000000E+00 0. -1.
     999900   -1    0    0    0    0 -0.00000000000E+00 -0.00000000000E+00 -0.74505805969E-08  0.93827000000E+00  0.93827000000E+00 0.  1.
     999903    2    1    2    0    0 -0.87604804599E-01  0.50580241542E-01 -0.44576726704E-01  0.11202875340E+00  0.18176754436E-01 0.  0.
         14    1    1    2    0    0 -0.30163559785E-01  0.14904740799E-01  0.24140554163E-01  0.41409636469E-01  0.00000000000E+00 0. -1.
     999901    1    1    2    0    0  0.11776836438E+00 -0.65484982341E-01  0.20436172541E-01  0.89049161013E+00  0.88000000000E+00 0. -1.
        -11    1    3    3    0    0 -0.64071019924E-01  0.30240522677E-01 -0.37341550140E-01  0.80088933653E-01  0.51100000000E-03 0.  1.
         11    1    3    3    0    0 -0.23533784675E-01  0.20339718866E-01 -0.72351765641E-02  0.31939819749E-01  0.51100000000E-03 0. -1.
</event>
<event>
 8    1  0.1010879E+005  0.1043930E+01  0.7957747E-01            NaN
         13   -1    0    0    0    0  0.00000000000E+00  0.00000000000E+00  0.74505805969E-08  0.10566000000E+00  0.10566000000E+00 0.  1.
     999900   -1    0    0    0    0 -0.00000000000E+00 -0.00000000000E+00 -0.74505805969E-08  0.93827000000E+00  0.93827000000E+00 0.  1.
     999902    2    1    2    0    0  0.29523785345E-02  0.13600494339E-01  0.20154322693E-01  0.10194374152E+01  0.10191431484E+01 0.  0.
     999903    2    3    3    0    0 -0.40101001361E-01 -0.70476164680E-02  0.12415388129E+00  0.13202778818E+00  0.18957621289E-01 0.  0.
         14    1    1    2    0    0 -0.29523785345E-02 -0.13600494339E-01 -0.20154322693E-01  0.24492584765E-01  0.00000000000E+00 0. -1.
     999901    1    3    3    0    0  0.43053379895E-01  0.20648110807E-01 -0.10399955860E+00  0.88740962705E+00  0.88000000000E+00 0.  1.
        -11    1    4    4    0    0 -0.94674502894E-02 -0.85851399727E-02  0.53391912617E-01  0.54902592810E-01  0.51100000000E-03 0. -1.
         11    1    4    4    0    0 -0.30633551071E-01  0.15375235047E-02  0.70761968671E-01  0.77125195371E-01  0.51100000000E-03 0.  1.
</event>
<event>
 8    1  0.1010879E+005  0.1043930E+01  0.7957747E-01            NaN
         13   -1    0    0    0    0  0.00000000000E+00  0.00000000000E+00  0.74505805969E-08  0.10566000000E+00  0.10566000000E+00 0.  1.
     999900   -1    0    0    0    0 -0.00000000000E+00 -0.00000000000E+00 -0.74505805969E-08  0.93827000000E+00  0.93827000000E+00 0.  1.
     999902    2    1    2    0    0  0.16757535575E-01  0.90690635661E-02  0.10384026611E-01  0.10222299788E+01  0.10219996275E+01 0.  0.
     999903    2    3    3    0    0  0.64929855275E-01  0.10906598769E+00 -0.38180004631E-01  0.13392911626E+00  0.19183838273E-01 0.  0.
         14    1    1    2    0    0 -0.16757535575E-01 -0.90690635661E-02 -0.10384026611E-01  0.21700021225E-01  0.00000000000E+00 0.  1.
     999901    1    3    3    0    0 -0.48172319700E-01 -0.99996924125E-01  0.48564031242E-01  0.88830086252E+00  0.88000000000E+00 0. -1.
        -11    1    4    4    0    0  0.14370194857E-02  0.12091825671E-01 -0.62653930222E-02  0.13703778449E-01  0.51100000000E-03 0.  1.
         11    1    4    4    0    0  0.63492835789E-01  0.96974162019E-01 -0.31914611609E-01  0.12022533781E+00  0.51100000000E-03 0. -1.
</event>
<event>
 8    1  0.1010879E+005  0.1043930E+01  0.7957747E-01            NaN
         13   -1    0    0    0    0  0.00000000000E+00  0.00000000000E+00  0.74505805969E-08  0.10566000000E+00  0.10566000000E+00 0.  1.
     999900   -1    0    0    0    0 -0.00000000000E+00 -0.00000000000E+00 -0.74505805969E-08  0.93827000000E+00  0.93827000000E+00 0. -1.
     999902    2    1    2    0    0 -0.11701633199E-01  0.49376593262E-02  0.19983234884E-01  0.10202521966E+01  0.10199774048E+01 0.  0.
     999903    2    3    3    0    0  0.91744003099E-01  0.34338752250E-01 -0.79841610977E-01  0.12810286838E+00  0.20965448529E-01 0.  0.
         14    1    1    2    0    0  0.11701633199E-01 -0.49376593262E-02 -0.19983234884E-01  0.23677803437E-01  0.00000000000E+00 0. -1.
     999901    1    3    3    0    0 -0.10344563630E+00 -0.29401092923E-01  0.99824845861E-01  0.89214932819E+00  0.88000000000E+00 0.  1.
        -11    1    4    4    0    0  0.60081224768E-01  0.31244067645E-01 -0.47394791007E-01  0.82658772482E-01  0.51100000000E-03 0.  1.
         11    1    4    4    0    0  0.31662778331E-01  0.30946846044E-02 -0.32446819970E-01  0.45444095894E-01  0.51100000000E-03 0. -1.
</event>
<event>
 8    1  0.1010879E+005  0.1043930E+01  0.7957747E-01            NaN
         13   -1    0    0    0    0  0.00000000000E+00  0.00000000000E+00  0.74505805969E-08  0.10566000000E+00  0.10566000000E+00 0.  1.
     999900   -1    0    0    0    0 -0.00000000000E+00 -0.00000000000E+00 -0.74505805969E-08  0.93827000000E+00  0.93827000000E+00 0. -1.
     999902    2    1    2    0    0  0.42641483343E-02  0.52822326518E-02 -0.21683079433E-01  0.10212090652E+01  0.10209562743E+01 0.  0.
     999903    2    3    3    0    0  0.35669613463E-01 -0.82749543381E-01 -0.95974529196E-01  0.13314650193E+00  0.19926677316E-01 0.  0.
         14    1    1    2    0    0 -0.42641483343E-02 -0.52822326518E-02  0.21683079433E-01  0.22720934763E-01  0.00000000000E+00 0.  1.
     999901    1    3    3    0    0 -0.31405465128E-01  0.88031776033E-01  0.74291449763E-01  0.88806256330E+00  0.88000000000E+00 0.  1.
        -11    1    4    4    0    0  0.83155811392E-02 -0.43100877215E-01 -0.41218402249E-01  0.60216711230E-01  0.51100000000E-03 0.  1.
         11    1    4    4    0    0  0.27354032323E-01 -0.39648666166E-01 -0.54756126946E-01  0.72929790705E-01  0.51100000000E-03 0. -1.
</event>
<event>
 8    1  0.1010879E+005  0.1043930E+01  0.7957747E-01            NaN
         13   -1    0    0    0    0  0.00000000000E+00  0.00000000000E+00  0.74505805969E-08  0.10566000000E+00  0.10566000000E+00 0.  1.
     999900   -1    0    0    0    0 -0.00000000000E+00 -0.00000000000E+00 -0.74505805969E-08  0.93827000000E+00  0.93827000000E+00 0.  1.
     999902    2    1    2    0    0 -0.47848227387E-02 -0.52868845006E-02  0.21708717694E-01  0.10210801838E+01  0.10208244843E+01 0.  0.
     999903    2    3    3    0    0 -0.10373544080E+00 -0.75861491017E-01  0.28593660521E-01  0.13269997109E+00  0.16603536012E-01 0.  0.
         14    1    1    2    0    0  0.47848227387E-02  0.52868845006E-02 -0.21708717694E-01  0.22849816198E-01  0.00000000000E+00 0. -1.
     999901    1    3    3    0    0  0.98950618061E-01  0.70574606517E-01 -0.68849428269E-02  0.88838021271E+00  0.88000000000E+00 0.  1.
        -11    1    4    4    0    0 -0.42712104707E-01 -0.28782233588E-01  0.19564508893E-01  0.55097840140E-01  0.51100000000E-03 0. -1.
         11    1    4    4    0    0 -0.61023336093E-01 -0.47079257429E-01  0.90291516276E-02  0.77602130951E-01  0.51100000000E-03 0.  1.
</event>
<event>
 8    1  0.1010879E+005  0.1043930E+01  0.7957747E-01            NaN
         13   -1    0    0    0    0  0.00000000000E+00  0.00000000000E+00  0.74505805969E-08  0.10566000000E+00  0.10566000000E+00 0.  1.
     999900   -1    0    0    0    0 -0.00000000000E+00 -0.00000000000E+00 -0.74505805969E-08  0.93827000000E+00  0.93827000000E+00 0.  1.
     999902    2    1    2    0    0  0.22026684562E-01 -0.62612294314E-03  0.80317465979E-02  0.10204763049E+01  0.10202067501E+01 0.  0.
     999903    2    3    3    0    0  0.32203255115E-01 -0.68771798958E-01  0.10624437158E+00  0.13233604822E+00  0.21409184788E-01 0.  0.
         14    1    1    2    0    0 -0.22026684562E-01  0.62612294314E-03 -0.80317465979E-02  0.23453695149E-01  0.00000000000E+00 0. -1.
     999901    1    3    3    0    0 -0.10176570553E-01  0.68145676015E-01 -0.98212624982E-01  0.88814025663E+00  0.88000000000E+00 0.  1.
        -11    1    4    4    0    0  0.15125440371E-01 -0.54699987772E-01  0.75525858513E-01  0.94473721393E-01  0.51100000000E-03 0. -1.
         11    1    4    4    0    0  0.17077814744E-01 -0.14071811186E-01  0.30718513067E-01  0.37862326824E-01  0.51100000000E-03 0.  1.
</event>
<event>
 8    1  0.1010879E+005  0.1043930E+01  0.7957747E-01            NaN
         13   -1    0    0    0    0  0.00000000000E+00  0.00000000000E+00  0.74505805969E-08  0.10566000000E+00  0.10566000000E+00 0. -1.
     999900   -1    0    0    0    0 -0.00000000000E+00 -0.00000000000E+00 -0.74505805969E-08  0.93827000000E+00  0.93827000000E+00 0. -1.
     999902    2    1    2    0    0 -0.90217178971E-02 -0.17420549898E-01 -0.17344212087E-01  0.10177443428E+01  0.10174074201E+01 0.  0.
     999903    2    3    3    0    0 -0.55373180887E-01  0.71787571869E-01  0.85723687434E-01  0.12604397883E+00  0.17857473928E-01 0.  0.
         14    1    1    2    0    0  0.90217178971E-02  0.17420549898E-01  0.17344212087E-01  0.26185657248E-01  0.00000000000E+00 0. -1.
     999901    1    3    3    0    0  0.46351462990E-01 -0.89208121768E-01 -0.10306789952E+00  0.89170036392E+00  0.88000000000E+00 0. -1.
        -11    1    4    4    0    0 -0.67747725685E-02  0.13144099472E-01  0.65463619966E-02  0.16179643713E-01  0.51100000000E-03 0. -1.
         11    1    4    4    0    0 -0.48598408318E-01  0.58643472398E-01  0.79177325437E-01  0.10986433512E+00  0.51100000000E-03 0.  1.
</event>
<event>
 8    1  0.1010879E+005  0.1043930E+01  0.7957747E-01            NaN
         13   -1    0    0    0    0  0.00000000000E+00  0.00000000000E+00  0.74505805969E-08  0.10566000000E+00  0.10566000000E+00 0.  1.
     999900   -1    0    0    0    0 -0.00000000000E+00 -0.00000000000E+00 -0.74505805969E-08  0.93827000000E+00  0.93827000000E+00 0.  1.
     999902    2    1    2    0    0  0.24832563403E-02  0.80191469624E-02  0.19723607701E-01  0.10224941893E+01  0.10222694719E+01 0.  0.
     999903    2    3    3    0    0  0.10987939469E+00  0.34725181177E-01  0.66463853557E-01  0.13433215825E+00  0.18664547285E-01 0.  0.
         14    1    1    2    0    0 -0.24832563403E-02 -0.80191469624E-02 -0.19723607701E-01  0.21435810710E-01  0.00000000000E+00 0. -1.
     999901    1    3    3    0    0 -0.10739613835E+00 -0.26706034215E-01 -0.46740245856E-01  0.88816203104E+00  0.88000000000E+00 0.  1.
        -11    1    4    4    0    0  0.85232001131E-01  0.34842175353E-01  0.52916473543E-01  0.10620209741E+00  0.51100000000E-03 0.  1.
         11    1    4    4    0    0  0.24647393560E-01 -0.11699417581E-03  0.13547380014E-01  0.28130060845E-01  0.51100000000E-03 0. -1.
</event>
<event>
 8    1  0.1010879E+005  0.1043930E+01  0.7957747E-01            NaN
         13   -1    0    0    0    0  0.00000000000E+00  0.00000000000E+00  0.74505805969E-08  0.10566000000E+00  0.10566000000E+00 0.  1.
     999900   -1    0    0    0    0 -0.00000000000E+00 -0.00000000000E+00 -0.74505805969E-08  0.93827000000E+00  0.93827000000E+00 0.  1.
     999902    2    1    2    0    0 -0.27461208690E-02 -0.23000070275E-01  0.46152277649E-02  0.10203112630E+01  0.10200378564E+01 0.  0.
     999903    2    3    3    0    0 -0.12002315309E+00 -0.49503377095E-02  0.49071878223E-01  0.13123528819E+00  0.19610928373E-01 0.  0.
         14    1    1    2    0    0  0.27461208690E-02  0.23000070275E-01 -0.46152277649E-02  0.23618737049E-01  0.00000000000E+00 0. -1.
     999901    1    3    3    0    0  0.11727703222E+00 -0.18049732566E-01 -0.44456650458E-01  0.88907597476E+00  0.88000000000E+00 0.  1.
        -11    1    4    4    0    0 -0.11867838345E-01  0.53995726271E-02  0.46000292921E-02  0.13835547045E-01  0.51100000000E-03 0. -1.
         11    1    4    4    0    0 -0.10815531475E+00 -0.10349910337E-01  0.44471848931E-01  0.11739974114E+00  0.51100000000E-03 0.  1.
</event>
<event>
 8    1  0.1010879E+005  0.1043930E+01  0.7957747E-01            NaN
         13   -1    0    0    0    0  0.00000000000E+00  0.00000000000E+00  0.74505805969E-08  0.10566000000E+00  0.10566000000E+00 0. -1.
     999900   -1    0    0    0    0 -0.00000000000E+00 -0.00000000000E+00 -0.74505805969E-08  0.93827000000E+00  0.93827000000E+00 0.  1.
     999902    2    1    2    0    0  0.28674658259E-02 -0.23321136097E-01 -0.58006933155E-02  0.10197278143E+01  0.10194405669E+01 0.  0.
     999903    2    3    3    0    0  0.55138338104E-01  0.80340445600E-01 -0.82098462791E-01  0.12882977456E+00  0.19029705526E-01 0.  0.
         14    1    1    2    0    0 -0.28674658259E-02  0.23321136097E-01  0.58006933155E-02  0.24202185687E-01  0.00000000000E+00 0. -1.
     999901    1    3    3    0    0 -0.52270872278E-01 -0.10366158170E+00  0.76297769476E-01  0.89089803975E+00  0.88000000000E+00 0. -1.
        -11    1    4    4    0    0  0.24119778381E-01  0.22937654165E-01 -0.20483337153E-01  0.39086160078E-01  0.51100000000E-03 0.  1.
         11    1    4    4    0    0  0.31018559723E-01  0.57402791436E-01 -0.61615125638E-01  0.89743614482E-01  0.51100000000E-03 0. -1.
</event>
<event>
 8    1  0.1152258E+005  0.1043930E+01  0.7957747E-01            NaN
         13   -1    0    0    0    0  0.00000000000E+00  0.00000000000E+00  0.74505805969E-08  0.10566000000E+00  0.10566000000E+00 0.  1.
     999900   -1    0    0    0    0 -0.00000000000E+00 -0.00000000000E+00 -0.74505805969E-08  0.93827000000E+00  0.93827000000E+00 0. -1.
     999902    2    1    2    0    0  0.16800724254E-01  0.15282371916E-01  0.76291915064E-02  0.10199712899E+01  0.10196898609E+01 0.  0.
     999903    2    3    3    0    0 -0.55405629492E-01  0.10046895174E+00  0.60624691517E-01  0.13133242403E+00  0.20225190653E-01 0.  0.
         14    1    1    2    0    0 -0.16800724254E-01 -0.15282371916E-01 -0.76291915064E-02  0.23958710105E-01  0.00000000000E+00 0. -1.
     999901    1    3    3    0    0  0.72206353746E-01 -0.85186579825E-01 -0.52995500011E-01  0.88863886586E+00  0.88000000000E+00 0.  1.
        -11    1    4    4    0    0 -0.26227503734E-01  0.35789636651E-01  0.32505849300E-01  0.55006103329E-01  0.51100000000E-03 0. -1.
         11    1    4    4    0    0 -0.29178125758E-01  0.64679315090E-01  0.28118842217E-01  0.76326320702E-01  0.51100000000E-03 0.  1.
</event>
<event>
 8    1  0.1010879E+005  0.1043930E+01  0.7957747E-01            NaN
         13   -1    0    0    0    0  0.00000000000E+00  0.00000000000E+00  0.74505805969E-08  0.10566000000E+00  0.10566000000E+00 0. -1.
     999900   -1    0    0    0    0 -0.00000000000E+00 -0.00000000000E+00 -0.74505805969E-08  0.93827000000E+00  0.93827000000E+00 0. -1.
     999902    2    1    2    0    0  0.15643938839E-01 -0.15697335141E-01  0.58996484641E-02  0.10209965091E+01  0.10207389121E+01 0.  0.
     999903    2    3    3    0    0 -0.93755902052E-01 -0.89562241834E-01 -0.10200963396E-02  0.13112447757E+00  0.19519828118E-01 0.  0.
         14    1    1    2    0    0 -0.15643938839E-01  0.15697335141E-01 -0.58996484641E-02  0.22933490901E-01  0.00000000000E+00 0. -1.
     999901    1    3    3    0    0  0.10939984089E+00  0.73864906693E-01  0.69197448037E-02  0.88987203153E+00  0.88000000000E+00 0.  1.
        -11    1    4    4    0    0 -0.64366235768E-01 -0.48376269935E-01 -0.83653682643E-03  0.80524758395E-01  0.51100000000E-03 0.  1.
         11    1    4    4    0    0 -0.29389666284E-01 -0.41185971899E-01 -0.18355951319E-03  0.50599719175E-01  0.51100000000E-03 0. -1.
</event>
<event>
 8    1  0.1010879E+005  0.1043930E+01  0.7957747E-01            NaN
         13   -1    0    0    0    0  0.00000000000E+00  0.00000000000E+00  0.74505805969E-08  0.10566000000E+00  0.10566000000E+00 0. -1.
     999900   -1    0    0    0    0 -0.00000000000E+00 -0.00000000000E+00 -0.74505805969E-08  0.93827000000E+00  0.93827000000E+00 0.  1.
     999902    2    1    2    0    0  0.14193522359E-01 -0.14804950657E-02 -0.18127151286E-01  0.10208596390E+01  0.10205989227E+01 0.  0.
     999903    2    3    3    0    0 -0.65354644728E-01 -0.76956147357E-01 -0.82254886343E-01  0.13173824607E+00  0.19890222387E-01 0.  0.
         14    1    1    2    0    0 -0.14193522359E-01  0.14804950657E-02  0.18127151286E-01  0.23070360993E-01  0.00000000000E+00 0. -1.
     999901    1    3    3    0    0  0.79548167087E-01  0.75475652291E-01  0.64127735057E-01  0.88912139294E+00  0.88000000000E+00 0. -1.
        -11    1    4    4    0    0 -0.36752998736E-01 -0.37438376747E-01 -0.30825502588E-01  0.60851357424E-01  0.51100000000E-03 0.  1.
         11    1    4    4    0    0 -0.28601645993E-01 -0.39517770609E-01 -0.51429383755E-01  0.70886888646E-01  0.51100000000E-03 0. -1.
</event>
<event>
 8    1  0.1010879E+005  0.1043930E+01  0.7957747E-01            NaN
         13   -1    0    0    0    0  0.00000000000E+00  0.00000000000E+00  0.74505805969E-08  0.10566000000E+00  0.10566000000E+00 0.  1.
     999900   -1    0    0    0    0 -0.00000000000E+00 -0.00000000000E+00 -0.74505805969E-08  0.93827000000E+00  0.93827000000E+00 0. -1.
     999902    2    1    2    0    0 -0.22719414750E-01 -0.36711652500E-02  0.56864389345E-02  0.10202237804E+01  0.10199483209E+01 0.  0.
     999903    2    3    3    0    0 -0.18053510883E-01  0.12190725426E+00 -0.37127754212E-01  0.13026604810E+00  0.20086444657E-01 0.  0.
         14    1    1    2    0    0  0.22719414750E-01  0.36711652500E-02 -0.56864389345E-02  0.23706219619E-01  0.00000000000E+00 0.  1.
     999901    1    3    3    0    0 -0.46659038663E-02 -0.12557841951E+00  0.42814193146E-01  0.88995773228E+00  0.88000000000E+00 0.  1.
        -11    1    4    4    0    0 -0.27649524686E-02  0.20925348828E-01 -0.14620791688E-01  0.25681585939E-01  0.51100000000E-03 0. -1.
         11    1    4    4    0    0 -0.15288558415E-01  0.10098190543E+00 -0.22506962524E-01  0.10458446216E+00  0.51100000000E-03 0.  1.
</event>
<event>
 8    1  0.1010879E+005  0.1043930E+01  0.7957747E-01            NaN
         13   -1    0    0    0    0  0.00000000000E+00  0.00000000000E+00  0.74505805969E-08  0.10566000000E+00  0.10566000000E+00 0.  1.
     999900   -1    0    0    0    0 -0.00000000000E+00 -0.00000000000E+00 -0.74505805969E-08  0.93827000000E+00  0.93827000000E+00 0. -1.
     999902    2    1    2    0    0 -0.49520170358E-02 -0.19003773665E-01 -0.11381987937E-01  0.10212316402E+01  0.10209793570E+01 0.  0.
     999903    2    3    3    0    0 -0.20674668800E-01  0.48397273821E-01  0.11644973688E+00  0.12930616530E+00  0.19743483004E-01 0.  0.
         14    1    1    2    0    0  0.49520170358E-02  0.19003773665E-01  0.11381987937E-01  0.22698359756E-01  0.00000000000E+00 0.  1.
     999901    1    3    3    0    0  0.15722651765E-01 -0.67401047486E-01 -0.12783172482E+00  0.89192547494E+00  0.88000000000E+00 0. -1.
        -11    1    4    4    0    0 -0.20697257318E-02  0.18795111224E-01  0.24642408350E-01  0.31065243937E-01  0.51100000000E-03 0.  1.
         11    1    4    4    0    0 -0.18604943069E-01  0.29602162597E-01  0.91807328534E-01  0.98240921364E-01  0.51100000000E-03 0. -1.
</event>
<event>
 8    1  0.1010879E+005  0.1043930E+01  0.7957747E-01            NaN
         13   -1    0    0    0    0  0.00000000000E+00  0.00000000000E+00  0.74505805969E-08  0.10566000000E+00  0.10566000000E+00 0. -1.
     999900   -1    0    0    0    0 -0.00000000000E+00 -0.00000000000E+00 -0.74505805969E-08  0.93827000000E+00  0.93827000000E+00 0. -1.
     999902    2    1    2    0    0  0.17621520914E-01 -0.15788650070E-01 -0.35026720526E-02  0.10200120531E+01  0.10197315923E+01 0.  0.
     999903    2    3    3    0    0  0.38851755608E-01  0.81919163145E-01  0.90087938730E-01  0.12941857570E+00  0.20325423204E-01 0.  0.
         14    1    1    2    0    0 -0.17621520914E-01  0.15788650070E-01  0.35026720526E-02  0.23917946858E-01  0.00000000000E+00 0. -1.
     999901    1    3    3    0    0 -0.21230234693E-01 -0.97707813216E-01 -0.93590610783E-01  0.89059347744E+00  0.88000000000E+00 0. -1.
        -11    1    4    4    0    0  0.24889915650E-02  0.53487731441E-02  0.15186715139E-01  0.16300364747E-01  0.51100000000E-03 0. -1.
         11    1    4    4    0    0  0.36362764043E-01  0.76570390001E-01  0.74901223591E-01  0.11311821096E+00  0.51100000000E-03 0.  1.
</event>
<event>
 8    1  0.1010879E+005  0.1043930E+01  0.7957747E-01            NaN
         13   -1    0    0    0    0  0.00000000000E+00  0.00000000000E+00  0.74505805969E-08  0.10566000000E+00  0.10566000000E+00 0.  1.
     999900   -1    0    0    0    0 -0.00000000000E+00 -0.00000000000E+00 -0.74505805969E-08  0.93827000000E+00  0.93827000000E+00 0. -1.
     999902    2    1    2    0    0  0.22403789070E-01 -0.46172579737E-02  0.81500024134E-02  0.10196468500E+01  0.10193576543E+01 0.  0.
     999903    2    3    3    0    0 -0.12469143799E+00 -0.13739816140E-01  0.11274220588E-01  0.12738568438E+00  0.19059571809E-01 0.  0.
         14    1    1    2    0    0 -0.22403789070E-01  0.46172579737E-02 -0.81500024134E-02  0.24283150027E-01  0.00000000000E+00 0. -1.
     999901    1    3    3    0    0  0.14709522706E+00  0.91225581661E-02 -0.31242181746E-02  0.89226116560E+00  0.88000000000E+00 0. -1.
        -11    1    4    4    0    0 -0.11666972981E+00 -0.89950714867E-02  0.73110396576E-02  0.11724525401E+00  0.51100000000E-03 0. -1.
         11    1    4    4    0    0 -0.80217081845E-02 -0.47447446531E-02  0.39631809304E-02  0.10140430371E-01  0.51100000000E-03 0.  1.
</event>
<event>
 8    1  0.1010879E+005  0.1043930E+01  0.7957747E-01            NaN
         13   -1    0    0    0    0  0.00000000000E+00  0.00000000000E+00  0.74505805969E-08  0.10566000000E+00  0.10566000000E+00 0. -1.
     999900   -1    0    0    0    0 -0.00000000000E+00 -0.00000000000E+00 -0.74505805969E-08  0.93827000000E+00  0.93827000000E+00 0. -1.
     999902    2    1    2    0    0  0.11914499583E-01  0.50975333745E-02  0.19528688484E-01  0.10204926405E+01  0.10202234655E+01 0.  0.
     999903    2    3    3    0    0 -0.69129925224E-01 -0.87963671726E-01 -0.59441859064E-01  0.12838001640E+00  0.20773538370E-01 0.  0.
         14    1    1    2    0    0 -0.11914499583E-01 -0.50975333745E-02 -0.19528688484E-01  0.23437359508E-01  0.00000000000E+00 0.  1.
     999901    1    3    3    0    0  0.81044424807E-01  0.93061205101E-01  0.78970547548E-01  0.89211262409E+00  0.88000000000E+00 0. -1.
        -11    1    4    4    0    0 -0.39419684879E-01 -0.63855651389E-01 -0.44864310943E-01  0.87432964537E-01  0.51100000000E-03 0. -1.
         11    1    4    4    0    0 -0.29710240345E-01 -0.24108020337E-01 -0.14577548121E-01  0.40947051861E-01  0.51100000000E-03 0.  1.
</event>
<event>
 8    1  0.1010879E+005  0.1043930E+01  0.7957747E-01            NaN
         13   -1    0    0    0    0  0.00000000000E+00  0.00000000000E+00  0.74505805969E-08  0.10566000000E+00  0.10566000000E+00 0. -1.
     999900   -1    0    0    0    0 -0.00000000000E+00 -0.00000000000E+00 -0.74505805969E-08  0.93827000000E+00  0.93827000000E+00 0. -1.
     999902    2    1    2    0    0 -0.46518996281E-02 -0.21974709321E-01  0.63630058921E-02  0.10205844252E+01  0.10203173786E+01 0.  0.
     999903    2    3    3    0    0  0.77185118621E-01 -0.94428390803E-01 -0.47121354459E-01  0.13221096186E+00  0.19622763939E-01 0.  0.
         14    1    1    2    0    0  0.46518996281E-02  0.21974709321E-01 -0.63630058921E-02  0.23345574824E-01  0.00000000000E+00 0. -1.
     999901    1    3    3    0    0 -0.81837018249E-01  0.72453681483E-01  0.53484360351E-01  0.88837346331E+00  0.88000000000E+00 0.  1.
        -11    1    4    4    0    0  0.12454771140E-01 -0.86097707228E-02 -0.11317932058E-01  0.18910478131E-01  0.51100000000E-03 0.  1.
         11    1    4    4    0    0  0.64730347480E-01 -0.85818620081E-01 -0.35803422401E-01  0.11330048373E+00  0.51100000000E-03 0. -1.
</event>
<event>
 8    1  0.1010879E+005  0.1043930E+01  0.7957747E-01            NaN
         13   -1    0    0    0    0  0.00000000000E+00  0.00000000000E+00  0.74505805969E-08  0.10566000000E+00  0.10566000000E+00 0.  1.
     999900   -1    0    0    0    0 -0.00000000000E+00 -0.00000000000E+00 -0.74505805969E-08  0.93827000000E+00  0.93827000000E+00 0.  1.
     999902    2    1    2    0    0 -0.30071623607E-02 -0.23172753528E-01 -0.48091119513E-02  0.10200731962E+01  0.10197941844E+01 0.  0.
     999903    2    3    3    0    0  0.95527164714E-01  0.77426187083E-01  0.28462017752E-01  0.12825699955E+00  0.22792933894E-01 0.  0.
         14    1    1    2    0    0  0.30071623607E-02  0.23172753528E-01  0.48091119513E-02  0.23856803837E-01  0.00000000000E+00 0.  1.
     999901    1    3    3    0    0 -0.98534327075E-01 -0.10059894061E+00 -0.33271129704E-01  0.89181619661E+00  0.88000000000E+00 0. -1.
        -11    1    4    4    0    0  0.70011305251E-01  0.54457044663E-01  0.99649635930E-02  0.89256451849E-01  0.51100000000E-03 0.  1.
         11    1    4    4    0    0  0.25515859463E-01  0.22969142420E-01  0.18497054159E-01  0.39000547704E-01  0.51100000000E-03 0. -1.
</event>
<event>
 8    1  0.1010879E+005  0.1043930E+01  0.7957747E-01            NaN
         13   -1    0    0    0    0  0.00000000000E+00  0.00000000000E+00  0.74505805969E-08  0.10566000000E+00  0.10566000000E+00 0. -1.
     999900   -1    0    0    0    0 -0.00000000000E+00 -0.00000000000E+00 -0.74505805969E-08  0.93827000000E+00  0.93827000000E+00 0. -1.
     999902    2    1    2    0    0  0.21635516298E-01 -0.47325590416E-02 -0.79997124255E-02  0.10203824294E+01  0.10201106872E+01 0.  0.
     999903    2    3    3    0    0 -0.92374211961E-01  0.65099311549E-01  0.56441270021E-01  0.12795464608E+00  0.20392623481E-01 0.  0.
         14    1    1    2    0    0 -0.21635516298E-01  0.47325590416E-02  0.79997124255E-02  0.23547570564E-01  0.00000000000E+00 0. -1.
     999901    1    3    3    0    0  0.11400972826E+00 -0.69831870590E-01 -0.64440982446E-01  0.89242778336E+00  0.88000000000E+00 0.  1.
        -11    1    4    4    0    0 -0.79357375490E-01  0.47920486956E-01  0.40624440401E-01  0.10121547507E+00  0.51100000000E-03 0.  1.
         11    1    4    4    0    0 -0.13016836471E-01  0.17178824592E-01  0.15816829619E-01  0.26739171010E-01  0.51100000000E-03 0. -1.
</event>
<event>
 8    1  0.1024811E+005  0.1043930E+01  0.7957747E-01            NaN
         13   -1    0    0    0    0  0.00000000000E+00  0.00000000000E+00  0.74505805969E-08  0.10566000000E+00  0.10566000000E+00 0.  1.
     999900   -1    0    0    0    0 -0.00000000000E+00 -0.00000000000E+00 -0.74505805969E-08  0.93827000000E+00  0.93827000000E+00 0. -1.
     999902    2    1    2    0    0  0.16311509186E-01  0.82630537225E-02  0.14514132290E-01  0.10205846916E+01  0.10203176512E+01 0.  0.
     999903    2    3    3    0    0  0.12569485703E+00  0.35481026357E-01  0.18001576924E-01  0.13338815356E+00  0.20254442022E-01 0.  0.
         14    1    1    2    0    0 -0.16311509186E-01 -0.82630537225E-02 -0.14514132290E-01  0.23345308412E-01  0.00000000000E+00 0.  1.
     999901    1    3    3    0    0 -0.10938334785E+00 -0.27217972635E-01 -0.34874446346E-02  0.88719653803E+00  0.88000000000E+00 0.  1.
        -11    1    4    4    0    0  0.60020195709E-01  0.27065976342E-01  0.11716562380E-01  0.66876976033E-01  0.51100000000E-03 0. -1.
         11    1    4    4    0    0  0.65674661326E-01  0.84150500148E-02  0.62850145446E-02  0.66511177526E-01  0.51100000000E-03 0.  1.
</event>
<event>
 8    1  0.1010879E+005  0.1043930E+01  0.7957747E-01            NaN
         13   -1    0    0    0    0  0.00000000000E+00  0.00000000000E+00  0.74505805969E-08  0.10566000000E+00  0.10566000000E+00 0. -1.
     999900   -1    0    0    0    0 -0.00000000000E+00 -0.00000000000E+00 -0.74505805969E-08  0.93827000000E+00  0.93827000000E+00 0. -1.
     999902    2    1    2    0    0 -0.37203078229E-03  0.12908135383E-01  0.19845090586E-01  0.10202533029E+01  0.10199785371E+01 0.  0.
     999903    2    3    3    0    0  0.29920926083E-01  0.12719393596E+00 -0.21056051988E-03  0.13211979007E+00  0.19545726576E-01 0.  0.
         14    1    1    2    0    0  0.37203078229E-03 -0.12908135383E-01 -0.19845090586E-01  0.23676697116E-01  0.00000000000E+00 0.  1.
     999901    1    3    3    0    0 -0.30292956865E-01 -0.11428580058E+00  0.20055651106E-01  0.88813351282E+00  0.88000000000E+00 0.  1.
        -11    1    4    4    0    0  0.12272910621E-01  0.34512064913E-01  0.77236284211E-02  0.37438249380E-01  0.51100000000E-03 0. -1.
         11    1    4    4    0    0  0.17648015462E-01  0.92681871051E-01 -0.79341889409E-02  0.94681540685E-01  0.51100000000E-03 0.  1.
</event>
<event>
 8    1  0.1010879E+005  0.1043930E+01  0.7957747E-01            NaN
         13   -1    0    0    0    0  0.00000000000E+00  0.00000000000E+00  0.74505805969E-08  0.10566000000E+00  0.10566000000E+00 0.  1.
     999900   -1    0    0    0    0 -0.00000000000E+00 -0.00000000000E+00 -0.74505805969E-08  0.93827000000E+00  0.93827000000E+00 0. -1.
     999902    2    1    2    0    0 -0.54368856846E-03  0.10932828454E-01  0.21160978433E-01  0.10201054466E+01  0.10198271976E+01 0.  0.
     999903    2    3    3    0    0  0.32504793005E-01  0.12548938295E+00  0.14023437251E-01  0.13203655808E+00  0.20805025209E-01 0.  0.
         14    1    1    2    0    0  0.54368856846E-03 -0.10932828454E-01 -0.21160978433E-01  0.23824553375E-01  0.00000000000E+00 0. -1.
     999901    1    3    3    0    0 -0.33048481574E-01 -0.11455655450E+00  0.71375411814E-02  0.88806888855E+00  0.88000000000E+00 0.  1.
        -11    1    4    4    0    0  0.31462385216E-01  0.84389387266E-01  0.71359500713E-02  0.90347292549E-01  0.51100000000E-03 0.  1.
         11    1    4    4    0    0  0.10424077892E-02  0.41099995688E-01  0.68874871800E-02  0.41689265528E-01  0.51100000000E-03 0. -1.
</event>
<event>
 8    1  0.1010879E+005  0.1043930E+01  0.7957747E-01            NaN
         13   -1    0    0    0    0  0.00000000000E+00  0.00000000000E+00  0.74505805969E-08  0.10566000000E+00  0.10566000000E+00 0.  1.
     999900   -1    0    0    0    0 -0.00000000000E+00 -0.00000000000E+00 -0.74505805969E-08  0.93827000000E+00  0.93827000000E+00 0. -1.
     999902    2    1    2    0    0 -0.22893595034E-01  0.76795318612E-02  0.39459838455E-02  0.10194624155E+01  0.10191687563E+01 0.  0.
     999903    2    3    3    0    0 -0.32294351002E-01 -0.12042726276E+00 -0.28515085561E-01  0.12954475297E+00  0.20568961956E-01 0.  0.
         14    1    1    2    0    0  0.22893595034E-01 -0.76795318612E-02 -0.39459838455E-02  0.24467584509E-01  0.00000000000E+00 0. -1.
     999901    1    3    3    0    0  0.94007559678E-02  0.12810679462E+00  0.32461069407E-01  0.88991766252E+00  0.88000000000E+00 0.  1.
        -11    1    4    4    0    0 -0.28435398201E-01 -0.68469818960E-01 -0.13928463345E-01  0.75438393351E-01  0.51100000000E-03 0. -1.
         11    1    4    4    0    0 -0.38589528016E-02 -0.51957443796E-01 -0.14586622216E-01  0.54106359619E-01  0.51100000000E-03 0.  1.
</event>
<event>
 8    1  0.1010879E+005  0.1043930E+01  0.7957747E-01            NaN
         13   -1    0    0    0    0  0.00000000000E+00  0.00000000000E+00  0.74505805969E-08  0.10566000000E+00  0.10566000000E+00 0. -1.
     999900   -1    0    0    0    0 -0.00000000000E+00 -0.00000000000E+00 -0.74505805969E-08  0.93827000000E+00  0.93827000000E+00 0. -1.
     999902    2    1    2    0    0 -0.14655582526E-01 -0.62091329833E-02 -0.44865108141E-02  0.10273931257E+01  0.10272600287E+01 0.  0.
     999903    2    3    3    0    0  0.20006241873E-01  0.68442485056E-01  0.11377124964E+00  0.13567612798E+00  0.19480528362E-01 0.  0.
         14    1    1    2    0    0  0.14655582526E-01  0.62091329833E-02  0.44865108141E-02  0.16536874278E-01  0.00000000000E+00 0. -1.
     999901    1    3    3    0    0 -0.34661824400E-01 -0.74651618039E-01 -0.11825776046E+00  0.89171699774E+00  0.88000000000E+00 0. -1.
        -11    1    4    4    0    0  0.13917302623E-01  0.65775253656E-01  0.10436675048E+00  0.12414811731E+00  0.51100000000E-03 0.  1.
         11    1    4    4    0    0  0.60889392507E-02  0.26672313999E-02  0.94044991631E-02  0.11528010672E-01  0.51100000000E-03 0. -1.
</event>
<event>
 8    1  0.1010879E+005  0.1043930E+01  0.7957747E-01            NaN
         13   -1    0    0    0    0  0.00000000000E+00  0.00000000000E+00  0.74505805969E-08  0.10566000000E+00  0.10566000000E+00 0. -1.
     999900   -1    0    0    0    0 -0.00000000000E+00 -0.00000000000E+00 -0.74505805969E-08  0.93827000000E+00  0.93827000000E+00 0.  1.
     999902    2    1    2    0    0 -0.16791653597E-01 -0.11010186198E-01  0.69855984282E-02  0.10226701219E+01  0.10224491165E+01 0.  0.
     999903    2    3    3    0    0  0.91415104817E-01  0.51053414387E-01 -0.74668944455E-01  0.13012989456E+00  0.19878774667E-01 0.  0.
         14    1    1    2    0    0  0.16791653597E-01  0.11010186198E-01 -0.69855984282E-02  0.21259878082E-01  0.00000000000E+00 0.  1.
     999901    1    3    3    0    0 -0.10820675841E+00 -0.62063600585E-01  0.81654542883E-01  0.89254022736E+00  0.88000000000E+00 0. -1.
        -11    1    4    4    0    0  0.19994604065E-01  0.21237451139E-01 -0.21074510514E-01  0.35989021062E-01  0.51100000000E-03 0.  1.
         11    1    4    4    0    0  0.71420500752E-01  0.29815963248E-01 -0.53594433941E-01  0.94140873496E-01  0.51100000000E-03 0. -1.
</event>
<event>
 8    1  0.1010879E+005  0.1043930E+01  0.7957747E-01            NaN
         13   -1    0    0    0    0  0.00000000000E+00  0.00000000000E+00  0.74505805969E-08  0.10566000000E+00  0.10566000000E+00 0. -1.
     999900   -1    0    0    0    0 -0.00000000000E+00 -0.00000000000E+00 -0.74505805969E-08  0.93827000000E+00  0.93827000000E+00 0. -1.
     999902    2    1    2    0    0  0.19589634123E-02 -0.15852449766E-01 -0.22796934956E-01  0.10160940889E+01  0.10157127348E+01 0.  0.
     999903    2    3    3    0    0  0.47633214421E-01 -0.91285867483E-01 -0.77020033924E-01  0.13002609935E+00  0.19304615199E-01 0.  0.
         14    1    1    2    0    0 -0.19589634123E-02  0.15852449766E-01  0.22796934956E-01  0.27835911061E-01  0.00000000000E+00 0. -1.
     999901    1    3    3    0    0 -0.45674251009E-01  0.75433417717E-01  0.54223098968E-01  0.88606798959E+00  0.88000000000E+00 0.  1.
        -11    1    4    4    0    0  0.22892708617E-01 -0.46714388563E-01 -0.27036571461E-01  0.58630602282E-01  0.51100000000E-03 0. -1.
         11    1    4    4    0    0  0.24740505805E-01 -0.44571478921E-01 -0.49983462463E-01  0.71395497067E-01  0.51100000000E-03 0.  1.
</event>
<event>
 8    1  0.1010879E+005  0.1043930E+01  0.7957747E-01            NaN
         13   -1    0    0    0    0  0.00000000000E+00  0.00000000000E+00  0.74505805969E-08  0.10566000000E+00  0.10566000000E+00 0.  1.
     999900   -1    0    0    0    0 -0.00000000000E+00 -0.00000000000E+00 -0.74505805969E-08  0.93827000000E+00  0.93827000000E+00 0.  1.
     999902    2    1    2    0    0 -0.48410747470E-03 -0.21028003873E-01  0.10571006318E-01  0.10203894503E+01  0.10201178720E+01 0.  0.
     999903    2    3    3    0    0  0.76702907496E-01  0.82620996298E-01  0.60507427301E-01  0.12955018494E+00  0.20310997311E-01 0.  0.
         14    1    1    2    0    0  0.48410747470E-03  0.21028003873E-01 -0.10571006318E-01  0.23540549728E-01  0.00000000000E+00 0. -1.
     999901    1    3    3    0    0 -0.77187014971E-01 -0.10364900017E+00 -0.49936420983E-01  0.89083926533E+00  0.88000000000E+00 0.  1.
        -11    1    4    4    0    0  0.22250805332E-01  0.15464192455E-01  0.74442478535E-02  0.28105471591E-01  0.51100000000E-03 0.  1.
         11    1    4    4    0    0  0.54452102164E-01  0.67156803843E-01  0.53063179448E-01  0.10144471335E+00  0.51100000000E-03 0. -1.
</event>
<event>
 8    1  0.1010879E+005  0.1043930E+01  0.7957747E-01            NaN
         13   -1    0    0    0    0  0.00000000000E+00  0.00000000000E+00  0.74505805969E-08  0.10566000000E+00  0.10566000000E+00 0.  1.
     999900   -1    0    0    0    0 -0.00000000000E+00 -0.00000000000E+00 -0.74505805969E-08  0.93827000000E+00  0.93827000000E+00 0.  1.
     999902    2    1    2    0    0  0.23292351897E-01 -0.37999555044E-03  0.38408036845E-02  0.10203200481E+01  0.10200468474E+01 0.  0.
     999903    2    3    3    0    0  0.96416772682E-01 -0.68386227263E-01 -0.56268194836E-01  0.13263478852E+00  0.21283966750E-01 0.  0.
         14    1    1    2    0    0 -0.23292351897E-01  0.37999555044E-03 -0.38408036845E-02  0.23609951852E-01  0.00000000000E+00 0. -1.
     999901    1    3    3    0    0 -0.73124420786E-01  0.68006231712E-01  0.60108998520E-01  0.88768525963E+00  0.88000000000E+00 0. -1.
        -11    1    4    4    0    0  0.29637531037E-01 -0.27582833173E-01 -0.28824799375E-01  0.49702375313E-01  0.51100000000E-03 0.  1.
         11    1    4    4    0    0  0.66779241646E-01 -0.40803394090E-01 -0.27443395461E-01  0.82932413202E-01  0.51100000000E-03 0. -1.
</event>
<event>
 8    1  0.1010879E+005  0.1043930E+01  0.7957747E-01            NaN
         13   -1    0    0    0    0  0.00000000000E+00  0.00000000000E+00  0.74505805969E-08  0.10566000000E+00  0.10566000000E+00 0.  1.
     999900   -1    0    0    0    0 -0.00000000000E+00 -0.00000000000E+00 -0.74505805969E-08  0.93827000000E+00  0.93827000000E+00 0. -1.
     999902    2    1    2    0    0  0.10703651454E-01 -0.13632181369E-01 -0.15716648122E-01  0.10205330440E+01  0.10202648069E+01 0.  0.
     999903    2    3    3    0    0 -0.80088138831E-01 -0.56006310425E-01 -0.86195247349E-01  0.13204784491E+00  0.21358742739E-01 0.  0.
         14    1    1    2    0    0 -0.10703651454E-01  0.13632181369E-01  0.15716648122E-01  0.23396956031E-01  0.00000000000E+00 0.  1.
     999901    1    3    3    0    0  0.90791790285E-01  0.42374129055E-01  0.70478599227E-01  0.88848519906E+00  0.88000000000E+00 0.  1.
        -11    1    4    4    0    0 -0.38197320932E-01 -0.21302682470E-01 -0.25872980582E-01  0.50818420400E-01  0.51100000000E-03 0.  1.
         11    1    4    4    0    0 -0.41890817899E-01 -0.34703627954E-01 -0.60322266767E-01  0.81229424510E-01  0.51100000000E-03 0. -1.
</event>
<event>
 8    1  0.1010879E+005  0.1043930E+01  0.7957747E-01            NaN
         13   -1    0    0    0    0  0.00000000000E+00  0.00000000000E+00  0.74505805969E-08  0.10566000000E+00  0.10566000000E+00 0. -1.
     999900   -1    0    0    0    0 -0.00000000000E+00 -0.00000000000E+00 -0.74505805969E-08  0.93827000000E+00  0.93827000000E+00 0.  1.
     999902    2    1    2    0    0 -0.35071990734E-02  0.23666818125E-01  0.96143526769E-03  0.10199854164E+01  0.10197043231E+01 0.  0.
     999903    2    3    3    0    0 -0.80667543231E-01  0.76835352964E-01 -0.68502189391E-01  0.13228850476E+00  0.19919200375E-01 0.  0.
         14    1    1    2    0    0  0.35071990734E-02 -0.23666818125E-01 -0.96143526769E-03  0.23944583589E-01  0.00000000000E+00 0. -1.
     999901    1    3    3    0    0  0.77160344158E-01 -0.53168534839E-01  0.69463624658E-01  0.88769691165E+00  0.88000000000E+00 0. -1.
        -11    1    4    4    0    0 -0.73091060329E-01  0.61441126619E-01 -0.62416938701E-01  0.11407651160E+00  0.51100000000E-03 0.  1.
         11    1    4    4    0    0 -0.75764829017E-02  0.15394226345E-01 -0.60852506899E-02  0.18211993161E-01  0.51100000000E-03 0. -1.
</event>
<event>
 8    1  0.1010879E+005  0.1043930E+01  0.7957747E-01            NaN
         13   -1    0    0    0    0  0.00000000000E+00  0.00000000000E+00  0.74505805969E-08  0.10566000000E+00  0.10566000000E+00 0. -1.
     999900   -1    0    0    0    0 -0.00000000000E+00 -0.00000000000E+00 -0.74505805969E-08  0.93827000000E+00  0.93827000000E+00 0. -1.
     999902    2    1    2    0    0 -0.12100533345E-01 -0.18512738660E-01 -0.93429501873E-02  0.10199209368E+01  0.10196383095E+01 0.  0.
     999903    2    3    3    0    0 -0.67733118016E-01 -0.11168656396E+00 -0.15734411270E-01  0.13323204149E+00  0.21012884996E-01 0.  0.
         14    1    1    2    0    0  0.12100533345E-01  0.18512738660E-01  0.93429501873E-02  0.24009063250E-01  0.00000000000E+00 0.  1.
     999901    1    3    3    0    0  0.55632584671E-01  0.93173825305E-01  0.63914610827E-02  0.88668889526E+00  0.88000000000E+00 0.  1.
        -11    1    4    4    0    0 -0.19731534131E-01 -0.18656014494E-01 -0.77431418779E-02  0.28241771954E-01  0.51100000000E-03 0.  1.
         11    1    4    4    0    0 -0.48001583885E-01 -0.93030549471E-01 -0.79912693920E-02  0.10499026954E+00  0.51100000000E-03 0. -1.
</event>
<event>
 8    1  0.1010879E+005  0.1043930E+01  0.7957747E-01            NaN
         13   -1    0    0    0    0  0.00000000000E+00  0.00000000000E+00  0.74505805969E-08  0.10566000000E+00  0.10566000000E+00 0.  1.
     999900   -1    0    0    0    0 -0.00000000000E+00 -0.00000000000E+00 -0.74505805969E-08  0.93827000000E+00  0.93827000000E+00 0. -1.
     999902    2    1    2    0    0 -0.15210781980E-01 -0.10527833137E-01 -0.15454155382E-01  0.10198253515E+01  0.10195404423E+01 0.  0.
     999903    2    3    3    0    0  0.78109938498E-01 -0.52864222280E-01 -0.88398912912E-01  0.13088099762E+00  0.20486074376E-01 0.  0.
         14    1    1    2    0    0  0.15210781980E-01  0.10527833137E-01  0.15454155382E-01  0.24104648464E-01  0.00000000000E+00 0.  1.
     999901    1    3    3    0    0 -0.93320720478E-01  0.42336389143E-01  0.72944757530E-01  0.88894435392E+00  0.88000000000E+00 0.  1.
        -11    1    4    4    0    0  0.48164246150E-01 -0.33808426451E-01 -0.68042253437E-01  0.89960067142E-01  0.51100000000E-03 0. -1.
         11    1    4    4    0    0  0.29945692348E-01 -0.19055795830E-01 -0.20356659475E-01  0.40920930474E-01  0.51100000000E-03 0.  1.
</event>
<event>
 8    1  0.1010879E+005  0.1043930E+01  0.7957747E-01            NaN
         13   -1    0    0    0    0  0.00000000000E+00  0.00000000000E+00  0.74505805969E-08  0.10566000000E+00  0.10566000000E+00 0. -1.
     999900   -1    0    0    0    0 -0.00000000000E+00 -0.00000000000E+00 -0.74505805969E-08  0.93827000000E+00  0.93827000000E+00 0.  1.
     999902    2    1    2    0    0 -0.72067131316E-02 -0.82915228614E-02  0.21735861084E-01  0.10195756632E+01  0.10192847488E+01 0.  0.
     999903    2    3    3    0    0  0.58607179311E-01 -0.52173069864E-01 -0.98978859449E-01  0.12781947319E+00  0.19600316920E-01 0.  0.
         14    1    1    2    0    0  0.72067131316E-02  0.82915228614E-02 -0.21735861084E-01  0.24354336833E-01  0.00000000000E+00 0.  1.
     999901    1    3    3    0    0 -0.65813892443E-01  0.43881547003E-01  0.12071472053E+00  0.89175618998E+00  0.88000000000E+00 0. -1.
        -11    1    4    4    0    0  0.12497380158E-01 -0.13081356202E-01 -0.11356989292E-01  0.21367000671E-01  0.51100000000E-03 0.  1.
         11    1    4    4    0    0  0.46109799153E-01 -0.39091713662E-01 -0.87621870157E-01  0.10645247252E+00  0.51100000000E-03 0. -1.
</event>
<event>
 8    1  0.1010879E+005  0.1043930E+01  0.7957747E-01            NaN
         13   -1    0    0    0    0  0.00000000000E+00  0.00000000000E+00  0.74505805969E-08  0.10566000000E+00  0.10566000000E+00 0. -1.
     999900   -1    0    0    0    0 -0.00000000000E+00 -0.00000000000E+00 -0.74505805969E-08  0.93827000000E+00  0.93827000000E+00 0. -1.
     999902    2    1    2    0    0  0.19536719154E-01  0.38589343700E-02  0.13443418744E-01  0.10199029262E+01  0.10196198696E+01 0.  0.
     999903    2    3    3    0    0 -0.11432403301E-01 -0.12277921165E+00  0.35989849146E-01  0.13001268119E+00  0.20064729477E-01 0.  0.
         14    1    1    2    0    0 -0.19536719154E-01 -0.38589343700E-02 -0.13443418744E-01  0.24027073840E-01  0.00000000000E+00 0.  1.
     999901    1    3    3    0    0  0.30969122455E-01  0.12663814602E+00 -0.22546430402E-01  0.88989024497E+00  0.88000000000E+00 0.  1.
        -11    1    4    4    0    0 -0.16778585835E-01 -0.10132607599E+00  0.27510848774E-01  0.10632780699E+00  0.51100000000E-03 0.  1.
         11    1    4    4    0    0  0.53461825345E-02 -0.21453135659E-01  0.84790003724E-02  0.23684874194E-01  0.51100000000E-03 0. -1.
</event>
<event>
 8    1  0.1010879E+005  0.1043930E+01  0.7957747E-01            NaN
         13   -1    0    0    0    0  0.00000000000E+00  0.00000000000E+00  0.74505805969E-08  0.10566000000E+00  0.10566000000E+00 0.  1.
     999900   -1    0    0    0    0 -0.00000000000E+00 -0.00000000000E+00 -0.74505805969E-08  0.93827000000E+00  0.93827000000E+00 0. -1.
     999902    2    1    2    0    0 -0.16075099763E-01  0.15894617775E-01 -0.20955495321E-02  0.10212267175E+01  0.10209743237E+01 0.  0.
     999903    2    3    3    0    0  0.94146519502E-02  0.95029901103E-01 -0.90436616050E-01  0.13290455495E+00  0.19118614750E-01 0.  0.
         14    1    1    2    0    0  0.16075099763E-01 -0.15894617775E-01  0.20955495321E-02  0.22703282459E-01  0.00000000000E+00 0.  1.
     999901    1    3    3    0    0 -0.25489751713E-01 -0.79135283328E-01  0.88341066518E-01  0.88832216259E+00  0.88000000000E+00 0.  1.
        -11    1    4    4    0    0  0.13060376401E-02  0.44476072645E-01 -0.29864909271E-01  0.53591050549E-01  0.51100000000E-03 0. -1.
         11    1    4    4    0    0  0.81086143101E-02  0.50553828458E-01 -0.60571706779E-01  0.79313504404E-01  0.51100000000E-03 0.  1.
</event>
<event>
 8    1  0.1010879E+005  0.1043930E+01  0.7957747E-01            NaN
         13   -1    0    0    0    0  0.00000000000E+00  0.00000000000E+00  0.74505805969E-08  0.10566000000E+00  0.10566000000E+00 0.  1.
     999900   -1    0    0    0    0 -0.00000000000E+00 -0.00000000000E+00 -0.74505805969E-08  0.93827000000E+00  0.93827000000E+00 0.  1.
     999902    2    1    2    0    0  0.19365355760E-01  0.71104923512E-03 -0.11073436005E-01  0.10216108696E+01  0.10213670376E+01 0.  0.
     999903    2    3    3    0    0 -0.69119153257E-01  0.10769590517E+00  0.15637226819E-01  0.13032599530E+00  0.19091276824E-01 0.  0.
         14    1    1    2    0    0 -0.19365355760E-01 -0.71104923512E-03  0.11073436005E-01  0.22319130353E-01  0.00000000000E+00 0.  1.
     999901    1    3    3    0    0  0.88484509017E-01 -0.10698485593E+00 -0.26710662824E-01  0.89128487435E+00  0.88000000000E+00 0. -1.
        -11    1    4    4    0    0 -0.40095700881E-01  0.73380521823E-01  0.31670284595E-02  0.83681882163E-01  0.51100000000E-03 0.  1.
         11    1    4    4    0    0 -0.29023452376E-01  0.34315383346E-01  0.12470198359E-01  0.46644113135E-01  0.51100000000E-03 0. -1.
</event>
<event>
 8    1  0.1010879E+005  0.1043930E+01  0.7957747E-01            NaN
         13   -1    0    0    0    0  0.00000000000E+00  0.00000000000E+00  0.74505805969E-08  0.10566000000E+00  0.10566000000E+00 0.  1.
     999900   -1    0    0    0    0 -0.00000000000E+00 -0.00000000000E+00 -0.74505805969E-08  0.93827000000E+00  0.93827000000E+00 0. -1.
     999902    2    1    2    0    0 -0.10444640456E-01  0.14966598499E-01 -0.12749956491E-01  0.10216667798E+01  0.10214241812E+01 0.  0.
     999903    2    3    3    0    0  0.81724167256E-01 -0.20271919334E-02  0.98642115219E-01  0.12970709924E+00  0.20266121449E-01 0.  0.
         14    1    1    2    0    0  0.10444640456E-01 -0.14966598499E-01  0.12749956491E-01  0.22263220239E-01  0.00000000000E+00 0.  1.
     999901    1    3    3    0    0 -0.92168807712E-01  0.16993790432E-01 -0.11139207171E+00  0.89195968052E+00  0.88000000000E+00 0. -1.
        -11    1    4    4    0    0  0.72906470523E-01 -0.77070922060E-02  0.90174692750E-01  0.11621742145E+00  0.51100000000E-03 0.  1.
         11    1    4    4    0    0  0.88176967334E-02  0.56799002726E-02  0.84674224693E-02  0.13489677797E-01  0.51100000000E-03 0. -1.
</event>
<event>
 8    1  0.1010879E+005  0.1043930E+01  0.7957747E-01            NaN
         13   -1    0    0    0    0  0.00000000000E+00  0.00000000000E+00  0.74505805969E-08  0.10566000000E+00  0.10566000000E+00 0.  1.
     999900   -1    0    0    0    0 -0.00000000000E+00 -0.00000000000E+00 -0.74505805969E-08  0.93827000000E+00  0.93827000000E+00 0. -1.
     999902    2    1    2    0    0  0.16874696790E-01 -0.14601722656E-01  0.67870620861E-02  0.10206055513E+01  0.10203389934E+01 0.  0.
     999903    2    3    3    0    0  0.48179118270E-01 -0.38375063531E-01 -0.11433236551E+00  0.13144018180E+00  0.20267181585E-01 0.  0.
         14    1    1    2    0    0 -0.16874696790E-01  0.14601722656E-01 -0.67870620861E-02  0.23324448719E-01  0.00000000000E+00 0.  1.
     999901    1    3    3    0    0 -0.31304421481E-01  0.23773340876E-01  0.12111942760E+00  0.88916536948E+00  0.88000000000E+00 0.  1.
        -11    1    4    4    0    0  0.66116440768E-02 -0.85116114219E-02 -0.38248093739E-01  0.39740900368E-01  0.51100000000E-03 0. -1.
         11    1    4    4    0    0  0.41567474194E-01 -0.29863452110E-01 -0.76084271776E-01  0.91699281433E-01  0.51100000000E-03 0.  1.
</event>
<event>
 8    1  0.1010879E+005  0.1043930E+01  0.7957747E-01            NaN
         13   -1    0    0    0    0  0.00000000000E+00  0.00000000000E+00  0.74505805969E-08  0.10566000000E+00  0.10566000000E+00 0. -1.
     999900   -1    0    0    0    0 -0.00000000000E+00 -0.00000000000E+00 -0.74505805969E-08  0.93827000000E+00  0.93827000000E+00 0. -1.
     999902    2    1    2    0    0 -0.19982481208E-01  0.11217932733E-01  0.63222263611E-02  0.10201579131E+01  0.10198809026E+01 0.  0.
     999903    2    3    3    0    0 -0.10508096787E+00 -0.20837221895E-02 -0.77391619468E-01  0.13199875255E+00  0.19694065225E-01 0.  0.
         14    1    1    2    0    0  0.19982481208E-01 -0.11217932733E-01 -0.63222263611E-02  0.23772086913E-01  0.00000000000E+00 0. -1.
     999901    1    3    3    0    0  0.85098486663E-01  0.13301654923E-01  0.83713845829E-01  0.88815916053E+00  0.88000000000E+00 0.  1.
        -11    1    4    4    0    0 -0.32012453281E-01 -0.18691665336E-02 -0.35211251804E-01  0.47627558443E-01  0.51100000000E-03 0. -1.
         11    1    4    4    0    0 -0.73068514589E-01 -0.21455565585E-03 -0.42180367663E-01  0.84371194110E-01  0.51100000000E-03 0.  1.
</event>
<event>
 8    1  0.1010879E+005  0.1043930E+01  0.7957747E-01            NaN
         13   -1    0    0    0    0  0.00000000000E+00  0.00000000000E+00  0.74505805969E-08  0.10566000000E+00  0.10566000000E+00 0.  1.
     999900   -1    0    0    0    0 -0.00000000000E+00 -0.00000000000E+00 -0.74505805969E-08  0.93827000000E+00  0.93827000000E+00 0. -1.
     999902    2    1    2    0    0 -0.21607699867E-01  0.24837382758E-02 -0.90773099084E-02  0.10203618180E+01  0.10200895943E+01 0.  0.
     999903    2    3    3    0    0  0.78957703016E-02 -0.82097851668E-01  0.97633845044E-01  0.12940066802E+00  0.20242646807E-01 0.  0.
         14    1    1    2    0    0  0.21607699867E-01 -0.24837382758E-02  0.90773099084E-02  0.23568182037E-01  0.00000000000E+00 0. -1.
     999901    1    3    3    0    0 -0.29503470169E-01  0.84581589944E-01 -0.10671115495E+00  0.89096114994E+00  0.88000000000E+00 0.  1.
        -11    1    4    4    0    0  0.12984557963E-01 -0.65047133795E-01  0.69225233872E-01  0.95875557292E-01  0.51100000000E-03 0.  1.
         11    1    4    4    0    0 -0.50887876616E-02 -0.17050717873E-01  0.28408611172E-01  0.33525110732E-01  0.51100000000E-03 0. -1.
</event>
<event>
 8    1  0.1010879E+005  0.1043930E+01  0.7957747E-01            NaN
         13   -1    0    0    0    0  0.00000000000E+00  0.00000000000E+00  0.74505805969E-08  0.10566000000E+00  0.10566000000E+00 0.  1.
     999900   -1    0    0    0    0 -0.00000000000E+00 -0.00000000000E+00 -0.74505805969E-08  0.93827000000E+00  0.93827000000E+00 0. -1.
     999902    2    1    2    0    0  0.22225639919E-01 -0.13533286204E-02  0.86364945944E-02  0.10200469598E+01  0.10197673267E+01 0.  0.
     999903    2    3    3    0    0  0.67100392659E-01 -0.44037606571E-01 -0.10155476312E+00  0.13101501200E+00  0.20243269702E-01 0.  0.
         14    1    1    2    0    0 -0.22225639919E-01  0.13533286204E-02 -0.86364945944E-02  0.23883040155E-01  0.00000000000E+00 0. -1.
     999901    1    3    3    0    0 -0.44874752740E-01  0.42684277950E-01  0.11019125772E+00  0.88903194785E+00  0.88000000000E+00 0.  1.
        -11    1    4    4    0    0  0.60254748136E-01 -0.45715180216E-01 -0.91277564837E-01  0.11854268151E+00  0.51100000000E-03 0. -1.
         11    1    4    4    0    0  0.68456445234E-02  0.16775736453E-02 -0.10277198285E-01  0.12472330490E-01  0.51100000000E-03 0.  1.
</event>
<event>
 8    1  0.1011154E+005  0.1043930E+01  0.7957747E-01            NaN
         13   -1    0    0    0    0  0.00000000000E+00  0.00000000000E+00  0.74505805969E-08  0.10566000000E+00  0.10566000000E+00 0. -1.
     999900   -1    0    0    0    0 -0.00000000000E+00 -0.00000000000E+00 -0.74505805969E-08  0.93827000000E+00  0.93827000000E+00 0. -1.
     999902    2    1    2    0    0 -0.26486993588E-02 -0.11212981074E-01 -0.19470688174E-01  0.10213058039E+01  0.10210551850E+01 0.  0.
     999903    2    3    3    0    0  0.12616756897E+00 -0.96934394749E-02 -0.30759745688E-01  0.13185463443E+00  0.20670375817E-01 0.  0.
         14    1    1    2    0    0  0.26486993588E-02  0.11212981074E-01  0.19470688174E-01  0.22624196137E-01  0.00000000000E+00 0. -1.
     999901    1    3    3    0    0 -0.12881626833E+00 -0.15195415989E-02  0.11289057514E-01  0.88945116944E+00  0.88000000000E+00 0.  1.
        -11    1    4    4    0    0  0.47729039288E-01 -0.13745722111E-01 -0.12016711095E-01  0.51104486439E-01  0.51100000000E-03 0. -1.
         11    1    4    4    0    0  0.78438529682E-01  0.40522826360E-02 -0.18743034593E-01  0.80750147987E-01  0.51100000000E-03 0.  1.
</event>
<event>
 8    1  0.1010879E+005  0.1043930E+01  0.7957747E-01            NaN
         13   -1    0    0    0    0  0.00000000000E+00  0.00000000000E+00  0.74505805969E-08  0.10566000000E+00  0.10566000000E+00 0.  1.
     999900   -1    0    0    0    0 -0.00000000000E+00 -0.00000000000E+00 -0.74505805969E-08  0.93827000000E+00  0.93827000000E+00 0. -1.
     999902    2    1    2    0    0  0.13926522643E-01 -0.99773056152E-03  0.19167723706E-01  0.10202161827E+01  0.10199405445E+01 0.  0.
     999903    2    3    3    0    0  0.92152587225E-01  0.65008491246E-01 -0.62807673620E-01  0.13049931522E+00  0.19158918062E-01 0.  0.
         14    1    1    2    0    0 -0.13926522643E-01  0.99773056152E-03 -0.19167723706E-01  0.23713817307E-01  0.00000000000E+00 0. -1.
     999901    1    3    3    0    0 -0.78226064582E-01 -0.66006221808E-01  0.81975397326E-01  0.88971686747E+00  0.88000000000E+00 0.  1.
        -11    1    4    4    0    0  0.32105023009E-01  0.12250117750E-01 -0.16524074489E-01  0.38132716216E-01  0.51100000000E-03 0.  1.
         11    1    4    4    0    0  0.60047564216E-01  0.52758373497E-01 -0.46283599131E-01  0.92366599005E-01  0.51100000000E-03 0. -1.
</event>
<event>
 8    1  0.1010879E+005  0.1043930E+01  0.7957747E-01            NaN
         13   -1    0    0    0    0  0.00000000000E+00  0.00000000000E+00  0.74505805969E-08  0.10566000000E+00  0.10566000000E+00 0.  1.
     999900   -1    0    0    0    0 -0.00000000000E+00 -0.00000000000E+00 -0.74505805969E-08  0.93827000000E+00  0.93827000000E+00 0.  1.
     999902    2    1    2    0    0 -0.66038757241E-02 -0.18821562504E-01  0.13719035952E-01  0.10197210278E+01  0.10194336173E+01 0.  0.
     999903    2    3    3    0    0  0.88472077731E-01  0.41375955757E-01 -0.80001421946E-01  0.12761862200E+00  0.18628121602E-01 0.  0.
         14    1    1    2    0    0  0.66038757241E-02  0.18821562504E-01 -0.13719035952E-01  0.24208972244E-01  0.00000000000E+00 0. -1.
     999901    1    3    3    0    0 -0.95075953455E-01 -0.60197518262E-01  0.93720457897E-01  0.89210240576E+00  0.88000000000E+00 0.  1.
        -11    1    4    4    0    0  0.44879365726E-01  0.28653685894E-01 -0.35243987786E-01  0.63856017566E-01  0.51100000000E-03 0. -1.
         11    1    4    4    0    0  0.43592712005E-01  0.12722269863E-01 -0.44757434159E-01  0.63762604432E-01  0.51100000000E-03 0.  1.
</event>
<event>
 8    1  0.1010879E+005  0.1043930E+01  0.7957747E-01            NaN
         13   -1    0    0    0    0  0.00000000000E+00  0.00000000000E+00  0.74505805969E-08  0.10566000000E+00  0.10566000000E+00 0.  1.
     999900   -1    0    0    0    0 -0.00000000000E+00 -0.00000000000E+00 -0.74505805969E-08  0.93827000000E+00  0.93827000000E+00 0. -1.
     999902    2    1    2    0    0  0.15524435385E-01  0.74139278468E-02  0.13768631542E-01  0.10218948092E+01  0.10216572084E+01 0.  0.
     999903    2    3    3    0    0 -0.46076692141E-01 -0.90903367820E-01  0.80412871302E-01  0.13178108373E+00  0.22661427961E-01 0.  0.
         14    1    1    2    0    0 -0.15524435385E-01 -0.74139278468E-02 -0.13768631542E-01  0.22035190825E-01  0.00000000000E+00 0. -1.
     999901    1    3    3    0    0  0.61601127526E-01  0.98317295667E-01 -0.66644239760E-01  0.89011372545E+00  0.88000000000E+00 0. -1.
        -11    1    4    4    0    0 -0.31798383623E-01 -0.37738427112E-01  0.37869288173E-01  0.62206673192E-01  0.51100000000E-03 0.  1.
         11    1    4    4    0    0 -0.14278308518E-01 -0.53164940708E-01  0.42543583129E-01  0.69574410534E-01  0.51100000000E-03 0. -1.
</event>
<event>
 8    1  0.1010879E+005  0.1043930E+01  0.7957747E-01            NaN
         13   -1    0    0    0    0  0.00000000000E+00  0.00000000000E+00  0.74505805969E-08  0.10566000000E+00  0.10566000000E+00 0.  1.
     999900   -1    0    0    0    0 -0.00000000000E+00 -0.00000000000E+00 -0.74505805969E-08  0.93827000000E+00  0.93827000000E+00 0.  1.
     999902    2    1    2    0    0  0.15938402686E-01  0.12244825810E-01 -0.11990842254E-01  0.10205259675E+01  0.10202575663E+01 0.  0.
     999903    2    3    3    0    0 -0.10705508837E+00 -0.66731959883E-01 -0.12175878126E-01  0.12846948624E+00  0.21028801007E-01 0.  0.
         14    1    1    2    0    0 -0.15938402686E-01 -0.12244825810E-01  0.11990842254E-01  0.23404032500E-01  0.00000000000E+00 0. -1.
     999901    1    3    3    0    0  0.12299349105E+00  0.78976785692E-01  0.18503587250E-03  0.89205648126E+00  0.88000000000E+00 0. -1.
        -11    1    4    4    0    0 -0.24809484412E-01 -0.24757037585E-01  0.16997332095E-02  0.35093755011E-01  0.51100000000E-03 0. -1.
         11    1    4    4    0    0 -0.82245603954E-01 -0.41974922298E-01 -0.13875611336E-01  0.93375731229E-01  0.51100000000E-03 0.  1.
</event>
<event>
 8    1  0.1010879E+005  0.1043930E+01  0.7957747E-01            NaN
         13   -1    0    0    0    0  0.00000000000E+00  0.00000000000E+00  0.74505805969E-08  0.10566000000E+00  0.10566000000E+00 0. -1.
     999900   -1    0    0    0    0 -0.00000000000E+00 -0.00000000000E+00 -0.74505805969E-08  0.93827000000E+00  0.93827000000E+00 0.  1.
     999902    2    1    2    0    0  0.24131792885E-01 -0.24811396238E-02 -0.38596631881E-02  0.10193658700E+01  0.10190698605E+01 0.  0.
     999903    2    3    3    0    0  0.70682179295E-01  0.16007450726E-01 -0.10823732060E+00  0.13178293766E+00  0.19980393905E-01 0.  0.
         14    1    1    2    0    0 -0.24131792885E-01  0.24811396238E-02  0.38596631881E-02  0.24564129979E-01  0.00000000000E+00 0. -1.
     999901    1    3    3    0    0 -0.46550386410E-01 -0.18488590350E-01  0.10437765741E+00  0.88758293236E+00  0.88000000000E+00 0. -1.
        -11    1    4    4    0    0  0.23830619581E-01  0.17432954440E-02 -0.21373979452E-01  0.32063150613E-01  0.51100000000E-03 0. -1.
         11    1    4    4    0    0  0.46851559714E-01  0.14264155282E-01 -0.86863341144E-01  0.99719787050E-01  0.51100000000E-03 0.  1.
</event>
<event>
 8    1  0.1010879E+005  0.1043930E+01  0.7957747E-01            NaN
         13   -1    0    0    0    0  0.00000000000E+00  0.00000000000E+00  0.74505805969E-08  0.10566000000E+00  0.10566000000E+00 0.  1.
     999900   -1    0    0    0    0 -0.00000000000E+00 -0.00000000000E+00 -0.74505805969E-08  0.93827000000E+00  0.93827000000E+00 0.  1.
     999902    2    1    2    0    0  0.16777996905E-01  0.13544200347E-02 -0.16004820890E-01  0.10207030776E+01  0.10204387697E+01 0.  0.
     999903    2    3    3    0    0  0.79234878597E-01 -0.60768853431E-01 -0.86350925995E-01  0.13351158884E+00  0.19945987075E-01 0.  0.
         14    1    1    2    0    0 -0.16777996905E-01 -0.13544200347E-02  0.16004820890E-01  0.23226922428E-01  0.00000000000E+00 0.  1.
     999901    1    3    3    0    0 -0.62456881692E-01  0.62123273466E-01  0.70346105105E-01  0.88719148873E+00  0.88000000000E+00 0. -1.
        -11    1    4    4    0    0  0.33581518325E-01 -0.15150098238E-01 -0.25503184353E-01  0.44809791149E-01  0.51100000000E-03 0. -1.
         11    1    4    4    0    0  0.45653360272E-01 -0.45618755194E-01 -0.60847741642E-01  0.88701797690E-01  0.51100000000E-03 0.  1.
</event>
<event>
 8    1  0.1010879E+005  0.1043930E+01  0.7957747E-01            NaN
         13   -1    0    0    0    0  0.00000000000E+00  0.00000000000E+00  0.74505805969E-08  0.10566000000E+00  0.10566000000E+00 0.  1.
     999900   -1    0    0    0    0 -0.00000000000E+00 -0.00000000000E+00 -0.74505805969E-08  0.93827000000E+00  0.93827000000E+00 0. -1.
     999902    2    1    2    0    0 -0.15360670071E-01 -0.17230148697E-01  0.70851483361E-02  0.10197840369E+01  0.10194981384E+01 0.  0.
     999903    2    3    3    0    0  0.13088282618E-01 -0.11165366295E+00 -0.64958591456E-01  0.13134977176E+00  0.19882161522E-01 0.  0.
         14    1    1    2    0    0  0.15360670071E-01  0.17230148697E-01 -0.70851483361E-02  0.24145963142E-01  0.00000000000E+00 0. -1.
     999901    1    3    3    0    0 -0.28448952688E-01  0.94423514250E-01  0.72043739792E-01  0.88843426510E+00  0.88000000000E+00 0.  1.
        -11    1    4    4    0    0  0.16837836589E-01 -0.65170669984E-01 -0.34403333078E-01  0.75594837225E-01  0.51100000000E-03 0. -1.
         11    1    4    4    0    0 -0.37495539713E-02 -0.46482992963E-01 -0.30555258377E-01  0.55754934538E-01  0.51100000000E-03 0.  1.
</event>
<event>
 8    1  0.1010879E+005  0.1043930E+01  0.7957747E-01            NaN
         13   -1    0    0    0    0  0.00000000000E+00  0.00000000000E+00  0.74505805969E-08  0.10566000000E+00  0.10566000000E+00 0.  1.
     999900   -1    0    0    0    0 -0.00000000000E+00 -0.00000000000E+00 -0.74505805969E-08  0.93827000000E+00  0.93827000000E+00 0. -1.
     999902    2    1    2    0    0  0.56013588909E-02  0.54901851558E-02 -0.22856027056E-01  0.10197656600E+01  0.10194793210E+01 0.  0.
     999903    2    3    3    0    0 -0.48596133836E-01 -0.45818714046E-01 -0.11195170072E+00  0.13212383448E+00  0.21507802375E-01 0.  0.
         14    1    1    2    0    0 -0.56013588909E-02 -0.54901851558E-02  0.22856027056E-01  0.24164339992E-01  0.00000000000E+00 0.  1.
     999901    1    3    3    0    0  0.54197492727E-01  0.51308899201E-01  0.89095673668E-01  0.88764182553E+00  0.88000000000E+00 0.  1.
        -11    1    4    4    0    0 -0.46334090343E-01 -0.46721729629E-01 -0.98592763013E-01  0.11853506649E+00  0.51100000000E-03 0.  1.
         11    1    4    4    0    0 -0.22620434934E-02  0.90301558374E-03 -0.13358937710E-01  0.13588767996E-01  0.51100000000E-03 0. -1.
</event>
<event>
 8    1  0.1010879E+005  0.1043930E+01  0.7957747E-01            NaN
         13   -1    0    0    0    0  0.00000000000E+00  0.00000000000E+00  0.74505805969E-08  0.10566000000E+00  0.10566000000E+00 0. -1.
     999900   -1    0    0    0    0 -0.00000000000E+00 -0.00000000000E+00 -0.74505805969E-08  0.93827000000E+00  0.93827000000E+00 0.  1.
     999902    2    1    2    0    0 -0.18964271621E-01  0.19968417669E-02  0.83324409292E-02  0.10231198932E+01  0.10229082340E+01 0.  0.
     999903    2    3    3    0    0 -0.12610086132E+00  0.89504315565E-02  0.45580248179E-01  0.13581273077E+00  0.19646917427E-01 0.  0.
         14    1    1    2    0    0  0.18964271621E-01 -0.19968417669E-02 -0.83324409292E-02  0.20810106847E-01  0.00000000000E+00 0.  1.
     999901    1    3    3    0    0  0.10713658970E+00 -0.69535897896E-02 -0.37247807249E-01  0.88730716238E+00  0.88000000000E+00 0. -1.
        -11    1    4    4    0    0 -0.11432419423E+00  0.70831526175E-02  0.46963075405E-01  0.12379815834E+00  0.51100000000E-03 0. -1.
         11    1    4    4    0    0 -0.11776667096E-01  0.18672789390E-02 -0.13828272261E-02  0.12014572429E-01  0.51100000000E-03 0.  1.
</event>
<event>
 8    1  0.1010879E+005  0.1043930E+01  0.7957747E-01            NaN
         13   -1    0    0    0    0  0.00000000000E+00  0.00000000000E+00  0.74505805969E-08  0.10566000000E+00  0.10566000000E+00 0. -1.
     999900   -1    0    0    0    0 -0.00000000000E+00 -0.00000000000E+00 -0.74505805969E-08  0.93827000000E+00  0.93827000000E+00 0.  1.
     999902    2    1    2    0    0  0.19920487425E-01  0.13155270188E-01 -0.19309185780E-02  0.10199797307E+01  0.10196985023E+01 0.  0.
     999903    2    3    3    0    0  0.10590664798E+00  0.53341293898E-01 -0.57158970003E-01  0.13315467807E+00  0.20037682447E-01 0.  0.
         14    1    1    2    0    0 -0.19920487425E-01 -0.13155270188E-01  0.19309185780E-02  0.23950269300E-01  0.00000000000E+00 0. -1.
     999901    1    3    3    0    0 -0.85986160560E-01 -0.40186023710E-01  0.55228051425E-01  0.88682505263E+00  0.88000000000E+00 0. -1.
        -11    1    4    4    0    0  0.58799812609E-01  0.24150708064E-01 -0.20853580354E-01  0.66901476795E-01  0.51100000000E-03 0. -1.
         11    1    4    4    0    0  0.47106835376E-01  0.29190585835E-01 -0.36305389649E-01  0.66253201274E-01  0.51100000000E-03 0.  1.
</event>
<event>
 8    1  0.1010879E+005  0.1043930E+01  0.7957747E-01            NaN
         13   -1    0    0    0    0  0.00000000000E+00  0.00000000000E+00  0.74505805969E-08  0.10566000000E+00  0.10566000000E+00 0.  1.
     999900   -1    0    0    0    0 -0.00000000000E+00 -0.00000000000E+00 -0.74505805969E-08  0.93827000000E+00  0.93827000000E+00 0.  1.
     999902    2    1    2    0    0  0.14876801564E-01 -0.18195049842E-01  0.89617563901E-03  0.10204101744E+01  0.10201390797E+01 0.  0.
     999903    2    3    3    0    0 -0.53963265111E-01 -0.11850661971E+00 -0.79832803543E-02  0.13199573817E+00  0.20082062470E-01 0.  0.
         14    1    1    2    0    0 -0.14876801564E-01  0.18195049842E-01 -0.89617563901E-03  0.23519825559E-01  0.00000000000E+00 0.  1.
     999901    1    3    3    0    0  0.68840066676E-01  0.10031156987E+00  0.88794559933E-02  0.88841443627E+00  0.88000000000E+00 0.  1.
        -11    1    4    4    0    0 -0.42283389255E-01 -0.10739441169E+00 -0.45767230310E-02  0.11551039859E+00  0.51100000000E-03 0.  1.
         11    1    4    4    0    0 -0.11679875856E-01 -0.11112208028E-01 -0.34065573233E-02  0.16485339580E-01  0.51100000000E-03 0. -1.
</event>
<event>
 8    1  0.1010879E+005  0.1043930E+01  0.7957747E-01            NaN
         13   -1    0    0    0    0  0.00000000000E+00  0.00000000000E+00  0.74505805969E-08  0.10566000000E+00  0.10566000000E+00 0. -1.
     999900   -1    0    0    0    0 -0.00000000000E+00 -0.00000000000E+00 -0.74505805969E-08  0.93827000000E+00  0.93827000000E+00 0. -1.
     999902    2    1    2    0    0 -0.63403926469E-02  0.21963599655E-01  0.17518819564E-02  0.10210025191E+01  0.10207450586E+01 0.  0.
     999903    2    3    3    0    0 -0.12306257525E+00  0.40452128266E-01 -0.19579331991E-01  0.13284661261E+00  0.22002275625E-01 0.  0.
         14    1    1    2    0    0  0.63403926469E-02 -0.21963599655E-01 -0.17518819564E-02  0.22927480872E-01  0.00000000000E+00 0. -1.
     999901    1    3    3    0    0  0.11672218260E+00 -0.18488528611E-01  0.21331213947E-01  0.88815590652E+00  0.88000000000E+00 0. -1.
        -11    1    4    4    0    0 -0.64279911007E-01  0.31619080225E-01 -0.61297988085E-02  0.71899295878E-01  0.51100000000E-03 0.  1.
         11    1    4    4    0    0 -0.58782664238E-01  0.88330480417E-02 -0.13449533182E-01  0.60947316729E-01  0.51100000000E-03 0. -1.
</event>
<event>
 8    1  0.1010879E+005  0.1043930E+01  0.7957747E-01            NaN
         13   -1    0    0    0    0  0.00000000000E+00  0.00000000000E+00  0.74505805969E-08  0.10566000000E+00  0.10566000000E+00 0.  1.
     999900   -1    0    0    0    0 -0.00000000000E+00 -0.00000000000E+00 -0.74505805969E-08  0.93827000000E+00  0.93827000000E+00 0.  1.
     999902    2    1    2    0    0  0.98630022653E-02  0.22282169005E-02 -0.21056971880E-01  0.10205710653E+01  0.10203037095E+01 0.  0.
     999903    2    3    3    0    0  0.87433588163E-01 -0.79049985073E-01  0.52159695901E-01  0.13041151651E+00  0.19824159068E-01 0.  0.
         14    1    1    2    0    0 -0.98630022653E-02 -0.22282169005E-02  0.21056971880E-01  0.23358934671E-01  0.00000000000E+00 0.  1.
     999901    1    3    3    0    0 -0.77570585898E-01  0.81278201974E-01 -0.73216667780E-01  0.89015954882E+00  0.88000000000E+00 0.  1.
        -11    1    4    4    0    0  0.27405057082E-01 -0.24390756973E-01  0.26521951993E-01  0.45272742770E-01  0.51100000000E-03 0.  1.
         11    1    4    4    0    0  0.60028531081E-01 -0.54659228101E-01  0.25637743908E-01  0.85138773740E-01  0.51100000000E-03 0. -1.
</event>
<event>
 8    1  0.1010879E+005  0.1043930E+01  0.7957747E-01            NaN
         13   -1    0    0    0    0  0.00000000000E+00  0.00000000000E+00  0.74505805969E-08  0.10566000000E+00  0.10566000000E+00 0. -1.
     999900   -1    0    0    0    0 -0.00000000000E+00 -0.00000000000E+00 -0.74505805969E-08  0.93827000000E+00  0.93827000000E+00 0. -1.
     999902    2    1    2    0    0 -0.61404786165E-02  0.31237070517E-02 -0.23332357021E-01  0.10196017878E+01  0.10193115048E+01 0.  0.
     999903    2    3    3    0    0 -0.38618601047E-01 -0.12215488418E+00 -0.33686594952E-02  0.12991189631E+00  0.21273007775E-01 0.  0.
         14    1    1    2    0    0  0.61404786165E-02 -0.31237070517E-02  0.23332357021E-01  0.24328212173E-01  0.00000000000E+00 0. -1.
     999901    1    3    3    0    0  0.32478122431E-01  0.12527859123E+00 -0.19963697526E-01  0.88968989152E+00  0.88000000000E+00 0.  1.
        -11    1    4    4    0    0 -0.20701138044E-01 -0.85864825644E-01  0.54222677054E-02  0.88492753981E-01  0.51100000000E-03 0.  1.
         11    1    4    4    0    0 -0.17917463003E-01 -0.36290058533E-01 -0.87909272006E-02  0.41419142324E-01  0.51100000000E-03 0. -1.
</event>
<event>
 8    1  0.1010879E+005  0.1043930E+01  0.7957747E-01            NaN
         13   -1    0    0    0    0  0.00000000000E+00  0.00000000000E+00  0.74505805969E-08  0.10566000000E+00  0.10566000000E+00 0.  1.
     999900   -1    0    0    0    0 -0.00000000000E+00 -0.00000000000E+00 -0.74505805969E-08  0.93827000000E+00  0.93827000000E+00 0.  1.
     999902    2    1    2    0    0 -0.20896123908E-01 -0.49322819808E-02  0.79330242031E-02  0.10210409574E+01  0.10207843692E+01 0.  0.
     999903    2    3    3    0    0  0.12672054761E+00 -0.81122906033E-03  0.85132037145E-02  0.12873607595E+00  0.21017786142E-01 0.  0.
         14    1    1    2    0    0  0.20896123908E-01  0.49322819808E-02 -0.79330242031E-02  0.22889042639E-01  0.00000000000E+00 0. -1.
     999901    1    3    3    0    0 -0.14761667152E+00 -0.41210529205E-02 -0.58017951144E-03  0.89230488141E+00  0.88000000000E+00 0. -1.
        -11    1    4    4    0    0  0.74289385775E-01 -0.10757313708E-01  0.60867189735E-02  0.75312295848E-01  0.51100000000E-03 0. -1.
         11    1    4    4    0    0  0.52431161832E-01  0.99460846472E-02  0.24264847410E-02  0.53423780099E-01  0.51100000000E-03 0.  1.
</event>
<event>
 8    1  0.1010879E+005  0.1043930E+01  0.7957747E-01            NaN
         13   -1    0    0    0    0  0.00000000000E+00  0.00000000000E+00  0.74505805969E-08  0.10566000000E+00  0.10566000000E+00 0.  1.
     999900   -1    0    0    0    0 -0.00000000000E+00 -0.00000000000E+00 -0.74505805969E-08  0.93827000000E+00  0.93827000000E+00 0.  1.
     999902    2    1    2    0    0 -0.21057889817E-01 -0.30227126164E-02 -0.91749179591E-02  0.10207621206E+01  0.10204991701E+01 0.  0.
     999903    2    3    3    0    0  0.11292551453E+00  0.35263546757E-01 -0.47829747989E-01  0.12895968388E+00  0.18633993447E-01 0.  0.
         14    1    1    2    0    0  0.21057889817E-01  0.30227126164E-02  0.91749179591E-02  0.23167879374E-01  0.00000000000E+00 0.  1.
     999901    1    3    3    0    0 -0.13398340435E+00 -0.38286259374E-01  0.38654830030E-01  0.89180243674E+00  0.88000000000E+00 0. -1.
        -11    1    4    4    0    0  0.83412453715E-01  0.30190188630E-01 -0.43145701575E-01  0.98645312153E-01  0.51100000000E-03 0.  1.
         11    1    4    4    0    0  0.29513060818E-01  0.50733581268E-02 -0.46840464142E-02  0.30314371729E-01  0.51100000000E-03 0. -1.
</event>
<event>
 8    1  0.1010879E+005  0.1043930E+01  0.7957747E-01            NaN
         13   -1    0    0    0    0  0.00000000000E+00  0.00000000000E+00  0.74505805969E-08  0.10566000000E+00  0.10566000000E+00 0.  1.
     999900   -1    0    0    0    0 -0.00000000000E+00 -0.00000000000E+00 -0.74505805969E-08  0.93827000000E+00  0.93827000000E+00 0. -1.
     999902    2    1    2    0    0  0.16336250851E-01  0.11978981060E-01  0.38782059514E-02  0.10233045410E+01  0.10230966592E+01 0.  0.
     999903    2    3    3    0    0 -0.72365229092E-02 -0.52231998707E-02  0.13192664424E+00  0.13355851358E+00  0.18803935986E-01 0.  0.
         14    1    1    2    0    0 -0.16336250851E-01 -0.11978981060E-01 -0.38782059514E-02  0.20625459037E-01  0.00000000000E+00 0. -1.
     999901    1    3    3    0    0  0.23572773760E-01  0.17202180930E-01 -0.12804843829E+00  0.88974602738E+00  0.88000000000E+00 0. -1.
        -11    1    4    4    0    0  0.53107867502E-02 -0.59772964437E-02  0.61128777875E-01  0.61651610962E-01  0.51100000000E-03 0. -1.
         11    1    4    4    0    0 -0.12547309659E-01  0.75409657301E-03  0.70797866367E-01  0.71906902620E-01  0.51100000000E-03 0.  1.
</event>
<event>
 8    1  0.1010879E+005  0.1043930E+01  0.7957747E-01            NaN
         13   -1    0    0    0    0  0.00000000000E+00  0.00000000000E+00  0.74505805969E-08  0.10566000000E+00  0.10566000000E+00 0. -1.
     999900   -1    0    0    0    0 -0.00000000000E+00 -0.00000000000E+00 -0.74505805969E-08  0.93827000000E+00  0.93827000000E+00 0. -1.
     999902    2    1    2    0    0 -0.20809885098E-01  0.10573962685E-01 -0.43775995397E-02  0.10201808235E+01  0.10199043530E+01 0.  0.
     999903    2    3    3    0    0  0.90293097392E-01  0.64002759492E-01  0.63463277263E-01  0.12900132781E+00  0.19093411353E-01 0.  0.
         14    1    1    2    0    0  0.20809885098E-01 -0.10573962685E-01  0.43775995397E-02  0.23749176457E-01  0.00000000000E+00 0. -1.
     999901    1    3    3    0    0 -0.11110298249E+00 -0.53428796806E-01 -0.67840876802E-01  0.89117949573E+00  0.88000000000E+00 0. -1.
        -11    1    4    4    0    0  0.50721921944E-01  0.46667039037E-01  0.42541210716E-01  0.80997170496E-01  0.51100000000E-03 0. -1.
         11    1    4    4    0    0  0.39571175448E-01  0.17335720455E-01  0.20922066547E-01  0.48004157316E-01  0.51100000000E-03 0.  1.
</event>
<event>
 8    1  0.1010879E+005  0.1043930E+01  0.7957747E-01            NaN
         13   -1    0    0    0    0  0.00000000000E+00  0.00000000000E+00  0.74505805969E-08  0.10566000000E+00  0.10566000000E+00 0. -1.
     999900   -1    0    0    0    0 -0.00000000000E+00 -0.00000000000E+00 -0.74505805969E-08  0.93827000000E+00  0.93827000000E+00 0.  1.
     999902    2    1    2    0    0  0.17042369820E-01 -0.15837242244E-01  0.27018550449E-02  0.10205086287E+01  0.10202398251E+01 0.  0.
     999903    2    3    3    0    0  0.29269980145E-01  0.11760378447E+00 -0.40131864169E-01  0.12933482439E+00  0.20725549908E-01 0.  0.
         14    1    1    2    0    0 -0.17042369820E-01  0.15837242244E-01 -0.27018550449E-02  0.23421371259E-01  0.00000000000E+00 0.  1.
     999901    1    3    3    0    0 -0.12227610325E-01 -0.13344102671E+00  0.42833719214E-01  0.89117380435E+00  0.88000000000E+00 0. -1.
        -11    1    4    4    0    0  0.13670072626E-01  0.23300223639E-01 -0.12927108930E-01  0.29952338365E-01  0.51100000000E-03 0.  1.
         11    1    4    4    0    0  0.15599907519E-01  0.94303560828E-01 -0.27204755239E-01  0.99382486023E-01  0.51100000000E-03 0. -1.
</event>
<event>
 8    1  0.1010879E+005  0.1043930E+01  0.7957747E-01            NaN
         13   -1    0    0    0    0  0.00000000000E+00  0.00000000000E+00  0.74505805969E-08  0.10566000000E+00  0.10566000000E+00 0.  1.
     999900   -1    0    0    0    0 -0.00000000000E+00 -0.00000000000E+00 -0.74505805969E-08  0.93827000000E+00  0.93827000000E+00 0.  1.
     999902    2    1    2    0    0  0.20608155511E-02 -0.90723621209E-02  0.21546821776E-01  0.10204604401E+01  0.10201905163E+01 0.  0.
     999903    2    3    3    0    0 -0.86787255840E-01 -0.11782131250E-01  0.97763988238E-01  0.13270462954E+00  0.19541620025E-01 0.  0.
         14    1    1    2    0    0 -0.20608155511E-02  0.90723621209E-02 -0.21546821776E-01  0.23469559941E-01  0.00000000000E+00 0. -1.
     999901    1    3    3    0    0  0.88848071391E-01  0.27097691296E-02 -0.76217166462E-01  0.88775581051E+00  0.88000000000E+00 0.  1.
        -11    1    4    4    0    0 -0.57556025019E-01 -0.34796614577E-02  0.51277880507E-01  0.77165317405E-01  0.51100000000E-03 0. -1.
         11    1    4    4    0    0 -0.29231230821E-01 -0.83024697927E-02  0.46486107731E-01  0.55539312139E-01  0.51100000000E-03 0.  1.
</event>
<event>
 8    1  0.1010879E+005  0.1043930E+01  0.7957747E-01            NaN
         13   -1    0    0    0    0  0.00000000000E+00  0.00000000000E+00  0.74505805969E-08  0.10566000000E+00  0.10566000000E+00 0.  1.
     999900   -1    0    0    0    0 -0.00000000000E+00 -0.00000000000E+00 -0.74505805969E-08  0.93827000000E+00  0.93827000000E+00 0. -1.
     999902    2    1    2    0    0  0.67663803969E-02  0.20646109489E-01  0.47787135395E-02  0.10216840601E+01  0.10214418421E+01 0.  0.
     999903    2    3    3    0    0 -0.12922635535E+00  0.56992122952E-02 -0.10053685788E-01  0.13098914373E+00  0.18031839568E-01 0.  0.
         14    1    1    2    0    0 -0.67663803969E-02 -0.20646109489E-01 -0.47787135395E-02  0.22245939940E-01  0.00000000000E+00 0. -1.
     999901    1    3    3    0    0  0.13599273575E+00  0.14946897194E-01  0.14832399327E-01  0.89069491633E+00  0.88000000000E+00 0.  1.
        -11    1    4    4    0    0 -0.42720894665E-01 -0.53542535080E-02 -0.77392768455E-02  0.43748147374E-01  0.51100000000E-03 0. -1.
         11    1    4    4    0    0 -0.86505460686E-01  0.11053465803E-01 -0.23144089420E-02  0.87240996352E-01  0.51100000000E-03 0.  1.
</event>
<event>
 8    1  0.1010879E+005  0.1043930E+01  0.7957747E-01            NaN
         13   -1    0    0    0    0  0.00000000000E+00  0.00000000000E+00  0.74505805969E-08  0.10566000000E+00  0.10566000000E+00 0. -1.
     999900   -1    0    0    0    0 -0.00000000000E+00 -0.00000000000E+00 -0.74505805969E-08  0.93827000000E+00  0.93827000000E+00 0. -1.
     999902    2    1    2    0    0  0.21034683972E-01 -0.96692926272E-02  0.21269719788E-02  0.10206818354E+01  0.10204170382E+01 0.  0.
     999903    2    3    3    0    0 -0.24481825104E-01 -0.64733461688E-01  0.10972412420E+00  0.13125451259E+00  0.19964539084E-01 0.  0.
         14    1    1    2    0    0 -0.21034683972E-01  0.96692926272E-02 -0.21269719788E-02  0.23248164648E-01  0.00000000000E+00 0.  1.
     999901    1    3    3    0    0  0.45516509076E-01  0.55064169061E-01 -0.10759715222E+00  0.88942732276E+00  0.88000000000E+00 0. -1.
        -11    1    4    4    0    0 -0.17635949327E-01 -0.23047618336E-01  0.54228622926E-01  0.61507918881E-01  0.51100000000E-03 0.  1.
         11    1    4    4    0    0 -0.68458757773E-02 -0.41685843352E-01  0.55495501273E-01  0.69746593707E-01  0.51100000000E-03 0. -1.
</event>
<event>
 8    1  0.1010879E+005  0.1043930E+01  0.7957747E-01            NaN
         13   -1    0    0    0    0  0.00000000000E+00  0.00000000000E+00  0.74505805969E-08  0.10566000000E+00  0.10566000000E+00 0. -1.
     999900   -1    0    0    0    0 -0.00000000000E+00 -0.00000000000E+00 -0.74505805969E-08  0.93827000000E+00  0.93827000000E+00 0. -1.
     999902    2    1    2    0    0 -0.17081477340E-02 -0.18951649516E-01 -0.13049789872E-01  0.10208566430E+01  0.10205958582E+01 0.  0.
     999903    2    3    3    0    0 -0.82891829922E-01 -0.57931852253E-01  0.81233497611E-01  0.13125022172E+00  0.20014609535E-01 0.  0.
         14    1    1    2    0    0  0.17081477340E-02  0.18951649516E-01  0.13049789872E-01  0.23073357012E-01  0.00000000000E+00 0. -1.
     999901    1    3    3    0    0  0.81183682188E-01  0.38980202736E-01 -0.94283287484E-01  0.88960642127E+00  0.88000000000E+00 0.  1.
        -11    1    4    4    0    0 -0.60432034249E-01 -0.33928309139E-01  0.62971576104E-01  0.93642092258E-01  0.51100000000E-03 0.  1.
         11    1    4    4    0    0 -0.22459795673E-01 -0.24003543113E-01  0.18261921508E-01  0.37608129464E-01  0.51100000000E-03 0. -1.
</event>
<event>
 8    1  0.1010879E+005  0.1043930E+01  0.7957747E-01            NaN
         13   -1    0    0    0    0  0.00000000000E+00  0.00000000000E+00  0.74505805969E-08  0.10566000000E+00  0.10566000000E+00 0.  1.
     999900   -1    0    0    0    0 -0.00000000000E+00 -0.00000000000E+00 -0.74505805969E-08  0.93827000000E+00  0.93827000000E+00 0.  1.
     999902    2    1    2    0    0 -0.21389312578E-01 -0.44796018513E-02  0.12798074380E-01  0.10186049090E+01  0.10182900375E+01 0.  0.
     999903    2    3    3    0    0 -0.58057384245E-01 -0.14569088722E-01 -0.11258605007E+00  0.12890410319E+00  0.18913776419E-01 0.  0.
         14    1    1    2    0    0  0.21389312578E-01  0.44796018513E-02 -0.12798074380E-01  0.25325090980E-01  0.00000000000E+00 0. -1.
     999901    1    3    3    0    0  0.36668071667E-01  0.10089486871E-01  0.12538412445E+00  0.88970080583E+00  0.88000000000E+00 0. -1.
        -11    1    4    4    0    0 -0.16635825639E-01 -0.11895902374E-01 -0.27958204316E-01  0.34643693474E-01  0.51100000000E-03 0.  1.
         11    1    4    4    0    0 -0.41421558606E-01 -0.26731863480E-02 -0.84627845753E-01  0.94260409719E-01  0.51100000000E-03 0. -1.
</event>
<event>
 8    1  0.1010879E+005  0.1043930E+01  0.7957747E-01            NaN
         13   -1    0    0    0    0  0.00000000000E+00  0.00000000000E+00  0.74505805969E-08  0.10566000000E+00  0.10566000000E+00 0.  1.
     999900   -1    0    0    0    0 -0.00000000000E+00 -0.00000000000E+00 -0.74505805969E-08  0.93827000000E+00  0.93827000000E+00 0. -1.
     999902    2    1    2    0    0  0.20946895241E-01  0.68294461012E-02 -0.88577711957E-02  0.10201839716E+01  0.10199075752E+01 0.  0.
     999903    2    3    3    0    0 -0.43264914666E-01  0.11038418145E+00 -0.51376368519E-01  0.13077148526E+00  0.20127835400E-01 0.  0.
         14    1    1    2    0    0 -0.20946895241E-01 -0.68294461012E-02  0.88577711957E-02  0.23746028401E-01  0.00000000000E+00 0. -1.
     999901    1    3    3    0    0  0.64211809907E-01 -0.10355473535E+00  0.42518597323E-01  0.88941248634E+00  0.88000000000E+00 0.  1.
        -11    1    4    4    0    0 -0.10714760230E-01  0.51700966292E-01 -0.17716472645E-01  0.55694977567E-01  0.51100000000E-03 0. -1.
         11    1    4    4    0    0 -0.32550154437E-01  0.58683215160E-01 -0.33659895874E-01  0.75076507688E-01  0.51100000000E-03 0.  1.
</event>
<event>
 8    1  0.1010879E+005  0.1043930E+01  0.7957747E-01            NaN
         13   -1    0    0    0    0  0.00000000000E+00  0.00000000000E+00  0.74505805969E-08  0.10566000000E+00  0.10566000000E+00 0.  1.
     999900   -1    0    0    0    0 -0.00000000000E+00 -0.00000000000E+00 -0.74505805969E-08  0.93827000000E+00  0.93827000000E+00 0.  1.
     999902    2    1    2    0    0  0.19313153875E-01  0.41543014885E-02  0.14112834063E-01  0.10196518572E+01  0.10193627822E+01 0.  0.
     999903    2    3    3    0    0  0.23414669981E-01 -0.12779744800E-01  0.12794892061E+00  0.13214848313E+00  0.19512218247E-01 0.  0.
         14    1    1    2    0    0 -0.19313153875E-01 -0.41543014885E-02 -0.14112834063E-01  0.24278142819E-01  0.00000000000E+00 0. -1.
     999901    1    3    3    0    0 -0.41015161065E-02  0.16934046288E-01 -0.11383608654E+00  0.88750337405E+00  0.88000000000E+00 0.  1.
        -11    1    4    4    0    0  0.91463875783E-02 -0.14679975749E-01  0.87931707864E-01  0.89618103431E-01  0.51100000000E-03 0. -1.
         11    1    4    4    0    0  0.14268282403E-01  0.19002309488E-02  0.40017212742E-01  0.42530379696E-01  0.51100000000E-03 0.  1.
</event>
<event>
 8    1  0.1010879E+005  0.1043930E+01  0.7957747E-01            NaN
         13   -1    0    0    0    0  0.00000000000E+00  0.00000000000E+00  0.74505805969E-08  0.10566000000E+00  0.10566000000E+00 0.  1.
     999900   -1    0    0    0    0 -0.00000000000E+00 -0.00000000000E+00 -0.74505805969E-08  0.93827000000E+00  0.93827000000E+00 0.  1.
     999902    2    1    2    0    0  0.14042056869E-02  0.17930768480E-01  0.54268863897E-02  0.10251434264E+01  0.10249712724E+01 0.  0.
     999903    2    3    3    0    0  0.24125567055E-01  0.13366370610E+00  0.12618769298E-02  0.13726521379E+00  0.19801951180E-01 0.  0.
         14    1    1    2    0    0 -0.14042056869E-02 -0.17930768480E-01 -0.54268863897E-02  0.18786573604E-01  0.00000000000E+00 0. -1.
     999901    1    3    3    0    0 -0.22721361368E-01 -0.11573293762E+00  0.41650094599E-02  0.88787821260E+00  0.88000000000E+00 0. -1.
        -11    1    4    4    0    0  0.53495943312E-02  0.69521248856E-01  0.75393218745E-02  0.70135046142E-01  0.51100000000E-03 0.  1.
         11    1    4    4    0    0  0.18775972724E-01  0.64142457242E-01 -0.62774449447E-02  0.67130167650E-01  0.51100000000E-03 0. -1.
</event>
<event>
 8    1  0.1091031E+005  0.1043930E+01  0.7957747E-01            NaN
         13   -1    0    0    0    0  0.00000000000E+00  0.00000000000E+00  0.74505805969E-08  0.10566000000E+00  0.10566000000E+00 0.  1.
     999900   -1    0    0    0    0 -0.00000000000E+00 -0.00000000000E+00 -0.74505805969E-08  0.93827000000E+00  0.93827000000E+00 0.  1.
     999902    2    1    2    0    0  0.14213071873E-02 -0.18074655238E-01 -0.15525274164E-01  0.10200606176E+01  0.10197813081E+01 0.  0.
     999903    2    3    3    0    0  0.94181255093E-01  0.85037717874E-01 -0.15607289680E-01  0.12919779086E+00  0.18626846205E-01 0.  0.
         14    1    1    2    0    0 -0.14213071873E-02  0.18074655238E-01  0.15525274164E-01  0.23869382354E-01  0.00000000000E+00 0. -1.
     999901    1    3    3    0    0 -0.92759947906E-01 -0.10311237311E+00  0.82015515843E-04  0.89086282679E+00  0.88000000000E+00 0.  1.
        -11    1    4    4    0    0  0.54248775960E-01  0.51115332442E-01 -0.49053808959E-04  0.74538382267E-01  0.51100000000E-03 0.  1.
         11    1    4    4    0    0  0.39932479133E-01  0.33922385432E-01 -0.15558235871E-01  0.54659408591E-01  0.51100000000E-03 0. -1.
</event>
<event>
 8    1  0.1010879E+005  0.1043930E+01  0.7957747E-01            NaN
         13   -1    0    0    0    0  0.00000000000E+00  0.00000000000E+00  0.74505805969E-08  0.10566000000E+00  0.10566000000E+00 0.  1.
     999900   -1    0    0    0    0 -0.00000000000E+00 -0.00000000000E+00 -0.74505805969E-08  0.93827000000E+00  0.93827000000E+00 0.  1.
     999902    2    1    2    0    0 -0.10250847803E-01  0.11327839813E-01  0.18160410870E-01  0.10201981573E+01  0.10199220950E+01 0.  0.
     999903    2    3    3    0    0  0.10947699855E+00  0.46351045049E-01 -0.46220564277E-01  0.12907173974E+00  0.19736789215E-01 0.  0.
         14    1    1    2    0    0  0.10250847803E-01 -0.11327839813E-01 -0.18160410870E-01  0.23731842712E-01  0.00000000000E+00 0. -1.
     999901    1    3    3    0    0 -0.11972784635E+00 -0.35023205235E-01  0.64380975147E-01  0.89112641755E+00  0.88000000000E+00 0. -1.
        -11    1    4    4    0    0  0.59543890790E-01  0.28041019666E-01 -0.15383714194E-01  0.67592111209E-01  0.51100000000E-03 0. -1.
         11    1    4    4    0    0  0.49933107758E-01  0.18310025382E-01 -0.30836850083E-01  0.61479628528E-01  0.51100000000E-03 0.  1.
</event>
<event>
 8    1  0.1010879E+005  0.1043930E+01  0.7957747E-01            NaN
         13   -1    0    0    0    0  0.00000000000E+00  0.00000000000E+00  0.74505805969E-08  0.10566000000E+00  0.10566000000E+00 0. -1.
     999900   -1    0    0    0    0 -0.00000000000E+00 -0.00000000000E+00 -0.74505805969E-08  0.93827000000E+00  0.93827000000E+00 0.  1.
     999902    2    1    2    0    0  0.14688287640E-01 -0.15744128717E-01 -0.86580620136E-02  0.10207225568E+01  0.10204586971E+01 0.  0.
     999903    2    3    3    0    0  0.35987757215E-01 -0.12730195644E-01  0.12334899559E+00  0.13061659991E+00  0.19711542541E-01 0.  0.
         14    1    1    2    0    0 -0.14688287640E-01  0.15744128717E-01  0.86580620136E-02  0.23207443217E-01  0.00000000000E+00 0. -1.
     999901    1    3    3    0    0 -0.21299469575E-01 -0.30139330721E-02 -0.13200705760E+00  0.89010595687E+00  0.88000000000E+00 0.  1.
        -11    1    4    4    0    0  0.13886551175E-01  0.44574345654E-02  0.50670668629E-01  0.52730283583E-01  0.51100000000E-03 0. -1.
         11    1    4    4    0    0  0.22101206040E-01 -0.17187630210E-01  0.72678326962E-01  0.77886316331E-01  0.51100000000E-03 0.  1.
</event>
<event>
 7    1  0.1010879E+005  0.1043930E+01  0.7957747E-01            NaN
         13   -1    0    0    0    0  0.00000000000E+00  0.00000000000E+00  0.74505805969E-08  0.10566000000E+00  0.10566000000E+00 0.  1.
     999900   -1    0    0    0    0 -0.00000000000E+00 -0.00000000000E+00 -0.74505805969E-08  0.93827000000E+00  0.93827000000E+00 0.  1.
     999903    2    1    2    0    0  0.63346267278E-01  0.28360026826E-01 -0.88205894161E-01  0.11387637322E+00  0.19248582111E-01 0.  0.
         14    1    1    2    0    0 -0.30377986337E-01  0.22439602486E-01 -0.17567604461E-01  0.41653073597E-01  0.00000000000E+00 0. -1.
     999901    1    1    2    0    0 -0.32968280940E-01 -0.50799629311E-01  0.10577349862E+00  0.88840055318E+00  0.88000000000E+00 0. -1.
        -11    1    3    3    0    0  0.50174909422E-02 -0.19864368200E-02 -0.12364080421E-01  0.13500101935E-01  0.51100000000E-03 0.  1.
         11    1    3    3    0    0  0.58328776335E-01  0.30346463646E-01 -0.75841813739E-01  0.10037627128E+00  0.51100000000E-03 0. -1.
</event>
<event>
 8    1  0.1010879E+005  0.1043930E+01  0.7957747E-01            NaN
         13   -1    0    0    0    0  0.00000000000E+00  0.00000000000E+00  0.74505805969E-08  0.10566000000E+00  0.10566000000E+00 0.  1.
     999900   -1    0    0    0    0 -0.00000000000E+00 -0.00000000000E+00 -0.74505805969E-08  0.93827000000E+00  0.93827000000E+00 0. -1.
     999902    2    1    2    0    0 -0.63086852383E-02 -0.23578966661E-01 -0.71230625606E-02  0.10185035335E+01  0.10181861041E+01 0.  0.
     999903    2    3    3    0    0  0.93520784395E-01 -0.87525433116E-01  0.13956993306E-01  0.13030341960E+00  0.19425368512E-01 0.  0.
         14    1    1    2    0    0  0.63086852383E-02  0.23578966661E-01  0.71230625606E-02  0.25426466496E-01  0.00000000000E+00 0.  1.
     999901    1    3    3    0    0 -0.99829469634E-01  0.63946466454E-01 -0.21080055867E-01  0.88820011390E+00  0.88000000000E+00 0. -1.
        -11    1    4    4    0    0  0.23336703793E-01 -0.20372672300E-01 -0.48587313080E-02  0.31361057244E-01  0.51100000000E-03 0. -1.
         11    1    4    4    0    0  0.70184080603E-01 -0.67152760815E-01  0.18815724614E-01  0.98942362358E-01  0.51100000000E-03 0.  1.
</event>
<event>
 8    1  0.1010879E+005  0.1043930E+01  0.7957747E-01            NaN
         13   -1    0    0    0    0  0.00000000000E+00  0.00000000000E+00  0.74505805969E-08  0.10566000000E+00  0.10566000000E+00 0.  1.
     999900   -1    0    0    0    0 -0.00000000000E+00 -0.00000000000E+00 -0.74505805969E-08  0.93827000000E+00  0.93827000000E+00 0.  1.
     999902    2    1    2    0    0  0.42499359485E-02 -0.16955739930E-02  0.17562197587E-01  0.10257815094E+01  0.10256209521E+01 0.  0.
     999903    2    3    3    0    0  0.83422255946E-01 -0.25581426047E-01 -0.99465089510E-01  0.13419069737E+00  0.22364192001E-01 0.  0.
         14    1    1    2    0    0 -0.42499359485E-02  0.16955739930E-02 -0.17562197587E-01  0.18148490594E-01  0.00000000000E+00 0. -1.
     999901    1    3    3    0    0 -0.79172319997E-01  0.23885852054E-01  0.11702728710E+00  0.89159081204E+00  0.88000000000E+00 0. -1.
        -11    1    4    4    0    0  0.33938177767E-01 -0.14875329189E-01 -0.27269596228E-01  0.46010513234E-01  0.51100000000E-03 0.  1.
         11    1    4    4    0    0  0.49484078179E-01 -0.10706096858E-01 -0.72195493281E-01  0.88180184136E-01  0.51100000000E-03 0. -1.
</event>
<event>
 8    1  0.1010879E+005  0.1043930E+01  0.7957747E-01            NaN
         13   -1    0    0    0    0  0.00000000000E+00  0.00000000000E+00  0.74505805969E-08  0.10566000000E+00  0.10566000000E+00 0.  1.
     999900   -1    0    0    0    0 -0.00000000000E+00 -0.00000000000E+00 -0.74505805969E-08  0.93827000000E+00  0.93827000000E+00 0. -1.
     999902    2    1    2    0    0 -0.47051902608E-02  0.18467117560E-01  0.14013736439E-01  0.10202750205E+01  0.10200007644E+01 0.  0.
     999903    2    3    3    0    0 -0.89975174802E-01 -0.63352856958E-01  0.67791024603E-01  0.13074847496E+00  0.19759152859E-01 0.  0.
         14    1    1    2    0    0  0.47051902608E-02 -0.18467117560E-01 -0.14013736439E-01  0.23654979505E-01  0.00000000000E+00 0. -1.
     999901    1    3    3    0    0  0.85269984541E-01  0.81819974518E-01 -0.53777288164E-01  0.88952654554E+00  0.88000000000E+00 0.  1.
        -11    1    4    4    0    0 -0.58255637981E-01 -0.31310182188E-01  0.46734139231E-01  0.80983873431E-01  0.51100000000E-03 0.  1.
         11    1    4    4    0    0 -0.31719536821E-01 -0.32042674770E-01  0.21056885372E-01  0.49764601527E-01  0.51100000000E-03 0. -1.
</event>
<event>
 8    1  0.1010879E+005  0.1043930E+01  0.7957747E-01            NaN
         13   -1    0    0    0    0  0.00000000000E+00  0.00000000000E+00  0.74505805969E-08  0.10566000000E+00  0.10566000000E+00 0. -1.
     999900   -1    0    0    0    0 -0.00000000000E+00 -0.00000000000E+00 -0.74505805969E-08  0.93827000000E+00  0.93827000000E+00 0.  1.
     999902    2    1    2    0    0 -0.89939625577E-02 -0.68368658703E-02 -0.21897476322E-01  0.10192899195E+01  0.10189920542E+01 0.  0.
     999903    2    3    3    0    0 -0.46159328191E-01  0.14724185490E-01 -0.12161477614E+00  0.13261653927E+00  0.21201591821E-01 0.  0.
         14    1    1    2    0    0  0.89939625577E-02  0.68368658703E-02  0.21897476322E-01  0.24640080493E-01  0.00000000000E+00 0. -1.
     999901    1    3    3    0    0  0.37165365634E-01 -0.21561051360E-01  0.99717299814E-01  0.88667338024E+00  0.88000000000E+00 0. -1.
        -11    1    4    4    0    0 -0.28919017392E-01 -0.16869025091E-02 -0.70911461435E-01  0.76601903963E-01  0.51100000000E-03 0. -1.
         11    1    4    4    0    0 -0.17240310800E-01  0.16411087999E-01 -0.50703314702E-01  0.56014635307E-01  0.51100000000E-03 0.  1.
</event>
<event>
 8    1  0.1010879E+005  0.1043930E+01  0.7957747E-01            NaN
         13   -1    0    0    0    0  0.00000000000E+00  0.00000000000E+00  0.74505805969E-08  0.10566000000E+00  0.10566000000E+00 0. -1.
     999900   -1    0    0    0    0 -0.00000000000E+00 -0.00000000000E+00 -0.74505805969E-08  0.93827000000E+00  0.93827000000E+00 0. -1.
     999902    2    1    2    0    0  0.19469099350E-01  0.71370629862E-02 -0.67018539439E-02  0.10221378376E+01  0.10219055047E+01 0.  0.
     999903    2    3    3    0    0 -0.40901765298E-01  0.11321918819E+00  0.50048216328E-01  0.13190268376E+00  0.20048816557E-01 0.  0.
         14    1    1    2    0    0 -0.19469099350E-01 -0.71370629862E-02  0.67018539439E-02  0.21792162441E-01  0.00000000000E+00 0. -1.
     999901    1    3    3    0    0  0.60370864648E-01 -0.10608212521E+00 -0.56750070272E-01  0.89023515380E+00  0.88000000000E+00 0. -1.
        -11    1    4    4    0    0 -0.18580066435E-01  0.67839276678E-01  0.20226402346E-01  0.73189854500E-01  0.51100000000E-03 0.  1.
         11    1    4    4    0    0 -0.22321698863E-01  0.45379911516E-01  0.29821813982E-01  0.58712829259E-01  0.51100000000E-03 0. -1.
</event>
<event>
 8    1  0.1010879E+005  0.1043930E+01  0.7957747E-01            NaN
         13   -1    0    0    0    0  0.00000000000E+00  0.00000000000E+00  0.74505805969E-08  0.10566000000E+00  0.10566000000E+00 0.  1.
     999900   -1    0    0    0    0 -0.00000000000E+00 -0.00000000000E+00 -0.74505805969E-08  0.93827000000E+00  0.93827000000E+00 0.  1.
     999902    2    1    2    0    0 -0.15452549515E-01 -0.74358579065E-02  0.16490583157E-01  0.10201389806E+01  0.10198615236E+01 0.  0.
     999903    2    3    3    0    0  0.99325544673E-01 -0.43684746623E-01  0.69521559428E-01  0.13036357230E+00  0.19684837975E-01 0.  0.
         14    1    1    2    0    0  0.15452549515E-01  0.74358579065E-02 -0.16490583157E-01  0.23791019360E-01  0.00000000000E+00 0. -1.
     999901    1    3    3    0    0 -0.11477809419E+00  0.36248888716E-01 -0.53030976271E-01  0.88977540834E+00  0.88000000000E+00 0.  1.
        -11    1    4    4    0    0  0.70342644084E-01 -0.20949419538E-01  0.47963779431E-01  0.87679821020E-01  0.51100000000E-03 0. -1.
         11    1    4    4    0    0  0.28982900589E-01 -0.22735327084E-01  0.21557779997E-01  0.42683751283E-01  0.51100000000E-03 0.  1.
</event>
<event>
 8    1  0.1010879E+005  0.1043930E+01  0.7957747E-01            NaN
         13   -1    0    0    0    0  0.00000000000E+00  0.00000000000E+00  0.74505805969E-08  0.10566000000E+00  0.10566000000E+00 0. -1.
     999900   -1    0    0    0    0 -0.00000000000E+00 -0.00000000000E+00 -0.74505805969E-08  0.93827000000E+00  0.93827000000E+00 0. -1.
     999902    2    1    2    0    0 -0.20168500618E-01  0.37826975162E-02 -0.11715402729E-01  0.10203010373E+01  0.10200273912E+01 0.  0.
     999903    2    3    3    0    0  0.47490599477E-01  0.11928655056E+00 -0.72866769408E-02  0.13016705439E+00  0.20142696069E-01 0.  0.
         14    1    1    2    0    0  0.20168500618E-01 -0.37826975162E-02  0.11715402729E-01  0.23628962711E-01  0.00000000000E+00 0.  1.
     999901    1    3    3    0    0 -0.67659100096E-01 -0.11550385305E+00 -0.44287257883E-02  0.89013398290E+00  0.88000000000E+00 0.  1.
        -11    1    4    4    0    0  0.15905743032E-01  0.36495214440E-01 -0.11537873704E-01  0.41452104760E-01  0.51100000000E-03 0. -1.
         11    1    4    4    0    0  0.31584856446E-01  0.82791336122E-01  0.42511967633E-02  0.88714949633E-01  0.51100000000E-03 0.  1.
</event>
<event>
 8    1  0.1010879E+005  0.1043930E+01  0.7957747E-01            NaN
         13   -1    0    0    0    0  0.00000000000E+00  0.00000000000E+00  0.74505805969E-08  0.10566000000E+00  0.10566000000E+00 0.  1.
     999900   -1    0    0    0    0 -0.00000000000E+00 -0.00000000000E+00 -0.74505805969E-08  0.93827000000E+00  0.93827000000E+00 0. -1.
     999902    2    1    2    0    0  0.10239861085E-01 -0.39671242911E-02 -0.22706111041E-01  0.10187077814E+01  0.10183954947E+01 0.  0.
     999903    2    3    3    0    0 -0.12191669453E+00  0.67117464846E-02  0.29744823188E-01  0.12723120073E+00  0.19856887636E-01 0.  0.
         14    1    1    2    0    0 -0.10239861085E-01  0.39671242911E-02  0.22706111041E-01  0.25222218554E-01  0.00000000000E+00 0.  1.
     999901    1    3    3    0    0  0.13215655561E+00 -0.10678870776E-01 -0.52450934229E-01  0.89147658072E+00  0.88000000000E+00 0. -1.
        -11    1    4    4    0    0 -0.45239366469E-01 -0.66529661632E-02  0.13955285073E-01  0.47810807772E-01  0.51100000000E-03 0. -1.
         11    1    4    4    0    0 -0.76677328056E-01  0.13364712648E-01  0.15789538115E-01  0.79420392954E-01  0.51100000000E-03 0.  1.
</event>
<event>
 8    1  0.1010879E+005  0.1043930E+01  0.7957747E-01            NaN
         13   -1    0    0    0    0  0.00000000000E+00  0.00000000000E+00  0.74505805969E-08  0.10566000000E+00  0.10566000000E+00 0. -1.
     999900   -1    0    0    0    0 -0.00000000000E+00 -0.00000000000E+00 -0.74505805969E-08  0.93827000000E+00  0.93827000000E+00 0. -1.
     999902    2    1    2    0    0 -0.69082836174E-02 -0.21468186755E-01 -0.79222211883E-02  0.10200266736E+01  0.10197465596E+01 0.  0.
     999903    2    3    3    0    0 -0.12121189645E-01 -0.41935279795E-01 -0.12342828263E+00  0.13222730069E+00  0.18547969303E-01 0.  0.
         14    1    1    2    0    0  0.69082836174E-02  0.21468186755E-01  0.79222211883E-02  0.23903326414E-01  0.00000000000E+00 0.  1.
     999901    1    3    3    0    0  0.52129060276E-02  0.20467093040E-01  0.11550606144E+00  0.88779937290E+00  0.88000000000E+00 0.  1.
        -11    1    4    4    0    0  0.34103452371E-02 -0.15413341460E-01 -0.54769943245E-01  0.57001836406E-01  0.51100000000E-03 0.  1.
         11    1    4    4    0    0 -0.15531534882E-01 -0.26521938336E-01 -0.68658339382E-01  0.75225464283E-01  0.51100000000E-03 0. -1.
</event>
<event>
 8    1  0.1010879E+005  0.1043930E+01  0.7957747E-01            NaN
         13   -1    0    0    0    0  0.00000000000E+00  0.00000000000E+00  0.74505805969E-08  0.10566000000E+00  0.10566000000E+00 0.  1.
     999900   -1    0    0    0    0 -0.00000000000E+00 -0.00000000000E+00 -0.74505805969E-08  0.93827000000E+00  0.93827000000E+00 0. -1.
     999902    2    1    2    0    0 -0.12357941538E-01 -0.18314690256E-01  0.79793256650E-02  0.10204392308E+01  0.10201688133E+01 0.  0.
     999903    2    3    3    0    0 -0.24767771125E-01 -0.31141660387E-03  0.12786976623E+00  0.13204076197E+00  0.21692077755E-01 0.  0.
         14    1    1    2    0    0  0.12357941538E-01  0.18314690256E-01 -0.79793256650E-02  0.23490769172E-01  0.00000000000E+00 0. -1.
     999901    1    3    3    0    0  0.12409829586E-01 -0.18003273652E-01 -0.11989044057E+00  0.88839846886E+00  0.88000000000E+00 0. -1.
        -11    1    4    4    0    0 -0.11813800818E-01 -0.83327787942E-02  0.34125104378E-01  0.37064605245E-01  0.51100000000E-03 0.  1.
         11    1    4    4    0    0 -0.12953970307E-01  0.80213621903E-02  0.93744661857E-01  0.94976156723E-01  0.51100000000E-03 0. -1.
</event>
<event>
 8    1  0.1010879E+005  0.1043930E+01  0.7957747E-01            NaN
         13   -1    0    0    0    0  0.00000000000E+00  0.00000000000E+00  0.74505805969E-08  0.10566000000E+00  0.10566000000E+00 0.  1.
     999900   -1    0    0    0    0 -0.00000000000E+00 -0.00000000000E+00 -0.74505805969E-08  0.93827000000E+00  0.93827000000E+00 0.  1.
     999902    2    1    2    0    0 -0.14700896733E-01 -0.31751849578E-02 -0.17642033747E-01  0.10207472582E+01  0.10204839663E+01 0.  0.
     999903    2    3    3    0    0  0.80748424467E-01 -0.74860366383E-01  0.63999167093E-01  0.12894311833E+00  0.20150728694E-01 0.  0.
         14    1    1    2    0    0  0.14700896733E-01  0.31751849578E-02  0.17642033747E-01  0.23182741835E-01  0.00000000000E+00 0.  1.
     999901    1    3    3    0    0 -0.95449321200E-01  0.71685181425E-01 -0.81641200840E-01  0.89180413984E+00  0.88000000000E+00 0. -1.
        -11    1    4    4    0    0  0.49202424403E-01 -0.33546386032E-01  0.39613556546E-01  0.71524356454E-01  0.51100000000E-03 0. -1.
         11    1    4    4    0    0  0.31546000064E-01 -0.41313980351E-01  0.24385610547E-01  0.57418761875E-01  0.51100000000E-03 0.  1.
</event>
<event>
 8    1  0.1010879E+005  0.1043930E+01  0.7957747E-01            NaN
         13   -1    0    0    0    0  0.00000000000E+00  0.00000000000E+00  0.74505805969E-08  0.10566000000E+00  0.10566000000E+00 0.  1.
     999900   -1    0    0    0    0 -0.00000000000E+00 -0.00000000000E+00 -0.74505805969E-08  0.93827000000E+00  0.93827000000E+00 0. -1.
     999902    2    1    2    0    0 -0.19006999441E-01  0.89385754983E-02 -0.64307019476E-02  0.10219637057E+01  0.10217276044E+01 0.  0.
     999903    2    3    3    0    0  0.15664864639E-01  0.12803566310E+00  0.24891383100E-01  0.13271271328E+00  0.18829877908E-01 0.  0.
         14    1    1    2    0    0  0.19006999441E-01 -0.89385754983E-02  0.64307019476E-02  0.21966294345E-01  0.00000000000E+00 0.  1.
     999901    1    3    3    0    0 -0.34671864080E-01 -0.11909708761E+00 -0.31322085048E-01  0.88925099238E+00  0.88000000000E+00 0. -1.
        -11    1    4    4    0    0 -0.26738885828E-02  0.45791549436E-01  0.12466261325E-01  0.47536138592E-01  0.51100000000E-03 0. -1.
         11    1    4    4    0    0  0.18338753221E-01  0.82244113668E-01  0.12425121775E-01  0.85176574684E-01  0.51100000000E-03 0.  1.
</event>
<event>
 8    1  0.1010879E+005  0.1043930E+01  0.7957747E-01            NaN
         13   -1    0    0    0    0  0.00000000000E+00  0.00000000000E+00  0.74505805969E-08  0.10566000000E+00  0.10566000000E+00 0.  1.
     999900   -1    0    0    0    0 -0.00000000000E+00 -0.00000000000E+00 -0.74505805969E-08  0.93827000000E+00  0.93827000000E+00 0. -1.
     999902    2    1    2    0    0 -0.14896346112E-01  0.41835391858E-02 -0.11308001568E-01  0.10247656052E+01  0.10245863905E+01 0.  0.
     999903    2    3    3    0    0 -0.10191893225E+00  0.52254130035E-01  0.70745973979E-01  0.13537448367E+00  0.14258160400E-01 0.  0.
         14    1    1    2    0    0  0.14896346112E-01 -0.41835391858E-02  0.11308001568E-01  0.19164394775E-01  0.00000000000E+00 0. -1.
     999901    1    3    3    0    0  0.87022586135E-01 -0.48070590850E-01 -0.82053975547E-01  0.88939112156E+00  0.88000000000E+00 0. -1.
        -11    1    4    4    0    0 -0.33594601799E-01  0.15768184121E-01  0.30761036238E-01  0.48205138439E-01  0.51100000000E-03 0. -1.
         11    1    4    4    0    0 -0.68324330448E-01  0.36485945914E-01  0.39984937741E-01  0.87169345228E-01  0.51100000000E-03 0.  1.
</event>
<event>
 8    1  0.1010879E+005  0.1043930E+01  0.7957747E-01            NaN
         13   -1    0    0    0    0  0.00000000000E+00  0.00000000000E+00  0.74505805969E-08  0.10566000000E+00  0.10566000000E+00 0. -1.
     999900   -1    0    0    0    0 -0.00000000000E+00 -0.00000000000E+00 -0.74505805969E-08  0.93827000000E+00  0.93827000000E+00 0. -1.
     999902    2    1    2    0    0 -0.30719782062E-01 -0.35830238586E-04  0.10478033154E-01  0.10114724050E+01  0.10109514977E+01 0.  0.
     999903    2    3    3    0    0  0.44752414175E-01  0.10248923150E+00 -0.41561405720E-01  0.12078977697E+00  0.18867925901E-01 0.  0.
         14    1    1    2    0    0  0.30719782062E-01  0.35830238586E-04 -0.10478033154E-01  0.32457594990E-01  0.00000000000E+00 0.  1.
     999901    1    3    3    0    0 -0.75472196237E-01 -0.10252506174E+00  0.52039438874E-01  0.89068262804E+00  0.88000000000E+00 0. -1.
        -11    1    4    4    0    0  0.33127992880E-01  0.80208049425E-01 -0.40134373567E-01  0.95612887036E-01  0.51100000000E-03 0.  1.
         11    1    4    4    0    0  0.11624421295E-01  0.22281182075E-01 -0.14270321527E-02  0.25176889936E-01  0.51100000000E-03 0. -1.
</event>
<event>
 8    1  0.1010879E+005  0.1043930E+01  0.7957747E-01            NaN
         13   -1    0    0    0    0  0.00000000000E+00  0.00000000000E+00  0.74505805969E-08  0.10566000000E+00  0.10566000000E+00 0. -1.
     999900   -1    0    0    0    0 -0.00000000000E+00 -0.00000000000E+00 -0.74505805969E-08  0.93827000000E+00  0.93827000000E+00 0.  1.
     999902    2    1    2    0    0  0.91630956475E-02 -0.40763886314E-02  0.22441197223E-01  0.10193497925E+01  0.10190533906E+01 0.  0.
     999903    2    3    3    0    0 -0.39513846773E-01 -0.90162337532E-01  0.84969238162E-01  0.13160546491E+00  0.20239460604E-01 0.  0.
         14    1    1    2    0    0 -0.91630956475E-02  0.40763886314E-02 -0.22441197223E-01  0.24580207463E-01  0.00000000000E+00 0.  1.
     999901    1    3    3    0    0  0.48676942420E-01  0.86085948901E-01 -0.62528040939E-01  0.88774432762E+00  0.88000000000E+00 0.  1.
        -11    1    4    4    0    0 -0.57290753608E-02 -0.15336942428E-01  0.53313428441E-02  0.17225807530E-01  0.51100000000E-03 0. -1.
         11    1    4    4    0    0 -0.33784771412E-01 -0.74825395104E-01  0.79637895318E-01  0.11437965739E+00  0.51100000000E-03 0.  1.
</event>
<event>
 8    1  0.1010879E+005  0.1043930E+01  0.7957747E-01            NaN
         13   -1    0    0    0    0  0.00000000000E+00  0.00000000000E+00  0.74505805969E-08  0.10566000000E+00  0.10566000000E+00 0.  1.
     999900   -1    0    0    0    0 -0.00000000000E+00 -0.00000000000E+00 -0.74505805969E-08  0.93827000000E+00  0.93827000000E+00 0. -1.
     999902    2    1    2    0    0  0.19018039196E-01  0.95241052999E-02  0.96749731978E-02  0.10205633677E+01  0.10202958336E+01 0.  0.
     999903    2    3    3    0    0  0.11302336877E+00  0.37454968290E-01 -0.55076779543E-01  0.13275149320E+00  0.20306421731E-01 0.  0.
         14    1    1    2    0    0 -0.19018039196E-01 -0.95241052999E-02 -0.96749731978E-02  0.23366632257E-01  0.00000000000E+00 0. -1.
     999901    1    3    3    0    0 -0.94005329578E-01 -0.27930862990E-01  0.64751752741E-01  0.88781187454E+00  0.88000000000E+00 0. -1.
        -11    1    4    4    0    0  0.70208337930E-01  0.12775180223E-01 -0.32113679264E-01  0.78255769510E-01  0.51100000000E-03 0.  1.
         11    1    4    4    0    0  0.42815030844E-01  0.24679788067E-01 -0.22963100278E-01  0.54495723691E-01  0.51100000000E-03 0. -1.
</event>
<event>
 8    1  0.1010879E+005  0.1043930E+01  0.7957747E-01            NaN
         13   -1    0    0    0    0  0.00000000000E+00  0.00000000000E+00  0.74505805969E-08  0.10566000000E+00  0.10566000000E+00 0. -1.
     999900   -1    0    0    0    0 -0.00000000000E+00 -0.00000000000E+00 -0.74505805969E-08  0.93827000000E+00  0.93827000000E+00 0.  1.
     999902    2    1    2    0    0 -0.19932907779E-01 -0.87747540421E-02  0.98942258964E-02  0.10200090296E+01  0.10197284970E+01 0.  0.
     999903    2    3    3    0    0  0.51707200206E-01  0.35734761897E-01 -0.10981397371E+00  0.12790844378E+00  0.18731081360E-01 0.  0.
         14    1    1    2    0    0  0.19932907779E-01  0.87747540421E-02 -0.98942258964E-02  0.23920970447E-01  0.00000000000E+00 0.  1.
     999901    1    3    3    0    0 -0.71640107985E-01 -0.44509515939E-01  0.11970819960E+00  0.89210058577E+00  0.88000000000E+00 0. -1.
        -11    1    4    4    0    0  0.38137731710E-01  0.20508897655E-01 -0.59292017814E-01  0.73422789108E-01  0.51100000000E-03 0.  1.
         11    1    4    4    0    0  0.13569468496E-01  0.15225864242E-01 -0.50521955891E-01  0.54485654674E-01  0.51100000000E-03 0. -1.
</event>
<event>
 8    1  0.1010879E+005  0.1043930E+01  0.7957747E-01            NaN
         13   -1    0    0    0    0  0.00000000000E+00  0.00000000000E+00  0.74505805969E-08  0.10566000000E+00  0.10566000000E+00 0.  1.
     999900   -1    0    0    0    0 -0.00000000000E+00 -0.00000000000E+00 -0.74505805969E-08  0.93827000000E+00  0.93827000000E+00 0.  1.
     999902    2    1    2    0    0 -0.15516696286E-02  0.16947992244E-01 -0.16266424549E-01  0.10203877255E+01  0.10201161070E+01 0.  0.
     999903    2    3    3    0    0 -0.85551799199E-01 -0.61301823857E-01 -0.75615086234E-01  0.13094895915E+00  0.18787354327E-01 0.  0.
         14    1    1    2    0    0  0.15516696286E-02 -0.16947992244E-01  0.16266424549E-01  0.23542274472E-01  0.00000000000E+00 0. -1.
     999901    1    3    3    0    0  0.84000129570E-01  0.78249816100E-01  0.59348661684E-01  0.88943876638E+00  0.88000000000E+00 0.  1.
        -11    1    4    4    0    0 -0.37025883709E-01 -0.35484509915E-01 -0.43749492507E-01  0.67411762504E-01  0.51100000000E-03 0.  1.
         11    1    4    4    0    0 -0.48525915491E-01 -0.25817313942E-01 -0.31865593727E-01  0.63537196648E-01  0.51100000000E-03 0. -1.
</event>
<event>
 8    1  0.1010879E+005  0.1043930E+01  0.7957747E-01            NaN
         13   -1    0    0    0    0  0.00000000000E+00  0.00000000000E+00  0.74505805969E-08  0.10566000000E+00  0.10566000000E+00 0.  1.
     999900   -1    0    0    0    0 -0.00000000000E+00 -0.00000000000E+00 -0.74505805969E-08  0.93827000000E+00  0.93827000000E+00 0. -1.
     999902    2    1    2    0    0  0.19008841937E-01 -0.12369726545E-01  0.95482459781E-02  0.10193227814E+01  0.10190257197E+01 0.  0.
     999903    2    3    3    0    0  0.12922249362E+00  0.17398901310E-01 -0.20270206659E-02  0.13187294787E+00  0.19626281919E-01 0.  0.
         14    1    1    2    0    0 -0.19008841937E-01  0.12369726545E-01 -0.95482459781E-02  0.24607218612E-01  0.00000000000E+00 0. -1.
     999901    1    3    3    0    0 -0.11021365168E+00 -0.29768627854E-01  0.11575266644E-01  0.88744983352E+00  0.88000000000E+00 0. -1.
        -11    1    4    4    0    0  0.52424877157E-01  0.48199813888E-02 -0.10182623433E-01  0.53624126160E-01  0.51100000000E-03 0. -1.
         11    1    4    4    0    0  0.76797616463E-01  0.12578919921E-01  0.81556027674E-02  0.78248821705E-01  0.51100000000E-03 0.  1.
</event>
<event>
 8    1  0.1010879E+005  0.1043930E+01  0.7957747E-01            NaN
         13   -1    0    0    0    0  0.00000000000E+00  0.00000000000E+00  0.74505805969E-08  0.10566000000E+00  0.10566000000E+00 0. -1.
     999900   -1    0    0    0    0 -0.00000000000E+00 -0.00000000000E+00 -0.74505805969E-08  0.93827000000E+00  0.93827000000E+00 0. -1.
     999902    2    1    2    0    0 -0.95333500768E-02 -0.75318512533E-02  0.18507366091E-01  0.10217909814E+01  0.10215511115E+01 0.  0.
     999903    2    3    3    0    0  0.92041800125E-01 -0.56661524666E-01  0.74594737778E-01  0.13281571218E+00  0.19834746003E-01 0.  0.
         14    1    1    2    0    0  0.95333500768E-02  0.75318512533E-02 -0.18507366091E-01  0.22139018646E-01  0.00000000000E+00 0.  1.
     999901    1    3    3    0    0 -0.10157515020E+00  0.49129673412E-01 -0.56087371687E-01  0.88897526918E+00  0.88000000000E+00 0.  1.
        -11    1    4    4    0    0  0.21602151025E-01 -0.17433210086E-01  0.29177595911E-01  0.40276084305E-01  0.51100000000E-03 0.  1.
         11    1    4    4    0    0  0.70439649100E-01 -0.39228314579E-01  0.45417141866E-01  0.92539627870E-01  0.51100000000E-03 0. -1.
</event>
<event>
 8    1  0.1010879E+005  0.1043930E+01  0.7957747E-01            NaN
         13   -1    0    0    0    0  0.00000000000E+00  0.00000000000E+00  0.74505805969E-08  0.10566000000E+00  0.10566000000E+00 0.  1.
     999900   -1    0    0    0    0 -0.00000000000E+00 -0.00000000000E+00 -0.74505805969E-08  0.93827000000E+00  0.93827000000E+00 0.  1.
     999902    2    1    2    0    0 -0.11863926891E-02 -0.16937282599E-01  0.14262579551E-01  0.10217556850E+01  0.10215150413E+01 0.  0.
     999903    2    3    3    0    0  0.96180654113E-01  0.40535463890E-01 -0.74912543473E-01  0.13005188837E+00  0.20193128544E-01 0.  0.
         14    1    1    2    0    0  0.11863926891E-02  0.16937282599E-01 -0.14262579551E-01  0.22174314982E-01  0.00000000000E+00 0. -1.
     999901    1    3    3    0    0 -0.97367046802E-01 -0.57472746489E-01  0.89175123024E-01  0.89170379665E+00  0.88000000000E+00 0. -1.
        -11    1    4    4    0    0  0.29045144343E-01  0.10676524188E-01 -0.33900546177E-01  0.45903341172E-01  0.51100000000E-03 0.  1.
         11    1    4    4    0    0  0.67135509770E-01  0.29858939702E-01 -0.41011997296E-01  0.84148547197E-01  0.51100000000E-03 0. -1.
</event>
<event>
 8    1  0.1010879E+005  0.1043930E+01  0.7957747E-01            NaN
         13   -1    0    0    0    0  0.00000000000E+00  0.00000000000E+00  0.74505805969E-08  0.10566000000E+00  0.10566000000E+00 0.  1.
     999900   -1    0    0    0    0 -0.00000000000E+00 -0.00000000000E+00 -0.74505805969E-08  0.93827000000E+00  0.93827000000E+00 0.  1.
     999902    2    1    2    0    0  0.68847458484E-02  0.45096592726E-02 -0.23762235431E-01  0.10187828215E+01  0.10184724134E+01 0.  0.
     999903    2    3    3    0    0  0.29082466432E-01  0.87487333413E-02 -0.12740881151E+00  0.13241195035E+00  0.19431653484E-01 0.  0.
         14    1    1    2    0    0 -0.68847458484E-02 -0.45096592726E-02  0.23762235431E-01  0.25147178467E-01  0.00000000000E+00 0.  1.
     999901    1    3    3    0    0 -0.22197720584E-01 -0.42390740686E-02  0.10364657608E+00  0.88637087118E+00  0.88000000000E+00 0. -1.
        -11    1    4    4    0    0  0.17821200212E-01  0.14531031230E-01 -0.91006615827E-01  0.93868052558E-01  0.51100000000E-03 0. -1.
         11    1    4    4    0    0  0.11261266220E-01 -0.57822978892E-02 -0.36402195680E-01  0.38543897793E-01  0.51100000000E-03 0.  1.
</event>
<event>
 8    1  0.1010879E+005  0.1043930E+01  0.7957747E-01            NaN
         13   -1    0    0    0    0  0.00000000000E+00  0.00000000000E+00  0.74505805969E-08  0.10566000000E+00  0.10566000000E+00 0. -1.
     999900   -1    0    0    0    0 -0.00000000000E+00 -0.00000000000E+00 -0.74505805969E-08  0.93827000000E+00  0.93827000000E+00 0. -1.
     999902    2    1    2    0    0 -0.20161641877E-01 -0.84840652864E-02  0.55097751173E-02  0.10213727664E+01  0.10211236454E+01 0.  0.
     999903    2    3    3    0    0 -0.59438157976E-01  0.21198423010E-01  0.11435856843E+00  0.13330083537E+00  0.26626354929E-01 0.  0.
         14    1    1    2    0    0  0.20161641877E-01  0.84840652864E-02 -0.55097751173E-02  0.22557233625E-01  0.00000000000E+00 0. -1.
     999901    1    3    3    0    0  0.39276516099E-01 -0.29682488297E-01 -0.10884879331E+00  0.88807193100E+00  0.88000000000E+00 0. -1.
        -11    1    4    4    0    0 -0.28360930549E-01  0.62550546472E-02  0.28147279163E-01  0.40447478729E-01  0.51100000000E-03 0. -1.
         11    1    4    4    0    0 -0.31077227428E-01  0.14943368363E-01  0.86211289263E-01  0.92853356644E-01  0.51100000000E-03 0.  1.
</event>
<event>
 8    1  0.1147277E+005  0.1043930E+01  0.7957747E-01            NaN
         13   -1    0    0    0    0  0.00000000000E+00  0.00000000000E+00  0.74505805969E-08  0.10566000000E+00  0.10566000000E+00 0. -1.
     999900   -1    0    0    0    0 -0.00000000000E+00 -0.00000000000E+00 -0.74505805969E-08  0.93827000000E+00  0.93827000000E+00 0. -1.
     999902    2    1    2    0    0 -0.23631483524E-01 -0.48974446894E-02 -0.25759712256E-02  0.10196592850E+01  0.10193703890E+01 0.  0.
     999903    2    3    3    0    0 -0.12865995740E+00 -0.21385498830E-01 -0.17666049707E-01  0.13313204532E+00  0.20033171994E-01 0.  0.
         14    1    1    2    0    0  0.23631483524E-01  0.48974446894E-02  0.25759712256E-02  0.24270714983E-01  0.00000000000E+00 0.  1.
     999901    1    3    3    0    0  0.10502847388E+00  0.16488054141E-01  0.15090078481E-01  0.88652723970E+00  0.88000000000E+00 0. -1.
        -11    1    4    4    0    0 -0.81240125985E-01 -0.21177439064E-01 -0.53023656744E-02  0.84123826578E-01  0.51100000000E-03 0.  1.
         11    1    4    4    0    0 -0.47419831417E-01 -0.20805976609E-03 -0.12363684032E-01  0.49008218743E-01  0.51100000000E-03 0. -1.
</event>
<event>
 8    1  0.1010879E+005  0.1043930E+01  0.7957747E-01            NaN
         13   -1    0    0    0    0  0.00000000000E+00  0.00000000000E+00  0.74505805969E-08  0.10566000000E+00  0.10566000000E+00 0. -1.
     999900   -1    0    0    0    0 -0.00000000000E+00 -0.00000000000E+00 -0.74505805969E-08  0.93827000000E+00  0.93827000000E+00 0. -1.
     999902    2    1    2    0    0 -0.19513182864E-01  0.96094738000E-02  0.87169445044E-02  0.10204973003E+01  0.10202282336E+01 0.  0.
     999903    2    3    3    0    0  0.45221171986E-01  0.11691500315E+00 -0.32652076957E-01  0.13065663523E+00  0.17056548442E-01 0.  0.
         14    1    1    2    0    0  0.19513182864E-01 -0.96094738000E-02 -0.87169445044E-02  0.23432699667E-01  0.00000000000E+00 0.  1.
     999901    1    3    3    0    0 -0.64734354850E-01 -0.10730552935E+00  0.41369021461E-01  0.88984066510E+00  0.88000000000E+00 0. -1.
        -11    1    4    4    0    0  0.21064154246E-01  0.73788636397E-01 -0.24506740916E-01  0.80556209734E-01  0.51100000000E-03 0.  1.
         11    1    4    4    0    0  0.24157017741E-01  0.43126366749E-01 -0.81453360402E-02  0.50100425500E-01  0.51100000000E-03 0. -1.
</event>
<event>
 8    1  0.1010879E+005  0.1043930E+01  0.7957747E-01            NaN
         13   -1    0    0    0    0  0.00000000000E+00  0.00000000000E+00  0.74505805969E-08  0.10566000000E+00  0.10566000000E+00 0.  1.
     999900   -1    0    0    0    0 -0.00000000000E+00 -0.00000000000E+00 -0.74505805969E-08  0.93827000000E+00  0.93827000000E+00 0. -1.
     999902    2    1    2    0    0 -0.15633420442E-01  0.17484889966E-01 -0.28212251094E-02  0.10203061874E+01  0.10200326620E+01 0.  0.
     999903    2    3    3    0    0 -0.12369193006E-01 -0.36373883356E-01 -0.12323646652E+00  0.13046841957E+00  0.18940050153E-01 0.  0.
         14    1    1    2    0    0  0.15633420442E-01 -0.17484889966E-01  0.28212251094E-02  0.23623812626E-01  0.00000000000E+00 0. -1.
     999901    1    3    3    0    0 -0.32642274360E-02  0.53858773323E-01  0.12041524141E+00  0.88983776780E+00  0.88000000000E+00 0.  1.
        -11    1    4    4    0    0 -0.75412097309E-02 -0.20822570497E-01 -0.97684136765E-01  0.10016436983E+00  0.51100000000E-03 0.  1.
         11    1    4    4    0    0 -0.48279832754E-02 -0.15551312860E-01 -0.25552329753E-01  0.30304049745E-01  0.51100000000E-03 0. -1.
</event>
<event>
 8    1  0.1010879E+005  0.1043930E+01  0.7957747E-01            NaN
         13   -1    0    0    0    0  0.00000000000E+00  0.00000000000E+00  0.74505805969E-08  0.10566000000E+00  0.10566000000E+00 0. -1.
     999900   -1    0    0    0    0 -0.00000000000E+00 -0.00000000000E+00 -0.74505805969E-08  0.93827000000E+00  0.93827000000E+00 0.  1.
     999902    2    1    2    0    0 -0.24549365397E-02 -0.10226185194E-01  0.21284811267E-01  0.10201887960E+01  0.10199125133E+01 0.  0.
     999903    2    3    3    0    0 -0.10415443064E+00  0.20807957336E-02  0.79102169701E-01  0.13236161922E+00  0.20247712425E-01 0.  0.
         14    1    1    2    0    0  0.24549365397E-02  0.10226185194E-01 -0.21284811267E-01  0.23741204007E-01  0.00000000000E+00 0.  1.
     999901    1    3    3    0    0  0.10169949410E+00 -0.12306980928E-01 -0.57817358434E-01  0.88782717677E+00  0.88000000000E+00 0. -1.
        -11    1    4    4    0    0 -0.79526208106E-01  0.91090113058E-02  0.65034677200E-01  0.10313661921E+00  0.51100000000E-03 0. -1.
         11    1    4    4    0    0 -0.24628222533E-01 -0.70282155722E-02  0.14067492501E-01  0.29225000009E-01  0.51100000000E-03 0.  1.
</event>
<event>
 8    1  0.1010879E+005  0.1043930E+01  0.7957747E-01            NaN
         13   -1    0    0    0    0  0.00000000000E+00  0.00000000000E+00  0.74505805969E-08  0.10566000000E+00  0.10566000000E+00 0. -1.
     999900   -1    0    0    0    0 -0.00000000000E+00 -0.00000000000E+00 -0.74505805969E-08  0.93827000000E+00  0.93827000000E+00 0.  1.
     999902    2    1    2    0    0  0.59682464659E-02  0.87347464031E-02  0.20999451427E-01  0.10204163291E+01  0.10201453778E+01 0.  0.
     999903    2    3    3    0    0  0.10499461918E+00 -0.71197836285E-01  0.26781135741E-01  0.13124319174E+00  0.20360358463E-01 0.  0.
         14    1    1    2    0    0 -0.59682464659E-02 -0.87347464031E-02 -0.20999451427E-01  0.23513670935E-01  0.00000000000E+00 0.  1.
     999901    1    3    3    0    0 -0.99026372718E-01  0.79932582688E-01 -0.57816843134E-02  0.88917313733E+00  0.88000000000E+00 0.  1.
        -11    1    4    4    0    0  0.53923472667E-01 -0.24503304334E-01  0.10564927484E-01  0.60166698775E-01  0.51100000000E-03 0.  1.
         11    1    4    4    0    0  0.51071146518E-01 -0.46694531951E-01  0.16216208257E-01  0.71076492963E-01  0.51100000000E-03 0. -1.
</event>
<event>
 8    1  0.1010879E+005  0.1043930E+01  0.7957747E-01            NaN
         13   -1    0    0    0    0  0.00000000000E+00  0.00000000000E+00  0.74505805969E-08  0.10566000000E+00  0.10566000000E+00 0. -1.
     999900   -1    0    0    0    0 -0.00000000000E+00 -0.00000000000E+00 -0.74505805969E-08  0.93827000000E+00  0.93827000000E+00 0.  1.
     999902    2    1    2    0    0  0.23959609267E-02 -0.47628461599E-02 -0.22751887769E-01  0.10205617795E+01  0.10202942086E+01 0.  0.
     999903    2    3    3    0    0 -0.54599659391E-01  0.92059078045E-01  0.68491386371E-01  0.12873874727E+00  0.20654258281E-01 0.  0.
         14    1    1    2    0    0 -0.23959609267E-02  0.47628461599E-02  0.22751887769E-01  0.23368220500E-01  0.00000000000E+00 0. -1.
     999901    1    3    3    0    0  0.56995620318E-01 -0.96821924205E-01 -0.91243274139E-01  0.89182303223E+00  0.88000000000E+00 0.  1.
        -11    1    4    4    0    0 -0.75266900347E-02  0.29310325735E-01  0.14889853133E-01  0.33730032684E-01  0.51100000000E-03 0. -1.
         11    1    4    4    0    0 -0.47072969356E-01  0.62748752311E-01  0.53601533237E-01  0.95008714584E-01  0.51100000000E-03 0.  1.
</event>
<event>
 8    1  0.1010879E+005  0.1043930E+01  0.7957747E-01            NaN
         13   -1    0    0    0    0  0.00000000000E+00  0.00000000000E+00  0.74505805969E-08  0.10566000000E+00  0.10566000000E+00 0. -1.
     999900   -1    0    0    0    0 -0.00000000000E+00 -0.00000000000E+00 -0.74505805969E-08  0.93827000000E+00  0.93827000000E+00 0. -1.
     999902    2    1    2    0    0  0.66617728235E-02  0.15751795638E-01 -0.11494286215E-01  0.10233237655E+01  0.10231162750E+01 0.  0.
     999903    2    3    3    0    0  0.61652697472E-01 -0.65423910523E-03  0.11541370835E+00  0.13236989532E+00  0.19999549460E-01 0.  0.
         14    1    1    2    0    0 -0.66617728235E-02 -0.15751795638E-01  0.11494286215E-01  0.20606234458E-01  0.00000000000E+00 0. -1.
     999901    1    3    3    0    0 -0.54990924649E-01  0.16406034743E-01 -0.12690799457E+00  0.89095387022E+00  0.88000000000E+00 0. -1.
        -11    1    4    4    0    0  0.21055867865E-01 -0.74473173621E-02  0.53976742674E-01  0.58417137709E-01  0.51100000000E-03 0.  1.
         11    1    4    4    0    0  0.40596829607E-01  0.67930782569E-02  0.61436965676E-01  0.73952757615E-01  0.51100000000E-03 0. -1.
</event>
<event>
 8    1  0.1010879E+005  0.1043930E+01  0.7957747E-01            NaN
         13   -1    0    0    0    0  0.00000000000E+00  0.00000000000E+00  0.74505805969E-08  0.10566000000E+00  0.10566000000E+00 0. -1.
     999900   -1    0    0    0    0 -0.00000000000E+00 -0.00000000000E+00 -0.74505805969E-08  0.93827000000E+00  0.93827000000E+00 0. -1.
     999902    2    1    2    0    0  0.14209850260E-01  0.11929291144E-01  0.14506841773E-01  0.10203784334E+01  0.10201065979E+01 0.  0.
     999903    2    3    3    0    0  0.79528794653E-01  0.91582988138E-01  0.51633857480E-01  0.13359227470E+00  0.21646425269E-01 0.  0.
         14    1    1    2    0    0 -0.14209850260E-01 -0.11929291144E-01 -0.14506841773E-01  0.23551566611E-01  0.00000000000E+00 0.  1.
     999901    1    3    3    0    0 -0.65318944393E-01 -0.79653696994E-01 -0.37127015707E-01  0.88678615869E+00  0.88000000000E+00 0. -1.
        -11    1    4    4    0    0  0.49862822596E-01  0.68653758278E-01  0.28394401748E-01  0.89477051665E-01  0.51100000000E-03 0.  1.
         11    1    4    4    0    0  0.29665972056E-01  0.22929229860E-01  0.23239455732E-01  0.44115223038E-01  0.51100000000E-03 0. -1.
</event>
<event>
 8    1  0.1010879E+005  0.1043930E+01  0.7957747E-01            NaN
         13   -1    0    0    0    0  0.00000000000E+00  0.00000000000E+00  0.74505805969E-08  0.10566000000E+00  0.10566000000E+00 0. -1.
     999900   -1    0    0    0    0 -0.00000000000E+00 -0.00000000000E+00 -0.74505805969E-08  0.93827000000E+00  0.93827000000E+00 0.  1.
     999902    2    1    2    0    0  0.10848069218E-01 -0.81717983016E-02  0.19178572281E-01  0.10204294356E+01  0.10201587898E+01 0.  0.
     999903    2    3    3    0    0  0.10823780776E+00  0.18780579875E-01  0.72340239549E-01  0.13305276543E+00  0.20044822785E-01 0.  0.
         14    1    1    2    0    0 -0.10848069218E-01  0.81717983016E-02 -0.19178572281E-01  0.23500564418E-01  0.00000000000E+00 0.  1.
     999901    1    3    3    0    0 -0.97389738546E-01 -0.26952378176E-01 -0.53161667268E-01  0.88737667015E+00  0.88000000000E+00 0.  1.
        -11    1    4    4    0    0  0.19733246451E-01  0.57024776543E-03  0.50317769141E-02  0.20379060280E-01  0.51100000000E-03 0.  1.
         11    1    4    4    0    0  0.88504561314E-01  0.18210332109E-01  0.67308462635E-01  0.11267370515E+00  0.51100000000E-03 0. -1.
</event>
<event>
 8    1  0.1010879E+005  0.1043930E+01  0.7957747E-01            NaN
         13   -1    0    0    0    0  0.00000000000E+00  0.00000000000E+00  0.74505805969E-08  0.10566000000E+00  0.10566000000E+00 0. -1.
     999900   -1    0    0    0    0 -0.00000000000E+00 -0.00000000000E+00 -0.74505805969E-08  0.93827000000E+00  0.93827000000E+00 0. -1.
     999902    2    1    2    0    0 -0.21583439689E-02  0.17932623759E-01  0.16159558250E-01  0.10196943080E+01  0.10194062551E+01 0.  0.
     999903    2    3    3    0    0  0.69216834903E-01 -0.49350101090E-01  0.96974255022E-01  0.13056417330E+00  0.20410646780E-01 0.  0.
         14    1    1    2    0    0  0.21583439689E-02 -0.17932623759E-01 -0.16159558250E-01  0.24235691993E-01  0.00000000000E+00 0.  1.
     999901    1    3    3    0    0 -0.71375178871E-01  0.67282724849E-01 -0.80814696772E-01  0.88913013470E+00  0.88000000000E+00 0. -1.
        -11    1    4    4    0    0  0.25137760062E-01 -0.21615808134E-01  0.52417572322E-01  0.62024294848E-01  0.51100000000E-03 0.  1.
         11    1    4    4    0    0  0.44079074841E-01 -0.27734292956E-01  0.44556682699E-01  0.68539878456E-01  0.51100000000E-03 0. -1.
</event>
<event>
 8    1  0.1028702E+005  0.1043930E+01  0.7957747E-01            NaN
         13   -1    0    0    0    0  0.00000000000E+00  0.00000000000E+00  0.74505805969E-08  0.10566000000E+00  0.10566000000E+00 0. -1.
     999900   -1    0    0    0    0 -0.00000000000E+00 -0.00000000000E+00 -0.74505805969E-08  0.93827000000E+00  0.93827000000E+00 0.  1.
     999902    2    1    2    0    0 -0.14546606880E-01  0.43421515151E-02 -0.17146976777E-01  0.10210285401E+01  0.10207716703E+01 0.  0.
     999903    2    3    3    0    0  0.48133124552E-01  0.11289345284E+00  0.39205546151E-01  0.13036152009E+00  0.19882698470E-01 0.  0.
         14    1    1    2    0    0  0.14546606880E-01 -0.43421515151E-02  0.17146976777E-01  0.22901459868E-01  0.00000000000E+00 0. -1.
     999901    1    3    3    0    0 -0.62679731432E-01 -0.10855130132E+00 -0.56352522928E-01  0.89066702004E+00  0.88000000000E+00 0. -1.
        -11    1    4    4    0    0  0.17884690779E-01  0.40450732710E-01  0.24254304827E-01  0.50444587070E-01  0.51100000000E-03 0.  1.
         11    1    4    4    0    0  0.30248433773E-01  0.72442720126E-01  0.14951241324E-01  0.79916933019E-01  0.51100000000E-03 0. -1.
</event>
<event>
 7    1  0.1010879E+005  0.1043930E+01  0.7957747E-01            NaN
         13   -1    0    0    0    0  0.00000000000E+00  0.00000000000E+00  0.74505805969E-08  0.10566000000E+00  0.10566000000E+00 0. -1.
     999900   -1    0    0    0    0 -0.00000000000E+00 -0.00000000000E+00 -0.74505805969E-08  0.93827000000E+00  0.93827000000E+00 0. -1.
     999902    2    1    2    0    0  0.72271624616E-02  0.21191700892E-01 -0.77130403257E-02  0.10202485504E+01  0.10199736730E+01 0.  0.
         14    1    1    2    0    0 -0.72271624616E-02 -0.21191700892E-01  0.77130403257E-02  0.23681449597E-01  0.00000000000E+00 0.  1.
     999901    1    3    3    0    0  0.69912516716E-01  0.98012936481E-01 -0.68610702842E-01  0.89084326582E+00  0.88000000000E+00 0. -1.
        -11    1    3    3    0    0 -0.18256093298E-01 -0.65541305381E-01  0.40955083518E-01  0.79413648956E-01  0.51100000000E-03 0. -1.
         11    1    3    3    0    0 -0.44429260956E-01 -0.11279930208E-01  0.19942578998E-01  0.49991635628E-01  0.51100000000E-03 0.  1.
</event>
<event>
 8    1  0.1010879E+005  0.1043930E+01  0.7957747E-01            NaN
         13   -1    0    0    0    0  0.00000000000E+00  0.00000000000E+00  0.74505805969E-08  0.10566000000E+00  0.10566000000E+00 0.  1.
     999900   -1    0    0    0    0 -0.00000000000E+00 -0.00000000000E+00 -0.74505805969E-08  0.93827000000E+00  0.93827000000E+00 0.  1.
     999902    2    1    2    0    0 -0.67126883790E-02  0.12487136739E-01  0.20333020981E-01  0.10191424928E+01  0.10188410083E+01 0.  0.
     999903    2    3    3    0    0  0.51616774735E-01 -0.49695390072E-01 -0.10242428250E+00  0.12654048272E+00  0.19693574910E-01 0.  0.
         14    1    1    2    0    0  0.67126883790E-02 -0.12487136739E-01 -0.20333020981E-01  0.24787507164E-01  0.00000000000E+00 0. -1.
     999901    1    3    3    0    0 -0.58329463114E-01  0.62182526811E-01  0.12275730348E+00  0.89260201012E+00  0.88000000000E+00 0. -1.
        -11    1    4    4    0    0  0.40661467313E-01 -0.28845319965E-01 -0.59969147823E-01  0.77986968267E-01  0.51100000000E-03 0.  1.
         11    1    4    4    0    0  0.10955307422E-01 -0.20850070107E-01 -0.42455134676E-01  0.48553514451E-01  0.51100000000E-03 0. -1.
</event>
<event>
 8    1  0.1010879E+005  0.1043930E+01  0.7957747E-01            NaN
         13   -1    0    0    0    0  0.00000000000E+00  0.00000000000E+00  0.74505805969E-08  0.10566000000E+00  0.10566000000E+00 0. -1.
     999900   -1    0    0    0    0 -0.00000000000E+00 -0.00000000000E+00 -0.74505805969E-08  0.93827000000E+00  0.93827000000E+00 0.  1.
     999902    2    1    2    0    0 -0.13623339819E-01  0.54902864412E-04  0.27707674739E-01  0.10130542224E+01  0.10125835985E+01 0.  0.
     999903    2    3    3    0    0 -0.46999944170E-01 -0.13760109777E-01 -0.10961447024E+00  0.12167202392E+00  0.19758895322E-01 0.  0.
         14    1    1    2    0    0  0.13623339819E-01 -0.54902864412E-04 -0.27707674739E-01  0.30875777587E-01  0.00000000000E+00 0.  1.
     999901    1    3    3    0    0  0.33376604352E-01  0.13815012641E-01  0.13732214498E+00  0.89138219850E+00  0.88000000000E+00 0. -1.
        -11    1    4    4    0    0 -0.21349048181E-01 -0.11308856352E-01 -0.73005983158E-01  0.76901279496E-01  0.51100000000E-03 0.  1.
         11    1    4    4    0    0 -0.25650895989E-01 -0.24512534252E-02 -0.36608487085E-01  0.44770744422E-01  0.51100000000E-03 0. -1.
</event>
<event>
 8    1  0.1010879E+005  0.1043930E+01  0.7957747E-01            NaN
         13   -1    0    0    0    0  0.00000000000E+00  0.00000000000E+00  0.74505805969E-08  0.10566000000E+00  0.10566000000E+00 0.  1.
     999900   -1    0    0    0    0 -0.00000000000E+00 -0.00000000000E+00 -0.74505805969E-08  0.93827000000E+00  0.93827000000E+00 0. -1.
     999902    2    1    2    0    0 -0.90689362146E-02  0.10103837731E-01 -0.28879292380E-01  0.10120184555E+01  0.10115152039E+01 0.  0.
     999903    2    3    3    0    0  0.60754237625E-01  0.10227690132E+00 -0.31671961031E-01  0.12444933246E+00  0.18245034969E-01 0.  0.
         14    1    1    2    0    0  0.90689362146E-02 -0.10103837731E-01  0.28879292380E-01  0.31911544452E-01  0.00000000000E+00 0.  1.
     999901    1    3    3    0    0 -0.69823173839E-01 -0.92173063592E-01  0.27926686510E-02  0.88756912309E+00  0.88000000000E+00 0. -1.
        -11    1    4    4    0    0  0.23458229699E-01  0.28113887051E-01 -0.16031260708E-01  0.39974262052E-01  0.51100000000E-03 0.  1.
         11    1    4    4    0    0  0.37296007926E-01  0.74163014272E-01 -0.15640700323E-01  0.84475070410E-01  0.51100000000E-03 0. -1.
</event>
<event>
 8    1  0.1010879E+005  0.1043930E+01  0.7957747E-01            NaN
         13   -1    0    0    0    0  0.00000000000E+00  0.00000000000E+00  0.74505805969E-08  0.10566000000E+00  0.10566000000E+00 0. -1.
     999900   -1    0    0    0    0 -0.00000000000E+00 -0.00000000000E+00 -0.74505805969E-08  0.93827000000E+00  0.93827000000E+00 0.  1.
     999902    2    1    2    0    0 -0.66812462287E-02 -0.23107007923E-01  0.85842558772E-02  0.10183905733E+01  0.10180702812E+01 0.  0.
     999903    2    3    3    0    0  0.12611742025E+00 -0.52375176978E-02  0.10455304324E-01  0.12824546980E+00  0.20113474383E-01 0.  0.
         14    1    1    2    0    0  0.66812462287E-02  0.23107007923E-01 -0.85842558772E-02  0.25539426683E-01  0.00000000000E+00 0. -1.
     999901    1    3    3    0    0 -0.13279866648E+00 -0.17869490226E-01 -0.18710484468E-02  0.89014510352E+00  0.88000000000E+00 0.  1.
        -11    1    4    4    0    0  0.40293280994E-01 -0.97958851952E-03 -0.60010638709E-02  0.40752692862E-01  0.51100000000E-03 0.  1.
         11    1    4    4    0    0  0.85824139259E-01 -0.42579291782E-02  0.16456368195E-01  0.87492776933E-01  0.51100000000E-03 0. -1.
</event>
<event>
 8    1  0.1010879E+005  0.1043930E+01  0.7957747E-01            NaN
         13   -1    0    0    0    0  0.00000000000E+00  0.00000000000E+00  0.74505805969E-08  0.10566000000E+00  0.10566000000E+00 0.  1.
     999900   -1    0    0    0    0 -0.00000000000E+00 -0.00000000000E+00 -0.74505805969E-08  0.93827000000E+00  0.93827000000E+00 0. -1.
     999902    2    1    2    0    0 -0.21672862452E-01 -0.79414664236E-02 -0.57788504870E-02  0.10201355685E+01  0.10198580309E+01 0.  0.
     999903    2    3    3    0    0 -0.39131484824E-01  0.19989053625E-01 -0.12263579043E+00  0.13179978638E+00  0.20020270367E-01 0.  0.
         14    1    1    2    0    0  0.21672862452E-01  0.79414664236E-02  0.57788504870E-02  0.23794431466E-01  0.00000000000E+00 0. -1.
     999901    1    3    3    0    0  0.17458622371E-01 -0.27930520048E-01  0.11685693994E+00  0.88833578216E+00  0.88000000000E+00 0.  1.
        -11    1    4    4    0    0 -0.15908310717E-01  0.18231451743E-01 -0.50578651748E-01  0.56070681432E-01  0.51100000000E-03 0. -1.
         11    1    4    4    0    0 -0.23223174107E-01  0.17576018813E-02 -0.72057138682E-01  0.75729104947E-01  0.51100000000E-03 0.  1.
</event>
<event>
 8    1  0.1010879E+005  0.1043930E+01  0.7957747E-01            NaN
         13   -1    0    0    0    0  0.00000000000E+00  0.00000000000E+00  0.74505805969E-08  0.10566000000E+00  0.10566000000E+00 0.  1.
     999900   -1    0    0    0    0 -0.00000000000E+00 -0.00000000000E+00 -0.74505805969E-08  0.93827000000E+00  0.93827000000E+00 0. -1.
     999902    2    1    2    0    0 -0.17151630092E-01  0.78173148423E-02 -0.14062479380E-01  0.10204131517E+01  0.10201421264E+01 0.  0.
     999903    2    3    3    0    0 -0.33419633161E-01 -0.66798863581E-01 -0.10744840688E+00  0.13218280241E+00  0.18659395874E-01 0.  0.
         14    1    1    2    0    0  0.17151630092E-01 -0.78173148423E-02  0.14062479380E-01  0.23516848268E-01  0.00000000000E+00 0.  1.
     999901    1    3    3    0    0  0.16268003069E-01  0.74616178423E-01  0.93385927502E-01  0.88823034932E+00  0.88000000000E+00 0.  1.
        -11    1    4    4    0    0 -0.13791291070E-01 -0.10542417620E-01 -0.25980908030E-01  0.31250775698E-01  0.51100000000E-03 0.  1.
         11    1    4    4    0    0 -0.19628342090E-01 -0.56256445961E-01 -0.81467498852E-01  0.10093202671E+00  0.51100000000E-03 0. -1.
</event>
<event>
 8    1  0.1010879E+005  0.1043930E+01  0.7957747E-01            NaN
         13   -1    0    0    0    0  0.00000000000E+00  0.00000000000E+00  0.74505805969E-08  0.10566000000E+00  0.10566000000E+00 0.  1.
     999900   -1    0    0    0    0 -0.00000000000E+00 -0.00000000000E+00 -0.74505805969E-08  0.93827000000E+00  0.93827000000E+00 0.  1.
     999902    2    1    2    0    0 -0.25268800561E-02 -0.23595585915E-01 -0.25097798225E-02  0.10200671462E+01  0.10197879912E+01 0.  0.
     999903    2    3    3    0    0  0.11861119874E-01 -0.96012079948E-02  0.12616465763E+00  0.13048299164E+00  0.29587512781E-01 0.  0.
         14    1    1    2    0    0  0.25268800561E-02  0.23595585915E-01  0.25097798225E-02  0.23862853816E-01  0.00000000000E+00 0. -1.
     999901    1    3    3    0    0 -0.14387999930E-01 -0.13994377920E-01 -0.12867443746E+00  0.88958415454E+00  0.88000000000E+00 0.  1.
        -11    1    4    4    0    0  0.16582118742E-01 -0.10444170250E-02  0.34482569565E-01  0.38280101798E-01  0.51100000000E-03 0. -1.
         11    1    4    4    0    0 -0.47209988674E-02 -0.85567909697E-02  0.91682088069E-01  0.92202889845E-01  0.51100000000E-03 0.  1.
</event>
<event>
 8    1  0.1010879E+005  0.1043930E+01  0.7957747E-01            NaN
         13   -1    0    0    0    0  0.00000000000E+00  0.00000000000E+00  0.74505805969E-08  0.10566000000E+00  0.10566000000E+00 0.  1.
     999900   -1    0    0    0    0 -0.00000000000E+00 -0.00000000000E+00 -0.74505805969E-08  0.93827000000E+00  0.93827000000E+00 0.  1.
     999902    2    1    2    0    0  0.99805241519E-03  0.23938537820E-01  0.61669211270E-02  0.10191897369E+01  0.10188894146E+01 0.  0.
     999903    2    3    3    0    0  0.62592788548E-01  0.35120892715E-01 -0.10626892446E+00  0.12982998071E+00  0.20283128514E-01 0.  0.
         14    1    1    2    0    0 -0.99805241519E-03 -0.23938537820E-01 -0.61669211270E-02  0.24740263090E-01  0.00000000000E+00 0. -1.
     999901    1    3    3    0    0 -0.61594736133E-01 -0.11182354895E-01  0.11243584558E+00  0.88935975620E+00  0.88000000000E+00 0. -1.
        -11    1    4    4    0    0  0.41938996122E-01  0.26170549603E-01 -0.55699620313E-01  0.74474733208E-01  0.51100000000E-03 0. -1.
         11    1    4    4    0    0  0.20653792426E-01  0.89503431115E-02 -0.50569304142E-01  0.55355247500E-01  0.51100000000E-03 0.  1.
</event>
<event>
 8    1  0.1010879E+005  0.1043930E+01  0.7957747E-01            NaN
         13   -1    0    0    0    0  0.00000000000E+00  0.00000000000E+00  0.74505805969E-08  0.10566000000E+00  0.10566000000E+00 0. -1.
     999900   -1    0    0    0    0 -0.00000000000E+00 -0.00000000000E+00 -0.74505805969E-08  0.93827000000E+00  0.93827000000E+00 0.  1.
     999902    2    1    2    0    0 -0.52572154143E-02  0.14828096340E-01  0.15088808892E-01  0.10221313095E+01  0.10218988359E+01 0.  0.
     999903    2    3    3    0    0 -0.40382514344E-01  0.10312309110E+00 -0.70471968811E-01  0.13288981280E+00  0.20695037415E-01 0.  0.
         14    1    1    2    0    0  0.52572154143E-02 -0.14828096340E-01 -0.15088808892E-01  0.21798690528E-01  0.00000000000E+00 0.  1.
     999901    1    3    3    0    0  0.35125298930E-01 -0.88294994765E-01  0.85560777703E-01  0.88924149667E+00  0.88000000000E+00 0. -1.
        -11    1    4    4    0    0 -0.52904584077E-02  0.39942313957E-01 -0.22604397980E-01  0.46201702603E-01  0.51100000000E-03 0. -1.
         11    1    4    4    0    0 -0.35092055937E-01  0.63180777148E-01 -0.47867570831E-01  0.86688110195E-01  0.51100000000E-03 0.  1.
</event>
<event>
 8    1  0.1010879E+005  0.1043930E+01  0.7957747E-01            NaN
         13   -1    0    0    0    0  0.00000000000E+00  0.00000000000E+00  0.74505805969E-08  0.10566000000E+00  0.10566000000E+00 0. -1.
     999900   -1    0    0    0    0 -0.00000000000E+00 -0.00000000000E+00 -0.74505805969E-08  0.93827000000E+00  0.93827000000E+00 0. -1.
     999902    2    1    2    0    0 -0.21528136736E-01 -0.60279828267E-02 -0.87660626865E-02  0.10199166474E+01  0.10196339179E+01 0.  0.
     999903    2    3    3    0    0 -0.51765297351E-01  0.62484666113E-01  0.99708361068E-01  0.13009926750E+00  0.20002065628E-01 0.  0.
         14    1    1    2    0    0  0.21528136736E-01  0.60279828267E-02  0.87660626865E-02  0.24013352605E-01  0.00000000000E+00 0.  1.
     999901    1    3    3    0    0  0.30237160615E-01 -0.68512648940E-01 -0.10847442375E+00  0.88981737989E+00  0.88000000000E+00 0. -1.
        -11    1    4    4    0    0 -0.21661724244E-01  0.38212048472E-01  0.62811428134E-01  0.76648076106E-01  0.51100000000E-03 0.  1.
         11    1    4    4    0    0 -0.30103573107E-01  0.24272617641E-01  0.36896932934E-01  0.53451191399E-01  0.51100000000E-03 0. -1.
</event>
<event>
 8    1  0.1010879E+005  0.1043930E+01  0.7957747E-01            NaN
         13   -1    0    0    0    0  0.00000000000E+00  0.00000000000E+00  0.74505805969E-08  0.10566000000E+00  0.10566000000E+00 0.  1.
     999900   -1    0    0    0    0 -0.00000000000E+00 -0.00000000000E+00 -0.74505805969E-08  0.93827000000E+00  0.93827000000E+00 0. -1.
     999902    2    1    2    0    0  0.13347349893E-02 -0.89063339922E-02  0.22069565019E-01  0.10200936831E+01  0.10198151560E+01 0.  0.
     999903    2    3    3    0    0 -0.34883842520E-01  0.10248879262E-01  0.12636245782E+00  0.13298843849E+00  0.19913112015E-01 0.  0.
         14    1    1    2    0    0 -0.13347349893E-02  0.89063339922E-02 -0.22069565019E-01  0.23836316888E-01  0.00000000000E+00 0. -1.
     999901    1    3    3    0    0  0.36218577510E-01 -0.19155213254E-01 -0.10429289280E+00  0.88710524462E+00  0.88000000000E+00 0. -1.
        -11    1    4    4    0    0 -0.18713438590E-01  0.42610047400E-02  0.34156597954E-01  0.39182690694E-01  0.51100000000E-03 0. -1.
         11    1    4    4    0    0 -0.16170403931E-01  0.59878745219E-02  0.92205859865E-01  0.93805747793E-01  0.51100000000E-03 0.  1.
</event>
<event>
 8    1  0.1010879E+005  0.1043930E+01  0.7957747E-01            NaN
         13   -1    0    0    0    0  0.00000000000E+00  0.00000000000E+00  0.74505805969E-08  0.10566000000E+00  0.10566000000E+00 0. -1.
     999900   -1    0    0    0    0 -0.00000000000E+00 -0.00000000000E+00 -0.74505805969E-08  0.93827000000E+00  0.93827000000E+00 0. -1.
     999902    2    1    2    0    0 -0.12497120303E-01  0.19903323749E-02  0.20374289251E-01  0.10199456071E+01  0.10196635673E+01 0.  0.
     999903    2    3    3    0    0 -0.12299754559E-01  0.88787901342E-01 -0.90228646397E-01  0.12878520277E+00  0.20244614938E-01 0.  0.
         14    1    1    2    0    0  0.12497120303E-01 -0.19903323749E-02 -0.20374289251E-01  0.23984392870E-01  0.00000000000E+00 0.  1.
     999901    1    3    3    0    0 -0.19736574417E-03 -0.86797568967E-01  0.11060293565E+00  0.89116040436E+00  0.88000000000E+00 0.  1.
        -11    1    4    4    0    0 -0.13287926047E-01  0.33979030642E-01 -0.43279948676E-01  0.56608820695E-01  0.51100000000E-03 0. -1.
         11    1    4    4    0    0  0.98817148803E-03  0.54808870699E-01 -0.46948697721E-01  0.72176382071E-01  0.51100000000E-03 0.  1.
</event>
<event>
 8    1  0.1010879E+005  0.1043930E+01  0.7957747E-01            NaN
         13   -1    0    0    0    0  0.00000000000E+00  0.00000000000E+00  0.74505805969E-08  0.10566000000E+00  0.10566000000E+00 0.  1.
     999900   -1    0    0    0    0 -0.00000000000E+00 -0.00000000000E+00 -0.74505805969E-08  0.93827000000E+00  0.93827000000E+00 0.  1.
     999902    2    1    2    0    0 -0.74934380237E-02 -0.18453122707E-01  0.11679067141E-01  0.10208416921E+01  0.10205805654E+01 0.  0.
     999903    2    3    3    0    0  0.97935030661E-02  0.54718840317E-01 -0.11432036313E+00  0.12869325665E+00  0.20068500028E-01 0.  0.
         14    1    1    2    0    0  0.74934380237E-02  0.18453122707E-01 -0.11679067141E-01  0.23088307871E-01  0.00000000000E+00 0. -1.
     999901    1    3    3    0    0 -0.17286941090E-01 -0.73171963024E-01  0.12599943027E+00  0.89214843548E+00  0.88000000000E+00 0. -1.
        -11    1    4    4    0    0  0.12736834841E-01  0.34278838047E-01 -0.56597844745E-01  0.67385776321E-01  0.51100000000E-03 0.  1.
         11    1    4    4    0    0 -0.29433317752E-02  0.20440002270E-01 -0.57722518381E-01  0.61307480327E-01  0.51100000000E-03 0. -1.
</event>
<event>
 8    1  0.1010879E+005  0.1043930E+01  0.7957747E-01            NaN
         13   -1    0    0    0    0  0.00000000000E+00  0.00000000000E+00  0.74505805969E-08  0.10566000000E+00  0.10566000000E+00 0. -1.
     999900   -1    0    0    0    0 -0.00000000000E+00 -0.00000000000E+00 -0.74505805969E-08  0.93827000000E+00  0.93827000000E+00 0. -1.
     999902    2    1    2    0    0 -0.18769207584E-01 -0.73806740188E-02  0.13807009500E-01  0.10194884163E+01  0.10191953885E+01 0.  0.
     999903    2    3    3    0    0  0.52902938829E-01  0.39358578557E-01 -0.10664282004E+00  0.12717142345E+00  0.21261731631E-01 0.  0.
         14    1    1    2    0    0  0.18769207584E-01  0.73806740188E-02 -0.13807009500E-01  0.24441583698E-01  0.00000000000E+00 0. -1.
     999901    1    3    3    0    0 -0.71672146413E-01 -0.46739252576E-01  0.12044982954E+00  0.89231699286E+00  0.88000000000E+00 0.  1.
        -11    1    4    4    0    0  0.34796409510E-01  0.23459137204E-01 -0.84920159740E-01  0.94724948585E-01  0.51100000000E-03 0.  1.
         11    1    4    4    0    0  0.18106529318E-01  0.15899441353E-01 -0.21722660302E-01  0.32446474861E-01  0.51100000000E-03 0. -1.
</event>
<event>
 8    1  0.1010879E+005  0.1043930E+01  0.7957747E-01            NaN
         13   -1    0    0    0    0  0.00000000000E+00  0.00000000000E+00  0.74505805969E-08  0.10566000000E+00  0.10566000000E+00 0.  1.
     999900   -1    0    0    0    0 -0.00000000000E+00 -0.00000000000E+00 -0.74505805969E-08  0.93827000000E+00  0.93827000000E+00 0.  1.
     999902    2    1    2    0    0 -0.22182860913E-01  0.57251353153E-02  0.27886821108E-03  0.10210185561E+01  0.10207614597E+01 0.  0.
     999903    2    3    3    0    0  0.12704205979E+00 -0.12973889238E-02 -0.29510396701E-02  0.12842244080E+00  0.18499905150E-01 0.  0.
         14    1    1    2    0    0  0.22182860913E-01 -0.57251353153E-02 -0.27886821108E-03  0.22911443868E-01  0.00000000000E+00 0. -1.
     999901    1    3    3    0    0 -0.14922492071E+00  0.70225242392E-02  0.32299078811E-02  0.89259611534E+00  0.88000000000E+00 0.  1.
        -11    1    4    4    0    0  0.28320605067E-01  0.18990143161E-02  0.67270013259E-02  0.29174930926E-01  0.51100000000E-03 0.  1.
         11    1    4    4    0    0  0.98721454726E-01 -0.31964032399E-02 -0.96780409959E-02  0.99247509870E-01  0.51100000000E-03 0. -1.
</event>
<event>
 8    1  0.1208775E+005  0.1043930E+01  0.7957747E-01            NaN
         13   -1    0    0    0    0  0.00000000000E+00  0.00000000000E+00  0.74505805969E-08  0.10566000000E+00  0.10566000000E+00 0. -1.
     999900   -1    0    0    0    0 -0.00000000000E+00 -0.00000000000E+00 -0.74505805969E-08  0.93827000000E+00  0.93827000000E+00 0. -1.
     999902    2    1    2    0    0  0.46985561888E-02 -0.58729047944E-03 -0.22993959147E-01  0.10204535544E+01  0.10201834704E+01 0.  0.
     999903    2    3    3    0    0 -0.61413346276E-02  0.44890607248E-01 -0.12388574594E+00  0.13345586836E+00  0.20246188312E-01 0.  0.
         14    1    1    2    0    0 -0.46985561888E-02  0.58729047944E-03  0.22993959147E-01  0.23476445592E-01  0.00000000000E+00 0. -1.
     999901    1    3    3    0    0  0.10839890816E-01 -0.45477897727E-01  0.10089178680E+00  0.88699768605E+00  0.88000000000E+00 0.  1.
        -11    1    4    4    0    0 -0.46033808467E-02  0.40774611858E-02 -0.36218155638E-01  0.36740069730E-01  0.51100000000E-03 0. -1.
         11    1    4    4    0    0 -0.15379537809E-02  0.40813146062E-01 -0.87667590305E-01  0.96715798628E-01  0.51100000000E-03 0.  1.
</event>
<event>
 8    1  0.1010879E+005  0.1043930E+01  0.7957747E-01            NaN
         13   -1    0    0    0    0  0.00000000000E+00  0.00000000000E+00  0.74505805969E-08  0.10566000000E+00  0.10566000000E+00 0.  1.
     999900   -1    0    0    0    0 -0.00000000000E+00 -0.00000000000E+00 -0.74505805969E-08  0.93827000000E+00  0.93827000000E+00 0.  1.
     999902    2    1    2    0    0 -0.89242704602E-02 -0.21854141334E-01  0.20671185812E-02  0.10202336063E+01  0.10199583777E+01 0.  0.
     999903    2    3    3    0    0 -0.85759720713E-01  0.31400960745E-01 -0.90876761284E-01  0.13041432286E+00  0.20212863086E-01 0.  0.
         14    1    1    2    0    0  0.89242704602E-02  0.21854141334E-01 -0.20671185812E-02  0.23696393732E-01  0.00000000000E+00 0. -1.
     999901    1    3    3    0    0  0.76835450253E-01 -0.53255102079E-01  0.92943879865E-01  0.88981928340E+00  0.88000000000E+00 0. -1.
        -11    1    4    4    0    0 -0.72274499687E-01  0.33239603788E-01 -0.73261461325E-01  0.10814794220E+00  0.51100000000E-03 0.  1.
         11    1    4    4    0    0 -0.13485221026E-01 -0.18386430433E-02 -0.17615299959E-01  0.22266380667E-01  0.51100000000E-03 0. -1.
</event>
<event>
 8    1  0.1010879E+005  0.1043930E+01  0.7957747E-01            NaN
         13   -1    0    0    0    0  0.00000000000E+00  0.00000000000E+00  0.74505805969E-08  0.10566000000E+00  0.10566000000E+00 0. -1.
     999900   -1    0    0    0    0 -0.00000000000E+00 -0.00000000000E+00 -0.74505805969E-08  0.93827000000E+00  0.93827000000E+00 0. -1.
     999902    2    1    2    0    0 -0.25804205144E-02 -0.16956451861E-01 -0.14652681952E-01  0.10213716109E+01  0.10211224641E+01 0.  0.
     999903    2    3    3    0    0  0.92166246242E-01  0.76221122411E-01  0.45261317240E-01  0.12938019924E+00  0.19656364575E-01 0.  0.
         14    1    1    2    0    0  0.25804205144E-02  0.16956451861E-01  0.14652681952E-01  0.22558389085E-01  0.00000000000E+00 0. -1.
     999901    1    3    3    0    0 -0.94746666756E-01 -0.93177574272E-01 -0.59913999192E-01  0.89199141168E+00  0.88000000000E+00 0. -1.
        -11    1    4    4    0    0  0.79136231413E-01  0.56950015050E-01  0.32100358829E-01  0.10264765703E+00  0.51100000000E-03 0.  1.
         11    1    4    4    0    0  0.13030014828E-01  0.19271107361E-01  0.13160958411E-01  0.26732542203E-01  0.51100000000E-03 0. -1.
</event>
<event>
 8    1  0.1010879E+005  0.1043930E+01  0.7957747E-01            NaN
         13   -1    0    0    0    0  0.00000000000E+00  0.00000000000E+00  0.74505805969E-08  0.10566000000E+00  0.10566000000E+00 0. -1.
     999900   -1    0    0    0    0 -0.00000000000E+00 -0.00000000000E+00 -0.74505805969E-08  0.93827000000E+00  0.93827000000E+00 0.  1.
     999902    2    1    2    0    0  0.72160464273E-03 -0.71164754275E-03  0.23618851968E-01  0.10202894136E+01  0.10200154951E+01 0.  0.
     999903    2    3    3    0    0  0.23162556628E-01 -0.44836908382E-01 -0.11579053137E+00  0.12794104493E+00  0.20362009722E-01 0.  0.
         14    1    1    2    0    0 -0.72160464273E-03  0.71164754275E-03 -0.23618851968E-01  0.23640586367E-01  0.00000000000E+00 0.  1.
     999901    1    3    3    0    0 -0.22440951985E-01  0.44125260839E-01  0.13940938334E+00  0.89234836871E+00  0.88000000000E+00 0. -1.
        -11    1    4    4    0    0  0.86666348050E-02 -0.19035723493E-01 -0.72797519046E-01  0.75744367632E-01  0.51100000000E-03 0. -1.
         11    1    4    4    0    0  0.14495921823E-01 -0.25801184889E-01 -0.42993012322E-01  0.52196677295E-01  0.51100000000E-03 0.  1.
</event>
<event>
 8    1  0.1010879E+005  0.1043930E+01  0.7957747E-01            NaN
         13   -1    0    0    0    0  0.00000000000E+00  0.00000000000E+00  0.74505805969E-08  0.10566000000E+00  0.10566000000E+00 0. -1.
     999900   -1    0    0    0    0 -0.00000000000E+00 -0.00000000000E+00 -0.74505805969E-08  0.93827000000E+00  0.93827000000E+00 0. -1.
     999902    2    1    2    0    0 -0.18491161655E-01 -0.37303838828E-02  0.13243717494E-01  0.10208814669E+01  0.10206212494E+01 0.  0.
     999903    2    3    3    0    0  0.87288807059E-02 -0.16288808478E-01  0.13008819327E+00  0.13265217433E+00  0.18224782137E-01 0.  0.
         14    1    1    2    0    0  0.18491161655E-01  0.37303838828E-02 -0.13243717494E-01  0.23048533062E-01  0.00000000000E+00 0.  1.
     999901    1    3    3    0    0 -0.27220042360E-01  0.12558424596E-01 -0.11684447578E+00  0.88822929261E+00  0.88000000000E+00 0. -1.
        -11    1    4    4    0    0  0.11372156492E-01 -0.18990317132E-01  0.11112984654E+00  0.11331399737E+00  0.51100000000E-03 0. -1.
         11    1    4    4    0    0 -0.26432757857E-02  0.27015086540E-02  0.18958346737E-01  0.19338176953E-01  0.51100000000E-03 0.  1.
</event>
<event>
 8    1  0.1010879E+005  0.1043930E+01  0.7957747E-01            NaN
         13   -1    0    0    0    0  0.00000000000E+00  0.00000000000E+00  0.74505805969E-08  0.10566000000E+00  0.10566000000E+00 0. -1.
     999900   -1    0    0    0    0 -0.00000000000E+00 -0.00000000000E+00 -0.74505805969E-08  0.93827000000E+00  0.93827000000E+00 0. -1.
     999902    2    1    2    0    0 -0.20832181707E-01  0.92021846920E-02 -0.71050986228E-02  0.10200732939E+01  0.10197942844E+01 0.  0.
     999903    2    3    3    0    0 -0.11610614138E-01 -0.64293794309E-01  0.10955469281E+00  0.12928925548E+00  0.21094608717E-01 0.  0.
         14    1    1    2    0    0  0.20832181707E-01 -0.92021846920E-02  0.71050986228E-02  0.23856706064E-01  0.00000000000E+00 0. -1.
     999901    1    3    3    0    0 -0.92215675693E-02  0.73495979001E-01 -0.11665979144E+00  0.89078403846E+00  0.88000000000E+00 0. -1.
        -11    1    4    4    0    0 -0.13264341987E-01 -0.28715227551E-01  0.38699270340E-01  0.49984014519E-01  0.51100000000E-03 0.  1.
         11    1    4    4    0    0  0.16537278484E-02 -0.35578566758E-01  0.70855422473E-01  0.79305240956E-01  0.51100000000E-03 0. -1.
</event>
<event>
 8    1  0.1010879E+005  0.1043930E+01  0.7957747E-01            NaN
         13   -1    0    0    0    0  0.00000000000E+00  0.00000000000E+00  0.74505805969E-08  0.10566000000E+00  0.10566000000E+00 0.  1.
     999900   -1    0    0    0    0 -0.00000000000E+00 -0.00000000000E+00 -0.74505805969E-08  0.93827000000E+00  0.93827000000E+00 0. -1.
     999902    2    1    2    0    0  0.11488873016E-01 -0.15833653200E-01 -0.81811045224E-02  0.10227255371E+01  0.10225056943E+01 0.  0.
     999903    2    3    3    0    0 -0.16373863504E-01 -0.12774753174E+00 -0.35425846283E-01  0.13478222568E+00  0.17992290057E-01 0.  0.
         14    1    1    2    0    0 -0.11488873016E-01  0.15833653200E-01  0.81811045224E-02  0.21204462928E-01  0.00000000000E+00 0. -1.
     999901    1    3    3    0    0  0.27862736520E-01  0.11191387854E+00  0.27244741760E-01  0.88794331139E+00  0.88000000000E+00 0.  1.
        -11    1    4    4    0    0 -0.10395917212E-01 -0.10245635697E+00 -0.35055107149E-01  0.10878649658E+00  0.51100000000E-03 0. -1.
         11    1    4    4    0    0 -0.59779462921E-02 -0.25291174768E-01 -0.37073913416E-03  0.25995729101E-01  0.51100000000E-03 0.  1.
</event>
<event>
 8    1  0.1010879E+005  0.1043930E+01  0.7957747E-01            NaN
         13   -1    0    0    0    0  0.00000000000E+00  0.00000000000E+00  0.74505805969E-08  0.10566000000E+00  0.10566000000E+00 0. -1.
     999900   -1    0    0    0    0 -0.00000000000E+00 -0.00000000000E+00 -0.74505805969E-08  0.93827000000E+00  0.93827000000E+00 0. -1.
     999902    2    1    2    0    0 -0.17492795345E-01  0.80927658352E-02 -0.12658074177E-01  0.10208709976E+01  0.10206105409E+01 0.  0.
     999903    2    3    3    0    0 -0.58612120484E-01  0.68179572959E-01  0.93668844217E-01  0.13148545871E+00  0.20754243862E-01 0.  0.
         14    1    1    2    0    0  0.17492795345E-01 -0.80927658352E-02  0.12658074177E-01  0.23059002358E-01  0.00000000000E+00 0.  1.
     999901    1    3    3    0    0  0.41119325138E-01 -0.60086807124E-01 -0.10632691839E+00  0.88938553893E+00  0.88000000000E+00 0. -1.
        -11    1    4    4    0    0 -0.40376755173E-01  0.58518461687E-01  0.66385292826E-01  0.97272611464E-01  0.51100000000E-03 0. -1.
         11    1    4    4    0    0 -0.18235365311E-01  0.96611112724E-02  0.27283551391E-01  0.34212847244E-01  0.51100000000E-03 0.  1.
</event>
<event>
 8    1  0.1010879E+005  0.1043930E+01  0.7957747E-01            NaN
         13   -1    0    0    0    0  0.00000000000E+00  0.00000000000E+00  0.74505805969E-08  0.10566000000E+00  0.10566000000E+00 0. -1.
     999900   -1    0    0    0    0 -0.00000000000E+00 -0.00000000000E+00 -0.74505805969E-08  0.93827000000E+00  0.93827000000E+00 0. -1.
     999902    2    1    2    0    0 -0.11525934316E-01 -0.10867249345E-02 -0.21029995187E-01  0.10199239835E+01  0.10196414287E+01 0.  0.
     999903    2    3    3    0    0  0.55427096918E-01  0.10560960135E+00 -0.48950366151E-01  0.13051611214E+00  0.20316648658E-01 0.  0.
         14    1    1    2    0    0  0.11525934316E-01  0.10867249345E-02  0.21029995187E-01  0.24006016548E-01  0.00000000000E+00 0. -1.
     999901    1    3    3    0    0 -0.66953031234E-01 -0.10669632628E+00  0.27920370964E-01  0.88940787131E+00  0.88000000000E+00 0. -1.
        -11    1    4    4    0    0  0.20295184976E-01  0.60434391370E-01 -0.25180943217E-01  0.68545978845E-01  0.51100000000E-03 0. -1.
         11    1    4    4    0    0  0.35131911942E-01  0.45175209978E-01 -0.23769422934E-01  0.61970133297E-01  0.51100000000E-03 0.  1.
</event>
<event>
 8    1  0.1010879E+005  0.1043930E+01  0.7957747E-01            NaN
         13   -1    0    0    0    0  0.00000000000E+00  0.00000000000E+00  0.74505805969E-08  0.10566000000E+00  0.10566000000E+00 0.  1.
     999900   -1    0    0    0    0 -0.00000000000E+00 -0.00000000000E+00 -0.74505805969E-08  0.93827000000E+00  0.93827000000E+00 0.  1.
     999902    2    1    2    0    0  0.12169937097E-01 -0.19334104265E-01  0.66661094092E-02  0.10201318494E+01  0.10198542240E+01 0.  0.
     999903    2    3    3    0    0 -0.10015196066E+00 -0.33529112229E-01  0.73903832325E-01  0.13033489598E+00  0.19255962350E-01 0.  0.
         14    1    1    2    0    0 -0.12169937097E-01  0.19334104265E-01 -0.66661094092E-02  0.23798150586E-01  0.00000000000E+00 0. -1.
     999901    1    3    3    0    0  0.11232189775E+00  0.14195007964E-01 -0.67237722916E-01  0.88979695344E+00  0.88000000000E+00 0.  1.
        -11    1    4    4    0    0 -0.83512130698E-01 -0.20232818226E-01  0.56700038128E-01  0.10295046553E+00  0.51100000000E-03 0. -1.
         11    1    4    4    0    0 -0.16639829959E-01 -0.13296294003E-01  0.17203794197E-01  0.27384430450E-01  0.51100000000E-03 0.  1.
</event>
<event>
 8    1  0.1010879E+005  0.1043930E+01  0.7957747E-01            NaN
         13   -1    0    0    0    0  0.00000000000E+00  0.00000000000E+00  0.74505805969E-08  0.10566000000E+00  0.10566000000E+00 0.  1.
     999900   -1    0    0    0    0 -0.00000000000E+00 -0.00000000000E+00 -0.74505805969E-08  0.93827000000E+00  0.93827000000E+00 0.  1.
     999902    2    1    2    0    0  0.30285384977E-02 -0.20534625759E-01 -0.10793611360E-01  0.10205345956E+01  0.10202663946E+01 0.  0.
     999903    2    3    3    0    0 -0.77550784146E-01 -0.47112779201E-01  0.91656245933E-01  0.13053718059E+00  0.20133306043E-01 0.  0.
         14    1    1    2    0    0 -0.30285384977E-02  0.20534625759E-01  0.10793611360E-01  0.23395404392E-01  0.00000000000E+00 0.  1.
     999901    1    3    3    0    0  0.80579322644E-01  0.26578153442E-01 -0.10244985729E+00  0.88999741502E+00  0.88000000000E+00 0.  1.
        -11    1    4    4    0    0 -0.33927568309E-01 -0.31338206096E-01  0.51524590918E-01  0.69196875963E-01  0.51100000000E-03 0. -1.
         11    1    4    4    0    0 -0.43623215837E-01 -0.15774573105E-01  0.40131655015E-01  0.61340304628E-01  0.51100000000E-03 0.  1.
</event>
<event>
 8    1  0.1010879E+005  0.1043930E+01  0.7957747E-01            NaN
         13   -1    0    0    0    0  0.00000000000E+00  0.00000000000E+00  0.74505805969E-08  0.10566000000E+00  0.10566000000E+00 0. -1.
     999900   -1    0    0    0    0 -0.00000000000E+00 -0.00000000000E+00 -0.74505805969E-08  0.93827000000E+00  0.93827000000E+00 0.  1.
     999902    2    1    2    0    0  0.20922779324E-01  0.85282055637E-02 -0.83360933035E-02  0.10198471547E+01  0.10195627669E+01 0.  0.
     999903    2    3    3    0    0  0.86559676772E-01  0.46097351775E-01  0.85250593544E-01  0.13165904908E+00  0.21187213658E-01 0.  0.
         14    1    1    2    0    0 -0.20922779324E-01 -0.85282055637E-02  0.83360933035E-02  0.24082845271E-01  0.00000000000E+00 0. -1.
     999901    1    3    3    0    0 -0.65636897448E-01 -0.37569146211E-01 -0.93586686848E-01  0.88818810564E+00  0.88000000000E+00 0.  1.
        -11    1    4    4    0    0  0.21234465132E-01  0.18738091479E-01  0.33909021230E-01  0.44182591860E-01  0.51100000000E-03 0.  1.
         11    1    4    4    0    0  0.65325211640E-01  0.27359260296E-01  0.51341572314E-01  0.87476457224E-01  0.51100000000E-03 0. -1.
</event>
<event>
 7    1  0.1142555E+005  0.1043930E+01  0.7957747E-01            NaN
         13   -1    0    0    0    0  0.00000000000E+00  0.00000000000E+00  0.74505805969E-08  0.10566000000E+00  0.10566000000E+00 0.  1.
     999900   -1    0    0    0    0 -0.00000000000E+00 -0.00000000000E+00 -0.74505805969E-08  0.93827000000E+00  0.93827000000E+00 0.  1.
     999903    2    1    2    0    0 -0.45828564753E-01 -0.67447860771E-01 -0.79235697116E-01  0.11555822343E+00  0.20638217795E-01 0.  0.
         14    1    1    2    0    0  0.31215018641E-01 -0.12077574708E-01 -0.20191877321E-01  0.39089091948E-01  0.00000000000E+00 0. -1.
     999901    1    1    2    0    0  0.14613546113E-01  0.79525435480E-01  0.99427574437E-01  0.88928268463E+00  0.88000000000E+00 0. -1.
        -11    1    3    3    0    0 -0.23561928635E-01 -0.37194120109E-01 -0.28588761649E-01  0.52499004422E-01  0.51100000000E-03 0. -1.
         11    1    3    3    0    0 -0.22266636119E-01 -0.30253740662E-01 -0.50646935467E-01  0.63059219003E-01  0.51100000000E-03 0.  1.
</event>
<event>
 8    1  0.1010879E+005  0.1043930E+01  0.7957747E-01            NaN
         13   -1    0    0    0    0  0.00000000000E+00  0.00000000000E+00  0.74505805969E-08  0.10566000000E+00  0.10566000000E+00 0. -1.
     999900   -1    0    0    0    0 -0.00000000000E+00 -0.00000000000E+00 -0.74505805969E-08  0.93827000000E+00  0.93827000000E+00 0. -1.
     999902    2    1    2    0    0 -0.22192026498E-01 -0.53568111157E-02 -0.63008765119E-02  0.10202470418E+01  0.10199721289E+01 0.  0.
     999903    2    3    3    0    0 -0.42833385807E-01  0.95273564735E-01 -0.77268800049E-01  0.13143379681E+00  0.19814752221E-01 0.  0.
         14    1    1    2    0    0  0.22192026498E-01  0.53568111157E-02  0.63008765119E-02  0.23682958224E-01  0.00000000000E+00 0. -1.
     999901    1    3    3    0    0  0.20641359309E-01 -0.10063037585E+00  0.70967923537E-01  0.88881324497E+00  0.88000000000E+00 0. -1.
        -11    1    4    4    0    0 -0.38882900177E-02  0.20990960282E-01 -0.23754411240E-01  0.31941702947E-01  0.51100000000E-03 0.  1.
         11    1    4    4    0    0 -0.38945095789E-01  0.74282604453E-01 -0.53514388809E-01  0.99492093861E-01  0.51100000000E-03 0. -1.
</event>
<event>
 8    1  0.1010879E+005  0.1043930E+01  0.7957747E-01            NaN
         13   -1    0    0    0    0  0.00000000000E+00  0.00000000000E+00  0.74505805969E-08  0.10566000000E+00  0.10566000000E+00 0. -1.
     999900   -1    0    0    0    0 -0.00000000000E+00 -0.00000000000E+00 -0.74505805969E-08  0.93827000000E+00  0.93827000000E+00 0. -1.
     999902    2    1    2    0    0  0.19437312740E-01 -0.36347670993E-02  0.13617903729E-01  0.10199202528E+01  0.10196376092E+01 0.  0.
     999903    2    3    3    0    0 -0.12283700292E+00 -0.47496994621E-02  0.30911295423E-01  0.12832489314E+00  0.20007025861E-01 0.  0.
         14    1    1    2    0    0 -0.19437312740E-01  0.36347670993E-02 -0.13617903729E-01  0.24009747196E-01  0.00000000000E+00 0.  1.
     999901    1    3    3    0    0  0.14227431566E+00  0.11149323628E-02 -0.17293391694E-01  0.89159535966E+00  0.88000000000E+00 0. -1.
        -11    1    4    4    0    0 -0.26775546249E-01 -0.22097645358E-02 -0.14909252358E-02  0.26912764914E-01  0.51100000000E-03 0.  1.
         11    1    4    4    0    0 -0.96061456673E-01 -0.25399349263E-02  0.32402220659E-01  0.10141212823E+00  0.51100000000E-03 0. -1.
</event>
<event>
 8    1  0.1010879E+005  0.1043930E+01  0.7957747E-01            NaN
         13   -1    0    0    0    0  0.00000000000E+00  0.00000000000E+00  0.74505805969E-08  0.10566000000E+00  0.10566000000E+00 0.  1.
     999900   -1    0    0    0    0 -0.00000000000E+00 -0.00000000000E+00 -0.74505805969E-08  0.93827000000E+00  0.93827000000E+00 0.  1.
     999902    2    1    2    0    0 -0.15676932091E-01  0.89570944787E-02  0.18456244564E-01  0.10181108462E+01  0.10177834084E+01 0.  0.
     999903    2    3    3    0    0  0.48305347152E-03 -0.57220103033E-03 -0.12555335071E+00  0.12620798367E+00  0.12816025603E-01 0.  0.
         14    1    1    2    0    0  0.15676932091E-01 -0.89570944787E-02 -0.18456244564E-01  0.25819153834E-01  0.00000000000E+00 0. -1.
     999901    1    3    3    0    0 -0.16159985563E-01  0.95292955091E-02  0.14400959527E+00  0.89190286250E+00  0.88000000000E+00 0. -1.
        -11    1    4    4    0    0  0.19008349942E-02 -0.64631002428E-02 -0.65260059131E-01  0.65608850601E-01  0.51100000000E-03 0. -1.
         11    1    4    4    0    0 -0.14177815227E-02  0.58908992124E-02 -0.60293291577E-01  0.60599133064E-01  0.51100000000E-03 0.  1.
</event>
<event>
 8    1  0.1010879E+005  0.1043930E+01  0.7957747E-01            NaN
         13   -1    0    0    0    0  0.00000000000E+00  0.00000000000E+00  0.74505805969E-08  0.10566000000E+00  0.10566000000E+00 0.  1.
     999900   -1    0    0    0    0 -0.00000000000E+00 -0.00000000000E+00 -0.74505805969E-08  0.93827000000E+00  0.93827000000E+00 0.  1.
     999902    2    1    2    0    0 -0.19112239230E-01  0.22127527408E-01  0.73350523222E-02  0.10137852135E+01  0.10133369386E+01 0.  0.
     999903    2    3    3    0    0 -0.48278453451E-01 -0.11146470059E+00  0.38634751818E-02  0.12321820131E+00  0.20312807498E-01 0.  0.
         14    1    1    2    0    0  0.19112239230E-01 -0.22127527408E-01 -0.73350523222E-02  0.30144786450E-01  0.00000000000E+00 0.  1.
     999901    1    3    3    0    0  0.29166214221E-01  0.13359222800E+00  0.34715771404E-02  0.89056701224E+00  0.88000000000E+00 0.  1.
        -11    1    4    4    0    0 -0.10132158125E-01 -0.45233406783E-01  0.60740359352E-02  0.46753360853E-01  0.51100000000E-03 0.  1.
         11    1    4    4    0    0 -0.38146295325E-01 -0.66231293811E-01 -0.22105607533E-02  0.76464840461E-01  0.51100000000E-03 0. -1.
</event>
<event>
 8    1  0.1010879E+005  0.1043930E+01  0.7957747E-01            NaN
         13   -1    0    0    0    0  0.00000000000E+00  0.00000000000E+00  0.74505805969E-08  0.10566000000E+00  0.10566000000E+00 0. -1.
     999900   -1    0    0    0    0 -0.00000000000E+00 -0.00000000000E+00 -0.74505805969E-08  0.93827000000E+00  0.93827000000E+00 0. -1.
     999902    2    1    2    0    0  0.13553112255E-01 -0.16488432018E-01 -0.10491165272E-01  0.10201472375E+01  0.10198699753E+01 0.  0.
     999903    2    3    3    0    0  0.26987853001E-01  0.89557881213E-01 -0.88499334079E-01  0.13025309370E+00  0.19615758702E-01 0.  0.
         14    1    1    2    0    0 -0.13553112255E-01  0.16488432018E-01  0.10491165272E-01  0.23782762476E-01  0.00000000000E+00 0. -1.
     999901    1    3    3    0    0 -0.13434740746E-01 -0.10604631323E+00  0.78008168807E-01  0.88989414382E+00  0.88000000000E+00 0.  1.
        -11    1    4    4    0    0  0.74471912291E-03  0.27422311183E-01 -0.18805451216E-01  0.33263251098E-01  0.51100000000E-03 0. -1.
         11    1    4    4    0    0  0.26243133878E-01  0.62135570030E-01 -0.69693882864E-01  0.96989842604E-01  0.51100000000E-03 0.  1.
</event>
<event>
 8    1  0.1010879E+005  0.1043930E+01  0.7957747E-01            NaN
         13   -1    0    0    0    0  0.00000000000E+00  0.00000000000E+00  0.74505805969E-08  0.10566000000E+00  0.10566000000E+00 0.  1.
     999900   -1    0    0    0    0 -0.00000000000E+00 -0.00000000000E+00 -0.74505805969E-08  0.93827000000E+00  0.93827000000E+00 0. -1.
     999902    2    1    2    0    0  0.22932613766E-01 -0.67328687020E-02 -0.20761802737E-02  0.10199394431E+01  0.10196572565E+01 0.  0.
     999903    2    3    3    0    0 -0.60531016113E-01 -0.89376661412E-01 -0.69063246099E-01  0.12961172762E+00  0.19423605712E-01 0.  0.
         14    1    1    2    0    0 -0.22932613766E-01  0.67328687020E-02  0.20761802737E-02  0.23990556884E-01  0.00000000000E+00 0. -1.
     999901    1    3    3    0    0  0.83463629879E-01  0.82643792710E-01  0.66987065825E-01  0.89032771549E+00  0.88000000000E+00 0.  1.
        -11    1    4    4    0    0 -0.53926357484E-01 -0.65291156864E-01 -0.52402402963E-01  0.99585441473E-01  0.51100000000E-03 0. -1.
         11    1    4    4    0    0 -0.66046586287E-02 -0.24085504548E-01 -0.16660843136E-01  0.30026286150E-01  0.51100000000E-03 0.  1.
</event>
<event>
 8    1  0.1010879E+005  0.1043930E+01  0.7957747E-01            NaN
         13   -1    0    0    0    0  0.00000000000E+00  0.00000000000E+00  0.74505805969E-08  0.10566000000E+00  0.10566000000E+00 0. -1.
     999900   -1    0    0    0    0 -0.00000000000E+00 -0.00000000000E+00 -0.74505805969E-08  0.93827000000E+00  0.93827000000E+00 0.  1.
     999902    2    1    2    0    0 -0.88727940701E-02  0.14767495313E-01 -0.16559169451E-01  0.10200341534E+01  0.10197542168E+01 0.  0.
     999903    2    3    3    0    0 -0.31051783841E-01 -0.79540276375E-01  0.92875462676E-01  0.12797933327E+00  0.21493937080E-01 0.  0.
         14    1    1    2    0    0  0.88727940701E-02 -0.14767495313E-01  0.16559169451E-01  0.23895846613E-01  0.00000000000E+00 0. -1.
     999901    1    3    3    0    0  0.22178989771E-01  0.94307771689E-01 -0.10943463213E+00  0.89205482012E+00  0.88000000000E+00 0.  1.
        -11    1    4    4    0    0 -0.20762356455E-01 -0.67838106916E-01  0.65943660803E-01  0.96860269031E-01  0.51100000000E-03 0.  1.
         11    1    4    4    0    0 -0.10289427386E-01 -0.11702169459E-01  0.26931801872E-01  0.31119064238E-01  0.51100000000E-03 0. -1.
</event>
<event>
 8    1  0.1010879E+005  0.1043930E+01  0.7957747E-01            NaN
         13   -1    0    0    0    0  0.00000000000E+00  0.00000000000E+00  0.74505805969E-08  0.10566000000E+00  0.10566000000E+00 0.  1.
     999900   -1    0    0    0    0 -0.00000000000E+00 -0.00000000000E+00 -0.74505805969E-08  0.93827000000E+00  0.93827000000E+00 0.  1.
     999902    2    1    2    0    0  0.79956853358E-02  0.23235117413E-01 -0.51485199625E-02  0.10188240461E+01  0.10185146675E+01 0.  0.
     999903    2    3    3    0    0 -0.60956063010E-01  0.88386009269E-01 -0.73046012554E-01  0.13112530673E+00  0.18176849665E-01 0.  0.
         14    1    1    2    0    0 -0.79956853358E-02 -0.23235117413E-01  0.51485199625E-02  0.25105953935E-01  0.00000000000E+00 0.  1.
     999901    1    3    3    0    0  0.68951748346E-01 -0.65150891856E-01  0.67897492592E-01  0.88769873933E+00  0.88000000000E+00 0. -1.
        -11    1    4    4    0    0 -0.12912863378E-01  0.90036487824E-02 -0.14506291395E-01  0.21412644467E-01  0.51100000000E-03 0. -1.
         11    1    4    4    0    0 -0.48043199632E-01  0.79382360487E-01 -0.58539721159E-01  0.10971266227E+00  0.51100000000E-03 0.  1.
</event>
<event>
 8    1  0.1010879E+005  0.1043930E+01  0.7957747E-01            NaN
         13   -1    0    0    0    0  0.00000000000E+00  0.00000000000E+00  0.74505805969E-08  0.10566000000E+00  0.10566000000E+00 0.  1.
     999900   -1    0    0    0    0 -0.00000000000E+00 -0.00000000000E+00 -0.74505805969E-08  0.93827000000E+00  0.93827000000E+00 0.  1.
     999902    2    1    2    0    0  0.12546231706E-01  0.10635013995E-01  0.16655715675E-01  0.10205222167E+01  0.10202537285E+01 0.  0.
     999903    2    3    3    0    0 -0.92857951615E-01 -0.57433599535E-01 -0.63907184982E-01  0.12797879540E+00  0.19319064311E-01 0.  0.
         14    1    1    2    0    0 -0.12546231706E-01 -0.10635013995E-01 -0.16655715675E-01  0.23407783264E-01  0.00000000000E+00 0. -1.
     999901    1    3    3    0    0  0.10540418332E+00  0.68068613529E-01  0.80562900658E-01  0.89254342134E+00  0.88000000000E+00 0. -1.
        -11    1    4    4    0    0 -0.87676419345E-01 -0.51088022475E-01 -0.53472941651E-01  0.11470290824E+00  0.51100000000E-03 0. -1.
         11    1    4    4    0    0 -0.51815322696E-02 -0.63455770595E-02 -0.10434243332E-01  0.13275887156E-01  0.51100000000E-03 0.  1.
</event>
<event>
 8    1  0.1233630E+005  0.1043930E+01  0.7957747E-01            NaN
         13   -1    0    0    0    0  0.00000000000E+00  0.00000000000E+00  0.74505805969E-08  0.10566000000E+00  0.10566000000E+00 0. -1.
     999900   -1    0    0    0    0 -0.00000000000E+00 -0.00000000000E+00 -0.74505805969E-08  0.93827000000E+00  0.93827000000E+00 0. -1.
     999902    2    1    2    0    0 -0.12774423308E-01 -0.18660905991E-01  0.40157497170E-02  0.10209617273E+01  0.10207033394E+01 0.  0.
     999903    2    3    3    0    0 -0.12297472230E+00  0.89773878882E-02  0.46277453918E-01  0.13265207816E+00  0.15861755296E-01 0.  0.
         14    1    1    2    0    0  0.12774423308E-01  0.18660905991E-01 -0.40157497170E-02  0.22968272661E-01  0.00000000000E+00 0.  1.
     999901    1    3    3    0    0  0.11020029899E+00 -0.27638293879E-01 -0.42261704201E-01  0.88830964918E+00  0.88000000000E+00 0. -1.
        -11    1    4    4    0    0 -0.73071904890E-01 -0.17894729165E-02  0.23835771238E-01  0.76883747367E-01  0.51100000000E-03 0.  1.
         11    1    4    4    0    0 -0.49902817407E-01  0.10766860805E-01  0.22441682679E-01  0.55768330791E-01  0.51100000000E-03 0. -1.
</event>
<event>
 8    1  0.1010879E+005  0.1043930E+01  0.7957747E-01            NaN
         13   -1    0    0    0    0  0.00000000000E+00  0.00000000000E+00  0.74505805969E-08  0.10566000000E+00  0.10566000000E+00 0. -1.
     999900   -1    0    0    0    0 -0.00000000000E+00 -0.00000000000E+00 -0.74505805969E-08  0.93827000000E+00  0.93827000000E+00 0. -1.
     999902    2    1    2    0    0  0.55655682077E-02 -0.18795900023E-01  0.14405830757E-01  0.10196032787E+01  0.10193130317E+01 0.  0.
     999903    2    3    3    0    0 -0.13335362405E-01  0.10974625340E+00 -0.59436928512E-01  0.12700421787E+00  0.19371392813E-01 0.  0.
         14    1    1    2    0    0 -0.55655682077E-02  0.18795900023E-01 -0.14405830757E-01  0.24326721254E-01  0.00000000000E+00 0.  1.
     999901    1    3    3    0    0  0.18900930613E-01 -0.12854215342E+00  0.73842759270E-01  0.89259906088E+00  0.88000000000E+00 0.  1.
        -11    1    4    4    0    0 -0.13582533953E-01  0.85377763532E-01 -0.54307908519E-01  0.10209533673E+00  0.51100000000E-03 0. -1.
         11    1    4    4    0    0  0.24717154777E-03  0.24368489867E-01 -0.51290199934E-02  0.24908881133E-01  0.51100000000E-03 0.  1.
</event>
<event>
 8    1  0.1010879E+005  0.1043930E+01  0.7957747E-01            NaN
         13   -1    0    0    0    0  0.00000000000E+00  0.00000000000E+00  0.74505805969E-08  0.10566000000E+00  0.10566000000E+00 0. -1.
     999900   -1    0    0    0    0 -0.00000000000E+00 -0.00000000000E+00 -0.74505805969E-08  0.93827000000E+00  0.93827000000E+00 0.  1.
     999902    2    1    2    0    0  0.19514384013E-01 -0.79916209721E-02 -0.11499859427E-01  0.10199107586E+01  0.10196278888E+01 0.  0.
     999903    2    3    3    0    0  0.35176210218E-01  0.11815530485E+00 -0.37364840901E-01  0.13040115387E+00  0.20255561339E-01 0.  0.
         14    1    1    2    0    0 -0.19514384013E-01  0.79916209721E-02  0.11499859427E-01  0.24019241371E-01  0.00000000000E+00 0. -1.
     999901    1    3    3    0    0 -0.15661826205E-01 -0.12614692582E+00  0.25864981473E-01  0.88950960476E+00  0.88000000000E+00 0. -1.
        -11    1    4    4    0    0  0.19402264177E-01  0.92403277981E-01 -0.32200340759E-01  0.99759394058E-01  0.51100000000E-03 0. -1.
         11    1    4    4    0    0  0.15773946041E-01  0.25752026869E-01 -0.51645001420E-02  0.30641759811E-01  0.51100000000E-03 0.  1.
</event>
<event>
 8    1  0.1010879E+005  0.1043930E+01  0.7957747E-01            NaN
         13   -1    0    0    0    0  0.00000000000E+00  0.00000000000E+00  0.74505805969E-08  0.10566000000E+00  0.10566000000E+00 0. -1.
     999900   -1    0    0    0    0 -0.00000000000E+00 -0.00000000000E+00 -0.74505805969E-08  0.93827000000E+00  0.93827000000E+00 0.  1.
     999902    2    1    2    0    0  0.20522456314E-01  0.40886826382E-02 -0.76830699187E-02  0.10216383401E+01  0.10213951144E+01 0.  0.
     999903    2    3    3    0    0  0.38818207616E-01  0.10374372224E+00  0.69046771794E-01  0.13250768036E+00  0.22830144814E-01 0.  0.
         14    1    1    2    0    0 -0.20522456314E-01 -0.40886826382E-02  0.76830699187E-02  0.22291659926E-01  0.00000000000E+00 0. -1.
     999901    1    3    3    0    0 -0.18295751302E-01 -0.99655039604E-01 -0.76729841712E-01  0.88913065971E+00  0.88000000000E+00 0. -1.
        -11    1    4    4    0    0  0.34993747509E-01  0.63921845829E-01  0.40650614921E-01  0.83446380109E-01  0.51100000000E-03 0. -1.
         11    1    4    4    0    0  0.38244601066E-02  0.39821876413E-01  0.28396156873E-01  0.49061300251E-01  0.51100000000E-03 0.  1.
</event>
<event>
 8    1  0.1010879E+005  0.1043930E+01  0.7957747E-01            NaN
         13   -1    0    0    0    0  0.00000000000E+00  0.00000000000E+00  0.74505805969E-08  0.10566000000E+00  0.10566000000E+00 0.  1.
     999900   -1    0    0    0    0 -0.00000000000E+00 -0.00000000000E+00 -0.74505805969E-08  0.93827000000E+00  0.93827000000E+00 0.  1.
     999902    2    1    2    0    0  0.47075979950E-02 -0.16047580458E-01 -0.16531240921E-01  0.10204147232E+01  0.10201437345E+01 0.  0.
     999903    2    3    3    0    0  0.48927599404E-01 -0.10646399765E+00 -0.61320389000E-01  0.13354573353E+00  0.18595162234E-01 0.  0.
         14    1    1    2    0    0 -0.47075979950E-02  0.16047580458E-01  0.16531240921E-01  0.23515276819E-01  0.00000000000E+00 0.  1.
     999901    1    3    3    0    0 -0.44220001409E-01  0.90416417187E-01  0.44789148079E-01  0.88686898965E+00  0.88000000000E+00 0.  1.
        -11    1    4    4    0    0  0.34098163718E-01 -0.89167481966E-01 -0.53602461590E-01  0.10948520274E+00  0.51100000000E-03 0.  1.
         11    1    4    4    0    0  0.14829435686E-01 -0.17296515679E-01 -0.77179274096E-02  0.24060530790E-01  0.51100000000E-03 0. -1.
</event>
<event>
 8    1  0.1010879E+005  0.1043930E+01  0.7957747E-01            NaN
         13   -1    0    0    0    0  0.00000000000E+00  0.00000000000E+00  0.74505805969E-08  0.10566000000E+00  0.10566000000E+00 0.  1.
     999900   -1    0    0    0    0 -0.00000000000E+00 -0.00000000000E+00 -0.74505805969E-08  0.93827000000E+00  0.93827000000E+00 0. -1.
     999902    2    1    2    0    0 -0.21806289998E-01  0.61466953056E-02  0.68885541020E-02  0.10202498749E+01  0.10199750286E+01 0.  0.
     999903    2    3    3    0    0 -0.75598984815E-01 -0.29255874071E-01  0.10319964040E+00  0.13265603690E+00  0.19399630761E-01 0.  0.
         14    1    1    2    0    0  0.21806289998E-01 -0.61466953056E-02 -0.68885541020E-02  0.23680125090E-01  0.00000000000E+00 0. -1.
     999901    1    3    3    0    0  0.53792694817E-01  0.35402569377E-01 -0.96311086299E-01  0.88759383801E+00  0.88000000000E+00 0. -1.
        -11    1    4    4    0    0 -0.31827994014E-01 -0.22424490979E-02  0.39037219069E-01  0.50420386497E-01  0.51100000000E-03 0. -1.
         11    1    4    4    0    0 -0.43770990801E-01 -0.27013424973E-01  0.64162421333E-01  0.82235650400E-01  0.51100000000E-03 0.  1.
</event>
<event>
 8    1  0.1010879E+005  0.1043930E+01  0.7957747E-01            NaN
         13   -1    0    0    0    0  0.00000000000E+00  0.00000000000E+00  0.74505805969E-08  0.10566000000E+00  0.10566000000E+00 0.  1.
     999900   -1    0    0    0    0 -0.00000000000E+00 -0.00000000000E+00 -0.74505805969E-08  0.93827000000E+00  0.93827000000E+00 0.  1.
     999902    2    1    2    0    0 -0.17456620086E-02  0.21787309427E-01 -0.59325357577E-02  0.10212820604E+01  0.10210309093E+01 0.  0.
     999903    2    3    3    0    0  0.74805627318E-01  0.10848042521E+00 -0.10551656165E-01  0.13370269352E+00  0.20029684839E-01 0.  0.
         14    1    1    2    0    0  0.17456620086E-02 -0.21787309427E-01  0.59325357577E-02  0.22647939606E-01  0.00000000000E+00 0.  1.
     999901    1    3    3    0    0 -0.76551289326E-01 -0.86693115786E-01  0.46191204076E-02  0.88757936687E+00  0.88000000000E+00 0.  1.
        -11    1    4    4    0    0  0.56122037769E-01  0.94557626514E-01 -0.95836518456E-02  0.11037633514E+00  0.51100000000E-03 0. -1.
         11    1    4    4    0    0  0.18683589549E-01  0.13922798698E-01 -0.96800431969E-03  0.23326358382E-01  0.51100000000E-03 0.  1.
</event>
<event>
 8    1  0.1010879E+005  0.1043930E+01  0.7957747E-01            NaN
         13   -1    0    0    0    0  0.00000000000E+00  0.00000000000E+00  0.74505805969E-08  0.10566000000E+00  0.10566000000E+00 0. -1.
     999900   -1    0    0    0    0 -0.00000000000E+00 -0.00000000000E+00 -0.74505805969E-08  0.93827000000E+00  0.93827000000E+00 0.  1.
     999902    2    1    2    0    0  0.68867829067E-02  0.18527471928E-01  0.11433711608E-01  0.10210952730E+01  0.10208399149E+01 0.  0.
     999903    2    3    3    0    0 -0.37308456067E-01 -0.12115553741E+00  0.12673670018E-01  0.12898199561E+00  0.20128292050E-01 0.  0.
         14    1    1    2    0    0 -0.68867829067E-02 -0.18527471928E-01 -0.11433711608E-01  0.22834726975E-01  0.00000000000E+00 0.  1.
     999901    1    3    3    0    0  0.44195238973E-01  0.13968300934E+00 -0.12399584099E-02  0.89211327742E+00  0.88000000000E+00 0. -1.
        -11    1    4    4    0    0 -0.57810038985E-02 -0.33116669322E-01 -0.44417769713E-02  0.33913482521E-01  0.51100000000E-03 0.  1.
         11    1    4    4    0    0 -0.31527452168E-01 -0.88038868086E-01  0.17115446989E-01  0.95068513088E-01  0.51100000000E-03 0. -1.
</event>
<event>
 8    1  0.1010879E+005  0.1043930E+01  0.7957747E-01            NaN
         13   -1    0    0    0    0  0.00000000000E+00  0.00000000000E+00  0.74505805969E-08  0.10566000000E+00  0.10566000000E+00 0.  1.
     999900   -1    0    0    0    0 -0.00000000000E+00 -0.00000000000E+00 -0.74505805969E-08  0.93827000000E+00  0.93827000000E+00 0. -1.
     999902    2    1    2    0    0  0.86359482801E-02 -0.20690663060E-01  0.78632013833E-02  0.10201705161E+01  0.10198938027E+01 0.  0.
     999903    2    3    3    0    0  0.67420870994E-01 -0.67206286640E-02 -0.10940504657E+00  0.13033757053E+00  0.20680362178E-01 0.  0.
         14    1    1    2    0    0 -0.86359482801E-02  0.20690663060E-01 -0.78632013833E-02  0.23759483929E-01  0.00000000000E+00 0.  1.
     999901    1    3    3    0    0 -0.58784922714E-01 -0.13970034396E-01  0.11726824796E+00  0.88983294555E+00  0.88000000000E+00 0.  1.
        -11    1    4    4    0    0  0.27482737636E-01  0.40122949807E-02 -0.58411569155E-01  0.64680537344E-01  0.51100000000E-03 0. -1.
         11    1    4    4    0    0  0.39938133358E-01 -0.10732923645E-01 -0.50993477417E-01  0.65657033181E-01  0.51100000000E-03 0.  1.
</event>
<event>
 8    1  0.1010879E+005  0.1043930E+01  0.7957747E-01            NaN
         13   -1    0    0    0    0  0.00000000000E+00  0.00000000000E+00  0.74505805969E-08  0.10566000000E+00  0.10566000000E+00 0.  1.
     999900   -1    0    0    0    0 -0.00000000000E+00 -0.00000000000E+00 -0.74505805969E-08  0.93827000000E+00  0.93827000000E+00 0.  1.
     999902    2    1    2    0    0  0.31648937112E-02 -0.22478257718E-01  0.45470828021E-02  0.10207790911E+01  0.10205165301E+01 0.  0.
     999903    2    3    3    0    0  0.14657347525E-01  0.97744829875E-01 -0.79938497141E-01  0.12852157191E+00  0.18940472980E-01 0.  0.
         14    1    1    2    0    0 -0.31648937112E-02  0.22478257718E-01 -0.45470828021E-02  0.23150908929E-01  0.00000000000E+00 0. -1.
     999901    1    3    3    0    0 -0.11492453814E-01 -0.12022308759E+00  0.84485579943E-01  0.89225751916E+00  0.88000000000E+00 0.  1.
        -11    1    4    4    0    0  0.10337891558E-02  0.20197476438E-01 -0.76347117341E-02  0.21623059884E-01  0.51100000000E-03 0. -1.
         11    1    4    4    0    0  0.13623558369E-01  0.77547353437E-01 -0.72303785407E-01  0.10689851202E+00  0.51100000000E-03 0.  1.
</event>
<event>
 8    1  0.1010879E+005  0.1043930E+01  0.7957747E-01            NaN
         13   -1    0    0    0    0  0.00000000000E+00  0.00000000000E+00  0.74505805969E-08  0.10566000000E+00  0.10566000000E+00 0.  1.
     999900   -1    0    0    0    0 -0.00000000000E+00 -0.00000000000E+00 -0.74505805969E-08  0.93827000000E+00  0.93827000000E+00 0.  1.
     999902    2    1    2    0    0  0.11145916462E-01  0.28496563159E-02 -0.19844364068E-01  0.10209920232E+01  0.10207343242E+01 0.  0.
     999903    2    3    3    0    0  0.88598884140E-01  0.94546294631E-01 -0.21127206373E-01  0.13284289080E+00  0.20300509538E-01 0.  0.
         14    1    1    2    0    0 -0.11145916462E-01 -0.28496563159E-02  0.19844364068E-01  0.22937976811E-01  0.00000000000E+00 0.  1.
     999901    1    3    3    0    0 -0.77452967678E-01 -0.91696638315E-01  0.12828423047E-02  0.88814913239E+00  0.88000000000E+00 0. -1.
        -11    1    4    4    0    0  0.49998780052E-01  0.54502683025E-01 -0.22159125829E-01  0.77212100361E-01  0.51100000000E-03 0. -1.
         11    1    4    4    0    0  0.38600104088E-01  0.40043611605E-01  0.10319194563E-02  0.55630790438E-01  0.51100000000E-03 0.  1.
</event>
<event>
 8    1  0.1010879E+005  0.1043930E+01  0.7957747E-01            NaN
         13   -1    0    0    0    0  0.00000000000E+00  0.00000000000E+00  0.74505805969E-08  0.10566000000E+00  0.10566000000E+00 0. -1.
     999900   -1    0    0    0    0 -0.00000000000E+00 -0.00000000000E+00 -0.74505805969E-08  0.93827000000E+00  0.93827000000E+00 0.  1.
     999902    2    1    2    0    0  0.16011267536E-01  0.12387741608E-01 -0.12275275420E-01  0.10202551353E+01  0.10199804125E+01 0.  0.
     999903    2    3    3    0    0  0.10206779294E+00 -0.74215346237E-01  0.27904904953E-01  0.13091815349E+00  0.20859703214E-01 0.  0.
         14    1    1    2    0    0 -0.16011267536E-01 -0.12387741608E-01  0.12275275420E-01  0.23674864665E-01  0.00000000000E+00 0. -1.
     999901    1    3    3    0    0 -0.86056525408E-01  0.86603087844E-01 -0.40180180373E-01  0.88933698185E+00  0.88000000000E+00 0. -1.
        -11    1    4    4    0    0  0.34904846056E-01 -0.36984294306E-01  0.70534014109E-02  0.51343917809E-01  0.51100000000E-03 0.  1.
         11    1    4    4    0    0  0.67162946889E-01 -0.37231051930E-01  0.20851503542E-01  0.79574235677E-01  0.51100000000E-03 0. -1.
</event>
<event>
 8    1  0.1010879E+005  0.1043930E+01  0.7957747E-01            NaN
         13   -1    0    0    0    0  0.00000000000E+00  0.00000000000E+00  0.74505805969E-08  0.10566000000E+00  0.10566000000E+00 0. -1.
     999900   -1    0    0    0    0 -0.00000000000E+00 -0.00000000000E+00 -0.74505805969E-08  0.93827000000E+00  0.93827000000E+00 0. -1.
     999902    2    1    2    0    0  0.19791680699E-01  0.10982069407E-01  0.57261713642E-02  0.10205825052E+01  0.10203154142E+01 0.  0.
     999903    2    3    3    0    0 -0.98119145404E-01  0.38423522832E-01  0.73037787096E-01  0.12974758793E+00  0.19904382127E-01 0.  0.
         14    1    1    2    0    0 -0.19791680699E-01 -0.10982069407E-01 -0.57261713642E-02  0.23347494766E-01  0.00000000000E+00 0. -1.
     999901    1    3    3    0    0  0.11791082610E+00 -0.27441453425E-01 -0.67311615732E-01  0.89083491731E+00  0.88000000000E+00 0. -1.
        -11    1    4    4    0    0 -0.68319487169E-01  0.36244519990E-01  0.51735501940E-01  0.93048593962E-01  0.51100000000E-03 0.  1.
         11    1    4    4    0    0 -0.29799658235E-01  0.21790028421E-02  0.21302285156E-01  0.36698993967E-01  0.51100000000E-03 0. -1.
</event>
<event>
 8    1  0.1010879E+005  0.1043930E+01  0.7957747E-01            NaN
         13   -1    0    0    0    0  0.00000000000E+00  0.00000000000E+00  0.74505805969E-08  0.10566000000E+00  0.10566000000E+00 0.  1.
     999900   -1    0    0    0    0 -0.00000000000E+00 -0.00000000000E+00 -0.74505805969E-08  0.93827000000E+00  0.93827000000E+00 0.  1.
     999902    2    1    2    0    0 -0.15657553984E-01  0.14341826108E-01 -0.86736968760E-02  0.10209935663E+01  0.10207359024E+01 0.  0.
     999903    2    3    3    0    0  0.37913905817E-01 -0.10096715421E+00  0.67179795093E-01  0.12862603301E+00  0.19992523963E-01 0.  0.
         14    1    1    2    0    0  0.15657553984E-01 -0.14341826108E-01  0.86736968760E-02  0.22936433689E-01  0.00000000000E+00 0.  1.
     999901    1    3    3    0    0 -0.53571459802E-01  0.11530898032E+00 -0.75853491969E-01  0.89236753330E+00  0.88000000000E+00 0. -1.
        -11    1    4    4    0    0  0.22197697714E-01 -0.41985917961E-01  0.38708772791E-01  0.61271406894E-01  0.51100000000E-03 0. -1.
         11    1    4    4    0    0  0.15716208104E-01 -0.58981236253E-01  0.28471022302E-01  0.67354626114E-01  0.51100000000E-03 0.  1.
</event>
<event>
 8    1  0.1010879E+005  0.1043930E+01  0.7957747E-01            NaN
         13   -1    0    0    0    0  0.00000000000E+00  0.00000000000E+00  0.74505805969E-08  0.10566000000E+00  0.10566000000E+00 0.  1.
     999900   -1    0    0    0    0 -0.00000000000E+00 -0.00000000000E+00 -0.74505805969E-08  0.93827000000E+00  0.93827000000E+00 0. -1.
     999902    2    1    2    0    0 -0.15725226978E-01 -0.13829764076E-01  0.10832167817E-01  0.10203528713E+01  0.10200804385E+01 0.  0.
     999903    2    3    3    0    0  0.11559303708E+00 -0.54157426737E-01 -0.84026899952E-02  0.12948768139E+00  0.20041889626E-01 0.  0.
         14    1    1    2    0    0  0.15725226978E-01  0.13829764076E-01 -0.10832167817E-01  0.23577128695E-01  0.00000000000E+00 0.  1.
     999901    1    3    3    0    0 -0.13131826406E+00  0.40327662661E-01  0.19234857812E-01  0.89086518992E+00  0.88000000000E+00 0. -1.
        -11    1    4    4    0    0  0.72829591092E-01 -0.26773528096E-01  0.21242659001E-02  0.77625670831E-01  0.51100000000E-03 0. -1.
         11    1    4    4    0    0  0.42763445989E-01 -0.27383898641E-01 -0.10526955895E-01  0.51862010557E-01  0.51100000000E-03 0.  1.
</event>
<event>
 8    1  0.1010879E+005  0.1043930E+01  0.7957747E-01            NaN
         13   -1    0    0    0    0  0.00000000000E+00  0.00000000000E+00  0.74505805969E-08  0.10566000000E+00  0.10566000000E+00 0.  1.
     999900   -1    0    0    0    0 -0.00000000000E+00 -0.00000000000E+00 -0.74505805969E-08  0.93827000000E+00  0.93827000000E+00 0.  1.
     999902    2    1    2    0    0 -0.24718248236E-02 -0.19834445270E-01  0.10895474516E-01  0.10211654112E+01  0.10209116370E+01 0.  0.
     999903    2    3    3    0    0  0.13276050959E-01  0.90778804272E-01 -0.87881757084E-01  0.12861836594E+00  0.20060807435E-01 0.  0.
         14    1    1    2    0    0  0.24718248236E-02  0.19834445270E-01 -0.10895474516E-01  0.22764588774E-01  0.00000000000E+00 0. -1.
     999901    1    3    3    0    0 -0.15747875783E-01 -0.11061324954E+00  0.98777231599E-01  0.89254704529E+00  0.88000000000E+00 0. -1.
        -11    1    4    4    0    0  0.12125417577E-01  0.86600973489E-01 -0.75638928604E-01  0.11562120481E+00  0.51100000000E-03 0. -1.
         11    1    4    4    0    0  0.11506333822E-02  0.41778307827E-02 -0.12242828480E-01  0.12997161129E-01  0.51100000000E-03 0.  1.
</event>
<event>
 8    1  0.1010879E+005  0.1043930E+01  0.7957747E-01            NaN
         13   -1    0    0    0    0  0.00000000000E+00  0.00000000000E+00  0.74505805969E-08  0.10566000000E+00  0.10566000000E+00 0. -1.
     999900   -1    0    0    0    0 -0.00000000000E+00 -0.00000000000E+00 -0.74505805969E-08  0.93827000000E+00  0.93827000000E+00 0.  1.
     999902    2    1    2    0    0  0.21138246058E-01 -0.10357638859E-01  0.15039512859E-03  0.10203900606E+01  0.10201184965E+01 0.  0.
     999903    2    3    3    0    0  0.12319109602E+00  0.16641965572E-01 -0.43338221545E-01  0.13301470449E+00  0.19018648921E-01 0.  0.
         14    1    1    2    0    0 -0.21138246058E-01  0.10357638859E-01 -0.15039512859E-03  0.23539939418E-01  0.00000000000E+00 0. -1.
     999901    1    3    3    0    0 -0.10205284996E+00 -0.26999604430E-01  0.43488616673E-01  0.88737535609E+00  0.88000000000E+00 0. -1.
        -11    1    4    4    0    0  0.60640687081E-01  0.16489444643E-01 -0.26742242938E-01  0.68297901818E-01  0.51100000000E-03 0. -1.
         11    1    4    4    0    0  0.62550408937E-01  0.15252092881E-03 -0.16595978606E-01  0.64716802669E-01  0.51100000000E-03 0.  1.
</event>
<event>
 8    1  0.1010879E+005  0.1043930E+01  0.7957747E-01            NaN
         13   -1    0    0    0    0  0.00000000000E+00  0.00000000000E+00  0.74505805969E-08  0.10566000000E+00  0.10566000000E+00 0.  1.
     999900   -1    0    0    0    0 -0.00000000000E+00 -0.00000000000E+00 -0.74505805969E-08  0.93827000000E+00  0.93827000000E+00 0.  1.
     999902    2    1    2    0    0  0.40387753830E-02  0.11045123985E-01  0.21160033081E-01  0.10197214587E+01  0.10194340586E+01 0.  0.
     999903    2    3    3    0    0 -0.51114268127E-02 -0.51824467729E-01 -0.11418013855E+00  0.12711108807E+00  0.20204517595E-01 0.  0.
         14    1    1    2    0    0 -0.40387753830E-02 -0.11045123985E-01 -0.21160033081E-01  0.24208541270E-01  0.00000000000E+00 0. -1.
     999901    1    3    3    0    0  0.91502021958E-02  0.62869591714E-01  0.13534017163E+00  0.89261037066E+00  0.88000000000E+00 0. -1.
        -11    1    4    4    0    0 -0.12219666977E-01 -0.21770415094E-01 -0.51031039181E-01  0.56812844633E-01  0.51100000000E-03 0.  1.
         11    1    4    4    0    0  0.71082401645E-02 -0.30054052635E-01 -0.63149099365E-01  0.70298243432E-01  0.51100000000E-03 0. -1.
</event>
<event>
 8    1  0.1010879E+005  0.1043930E+01  0.7957747E-01            NaN
         13   -1    0    0    0    0  0.00000000000E+00  0.00000000000E+00  0.74505805969E-08  0.10566000000E+00  0.10566000000E+00 0. -1.
     999900   -1    0    0    0    0 -0.00000000000E+00 -0.00000000000E+00 -0.74505805969E-08  0.93827000000E+00  0.93827000000E+00 0. -1.
     999902    2    1    2    0    0 -0.15907948070E-01  0.50472467133E-02 -0.14388055897E-01  0.10218947178E+01  0.10216571149E+01 0.  0.
     999903    2    3    3    0    0 -0.76864719122E-01  0.10756660534E+00  0.83342428607E-02  0.13355792932E+00  0.17014736255E-01 0.  0.
         14    1    1    2    0    0  0.15907948070E-01 -0.50472467133E-02  0.14388055897E-01  0.22035282247E-01  0.00000000000E+00 0. -1.
     999901    1    3    3    0    0  0.60956771051E-01 -0.10251935862E+00 -0.22722298758E-01  0.88833678844E+00  0.88000000000E+00 0.  1.
        -11    1    4    4    0    0 -0.42987187228E-01  0.70324863605E-01 -0.58496095043E-03  0.82426257995E-01  0.51100000000E-03 0.  1.
         11    1    4    4    0    0 -0.33877531893E-01  0.37241741733E-01  0.89192038112E-02  0.51131671321E-01  0.51100000000E-03 0. -1.
</event>
<event>
 8    1  0.1010879E+005  0.1043930E+01  0.7957747E-01            NaN
         13   -1    0    0    0    0  0.00000000000E+00  0.00000000000E+00  0.74505805969E-08  0.10566000000E+00  0.10566000000E+00 0. -1.
     999900   -1    0    0    0    0 -0.00000000000E+00 -0.00000000000E+00 -0.74505805969E-08  0.93827000000E+00  0.93827000000E+00 0.  1.
     999902    2    1    2    0    0 -0.34294712425E-02  0.21157151331E-01 -0.70973094290E-02  0.10213521762E+01  0.10211025951E+01 0.  0.
     999903    2    3    3    0    0  0.11953850666E+00  0.26675310022E-01 -0.40678593978E-01  0.13215069380E+00  0.28425888279E-01 0.  0.
         14    1    1    2    0    0  0.34294712425E-02 -0.21157151331E-01  0.70973094290E-02  0.22577823779E-01  0.00000000000E+00 0. -1.
     999901    1    3    3    0    0 -0.12296797790E+00 -0.55181586915E-02  0.33581284549E-01  0.88920148242E+00  0.88000000000E+00 0. -1.
        -11    1    4    4    0    0  0.30347596826E-01 -0.53534527067E-02 -0.72761880473E-02  0.31667651042E-01  0.51100000000E-03 0.  1.
         11    1    4    4    0    0  0.89190909836E-01  0.32028762729E-01 -0.33402405930E-01  0.10048304276E+00  0.51100000000E-03 0. -1.
</event>
<event>
 8    1  0.1010879E+005  0.1043930E+01  0.7957747E-01            NaN
         13   -1    0    0    0    0  0.00000000000E+00  0.00000000000E+00  0.74505805969E-08  0.10566000000E+00  0.10566000000E+00 0. -1.
     999900   -1    0    0    0    0 -0.00000000000E+00 -0.00000000000E+00 -0.74505805969E-08  0.93827000000E+00  0.93827000000E+00 0. -1.
     999902    2    1    2    0    0  0.18002104432E-01  0.15764851960E-01 -0.17709977804E-02  0.10199353599E+01  0.10196530761E+01 0.  0.
     999903    2    3    3    0    0 -0.65482469629E-01 -0.88320128068E-01 -0.62147633471E-01  0.12783183713E+00  0.19754781352E-01 0.  0.
         14    1    1    2    0    0 -0.18002104432E-01 -0.15764851960E-01  0.17709977804E-02  0.23994640119E-01  0.00000000000E+00 0. -1.
     999901    1    3    3    0    0  0.83484574062E-01  0.10408498003E+00  0.60376635691E-01  0.89210352275E+00  0.88000000000E+00 0. -1.
        -11    1    4    4    0    0 -0.82037441175E-02 -0.23018124274E-01 -0.18262261389E-01  0.30510764899E-01  0.51100000000E-03 0. -1.
         11    1    4    4    0    0 -0.57278725512E-01 -0.65302003794E-01 -0.43885372082E-01  0.97321072227E-01  0.51100000000E-03 0.  1.
</event>
<event>
 8    1  0.1010879E+005  0.1043930E+01  0.7957747E-01            NaN
         13   -1    0    0    0    0  0.00000000000E+00  0.00000000000E+00  0.74505805969E-08  0.10566000000E+00  0.10566000000E+00 0. -1.
     999900   -1    0    0    0    0 -0.00000000000E+00 -0.00000000000E+00 -0.74505805969E-08  0.93827000000E+00  0.93827000000E+00 0.  1.
     999902    2    1    2    0    0 -0.11348331208E-01 -0.99483756767E-03 -0.21056636299E-01  0.10199893180E+01  0.10197083174E+01 0.  0.
     999903    2    3    3    0    0  0.38177206486E-02 -0.83328235441E-01 -0.10090531164E+00  0.13241700629E+00  0.19854768336E-01 0.  0.
         14    1    1    2    0    0  0.11348331208E-01  0.99483756767E-03  0.21056636299E-01  0.23940682013E-01  0.00000000000E+00 0. -1.
     999901    1    3    3    0    0 -0.15166051857E-01  0.82333397873E-01  0.79848675340E-01  0.88757231170E+00  0.88000000000E+00 0.  1.
        -11    1    4    4    0    0  0.20657021908E-02 -0.68970526538E-01 -0.93366414989E-01  0.11609801560E+00  0.51100000000E-03 0. -1.
         11    1    4    4    0    0  0.17520184578E-02 -0.14357708903E-01 -0.75388966498E-02  0.16318990696E-01  0.51100000000E-03 0.  1.
</event>
<event>
 8    1  0.1010879E+005  0.1043930E+01  0.7957747E-01            NaN
         13   -1    0    0    0    0  0.00000000000E+00  0.00000000000E+00  0.74505805969E-08  0.10566000000E+00  0.10566000000E+00 0. -1.
     999900   -1    0    0    0    0 -0.00000000000E+00 -0.00000000000E+00 -0.74505805969E-08  0.93827000000E+00  0.93827000000E+00 0.  1.
     999902    2    1    2    0    0 -0.48403939472E-02  0.17424723509E-01  0.16431904619E-01  0.10194952319E+01  0.10192023695E+01 0.  0.
     999903    2    3    3    0    0  0.56722635214E-01  0.73477088393E-01  0.92107514170E-01  0.13233195941E+00  0.20288258924E-01 0.  0.
         14    1    1    2    0    0  0.48403939472E-02 -0.17424723509E-01 -0.16431904619E-01  0.24434768105E-01  0.00000000000E+00 0.  1.
     999901    1    3    3    0    0 -0.61563029161E-01 -0.56052364884E-01 -0.75675609551E-01  0.88716327249E+00  0.88000000000E+00 0.  1.
        -11    1    4    4    0    0  0.76050312820E-02  0.12275367859E-01  0.25901545295E-01  0.29659270499E-01  0.51100000000E-03 0.  1.
         11    1    4    4    0    0  0.49117603932E-01  0.61201720534E-01  0.66205968875E-01  0.10267268891E+00  0.51100000000E-03 0. -1.
</event>
<event>
 8    1  0.1010879E+005  0.1043930E+01  0.7957747E-01            NaN
         13   -1    0    0    0    0  0.00000000000E+00  0.00000000000E+00  0.74505805969E-08  0.10566000000E+00  0.10566000000E+00 0.  1.
     999900   -1    0    0    0    0 -0.00000000000E+00 -0.00000000000E+00 -0.74505805969E-08  0.93827000000E+00  0.93827000000E+00 0. -1.
     999902    2    1    2    0    0  0.21310639620E-01  0.71420715634E-02  0.79620696987E-02  0.10200857743E+01  0.10198070601E+01 0.  0.
     999903    2    3    3    0    0 -0.77422900059E-01 -0.79987875665E-01 -0.59167747153E-01  0.12775940355E+00  0.20719005391E-01 0.  0.
         14    1    1    2    0    0 -0.21310639620E-01 -0.71420715634E-02 -0.79620696987E-02  0.23844225740E-01  0.00000000000E+00 0. -1.
     999901    1    3    3    0    0  0.98733539679E-01  0.87129947228E-01  0.67129816851E-01  0.89232637071E+00  0.88000000000E+00 0.  1.
        -11    1    4    4    0    0 -0.69654693149E-01 -0.74119461110E-01 -0.46672605480E-01  0.11191096468E+00  0.51100000000E-03 0.  1.
         11    1    4    4    0    0 -0.77682069107E-02 -0.58684145550E-02 -0.12495141673E-01  0.15848438864E-01  0.51100000000E-03 0. -1.
</event>
<event>
 8    1  0.1010879E+005  0.1043930E+01  0.7957747E-01            NaN
         13   -1    0    0    0    0  0.00000000000E+00  0.00000000000E+00  0.74505805969E-08  0.10566000000E+00  0.10566000000E+00 0. -1.
     999900   -1    0    0    0    0 -0.00000000000E+00 -0.00000000000E+00 -0.74505805969E-08  0.93827000000E+00  0.93827000000E+00 0. -1.
     999902    2    1    2    0    0 -0.75147452491E-02  0.23189397971E-01 -0.72885340064E-02  0.10184870776E+01  0.10181692319E+01 0.  0.
     999903    2    3    3    0    0 -0.58440533408E-01 -0.62915539477E-01 -0.92994302242E-01  0.12868205686E+00  0.23183409052E-01 0.  0.
         14    1    1    2    0    0  0.75147452491E-02 -0.23189397971E-01  0.72885340064E-02  0.25442922442E-01  0.00000000000E+00 0.  1.
     999901    1    3    3    0    0  0.50925788159E-01  0.86104937448E-01  0.85705768236E-01  0.88980502070E+00  0.88000000000E+00 0.  1.
        -11    1    4    4    0    0 -0.59220336212E-02 -0.20696704546E-01 -0.23843632976E-01  0.32127932018E-01  0.51100000000E-03 0.  1.
         11    1    4    4    0    0 -0.52518499787E-01 -0.42218834931E-01 -0.69150669266E-01  0.96554124841E-01  0.51100000000E-03 0. -1.
</event>
<event>
 8    1  0.1158151E+005  0.1043930E+01  0.7957747E-01            NaN
         13   -1    0    0    0    0  0.00000000000E+00  0.00000000000E+00  0.74505805969E-08  0.10566000000E+00  0.10566000000E+00 0.  1.
     999900   -1    0    0    0    0 -0.00000000000E+00 -0.00000000000E+00 -0.74505805969E-08  0.93827000000E+00  0.93827000000E+00 0. -1.
     999902    2    1    2    0    0 -0.19140551594E-01 -0.56227031936E-02 -0.12058407105E-01  0.10206194726E+01  0.10203532364E+01 0.  0.
     999903    2    3    3    0    0  0.84970963956E-01  0.85007969999E-01 -0.43539480685E-01  0.12930348788E+00  0.19423849276E-01 0.  0.
         14    1    1    2    0    0  0.19140551594E-01  0.56227031936E-02  0.12058407105E-01  0.23310527417E-01  0.00000000000E+00 0. -1.
     999901    1    3    3    0    0 -0.10411151555E+00 -0.90630673193E-01  0.31481073580E-01  0.89131598470E+00  0.88000000000E+00 0.  1.
        -11    1    4    4    0    0  0.61208634768E-01  0.50161617302E-01 -0.23160467948E-01  0.82458190722E-01  0.51100000000E-03 0.  1.
         11    1    4    4    0    0  0.23762329187E-01  0.34846352697E-01 -0.20379012737E-01  0.46845297158E-01  0.51100000000E-03 0. -1.
</event>
<event>
 8    1  0.1010879E+005  0.1043930E+01  0.7957747E-01            NaN
         13   -1    0    0    0    0  0.00000000000E+00  0.00000000000E+00  0.74505805969E-08  0.10566000000E+00  0.10566000000E+00 0. -1.
     999900   -1    0    0    0    0 -0.00000000000E+00 -0.00000000000E+00 -0.74505805969E-08  0.93827000000E+00  0.93827000000E+00 0. -1.
     999902    2    1    2    0    0  0.64136300684E-02 -0.11017743894E-01  0.20515032253E-01  0.10197764934E+01  0.10194904142E+01 0.  0.
     999903    2    3    3    0    0 -0.57794721263E-01 -0.63942678680E-01 -0.93371938054E-01  0.12854475976E+00  0.19404651056E-01 0.  0.
         14    1    1    2    0    0 -0.64136300684E-02  0.11017743894E-01 -0.20515032253E-01  0.24153506568E-01  0.00000000000E+00 0.  1.
     999901    1    3    3    0    0  0.64208351331E-01  0.52924934787E-01  0.11388697031E+00  0.89123173367E+00  0.88000000000E+00 0.  1.
        -11    1    4    4    0    0 -0.12451508329E-01 -0.26886614142E-01 -0.27855879709E-01  0.40671135158E-01  0.51100000000E-03 0.  1.
         11    1    4    4    0    0 -0.45343212934E-01 -0.37056064538E-01 -0.65516058345E-01  0.87873624600E-01  0.51100000000E-03 0. -1.
</event>
<event>
 8    1  0.1010879E+005  0.1043930E+01  0.7957747E-01            NaN
         13   -1    0    0    0    0  0.00000000000E+00  0.00000000000E+00  0.74505805969E-08  0.10566000000E+00  0.10566000000E+00 0.  1.
     999900   -1    0    0    0    0 -0.00000000000E+00 -0.00000000000E+00 -0.74505805969E-08  0.93827000000E+00  0.93827000000E+00 0. -1.
     999902    2    1    2    0    0 -0.16866532543E-01 -0.74441283865E-02 -0.15569603871E-01  0.10197989509E+01  0.10195134098E+01 0.  0.
     999903    2    3    3    0    0 -0.15123948437E-01 -0.12913049232E+00 -0.23100652596E-02  0.13132474014E+00  0.18369352379E-01 0.  0.
         14    1    1    2    0    0  0.16866532543E-01  0.74441283865E-02  0.15569603871E-01  0.24131049131E-01  0.00000000000E+00 0. -1.
     999901    1    3    3    0    0 -0.17425841065E-02  0.12168636394E+00 -0.13259538611E-01  0.88847421073E+00  0.88000000000E+00 0. -1.
        -11    1    4    4    0    0 -0.17429494615E-01 -0.93746772512E-01  0.33499598404E-02  0.95413458122E-01  0.51100000000E-03 0.  1.
         11    1    4    4    0    0  0.23055461780E-02 -0.35383719813E-01 -0.56600251000E-02  0.35911282017E-01  0.51100000000E-03 0. -1.
</event>
<event>
 8    1  0.1010879E+005  0.1043930E+01  0.7957747E-01            NaN
         13   -1    0    0    0    0  0.00000000000E+00  0.00000000000E+00  0.74505805969E-08  0.10566000000E+00  0.10566000000E+00 0.  1.
     999900   -1    0    0    0    0 -0.00000000000E+00 -0.00000000000E+00 -0.74505805969E-08  0.93827000000E+00  0.93827000000E+00 0.  1.
     999902    2    1    2    0    0  0.20648973597E-01  0.78006706783E-02  0.16238261084E-01  0.10165272320E+01  0.10161578133E+01 0.  0.
     999903    2    3    3    0    0 -0.11838431951E+00  0.13296017024E-01 -0.29545104898E-01  0.12441929452E+00  0.20386673419E-01 0.  0.
         14    1    1    2    0    0 -0.20648973597E-01 -0.78006706783E-02 -0.16238261084E-01  0.27402768047E-01  0.00000000000E+00 0. -1.
     999901    1    3    3    0    0  0.13903329310E+00 -0.54953463458E-02  0.45783365982E-01  0.89210793743E+00  0.88000000000E+00 0.  1.
        -11    1    4    4    0    0 -0.26264192609E-01 -0.37894209886E-02 -0.11868416561E-01  0.29073836305E-01  0.51100000000E-03 0. -1.
         11    1    4    4    0    0 -0.92120126896E-01  0.17085438013E-01 -0.17676688336E-01  0.95345458219E-01  0.51100000000E-03 0.  1.
</event>
<event>
 8    1  0.1010879E+005  0.1043930E+01  0.7957747E-01            NaN
         13   -1    0    0    0    0  0.00000000000E+00  0.00000000000E+00  0.74505805969E-08  0.10566000000E+00  0.10566000000E+00 0. -1.
     999900   -1    0    0    0    0 -0.00000000000E+00 -0.00000000000E+00 -0.74505805969E-08  0.93827000000E+00  0.93827000000E+00 0. -1.
     999902    2    1    2    0    0  0.22302804339E-01 -0.26566279065E-02  0.84108637182E-02  0.10199463518E+01  0.10196643296E+01 0.  0.
     999903    2    3    3    0    0 -0.88771998786E-01 -0.78583416150E-02  0.91210225840E-01  0.12909260168E+00  0.20084153163E-01 0.  0.
         14    1    1    2    0    0 -0.22302804339E-01  0.26566279065E-02 -0.84108637182E-02  0.23983648215E-01  0.00000000000E+00 0. -1.
     999901    1    3    3    0    0  0.11107480313E+00  0.52017137085E-02 -0.82799362121E-01  0.89085375011E+00  0.88000000000E+00 0. -1.
        -11    1    4    4    0    0 -0.10689622339E-01 -0.47351623870E-02  0.49739963869E-02  0.12715799214E-01  0.51100000000E-03 0. -1.
         11    1    4    4    0    0 -0.78082376447E-01 -0.31231792280E-02  0.86236229453E-01  0.11637680246E+00  0.51100000000E-03 0.  1.
</event>
<event>
 8    1  0.1010879E+005  0.1043930E+01  0.7957747E-01            NaN
         13   -1    0    0    0    0  0.00000000000E+00  0.00000000000E+00  0.74505805969E-08  0.10566000000E+00  0.10566000000E+00 0. -1.
     999900   -1    0    0    0    0 -0.00000000000E+00 -0.00000000000E+00 -0.74505805969E-08  0.93827000000E+00  0.93827000000E+00 0.  1.
     999902    2    1    2    0    0  0.21968129469E-01  0.10998780892E-01 -0.16231643696E-02  0.10193087377E+01  0.10190113327E+01 0.  0.
     999903    2    3    3    0    0  0.71309543629E-02 -0.55987284579E-01 -0.11447494676E+00  0.12945324411E+00  0.21637985820E-01 0.  0.
         14    1    1    2    0    0 -0.21968129469E-01 -0.10998780892E-01  0.16231643696E-02  0.24621262276E-01  0.00000000000E+00 0. -1.
     999901    1    3    3    0    0  0.14837175106E-01  0.66986065471E-01  0.11285178239E+00  0.88985549362E+00  0.88000000000E+00 0. -1.
        -11    1    4    4    0    0 -0.20391115869E-02 -0.16744770233E-01 -0.55600884405E-01  0.58105634613E-01  0.51100000000E-03 0. -1.
         11    1    4    4    0    0  0.91700659498E-02 -0.39242514346E-01 -0.58874062352E-01  0.71347609495E-01  0.51100000000E-03 0.  1.
</event>
<event>
 8    1  0.1010879E+005  0.1043930E+01  0.7957747E-01            NaN
         13   -1    0    0    0    0  0.00000000000E+00  0.00000000000E+00  0.74505805969E-08  0.10566000000E+00  0.10566000000E+00 0.  1.
     999900   -1    0    0    0    0 -0.00000000000E+00 -0.00000000000E+00 -0.74505805969E-08  0.93827000000E+00  0.93827000000E+00 0. -1.
     999902    2    1    2    0    0 -0.11300231078E-01 -0.15006340022E-01 -0.13739380664E-01  0.10206564948E+01  0.10203911134E+01 0.  0.
     999903    2    3    3    0    0  0.89922512536E-01 -0.57457188104E-01  0.71058747225E-01  0.12979239696E+00  0.20232004982E-01 0.  0.
         14    1    1    2    0    0  0.11300231078E-01  0.15006340022E-01  0.13739380664E-01  0.23273505201E-01  0.00000000000E+00 0.  1.
     999901    1    3    3    0    0 -0.10122274361E+00  0.42450848082E-01 -0.84798127889E-01  0.89086409784E+00  0.88000000000E+00 0.  1.
        -11    1    4    4    0    0  0.36625166043E-01 -0.25365018240E-01  0.41596727604E-01  0.60953554502E-01  0.51100000000E-03 0.  1.
         11    1    4    4    0    0  0.53297346493E-01 -0.32092169864E-01  0.29462019621E-01  0.68838842457E-01  0.51100000000E-03 0. -1.
</event>
<event>
 8    1  0.1010879E+005  0.1043930E+01  0.7957747E-01            NaN
         13   -1    0    0    0    0  0.00000000000E+00  0.00000000000E+00  0.74505805969E-08  0.10566000000E+00  0.10566000000E+00 0.  1.
     999900   -1    0    0    0    0 -0.00000000000E+00 -0.00000000000E+00 -0.74505805969E-08  0.93827000000E+00  0.93827000000E+00 0. -1.
     999902    2    1    2    0    0  0.39970779991E-02  0.21996122718E-01 -0.61772974634E-02  0.10207359264E+01  0.10204723741E+01 0.  0.
     999903    2    3    3    0    0 -0.15115808835E-02 -0.10400790956E+00 -0.73906782147E-01  0.12916728372E+00  0.20051050060E-01 0.  0.
         14    1    1    2    0    0 -0.39970779991E-02 -0.21996122718E-01  0.61772974634E-02  0.23194073620E-01  0.00000000000E+00 0. -1.
     999901    1    3    3    0    0  0.55086588826E-02  0.12600403228E+00  0.67729484683E-01  0.89156864266E+00  0.88000000000E+00 0.  1.
        -11    1    4    4    0    0 -0.38300956539E-02 -0.30275492212E-01 -0.32440708567E-01  0.44541393723E-01  0.51100000000E-03 0. -1.
         11    1    4    4    0    0  0.23185147704E-02 -0.73732417351E-01 -0.41466073579E-01  0.84625890000E-01  0.51100000000E-03 0.  1.
</event>
<event>
 8    1  0.1010879E+005  0.1043930E+01  0.7957747E-01            NaN
         13   -1    0    0    0    0  0.00000000000E+00  0.00000000000E+00  0.74505805969E-08  0.10566000000E+00  0.10566000000E+00 0.  1.
     999900   -1    0    0    0    0 -0.00000000000E+00 -0.00000000000E+00 -0.74505805969E-08  0.93827000000E+00  0.93827000000E+00 0.  1.
     999902    2    1    2    0    0 -0.11114227258E-01  0.20361837483E-01 -0.41086196792E-02  0.10203713237E+01  0.10200993221E+01 0.  0.
     999903    2    3    3    0    0  0.10369539060E-01  0.13105598595E+00  0.75300628082E-02  0.13310011057E+00  0.19383982932E-01 0.  0.
         14    1    1    2    0    0  0.11114227258E-01 -0.20361837483E-01  0.41086196792E-02  0.23558676297E-01  0.00000000000E+00 0.  1.
     999901    1    3    3    0    0 -0.21483766317E-01 -0.11069414847E+00 -0.11638682487E-01  0.88727121313E+00  0.88000000000E+00 0. -1.
        -11    1    4    4    0    0  0.46398108848E-02  0.74732408508E-01  0.13794238856E-01  0.76138051414E-01  0.51100000000E-03 0.  1.
         11    1    4    4    0    0  0.57297281748E-02  0.56323577444E-01 -0.62641760474E-02  0.56962059158E-01  0.51100000000E-03 0. -1.
</event>
<event>
 8    1  0.1010879E+005  0.1043930E+01  0.7957747E-01            NaN
         13   -1    0    0    0    0  0.00000000000E+00  0.00000000000E+00  0.74505805969E-08  0.10566000000E+00  0.10566000000E+00 0. -1.
     999900   -1    0    0    0    0 -0.00000000000E+00 -0.00000000000E+00 -0.74505805969E-08  0.93827000000E+00  0.93827000000E+00 0.  1.
     999902    2    1    2    0    0  0.29686741879E-02 -0.22550441506E-01  0.47014699369E-03  0.10211801324E+01  0.10209266900E+01 0.  0.
     999903    2    3    3    0    0  0.53099804581E-01 -0.54676170234E-01 -0.10692234129E+00  0.13265419622E+00  0.18859370901E-01 0.  0.
         14    1    1    2    0    0 -0.29686741879E-02  0.22550441506E-01 -0.47014699369E-03  0.22749867621E-01  0.00000000000E+00 0. -1.
     999901    1    3    3    0    0 -0.50131130393E-01  0.32125728728E-01  0.10739248828E+00  0.88852593616E+00  0.88000000000E+00 0. -1.
        -11    1    4    4    0    0  0.37622627642E-01 -0.25537782642E-01 -0.59759480035E-01  0.75093921378E-01  0.51100000000E-03 0. -1.
         11    1    4    4    0    0  0.15477176939E-01 -0.29138387593E-01 -0.47162861256E-01  0.57560274846E-01  0.51100000000E-03 0.  1.
</event>
<event>
 8    1  0.1010879E+005  0.1043930E+01  0.7957747E-01            NaN
         13   -1    0    0    0    0  0.00000000000E+00  0.00000000000E+00  0.74505805969E-08  0.10566000000E+00  0.10566000000E+00 0. -1.
     999900   -1    0    0    0    0 -0.00000000000E+00 -0.00000000000E+00 -0.74505805969E-08  0.93827000000E+00  0.93827000000E+00 0.  1.
     999902    2    1    2    0    0  0.53481573074E-02  0.10322737758E-01  0.19514136976E-01  0.10212151757E+01  0.10209625222E+01 0.  0.
     999903    2    3    3    0    0 -0.36678272012E-01 -0.27106776295E-01 -0.11868016985E+00  0.12865433422E+00  0.19669317200E-01 0.  0.
         14    1    1    2    0    0 -0.53481573074E-02 -0.10322737758E-01 -0.19514136976E-01  0.22714824308E-01  0.00000000000E+00 0.  1.
     999901    1    3    3    0    0  0.42026429319E-01  0.37429514053E-01  0.13819430683E+00  0.89256084147E+00  0.88000000000E+00 0. -1.
        -11    1    4    4    0    0 -0.10330755957E-01 -0.26024547564E-03 -0.13917617399E-01  0.17342244417E-01  0.51100000000E-03 0. -1.
         11    1    4    4    0    0 -0.26347516055E-01 -0.26846530819E-01 -0.10476255245E+00  0.11131208981E+00  0.51100000000E-03 0.  1.
</event>
<event>
 8    1  0.1010879E+005  0.1043930E+01  0.7957747E-01            NaN
         13   -1    0    0    0    0  0.00000000000E+00  0.00000000000E+00  0.74505805969E-08  0.10566000000E+00  0.10566000000E+00 0.  1.
     999900   -1    0    0    0    0 -0.00000000000E+00 -0.00000000000E+00 -0.74505805969E-08  0.93827000000E+00  0.93827000000E+00 0. -1.
     999902    2    1    2    0    0  0.70051387746E-02 -0.18511094282E-01  0.15794477926E-01  0.10186081100E+01  0.10182933191E+01 0.  0.
     999903    2    3    3    0    0  0.11494302932E+00  0.18471593219E-01  0.54382969335E-01  0.13040352823E+00  0.22236750569E-01 0.  0.
         14    1    1    2    0    0 -0.70051387746E-02  0.18511094282E-01 -0.15794477926E-01  0.25321890011E-01  0.00000000000E+00 0. -1.
     999901    1    3    3    0    0 -0.10793789054E+00 -0.36982687501E-01 -0.38588491410E-01  0.88820458176E+00  0.88000000000E+00 0. -1.
        -11    1    4    4    0    0  0.73964329835E-01  0.19015298774E-01  0.26523623356E-01  0.80845948522E-01  0.51100000000E-03 0. -1.
         11    1    4    4    0    0  0.40978699484E-01 -0.54370555438E-03  0.27859345979E-01  0.49557579708E-01  0.51100000000E-03 0.  1.
</event>
<event>
 8    1  0.1010879E+005  0.1043930E+01  0.7957747E-01            NaN
         13   -1    0    0    0    0  0.00000000000E+00  0.00000000000E+00  0.74505805969E-08  0.10566000000E+00  0.10566000000E+00 0.  1.
     999900   -1    0    0    0    0 -0.00000000000E+00 -0.00000000000E+00 -0.74505805969E-08  0.93827000000E+00  0.93827000000E+00 0. -1.
     999902    2    1    2    0    0 -0.68994699939E-02  0.24859240644E-02  0.22328072572E-01  0.10204283973E+01  0.10201577274E+01 0.  0.
     999903    2    3    3    0    0  0.51280759545E-01 -0.69425562389E-01  0.98265909943E-01  0.13232775203E+00  0.20120136352E-01 0.  0.
         14    1    1    2    0    0  0.68994699939E-02 -0.24859240644E-02 -0.22328072572E-01  0.23501602700E-01  0.00000000000E+00 0. -1.
     999901    1    3    3    0    0 -0.58180229538E-01  0.71911486453E-01 -0.75937837370E-01  0.88810064527E+00  0.88000000000E+00 0.  1.
        -11    1    4    4    0    0  0.19727645222E-01 -0.13836395520E-01  0.34083307408E-01  0.41743967131E-01  0.51100000000E-03 0.  1.
         11    1    4    4    0    0  0.31553114322E-01 -0.55589166869E-01  0.64182602535E-01  0.90583784894E-01  0.51100000000E-03 0. -1.
</event>
<event>
 8    1  0.1010879E+005  0.1043930E+01  0.7957747E-01            NaN
         13   -1    0    0    0    0  0.00000000000E+00  0.00000000000E+00  0.74505805969E-08  0.10566000000E+00  0.10566000000E+00 0.  1.
     999900   -1    0    0    0    0 -0.00000000000E+00 -0.00000000000E+00 -0.74505805969E-08  0.93827000000E+00  0.93827000000E+00 0.  1.
     999902    2    1    2    0    0 -0.23199174683E-01  0.70236732834E-02  0.75437622955E-03  0.10196791696E+01  0.10193907524E+01 0.  0.
     999903    2    3    3    0    0  0.10546608422E+00  0.11890908942E-01  0.68224518684E-01  0.12775391545E+00  0.20049671505E-01 0.  0.
         14    1    1    2    0    0  0.23199174683E-01 -0.70236732834E-02 -0.75437622955E-03  0.24250830416E-01  0.00000000000E+00 0. -1.
     999901    1    3    3    0    0 -0.12866525891E+00 -0.48672356591E-02 -0.67470142455E-01  0.89192525413E+00  0.88000000000E+00 0.  1.
        -11    1    4    4    0    0  0.11982565806E-01 -0.40147079840E-02  0.12409217172E-01  0.17718621711E-01  0.51100000000E-03 0.  1.
         11    1    4    4    0    0  0.93483518417E-01  0.15905616926E-01  0.55815301512E-01  0.11003529374E+00  0.51100000000E-03 0. -1.
</event>
<event>
 8    1  0.1242544E+005  0.1043930E+01  0.7957747E-01            NaN
         13   -1    0    0    0    0  0.00000000000E+00  0.00000000000E+00  0.74505805969E-08  0.10566000000E+00  0.10566000000E+00 0.  1.
     999900   -1    0    0    0    0 -0.00000000000E+00 -0.00000000000E+00 -0.74505805969E-08  0.93827000000E+00  0.93827000000E+00 0. -1.
     999902    2    1    2    0    0 -0.11232540977E-01 -0.12997609270E-01 -0.15997594425E-01  0.10204559537E+01  0.10201859255E+01 0.  0.
     999903    2    3    3    0    0 -0.10752047713E+00  0.69473756977E-01  0.17301617886E-01  0.13074716399E+00  0.20204430203E-01 0.  0.
         14    1    1    2    0    0  0.11232540977E-01  0.12997609270E-01  0.15997594425E-01  0.23474046326E-01  0.00000000000E+00 0.  1.
     999901    1    3    3    0    0  0.96287936151E-01 -0.82471366247E-01 -0.33299212311E-01  0.88970878968E+00  0.88000000000E+00 0. -1.
        -11    1    4    4    0    0 -0.91448491398E-01  0.49950225686E-01  0.11856448389E-01  0.10487463046E+00  0.51100000000E-03 0.  1.
         11    1    4    4    0    0 -0.16071985730E-01  0.19523531290E-01  0.54451694974E-02  0.25872533529E-01  0.51100000000E-03 0. -1.
</event>
<event>
 8    1  0.1010879E+005  0.1043930E+01  0.7957747E-01            NaN
         13   -1    0    0    0    0  0.00000000000E+00  0.00000000000E+00  0.74505805969E-08  0.10566000000E+00  0.10566000000E+00 0. -1.
     999900   -1    0    0    0    0 -0.00000000000E+00 -0.00000000000E+00 -0.74505805969E-08  0.93827000000E+00  0.93827000000E+00 0. -1.
     999902    2    1    2    0    0 -0.16144549083E-01 -0.72966178082E-02  0.16114319945E-01  0.10199809206E+01  0.10196997205E+01 0.  0.
     999903    2    3    3    0    0 -0.11140863393E+00  0.22880864663E-01 -0.58387781489E-01  0.13119720708E+00  0.29464494523E-01 0.  0.
         14    1    1    2    0    0  0.16144549083E-01  0.72966178082E-02 -0.16114319945E-01  0.23949079394E-01  0.00000000000E+00 0.  1.
     999901    1    3    3    0    0  0.95264084843E-01 -0.30177482471E-01  0.74502101434E-01  0.88878371353E+00  0.88000000000E+00 0.  1.
        -11    1    4    4    0    0 -0.35457141097E-01 -0.47735376228E-02 -0.10694938800E-01  0.37344857118E-01  0.51100000000E-03 0. -1.
         11    1    4    4    0    0 -0.75951492829E-01  0.27654402286E-01 -0.47692842689E-01  0.93852349963E-01  0.51100000000E-03 0.  1.
</event>
<event>
 8    1  0.1010879E+005  0.1043930E+01  0.7957747E-01            NaN
         13   -1    0    0    0    0  0.00000000000E+00  0.00000000000E+00  0.74505805969E-08  0.10566000000E+00  0.10566000000E+00 0. -1.
     999900   -1    0    0    0    0 -0.00000000000E+00 -0.00000000000E+00 -0.74505805969E-08  0.93827000000E+00  0.93827000000E+00 0.  1.
     999902    2    1    2    0    0  0.20463381018E-01  0.10142665764E-01 -0.54159110064E-02  0.10204575540E+01  0.10201875630E+01 0.  0.
     999903    2    3    3    0    0  0.62799298217E-01  0.45801558758E-01 -0.10593918996E+00  0.13300681383E+00  0.20643786297E-01 0.  0.
         14    1    1    2    0    0 -0.20463381018E-01 -0.10142665764E-01  0.54159110064E-02  0.23472446049E-01  0.00000000000E+00 0.  1.
     999901    1    3    3    0    0 -0.42335917200E-01 -0.35658892995E-01  0.10052327896E+00  0.88745074012E+00  0.88000000000E+00 0. -1.
        -11    1    4    4    0    0  0.47994117195E-01  0.44257050011E-01 -0.82053399920E-01  0.10485772895E+00  0.51100000000E-03 0. -1.
         11    1    4    4    0    0  0.14805181023E-01  0.15445087477E-02 -0.23885790045E-01  0.28149084878E-01  0.51100000000E-03 0.  1.
</event>
<event>
 8    1  0.1010879E+005  0.1043930E+01  0.7957747E-01            NaN
         13   -1    0    0    0    0  0.00000000000E+00  0.00000000000E+00  0.74505805969E-08  0.10566000000E+00  0.10566000000E+00 0.  1.
     999900   -1    0    0    0    0 -0.00000000000E+00 -0.00000000000E+00 -0.74505805969E-08  0.93827000000E+00  0.93827000000E+00 0. -1.
     999902    2    1    2    0    0 -0.90211419206E-02  0.70115294373E-03  0.24242392867E-01  0.10180540222E+01  0.10177251229E+01 0.  0.
     999903    2    3    3    0    0  0.14102031390E-01 -0.44913892105E-01  0.12086760134E+00  0.13128920307E+00  0.20291692750E-01 0.  0.
         14    1    1    2    0    0  0.90211419206E-02 -0.70115294373E-03 -0.24242392867E-01  0.25875977835E-01  0.00000000000E+00 0. -1.
     999901    1    3    3    0    0 -0.23123173311E-01  0.45615045048E-01 -0.96625208474E-01  0.88676481910E+00  0.88000000000E+00 0. -1.
        -11    1    4    4    0    0 -0.52052710353E-02 -0.11641886734E-01  0.32035230367E-01  0.34483988733E-01  0.51100000000E-03 0. -1.
         11    1    4    4    0    0  0.19307302425E-01 -0.33272005370E-01  0.88832370974E-01  0.96805214333E-01  0.51100000000E-03 0.  1.
</event>
<event>
 8    1  0.1010879E+005  0.1043930E+01  0.7957747E-01            NaN
         13   -1    0    0    0    0  0.00000000000E+00  0.00000000000E+00  0.74505805969E-08  0.10566000000E+00  0.10566000000E+00 0.  1.
     999900   -1    0    0    0    0 -0.00000000000E+00 -0.00000000000E+00 -0.74505805969E-08  0.93827000000E+00  0.93827000000E+00 0.  1.
     999902    2    1    2    0    0 -0.40066479312E-02  0.22688960294E-01 -0.24272598353E-02  0.10207624853E+01  0.10204995432E+01 0.  0.
     999903    2    3    3    0    0  0.11530515372E+00  0.42011583764E-01  0.42594759093E-01  0.13136063463E+00  0.19520532386E-01 0.  0.
         14    1    1    2    0    0  0.40066479312E-02 -0.22688960294E-01  0.24272598353E-02  0.23167514695E-01  0.00000000000E+00 0. -1.
     999901    1    3    3    0    0 -0.11931180165E+00 -0.19322623470E-01 -0.45022018928E-01  0.88940185067E+00  0.88000000000E+00 0. -1.
        -11    1    4    4    0    0  0.75111021906E-01  0.19266096066E-01  0.20772090897E-01  0.80278197231E-01  0.51100000000E-03 0. -1.
         11    1    4    4    0    0  0.40194131812E-01  0.22745487697E-01  0.21822668196E-01  0.51082437402E-01  0.51100000000E-03 0.  1.
</event>
<event>
 8    1  0.1010879E+005  0.1043930E+01  0.7957747E-01            NaN
         13   -1    0    0    0    0  0.00000000000E+00  0.00000000000E+00  0.74505805969E-08  0.10566000000E+00  0.10566000000E+00 0.  1.
     999900   -1    0    0    0    0 -0.00000000000E+00 -0.00000000000E+00 -0.74505805969E-08  0.93827000000E+00  0.93827000000E+00 0. -1.
     999902    2    1    2    0    0  0.11996290883E-01  0.77403291320E-02  0.16976403040E-01  0.10217484322E+01  0.10215076293E+01 0.  0.
     999903    2    3    3    0    0 -0.11727923136E+00 -0.18289570469E-01  0.50509248933E-01  0.13129115187E+00  0.24438818208E-01 0.  0.
         14    1    1    2    0    0 -0.11996290883E-01 -0.77403291320E-02 -0.16976403040E-01  0.22181567803E-01  0.00000000000E+00 0. -1.
     999901    1    3    3    0    0  0.12927552225E+00  0.26029899601E-01 -0.33532845893E-01  0.89045728032E+00  0.88000000000E+00 0. -1.
        -11    1    4    4    0    0 -0.39551608655E-01 -0.46601540175E-02  0.48598830586E-02  0.40123887736E-01  0.51100000000E-03 0. -1.
         11    1    4    4    0    0 -0.77727622709E-01 -0.13629416451E-01  0.45649365874E-01  0.91167264139E-01  0.51100000000E-03 0.  1.
</event>
<event>
 8    1  0.1010879E+005  0.1043930E+01  0.7957747E-01            NaN
         13   -1    0    0    0    0  0.00000000000E+00  0.00000000000E+00  0.74505805969E-08  0.10566000000E+00  0.10566000000E+00 0.  1.
     999900   -1    0    0    0    0 -0.00000000000E+00 -0.00000000000E+00 -0.74505805969E-08  0.93827000000E+00  0.93827000000E+00 0. -1.
     999902    2    1    2    0    0  0.13653058124E-01  0.18515703066E-01 -0.90874265857E-02  0.10191950333E+01  0.10188948411E+01 0.  0.
     999903    2    3    3    0    0  0.88182619969E-02  0.57646190794E-01 -0.11654786350E+00  0.13178176101E+00  0.19549501032E-01 0.  0.
         14    1    1    2    0    0 -0.13653058124E-01 -0.18515703066E-01  0.90874265857E-02  0.24734966710E-01  0.00000000000E+00 0.  1.
     999901    1    3    3    0    0  0.48347961273E-02 -0.39130487728E-01  0.10746043691E+00  0.88741327228E+00  0.88000000000E+00 0.  1.
        -11    1    4    4    0    0 -0.50797211960E-02  0.27940624866E-01 -0.47611454548E-01  0.55440001898E-01  0.51100000000E-03 0. -1.
         11    1    4    4    0    0  0.13897983193E-01  0.29705565928E-01 -0.68936408950E-01  0.76341759109E-01  0.51100000000E-03 0.  1.
</event>
<event>
 8    1  0.1010879E+005  0.1043930E+01  0.7957747E-01            NaN
         13   -1    0    0    0    0  0.00000000000E+00  0.00000000000E+00  0.74505805969E-08  0.10566000000E+00  0.10566000000E+00 0.  1.
     999900   -1    0    0    0    0 -0.00000000000E+00 -0.00000000000E+00 -0.74505805969E-08  0.93827000000E+00  0.93827000000E+00 0. -1.
     999902    2    1    2    0    0  0.40224937175E-02  0.13916198235E-01  0.18880147121E-01  0.10201329207E+01  0.10198553206E+01 0.  0.
     999903    2    3    3    0    0  0.81063161611E-01 -0.97265604914E-01  0.20347698362E-01  0.12979657324E+00  0.20032162305E-01 0.  0.
         14    1    1    2    0    0 -0.40224937175E-02 -0.13916198235E-01 -0.18880147121E-01  0.23797079323E-01  0.00000000000E+00 0.  1.
     999901    1    3    3    0    0 -0.77040667893E-01  0.11118180315E+00 -0.14675512408E-02  0.89033634744E+00  0.88000000000E+00 0.  1.
        -11    1    4    4    0    0  0.40882982205E-01 -0.38674010872E-01  0.16487835052E-01  0.58644754042E-01  0.51100000000E-03 0.  1.
         11    1    4    4    0    0  0.40180179406E-01 -0.58591594042E-01  0.38598633095E-02  0.71151819198E-01  0.51100000000E-03 0. -1.
</event>
<event>
 8    1  0.1010879E+005  0.1043930E+01  0.7957747E-01            NaN
         13   -1    0    0    0    0  0.00000000000E+00  0.00000000000E+00  0.74505805969E-08  0.10566000000E+00  0.10566000000E+00 0.  1.
     999900   -1    0    0    0    0 -0.00000000000E+00 -0.00000000000E+00 -0.74505805969E-08  0.93827000000E+00  0.93827000000E+00 0. -1.
     999902    2    1    2    0    0 -0.12705041732E-01  0.71408331995E-02  0.18643916958E-01  0.10202655705E+01  0.10199910927E+01 0.  0.
     999903    2    3    3    0    0 -0.91408405410E-01  0.29948370025E-01  0.90488262210E-01  0.13354350968E+00  0.19832849864E-01 0.  0.
         14    1    1    2    0    0  0.12705041732E-01 -0.71408331995E-02 -0.18643916958E-01  0.23664429503E-01  0.00000000000E+00 0. -1.
     999901    1    3    3    0    0  0.78703363678E-01 -0.22807536825E-01 -0.71844345252E-01  0.88672206081E+00  0.88000000000E+00 0. -1.
        -11    1    4    4    0    0 -0.64449118259E-01  0.22116682671E-01  0.51102578735E-01  0.85173770440E-01  0.51100000000E-03 0.  1.
         11    1    4    4    0    0 -0.26959287151E-01  0.78316873540E-02  0.39385683475E-01  0.48369739242E-01  0.51100000000E-03 0. -1.
</event>
<event>
 8    1  0.1010879E+005  0.1043930E+01  0.7957747E-01            NaN
         13   -1    0    0    0    0  0.00000000000E+00  0.00000000000E+00  0.74505805969E-08  0.10566000000E+00  0.10566000000E+00 0. -1.
     999900   -1    0    0    0    0 -0.00000000000E+00 -0.00000000000E+00 -0.74505805969E-08  0.93827000000E+00  0.93827000000E+00 0.  1.
     999902    2    1    2    0    0  0.30686962626E-02 -0.17913926376E-01 -0.15006001527E-01  0.10203608308E+01  0.10200885840E+01 0.  0.
     999903    2    3    3    0    0 -0.90888082898E-01 -0.29477757174E-01  0.85293055468E-01  0.12961872482E+00  0.19912978979E-01 0.  0.
         14    1    1    2    0    0 -0.30686962626E-02  0.17913926376E-01  0.15006001527E-01  0.23569169200E-01  0.00000000000E+00 0. -1.
     999901    1    3    3    0    0  0.93956779161E-01  0.11563830799E-01 -0.10029905699E+00  0.89074210598E+00  0.88000000000E+00 0.  1.
        -11    1    4    4    0    0 -0.45054208559E-02 -0.16322716929E-02  0.12091791296E-01  0.13016745589E-01  0.51100000000E-03 0. -1.
         11    1    4    4    0    0 -0.86382662042E-01 -0.27845485481E-01  0.73201264171E-01  0.11660197923E+00  0.51100000000E-03 0.  1.
</event>
<event>
 8    1  0.1010879E+005  0.1043930E+01  0.7957747E-01            NaN
         13   -1    0    0    0    0  0.00000000000E+00  0.00000000000E+00  0.74505805969E-08  0.10566000000E+00  0.10566000000E+00 0.  1.
     999900   -1    0    0    0    0 -0.00000000000E+00 -0.00000000000E+00 -0.74505805969E-08  0.93827000000E+00  0.93827000000E+00 0.  1.
     999902    2    1    2    0    0 -0.78597494719E-02  0.10973881423E-01  0.19715520686E-01  0.10200364132E+01  0.10197565301E+01 0.  0.
     999903    2    3    3    0    0 -0.55052031359E-01  0.11413560141E+00  0.32914509176E-01  0.13265618733E+00  0.21369077096E-01 0.  0.
         14    1    1    2    0    0  0.78597494719E-02 -0.10973881423E-01 -0.19715520686E-01  0.23893586821E-01  0.00000000000E+00 0. -1.
     999901    1    3    3    0    0  0.47192281887E-01 -0.10316171998E+00 -0.13198988490E-01  0.88738022585E+00  0.88000000000E+00 0.  1.
        -11    1    4    4    0    0 -0.22655209474E-01  0.49653086171E-01  0.33897650921E-02  0.54684907525E-01  0.51100000000E-03 0. -1.
         11    1    4    4    0    0 -0.32396821886E-01  0.64482515236E-01  0.29524744084E-01  0.77971279800E-01  0.51100000000E-03 0.  1.
</event>
<event>
 8    1  0.1010879E+005  0.1043930E+01  0.7957747E-01            NaN
         13   -1    0    0    0    0  0.00000000000E+00  0.00000000000E+00  0.74505805969E-08  0.10566000000E+00  0.10566000000E+00 0.  1.
     999900   -1    0    0    0    0 -0.00000000000E+00 -0.00000000000E+00 -0.74505805969E-08  0.93827000000E+00  0.93827000000E+00 0.  1.
     999902    2    1    2    0    0  0.18537217781E-01 -0.12811796102E-01 -0.20253695743E-02  0.10213053965E+01  0.10210547685E+01 0.  0.
     999903    2    3    3    0    0  0.68368826302E-02  0.41856666595E-01  0.12215914239E+00  0.13082949469E+00  0.19868998703E-01 0.  0.
         14    1    1    2    0    0 -0.18537217781E-01  0.12811796102E-01  0.20253695743E-02  0.22624603518E-01  0.00000000000E+00 0. -1.
     999901    1    3    3    0    0  0.11700335151E-01 -0.54668462697E-01 -0.12418451196E+00  0.89047590179E+00  0.88000000000E+00 0.  1.
        -11    1    4    4    0    0 -0.50866363423E-02  0.24123211143E-01  0.53275737760E-01  0.58705779443E-01  0.51100000000E-03 0.  1.
         11    1    4    4    0    0  0.11923518973E-01  0.17733455452E-01  0.68883404630E-01  0.72123715250E-01  0.51100000000E-03 0. -1.
</event>
<event>
 8    1  0.1010879E+005  0.1043930E+01  0.7957747E-01            NaN
         13   -1    0    0    0    0  0.00000000000E+00  0.00000000000E+00  0.74505805969E-08  0.10566000000E+00  0.10566000000E+00 0.  1.
     999900   -1    0    0    0    0 -0.00000000000E+00 -0.00000000000E+00 -0.74505805969E-08  0.93827000000E+00  0.93827000000E+00 0. -1.
     999902    2    1    2    0    0 -0.85985662295E-02 -0.20432203436E-01 -0.86418443667E-02  0.10201373172E+01  0.10198598209E+01 0.  0.
     999903    2    3    3    0    0  0.99274635458E-01  0.13572670506E-01 -0.80208699656E-01  0.13001666595E+00  0.20766012955E-01 0.  0.
         14    1    1    2    0    0  0.85985662295E-02  0.20432203436E-01  0.86418443667E-02  0.23792682751E-01  0.00000000000E+00 0.  1.
     999901    1    3    3    0    0 -0.10787320169E+00 -0.34004873942E-01  0.71566855289E-01  0.89012065130E+00  0.88000000000E+00 0. -1.
        -11    1    4    4    0    0  0.42823182729E-01  0.16247052917E-01 -0.36595754349E-01  0.58628508977E-01  0.51100000000E-03 0. -1.
         11    1    4    4    0    0  0.56451452729E-01 -0.26743824106E-02 -0.43612945307E-01  0.71388156972E-01  0.51100000000E-03 0.  1.
</event>
<event>
 8    1  0.1010879E+005  0.1043930E+01  0.7957747E-01            NaN
         13   -1    0    0    0    0  0.00000000000E+00  0.00000000000E+00  0.74505805969E-08  0.10566000000E+00  0.10566000000E+00 0.  1.
     999900   -1    0    0    0    0 -0.00000000000E+00 -0.00000000000E+00 -0.74505805969E-08  0.93827000000E+00  0.93827000000E+00 0. -1.
     999902    2    1    2    0    0  0.10861574669E-03 -0.98793035528E-03 -0.23872336315E-01  0.10200369833E+01  0.10197571138E+01 0.  0.
     999903    2    3    3    0    0  0.71059639115E-01  0.39621702994E-01  0.96900090365E-01  0.12803408588E+00  0.19589486352E-01 0.  0.
         14    1    1    2    0    0 -0.10861574669E-03  0.98793035528E-03  0.23872336315E-01  0.23893016655E-01  0.00000000000E+00 0.  1.
     999901    1    3    3    0    0 -0.70951023368E-01 -0.40609633349E-01 -0.12077242668E+00  0.89200289746E+00  0.88000000000E+00 0. -1.
        -11    1    4    4    0    0  0.72319698311E-01  0.39051676465E-01  0.95528781823E-01  0.12602055974E+00  0.51100000000E-03 0. -1.
         11    1    4    4    0    0 -0.12600591964E-02  0.57002652878E-03  0.13713085417E-02  0.20135261455E-02  0.51100000000E-03 0.  1.
</event>
<event>
 8    1  0.1010879E+005  0.1043930E+01  0.7957747E-01            NaN
         13   -1    0    0    0    0  0.00000000000E+00  0.00000000000E+00  0.74505805969E-08  0.10566000000E+00  0.10566000000E+00 0.  1.
     999900   -1    0    0    0    0 -0.00000000000E+00 -0.00000000000E+00 -0.74505805969E-08  0.93827000000E+00  0.93827000000E+00 0. -1.
     999902    2    1    2    0    0  0.18587929289E-01  0.80844010328E-02 -0.12421244233E-01  0.10201569909E+01  0.10198799586E+01 0.  0.
     999903    2    3    3    0    0  0.10377584264E+00  0.76622876251E-01 -0.26919491599E-01  0.13327216049E+00  0.19907763640E-01 0.  0.
         14    1    1    2    0    0 -0.18587929289E-01 -0.80844010328E-02  0.12421244233E-01  0.23773009141E-01  0.00000000000E+00 0.  1.
     999901    1    3    3    0    0 -0.85187913347E-01 -0.68538475219E-01  0.14498247366E-01  0.88688483037E+00  0.88000000000E+00 0.  1.
        -11    1    4    4    0    0  0.34143445961E-01  0.35943683506E-01 -0.58679146144E-02  0.49924110697E-01  0.51100000000E-03 0. -1.
         11    1    4    4    0    0  0.69632396676E-01  0.40679192746E-01 -0.21051576985E-01  0.83348049790E-01  0.51100000000E-03 0.  1.
</event>
<event>
 8    1  0.1010879E+005  0.1043930E+01  0.7957747E-01            NaN
         13   -1    0    0    0    0  0.00000000000E+00  0.00000000000E+00  0.74505805969E-08  0.10566000000E+00  0.10566000000E+00 0. -1.
     999900   -1    0    0    0    0 -0.00000000000E+00 -0.00000000000E+00 -0.74505805969E-08  0.93827000000E+00  0.93827000000E+00 0. -1.
     999902    2    1    2    0    0 -0.19968321002E-01  0.20187139427E-02 -0.12562169824E-01  0.10202526446E+01  0.10199778633E+01 0.  0.
     999903    2    3    3    0    0 -0.63126937673E-01 -0.46780743009E-01  0.10219267823E+00  0.13041404777E+00  0.19774534059E-01 0.  0.
         14    1    1    2    0    0  0.19968321002E-01 -0.20187139427E-02  0.12562169824E-01  0.23677355433E-01  0.00000000000E+00 0.  1.
     999901    1    3    3    0    0  0.43158616672E-01  0.48799456951E-01 -0.11475484805E+00  0.88983859679E+00  0.88000000000E+00 0. -1.
        -11    1    4    4    0    0 -0.38811962729E-01 -0.17040583821E-01  0.58305251730E-01  0.72086846568E-01  0.51100000000E-03 0. -1.
         11    1    4    4    0    0 -0.24314974945E-01 -0.29740159187E-01  0.43887426496E-01  0.58327201206E-01  0.51100000000E-03 0.  1.
</event>
<event>
 8    1  0.1010879E+005  0.1043930E+01  0.7957747E-01            NaN
         13   -1    0    0    0    0  0.00000000000E+00  0.00000000000E+00  0.74505805969E-08  0.10566000000E+00  0.10566000000E+00 0.  1.
     999900   -1    0    0    0    0 -0.00000000000E+00 -0.00000000000E+00 -0.74505805969E-08  0.93827000000E+00  0.93827000000E+00 0.  1.
     999902    2    1    2    0    0 -0.55485577428E-02 -0.12692332703E-01 -0.19210426806E-01  0.10202462017E+01  0.10199712691E+01 0.  0.
     999903    2    3    3    0    0  0.11941031799E+00 -0.31391416621E-01 -0.39772065154E-01  0.13098405965E+00  0.18186853362E-01 0.  0.
         14    1    1    2    0    0  0.55485577428E-02  0.12692332703E-01  0.19210426806E-01  0.23683798271E-01  0.00000000000E+00 0.  1.
     999901    1    3    3    0    0 -0.12495887574E+00  0.18699083918E-01  0.20561638348E-01  0.88926214208E+00  0.88000000000E+00 0. -1.
        -11    1    4    4    0    0  0.23956156195E-01 -0.36818790232E-02 -0.90700299619E-03  0.24259790358E-01  0.51100000000E-03 0. -1.
         11    1    4    4    0    0  0.95454161798E-01 -0.27709537598E-01 -0.38865062158E-01  0.10672426929E+00  0.51100000000E-03 0.  1.
</event>
<event>
 8    1  0.1010879E+005  0.1043930E+01  0.7957747E-01            NaN
         13   -1    0    0    0    0  0.00000000000E+00  0.00000000000E+00  0.74505805969E-08  0.10566000000E+00  0.10566000000E+00 0. -1.
     999900   -1    0    0    0    0 -0.00000000000E+00 -0.00000000000E+00 -0.74505805969E-08  0.93827000000E+00  0.93827000000E+00 0. -1.
     999902    2    1    2    0    0  0.19857251618E-01 -0.73718917880E-02 -0.12583262828E-01  0.10192927572E+01  0.10189949613E+01 0.  0.
     999903    2    3    3    0    0 -0.96331647591E-01 -0.55084295729E-01 -0.62869240946E-01  0.12895292690E+00  0.19032864615E-01 0.  0.
         14    1    1    2    0    0 -0.19857251618E-01  0.73718917880E-02  0.12583262828E-01  0.24637242819E-01  0.00000000000E+00 0.  1.
     999901    1    3    3    0    0  0.11618889921E+00  0.47712403941E-01  0.50285978118E-01  0.89033983028E+00  0.88000000000E+00 0.  1.
        -11    1    4    4    0    0 -0.43729673789E-01 -0.35868450767E-01 -0.32931422909E-01  0.65448986745E-01  0.51100000000E-03 0. -1.
         11    1    4    4    0    0 -0.52601973801E-01 -0.19215844963E-01 -0.29937818036E-01  0.63503940155E-01  0.51100000000E-03 0.  1.
</event>
<event>
 8    1  0.1010879E+005  0.1043930E+01  0.7957747E-01            NaN
         13   -1    0    0    0    0  0.00000000000E+00  0.00000000000E+00  0.74505805969E-08  0.10566000000E+00  0.10566000000E+00 0. -1.
     999900   -1    0    0    0    0 -0.00000000000E+00 -0.00000000000E+00 -0.74505805969E-08  0.93827000000E+00  0.93827000000E+00 0.  1.
     999902    2    1    2    0    0  0.74612685225E-02  0.11610678146E-01 -0.19473570372E-01  0.10200616461E+01  0.10197823609E+01 0.  0.
     999903    2    3    3    0    0 -0.57867670802E-01  0.82961945397E-01 -0.82964859771E-01  0.13248628734E+00  0.20930758879E-01 0.  0.
         14    1    1    2    0    0 -0.74612685225E-02 -0.11610678146E-01  0.19473570372E-01  0.23868353902E-01  0.00000000000E+00 0. -1.
     999901    1    3    3    0    0  0.65328939324E-01 -0.71351267250E-01  0.63491289399E-01  0.88757535876E+00  0.88000000000E+00 0. -1.
        -11    1    4    4    0    0 -0.28598876347E-01  0.28096935506E-01 -0.23660447860E-01  0.46555466135E-01  0.51100000000E-03 0.  1.
         11    1    4    4    0    0 -0.29268794455E-01  0.54865009891E-01 -0.59304411911E-01  0.85930821201E-01  0.51100000000E-03 0. -1.
</event>
<event>
 8    1  0.1010879E+005  0.1043930E+01  0.7957747E-01            NaN
         13   -1    0    0    0    0  0.00000000000E+00  0.00000000000E+00  0.74505805969E-08  0.10566000000E+00  0.10566000000E+00 0.  1.
     999900   -1    0    0    0    0 -0.00000000000E+00 -0.00000000000E+00 -0.74505805969E-08  0.93827000000E+00  0.93827000000E+00 0. -1.
     999902    2    1    2    0    0  0.13222001125E-01  0.56631607517E-02 -0.19171743446E-01  0.10199623458E+01  0.10196807041E+01 0.  0.
     999903    2    3    3    0    0 -0.82461573841E-01  0.88953001929E-01  0.39801277105E-01  0.12891220052E+00  0.17935051472E-01 0.  0.
         14    1    1    2    0    0 -0.13222001125E-01 -0.56631607517E-02  0.19171743446E-01  0.23967654249E-01  0.00000000000E+00 0.  1.
     999901    1    3    3    0    0  0.95683574966E-01 -0.83289841178E-01 -0.58973020551E-01  0.89105014523E+00  0.88000000000E+00 0. -1.
        -11    1    4    4    0    0 -0.63488305308E-01  0.60115856039E-01  0.34448639145E-01  0.93976863739E-01  0.51100000000E-03 0. -1.
         11    1    4    4    0    0 -0.18973268532E-01  0.28837145891E-01  0.53526379595E-02  0.34935336782E-01  0.51100000000E-03 0.  1.
</event>
<event>
 8    1  0.1010879E+005  0.1043930E+01  0.7957747E-01            NaN
         13   -1    0    0    0    0  0.00000000000E+00  0.00000000000E+00  0.74505805969E-08  0.10566000000E+00  0.10566000000E+00 0. -1.
     999900   -1    0    0    0    0 -0.00000000000E+00 -0.00000000000E+00 -0.74505805969E-08  0.93827000000E+00  0.93827000000E+00 0. -1.
     999902    2    1    2    0    0  0.13566796037E-01 -0.96496875422E-02 -0.16213231984E-01  0.10206911679E+01  0.10204265858E+01 0.  0.
     999903    2    3    3    0    0 -0.36071288454E-01 -0.12467396110E+00 -0.11462385679E-01  0.13180585842E+00  0.19916415353E-01 0.  0.
         14    1    1    2    0    0 -0.13566796037E-01  0.96496875422E-02  0.16213231984E-01  0.23238832065E-01  0.00000000000E+00 0.  1.
     999901    1    3    3    0    0  0.49638084491E-01  0.11502427356E+00 -0.47508463047E-02  0.88888530952E+00  0.88000000000E+00 0. -1.
        -11    1    4    4    0    0 -0.35610015315E-02 -0.42137368419E-01 -0.79148265242E-02  0.43024924742E-01  0.51100000000E-03 0. -1.
         11    1    4    4    0    0 -0.32510286923E-01 -0.82536592679E-01 -0.35475591553E-02  0.88780933673E-01  0.51100000000E-03 0.  1.
</event>
<event>
 8    1  0.1010879E+005  0.1043930E+01  0.7957747E-01            NaN
         13   -1    0    0    0    0  0.00000000000E+00  0.00000000000E+00  0.74505805969E-08  0.10566000000E+00  0.10566000000E+00 0. -1.
     999900   -1    0    0    0    0 -0.00000000000E+00 -0.00000000000E+00 -0.74505805969E-08  0.93827000000E+00  0.93827000000E+00 0. -1.
     999902    2    1    2    0    0 -0.16682121377E-01  0.15905482717E-01  0.39271889500E-02  0.10205483754E+01  0.10202804939E+01 0.  0.
     999903    2    3    3    0    0 -0.12245869841E+00  0.46837076277E-01  0.15255831791E-01  0.13360204906E+00  0.20662104915E-01 0.  0.
         14    1    1    2    0    0  0.16682121377E-01 -0.15905482717E-01 -0.39271889500E-02  0.23381624562E-01  0.00000000000E+00 0.  1.
     999901    1    3    3    0    0  0.10577657703E+00 -0.30931593560E-01 -0.11328642841E-01  0.88694632638E+00  0.88000000000E+00 0. -1.
        -11    1    4    4    0    0 -0.93953629906E-01  0.34154101743E-01  0.28148776797E-02  0.10000985899E+00  0.51100000000E-03 0. -1.
         11    1    4    4    0    0 -0.28505068501E-01  0.12682974534E-01  0.12440954111E-01  0.33592190067E-01  0.51100000000E-03 0.  1.
</event>
<event>
 8    1  0.1010879E+005  0.1043930E+01  0.7957747E-01            NaN
         13   -1    0    0    0    0  0.00000000000E+00  0.00000000000E+00  0.74505805969E-08  0.10566000000E+00  0.10566000000E+00 0. -1.
     999900   -1    0    0    0    0 -0.00000000000E+00 -0.00000000000E+00 -0.74505805969E-08  0.93827000000E+00  0.93827000000E+00 0. -1.
     999902    2    1    2    0    0 -0.22142848187E-01  0.63667570262E-02  0.79955676721E-03  0.10208761367E+01  0.10206157974E+01 0.  0.
     999903    2    3    3    0    0 -0.83248531024E-01  0.29541504230E-01  0.97977024666E-01  0.13311804262E+00  0.17829680833E-01 0.  0.
         14    1    1    2    0    0  0.22142848187E-01 -0.63667570262E-02 -0.79955676721E-03  0.23053863274E-01  0.00000000000E+00 0.  1.
     999901    1    3    3    0    0  0.61105682838E-01 -0.23174747204E-01 -0.97177467899E-01  0.88775809411E+00  0.88000000000E+00 0. -1.
        -11    1    4    4    0    0 -0.16834161271E-01  0.39055827710E-02  0.10102826440E-01  0.20024254931E-01  0.51100000000E-03 0. -1.
         11    1    4    4    0    0 -0.66414369753E-01  0.25635921459E-01  0.87874198226E-01  0.11309378769E+00  0.51100000000E-03 0.  1.
</event>
<event>
 8    1  0.1010879E+005  0.1043930E+01  0.7957747E-01            NaN
         13   -1    0    0    0    0  0.00000000000E+00  0.00000000000E+00  0.74505805969E-08  0.10566000000E+00  0.10566000000E+00 0.  1.
     999900   -1    0    0    0    0 -0.00000000000E+00 -0.00000000000E+00 -0.74505805969E-08  0.93827000000E+00  0.93827000000E+00 0.  1.
     999902    2    1    2    0    0 -0.10446518708E-01 -0.19856067441E-01  0.85390160470E-02  0.10199235850E+01  0.10196410208E+01 0.  0.
     999903    2    3    3    0    0 -0.12742422599E+00 -0.16202624241E-01  0.22519569589E-01  0.13206515734E+00  0.20847454693E-01 0.  0.
         14    1    1    2    0    0  0.10446518708E-01  0.19856067441E-01 -0.85390160470E-02  0.24006415026E-01  0.00000000000E+00 0.  1.
     999901    1    3    3    0    0  0.11697770728E+00 -0.36534432003E-02 -0.13980553542E-01  0.88785842764E+00  0.88000000000E+00 0. -1.
        -11    1    4    4    0    0 -0.64847625612E-01 -0.18083235489E-01  0.15327773728E-01  0.69046504051E-01  0.51100000000E-03 0.  1.
         11    1    4    4    0    0 -0.62576600377E-01  0.18806112482E-02  0.71917958608E-02  0.63018653287E-01  0.51100000000E-03 0. -1.
</event>
<event>
 8    1  0.1010879E+005  0.1043930E+01  0.7957747E-01            NaN
         13   -1    0    0    0    0  0.00000000000E+00  0.00000000000E+00  0.74505805969E-08  0.10566000000E+00  0.10566000000E+00 0.  1.
     999900   -1    0    0    0    0 -0.00000000000E+00 -0.00000000000E+00 -0.74505805969E-08  0.93827000000E+00  0.93827000000E+00 0.  1.
     999902    2    1    2    0    0 -0.26478442593E-01 -0.14790032843E-01  0.10722919706E-01  0.10117611641E+01  0.10112496325E+01 0.  0.
     999903    2    3    3    0    0  0.20209990868E-01  0.51873164867E-01 -0.10494129776E+00  0.12046884231E+00  0.20019915758E-01 0.  0.
         14    1    1    2    0    0  0.26478442593E-01  0.14790032843E-01 -0.10722919706E-01  0.32168835862E-01  0.00000000000E+00 0. -1.
     999901    1    3    3    0    0 -0.46688433462E-01 -0.66663197710E-01  0.11566421747E+00  0.89129232183E+00  0.88000000000E+00 0. -1.
        -11    1    4    4    0    0  0.16503736097E-01  0.30218588474E-01 -0.45262149150E-01  0.56872310144E-01  0.51100000000E-03 0. -1.
         11    1    4    4    0    0  0.37062547711E-02  0.21654576393E-01 -0.59679148614E-01  0.63596532165E-01  0.51100000000E-03 0.  1.
</event>
<event>
 8    1  0.1010879E+005  0.1043930E+01  0.7957747E-01            NaN
         13   -1    0    0    0    0  0.00000000000E+00  0.00000000000E+00  0.74505805969E-08  0.10566000000E+00  0.10566000000E+00 0.  1.
     999900   -1    0    0    0    0 -0.00000000000E+00 -0.00000000000E+00 -0.74505805969E-08  0.93827000000E+00  0.93827000000E+00 0. -1.
     999902    2    1    2    0    0  0.34246751885E-02  0.10586064689E-01  0.21187634700E-01  0.10199986601E+01  0.10197178814E+01 0.  0.
     999903    2    3    3    0    0 -0.10945064232E+00 -0.65675282818E-01 -0.42163660123E-02  0.12915524305E+00  0.19251316537E-01 0.  0.
         14    1    1    2    0    0 -0.34246751885E-02 -0.10586064689E-01 -0.21187634700E-01  0.23931339911E-01  0.00000000000E+00 0. -1.
     999901    1    3    3    0    0  0.11287531751E+00  0.76261347507E-01  0.25404000712E-01  0.89084341704E+00  0.88000000000E+00 0.  1.
        -11    1    4    4    0    0 -0.36129371094E-01 -0.26451159800E-01  0.67285020459E-02  0.45282769032E-01  0.51100000000E-03 0.  1.
         11    1    4    4    0    0 -0.73321271225E-01 -0.39224123018E-01 -0.10944868058E-01  0.83872474021E-01  0.51100000000E-03 0. -1.
</event>
<event>
 8    1  0.1010879E+005  0.1043930E+01  0.7957747E-01            NaN
         13   -1    0    0    0    0  0.00000000000E+00  0.00000000000E+00  0.74505805969E-08  0.10566000000E+00  0.10566000000E+00 0. -1.
     999900   -1    0    0    0    0 -0.00000000000E+00 -0.00000000000E+00 -0.74505805969E-08  0.93827000000E+00  0.93827000000E+00 0. -1.
     999902    2    1    2    0    0  0.16914981617E-01  0.14229528971E-01 -0.98225012581E-02  0.10197416220E+01  0.10194547062E+01 0.  0.
     999903    2    3    3    0    0 -0.10761425613E+00  0.46634351043E-01 -0.50646432327E-01  0.12944717810E+00  0.20878697043E-01 0.  0.
         14    1    1    2    0    0 -0.16914981617E-01 -0.14229528971E-01  0.98225012581E-02  0.24188377969E-01  0.00000000000E+00 0. -1.
     999901    1    3    3    0    0  0.12452923775E+00 -0.32404822072E-01  0.40823931069E-01  0.89029444393E+00  0.88000000000E+00 0.  1.
        -11    1    4    4    0    0 -0.70276450444E-01  0.25581053131E-01 -0.22254435592E-01  0.78030063379E-01  0.51100000000E-03 0.  1.
         11    1    4    4    0    0 -0.37337805688E-01  0.21053297911E-01 -0.28391996735E-01  0.51417114720E-01  0.51100000000E-03 0. -1.
</event>
<event>
 8    1  0.1010879E+005  0.1043930E+01  0.7957747E-01            NaN
         13   -1    0    0    0    0  0.00000000000E+00  0.00000000000E+00  0.74505805969E-08  0.10566000000E+00  0.10566000000E+00 0. -1.
     999900   -1    0    0    0    0 -0.00000000000E+00 -0.00000000000E+00 -0.74505805969E-08  0.93827000000E+00  0.93827000000E+00 0.  1.
     999902    2    1    2    0    0 -0.12428991426E-01  0.12292390178E-01  0.17197630647E-01  0.10194077410E+01  0.10191127520E+01 0.  0.
     999903    2    3    3    0    0  0.10678747054E+00  0.15357975812E-01  0.69978044609E-01  0.12979673914E+00  0.17630526882E-01 0.  0.
         14    1    1    2    0    0  0.12428991426E-01 -0.12292390178E-01 -0.17197630647E-01  0.24522258951E-01  0.00000000000E+00 0.  1.
     999901    1    3    3    0    0 -0.11921646197E+00 -0.30655856335E-02 -0.52780413962E-01  0.88961100191E+00  0.88000000000E+00 0.  1.
        -11    1    4    4    0    0  0.57613362869E-01  0.14779056600E-02  0.30378947869E-01  0.65150789564E-01  0.51100000000E-03 0. -1.
         11    1    4    4    0    0  0.49174107674E-01  0.13880070152E-01  0.39599096741E-01  0.64645949576E-01  0.51100000000E-03 0.  1.
</event>
<event>
 8    1  0.1010879E+005  0.1043930E+01  0.7957747E-01            NaN
         13   -1    0    0    0    0  0.00000000000E+00  0.00000000000E+00  0.74505805969E-08  0.10566000000E+00  0.10566000000E+00 0. -1.
     999900   -1    0    0    0    0 -0.00000000000E+00 -0.00000000000E+00 -0.74505805969E-08  0.93827000000E+00  0.93827000000E+00 0.  1.
     999902    2    1    2    0    0 -0.23141114859E-01  0.38233914633E-02  0.11554477082E-02  0.10204467170E+01  0.10201764738E+01 0.  0.
     999903    2    3    3    0    0  0.15601117486E-01 -0.94440786654E-01 -0.85733115429E-01  0.12988148547E+00  0.18883223702E-01 0.  0.
         14    1    1    2    0    0  0.23141114859E-01 -0.38233914633E-02 -0.11554477082E-02  0.23483282960E-01  0.00000000000E+00 0.  1.
     999901    1    3    3    0    0 -0.38742232345E-01  0.98264178117E-01  0.86888563137E-01  0.89056523156E+00  0.88000000000E+00 0. -1.
        -11    1    4    4    0    0  0.60625381084E-02 -0.31883618251E-01 -0.41436712010E-01  0.52636315451E-01  0.51100000000E-03 0.  1.
         11    1    4    4    0    0  0.95385793780E-02 -0.62557168402E-01 -0.44296403419E-01  0.77245170023E-01  0.51100000000E-03 0. -1.
</event>
<event>
 8    1  0.1010879E+005  0.1043930E+01  0.7957747E-01            NaN
         13   -1    0    0    0    0  0.00000000000E+00  0.00000000000E+00  0.74505805969E-08  0.10566000000E+00  0.10566000000E+00 0. -1.
     999900   -1    0    0    0    0 -0.00000000000E+00 -0.00000000000E+00 -0.74505805969E-08  0.93827000000E+00  0.93827000000E+00 0. -1.
     999902    2    1    2    0    0  0.15123256692E-01  0.17053320146E-01 -0.61208257149E-02  0.10203292981E+01  0.10200563139E+01 0.  0.
     999903    2    3    3    0    0  0.36489164728E-02  0.41003338665E-01  0.12221513622E+00  0.13062407561E+00  0.20773089173E-01 0.  0.
         14    1    1    2    0    0 -0.15123256692E-01 -0.17053320146E-01  0.61208257149E-02  0.23600701863E-01  0.00000000000E+00 0. -1.
     999901    1    3    3    0    0  0.11474340220E-01 -0.23950018518E-01 -0.12833596194E+00  0.88970522253E+00  0.88000000000E+00 0. -1.
        -11    1    4    4    0    0 -0.77244320447E-02  0.21644955509E-01  0.72843661223E-01  0.76384756665E-01  0.51100000000E-03 0. -1.
         11    1    4    4    0    0  0.11373348518E-01  0.19358383156E-01  0.49371474998E-01  0.54239318943E-01  0.51100000000E-03 0.  1.
</event>
<event>
 8    1  0.1010879E+005  0.1043930E+01  0.7957747E-01            NaN
         13   -1    0    0    0    0  0.00000000000E+00  0.00000000000E+00  0.74505805969E-08  0.10566000000E+00  0.10566000000E+00 0. -1.
     999900   -1    0    0    0    0 -0.00000000000E+00 -0.00000000000E+00 -0.74505805969E-08  0.93827000000E+00  0.93827000000E+00 0. -1.
     999902    2    1    2    0    0 -0.20459332045E-01 -0.10576093763E-01 -0.58838693934E-02  0.10201590525E+01  0.10198820689E+01 0.  0.
     999903    2    3    3    0    0 -0.13025617304E+00  0.11651256922E-01 -0.13020312794E-01  0.13302866171E+00  0.20607617224E-01 0.  0.
         14    1    1    2    0    0  0.20459332045E-01  0.10576093763E-01  0.58838693934E-02  0.23770947521E-01  0.00000000000E+00 0. -1.
     999901    1    3    3    0    0  0.10979684099E+00 -0.22227350684E-01  0.71364434003E-02  0.88713039077E+00  0.88000000000E+00 0. -1.
        -11    1    4    4    0    0 -0.79009378753E-01 -0.23304151073E-02 -0.40051315184E-02  0.79146793776E-01  0.51100000000E-03 0. -1.
         11    1    4    4    0    0 -0.51246794284E-01  0.13981672029E-01 -0.90151812753E-02  0.53881867930E-01  0.51100000000E-03 0.  1.
</event>
<event>
 8    1  0.1010879E+005  0.1043930E+01  0.7957747E-01            NaN
         13   -1    0    0    0    0  0.00000000000E+00  0.00000000000E+00  0.74505805969E-08  0.10566000000E+00  0.10566000000E+00 0. -1.
     999900   -1    0    0    0    0 -0.00000000000E+00 -0.00000000000E+00 -0.74505805969E-08  0.93827000000E+00  0.93827000000E+00 0.  1.
     999902    2    1    2    0    0  0.19120888990E-01  0.13358512139E-01  0.66252399064E-02  0.10196822775E+01  0.10193939351E+01 0.  0.
     999903    2    3    3    0    0 -0.79130808118E-02  0.12535257229E+00  0.33342017011E-01  0.13177051882E+00  0.21815024739E-01 0.  0.
         14    1    1    2    0    0 -0.19120888990E-01 -0.13358512139E-01 -0.66252399064E-02  0.24247722494E-01  0.00000000000E+00 0. -1.
     999901    1    3    3    0    0  0.27033969801E-01 -0.11199406015E+00 -0.26716777105E-01  0.88791175869E+00  0.88000000000E+00 0. -1.
        -11    1    4    4    0    0  0.30662981780E-02  0.60213190233E-02  0.55365590809E-02  0.87506042508E-02  0.51100000000E-03 0.  1.
         11    1    4    4    0    0 -0.10979378990E-01  0.11933125327E+00  0.27805457930E-01  0.12301991457E+00  0.51100000000E-03 0. -1.
</event>
<event>
 8    1  0.1010879E+005  0.1043930E+01  0.7957747E-01            NaN
         13   -1    0    0    0    0  0.00000000000E+00  0.00000000000E+00  0.74505805969E-08  0.10566000000E+00  0.10566000000E+00 0.  1.
     999900   -1    0    0    0    0 -0.00000000000E+00 -0.00000000000E+00 -0.74505805969E-08  0.93827000000E+00  0.93827000000E+00 0.  1.
     999902    2    1    2    0    0  0.88448996243E-02  0.20133061087E-01  0.96728028753E-02  0.10199063551E+01  0.10196233803E+01 0.  0.
     999903    2    3    3    0    0  0.83201274302E-01  0.41002742362E-01 -0.90140074486E-01  0.13090296674E+00  0.20166227875E-01 0.  0.
         14    1    1    2    0    0 -0.88448996243E-02 -0.20133061087E-01 -0.96728028753E-02  0.24023644885E-01  0.00000000000E+00 0. -1.
     999901    1    3    3    0    0 -0.74356374678E-01 -0.20869681275E-01  0.99812877361E-01  0.88900338837E+00  0.88000000000E+00 0. -1.
        -11    1    4    4    0    0  0.71028362718E-01  0.26371841299E-01 -0.74560382803E-01  0.10630152458E+00  0.51100000000E-03 0. -1.
         11    1    4    4    0    0  0.12172911585E-01  0.14630901064E-01 -0.15579691683E-01  0.24601442159E-01  0.51100000000E-03 0.  1.
</event>
<event>
 8    1  0.1010879E+005  0.1043930E+01  0.7957747E-01            NaN
         13   -1    0    0    0    0  0.00000000000E+00  0.00000000000E+00  0.74505805969E-08  0.10566000000E+00  0.10566000000E+00 0.  1.
     999900   -1    0    0    0    0 -0.00000000000E+00 -0.00000000000E+00 -0.74505805969E-08  0.93827000000E+00  0.93827000000E+00 0. -1.
     999902    2    1    2    0    0  0.14494609563E-01  0.94358500170E-02  0.15889068518E-01  0.10204440154E+01  0.10201737093E+01 0.  0.
     999903    2    3    3    0    0  0.66590562885E-01 -0.92015228398E-01 -0.59211743438E-01  0.12991246541E+00  0.21682084421E-01 0.  0.
         14    1    1    2    0    0 -0.14494609563E-01 -0.94358500170E-02 -0.15889068518E-01  0.23485984550E-01  0.00000000000E+00 0. -1.
     999901    1    3    3    0    0 -0.52095953322E-01  0.10145107842E+00  0.75100811956E-01  0.89053155004E+00  0.88000000000E+00 0.  1.
        -11    1    4    4    0    0  0.38833009709E-01 -0.49561003983E-01 -0.20894290801E-01  0.66340999902E-01  0.51100000000E-03 0. -1.
         11    1    4    4    0    0  0.27757553175E-01 -0.42454224416E-01 -0.38317452636E-01  0.63571465506E-01  0.51100000000E-03 0.  1.
</event>
<event>
 8    1  0.1010879E+005  0.1043930E+01  0.7957747E-01            NaN
         13   -1    0    0    0    0  0.00000000000E+00  0.00000000000E+00  0.74505805969E-08  0.10566000000E+00  0.10566000000E+00 0. -1.
     999900   -1    0    0    0    0 -0.00000000000E+00 -0.00000000000E+00 -0.74505805969E-08  0.93827000000E+00  0.93827000000E+00 0. -1.
     999902    2    1    2    0    0  0.41702357701E-02 -0.30887839649E-01 -0.62998128408E-02  0.10121316172E+01  0.10116319852E+01 0.  0.
     999903    2    3    3    0    0 -0.11891919452E+00  0.77338825998E-02  0.19251726933E-01  0.12235887858E+00  0.19986956021E-01 0.  0.
         14    1    1    2    0    0 -0.41702357701E-02  0.30887839649E-01  0.62998128408E-02  0.31798382764E-01  0.00000000000E+00 0.  1.
     999901    1    3    3    0    0  0.12308943029E+00 -0.38621722249E-01 -0.25551539774E-01  0.88977273866E+00  0.88000000000E+00 0. -1.
        -11    1    4    4    0    0 -0.60850688657E-01 -0.36337411933E-02  0.16345842589E-01  0.63114642327E-01  0.51100000000E-03 0.  1.
         11    1    4    4    0    0 -0.58068505863E-01  0.11367623793E-01  0.29058843438E-02  0.59244236249E-01  0.51100000000E-03 0. -1.
</event>
<event>
 8    1  0.1010879E+005  0.1043930E+01  0.7957747E-01            NaN
         13   -1    0    0    0    0  0.00000000000E+00  0.00000000000E+00  0.74505805969E-08  0.10566000000E+00  0.10566000000E+00 0.  1.
     999900   -1    0    0    0    0 -0.00000000000E+00 -0.00000000000E+00 -0.74505805969E-08  0.93827000000E+00  0.93827000000E+00 0. -1.
     999902    2    1    2    0    0 -0.15874011111E-01 -0.99543451395E-02 -0.16054632419E-01  0.10192556320E+01  0.10189569269E+01 0.  0.
     999903    2    3    3    0    0 -0.23246912798E-01  0.48386057642E-01 -0.11817352666E+00  0.13140078412E+00  0.20483020656E-01 0.  0.
         14    1    1    2    0    0  0.15874011111E-01  0.99543451395E-02  0.16054632419E-01  0.24674368037E-01  0.00000000000E+00 0.  1.
     999901    1    3    3    0    0  0.73729016872E-02 -0.58340402781E-01  0.10211889424E+00  0.88785484784E+00  0.88000000000E+00 0.  1.
        -11    1    4    4    0    0 -0.25786475980E-01  0.46457218732E-01 -0.10312591964E+00  0.11601048202E+00  0.51100000000E-03 0. -1.
         11    1    4    4    0    0  0.25395631818E-02  0.19288389100E-02 -0.15047607024E-01  0.15390302104E-01  0.51100000000E-03 0.  1.
</event>
<event>
 8    1  0.1010879E+005  0.1043930E+01  0.7957747E-01            NaN
         13   -1    0    0    0    0  0.00000000000E+00  0.00000000000E+00  0.74505805969E-08  0.10566000000E+00  0.10566000000E+00 0.  1.
     999900   -1    0    0    0    0 -0.00000000000E+00 -0.00000000000E+00 -0.74505805969E-08  0.93827000000E+00  0.93827000000E+00 0. -1.
     999902    2    1    2    0    0 -0.39944440312E-02 -0.21103626236E-01 -0.86510462077E-02  0.10207748877E+01  0.10205122303E+01 0.  0.
     999903    2    3    3    0    0  0.26834742240E-01 -0.58359827124E-01  0.11303863893E+00  0.13108570454E+00  0.16725885030E-01 0.  0.
         14    1    1    2    0    0  0.39944440312E-02  0.21103626236E-01  0.86510462077E-02  0.23155112263E-01  0.00000000000E+00 0.  1.
     999901    1    3    3    0    0 -0.30829186271E-01  0.37256200889E-01 -0.12168968514E+00  0.88968918320E+00  0.88000000000E+00 0. -1.
        -11    1    4    4    0    0  0.15353697115E-01 -0.22085256362E-01  0.60529045918E-01  0.66238365653E-01  0.51100000000E-03 0. -1.
         11    1    4    4    0    0  0.11481045125E-01 -0.36274570762E-01  0.52509593013E-01  0.64847338885E-01  0.51100000000E-03 0.  1.
</event>
<event>
 8    1  0.1010879E+005  0.1043930E+01  0.7957747E-01            NaN
         13   -1    0    0    0    0  0.00000000000E+00  0.00000000000E+00  0.74505805969E-08  0.10566000000E+00  0.10566000000E+00 0. -1.
     999900   -1    0    0    0    0 -0.00000000000E+00 -0.00000000000E+00 -0.74505805969E-08  0.93827000000E+00  0.93827000000E+00 0. -1.
     999902    2    1    2    0    0  0.59938967220E-02 -0.10733650194E-02 -0.20706571812E-01  0.10223466493E+01  0.10221187946E+01 0.  0.
     999903    2    3    3    0    0 -0.72471182840E-01  0.31540839157E-01  0.10106216132E+00  0.12990725116E+00  0.20382261319E-01 0.  0.
         14    1    1    2    0    0 -0.59938967220E-02  0.10733650194E-02  0.20706571812E-01  0.21583350680E-01  0.00000000000E+00 0. -1.
     999901    1    3    3    0    0  0.78465079562E-01 -0.32614204176E-01 -0.12176873313E+00  0.89243939816E+00  0.88000000000E+00 0. -1.
        -11    1    4    4    0    0 -0.36158176655E-01  0.47120896773E-02  0.45786673682E-01  0.58534589228E-01  0.51100000000E-03 0. -1.
         11    1    4    4    0    0 -0.36313006185E-01  0.26828749479E-01  0.55275487634E-01  0.71372661930E-01  0.51100000000E-03 0.  1.
</event>
<event>
 8    1  0.1010879E+005  0.1043930E+01  0.7957747E-01            NaN
         13   -1    0    0    0    0  0.00000000000E+00  0.00000000000E+00  0.74505805969E-08  0.10566000000E+00  0.10566000000E+00 0. -1.
     999900   -1    0    0    0    0 -0.00000000000E+00 -0.00000000000E+00 -0.74505805969E-08  0.93827000000E+00  0.93827000000E+00 0. -1.
     999902    2    1    2    0    0 -0.15790305497E-02  0.78416610103E-02 -0.39355207474E-02  0.10350152197E+01  0.10349768266E+01 0.  0.
     999903    2    3    3    0    0  0.66523773132E-02 -0.89138625424E-01  0.10935038994E+00  0.14243097737E+00  0.18415397561E-01 0.  0.
         14    1    1    2    0    0  0.15790305497E-02 -0.78416610103E-02  0.39355207474E-02  0.89147803355E-02  0.00000000000E+00 0. -1.
     999901    1    3    3    0    0 -0.82314078629E-02  0.96980286434E-01 -0.11328591069E+00  0.89258424229E+00  0.88000000000E+00 0. -1.
        -11    1    4    4    0    0 -0.32463664939E-02 -0.48133932118E-01  0.67846418089E-01  0.83251497795E-01  0.51100000000E-03 0.  1.
         11    1    4    4    0    0  0.98987438071E-02 -0.41004693306E-01  0.41503971854E-01  0.59179479575E-01  0.51100000000E-03 0. -1.
</event>
<event>
 8    1  0.1010879E+005  0.1043930E+01  0.7957747E-01            NaN
         13   -1    0    0    0    0  0.00000000000E+00  0.00000000000E+00  0.74505805969E-08  0.10566000000E+00  0.10566000000E+00 0.  1.
     999900   -1    0    0    0    0 -0.00000000000E+00 -0.00000000000E+00 -0.74505805969E-08  0.93827000000E+00  0.93827000000E+00 0.  1.
     999902    2    1    2    0    0 -0.81243906346E-02 -0.14671881072E-01 -0.16838946403E-01  0.10201640594E+01  0.10198871938E+01 0.  0.
     999903    2    3    3    0    0  0.61499656779E-01 -0.11335751815E+00  0.14656467356E-01  0.13135681142E+00  0.20190719836E-01 0.  0.
         14    1    1    2    0    0  0.81243906346E-02  0.14671881072E-01  0.16838946403E-01  0.23765940616E-01  0.00000000000E+00 0. -1.
     999901    1    3    3    0    0 -0.69624047413E-01  0.98685637073E-01 -0.31495413760E-01  0.88880724796E+00  0.88000000000E+00 0. -1.
        -11    1    4    4    0    0  0.31068677691E-01 -0.72061252507E-01  0.19163769168E-02  0.78498537998E-01  0.51100000000E-03 0.  1.
         11    1    4    4    0    0  0.30430979088E-01 -0.41296265639E-01  0.12740090439E-01  0.52858273424E-01  0.51100000000E-03 0. -1.
</event>
<event>
 8    1  0.1010879E+005  0.1043930E+01  0.7957747E-01            NaN
         13   -1    0    0    0    0  0.00000000000E+00  0.00000000000E+00  0.74505805969E-08  0.10566000000E+00  0.10566000000E+00 0.  1.
     999900   -1    0    0    0    0 -0.00000000000E+00 -0.00000000000E+00 -0.74505805969E-08  0.93827000000E+00  0.93827000000E+00 0. -1.
     999902    2    1    2    0    0  0.54072711463E-02 -0.90035250344E-02 -0.20268337613E-01  0.10211022197E+01  0.10208470187E+01 0.  0.
     999903    2    3    3    0    0  0.26282267420E-01 -0.39115042782E-01  0.11907696310E+00  0.12938501014E+00  0.18450299638E-01 0.  0.
         14    1    1    2    0    0 -0.54072711463E-02  0.90035250344E-02  0.20268337613E-01  0.22827780310E-01  0.00000000000E+00 0.  1.
     999901    1    3    3    0    0 -0.20874996274E-01  0.30111517748E-01 -0.13934530071E+00  0.89171720955E+00  0.88000000000E+00 0. -1.
        -11    1    4    4    0    0  0.14766908698E-01 -0.27338525442E-01  0.96864858340E-01  0.10172766815E+00  0.51100000000E-03 0. -1.
         11    1    4    4    0    0  0.11515358723E-01 -0.11776517340E-01  0.22212104758E-01  0.27657341990E-01  0.51100000000E-03 0.  1.
</event>
<event>
 8    1  0.1010879E+005  0.1043930E+01  0.7957747E-01            NaN
         13   -1    0    0    0    0  0.00000000000E+00  0.00000000000E+00  0.74505805969E-08  0.10566000000E+00  0.10566000000E+00 0.  1.
     999900   -1    0    0    0    0 -0.00000000000E+00 -0.00000000000E+00 -0.74505805969E-08  0.93827000000E+00  0.93827000000E+00 0.  1.
     999902    2    1    2    0    0 -0.20394886399E-01  0.19115101673E-01 -0.60211545965E-02  0.10153364202E+01  0.10149337187E+01 0.  0.
     999903    2    3    3    0    0 -0.10812131621E+00  0.68131216186E-01 -0.64771301894E-02  0.12961710016E+00  0.20653275817E-01 0.  0.
         14    1    1    2    0    0  0.20394886399E-01 -0.19115101673E-01  0.60211545965E-02  0.28593579801E-01  0.00000000000E+00 0.  1.
     999901    1    3    3    0    0  0.87726429809E-01 -0.49016114513E-01  0.45597559292E-03  0.88571932003E+00  0.88000000000E+00 0. -1.
        -11    1    4    4    0    0 -0.46188338057E-01  0.41080617486E-01 -0.49692158310E-02  0.62015594269E-01  0.51100000000E-03 0. -1.
         11    1    4    4    0    0 -0.61932978150E-01  0.27050598700E-01 -0.15079143584E-02  0.67601505895E-01  0.51100000000E-03 0.  1.
</event>
<event>
 8    1  0.1010879E+005  0.1043930E+01  0.7957747E-01            NaN
         13   -1    0    0    0    0  0.00000000000E+00  0.00000000000E+00  0.74505805969E-08  0.10566000000E+00  0.10566000000E+00 0. -1.
     999900   -1    0    0    0    0 -0.00000000000E+00 -0.00000000000E+00 -0.74505805969E-08  0.93827000000E+00  0.93827000000E+00 0. -1.
     999902    2    1    2    0    0 -0.12520278808E-01  0.20402801470E-01 -0.48240790778E-02  0.10195106751E+01  0.10192181873E+01 0.  0.
     999903    2    3    3    0    0 -0.51231665097E-01  0.55165428579E-01 -0.10670829676E+00  0.13210580388E+00  0.19934262024E-01 0.  0.
         14    1    1    2    0    0  0.12520278808E-01 -0.20402801470E-01  0.48240790778E-02  0.24419324892E-01  0.00000000000E+00 0. -1.
     999901    1    3    3    0    0  0.38711386289E-01 -0.34762627109E-01  0.10188421768E+00  0.88740487123E+00  0.88000000000E+00 0.  1.
        -11    1    4    4    0    0 -0.70602011540E-02  0.23362081994E-03 -0.66834040393E-02  0.97380711424E-02  0.51100000000E-03 0. -1.
         11    1    4    4    0    0 -0.44171463943E-01  0.54931807759E-01 -0.10002489272E+00  0.12236773273E+00  0.51100000000E-03 0.  1.
</event>
<event>
 8    1  0.1010879E+005  0.1043930E+01  0.7957747E-01            NaN
         13   -1    0    0    0    0  0.00000000000E+00  0.00000000000E+00  0.74505805969E-08  0.10566000000E+00  0.10566000000E+00 0.  1.
     999900   -1    0    0    0    0 -0.00000000000E+00 -0.00000000000E+00 -0.74505805969E-08  0.93827000000E+00  0.93827000000E+00 0.  1.
     999902    2    1    2    0    0  0.11384320373E-01 -0.14344890072E-01  0.15233252175E-01  0.10201091983E+01  0.10198310379E+01 0.  0.
     999903    2    3    3    0    0 -0.20192286459E-01 -0.67066448457E-01 -0.10699732009E+00  0.12953805706E+00  0.20640852241E-01 0.  0.
         14    1    1    2    0    0 -0.11384320373E-01  0.14344890072E-01 -0.15233252175E-01  0.23820801694E-01  0.00000000000E+00 0. -1.
     999901    1    3    3    0    0  0.31576606833E-01  0.52721558385E-01  0.12223057226E+00  0.89057114124E+00  0.88000000000E+00 0. -1.
        -11    1    4    4    0    0 -0.86657654069E-02 -0.50825046700E-01 -0.88097726278E-01  0.10207718334E+00  0.51100000000E-03 0. -1.
         11    1    4    4    0    0 -0.11526521052E-01 -0.16241401757E-01 -0.18899593807E-01  0.27460873724E-01  0.51100000000E-03 0.  1.
</event>
<event>
 8    1  0.1010879E+005  0.1043930E+01  0.7957747E-01            NaN
         13   -1    0    0    0    0  0.00000000000E+00  0.00000000000E+00  0.74505805969E-08  0.10566000000E+00  0.10566000000E+00 0. -1.
     999900   -1    0    0    0    0 -0.00000000000E+00 -0.00000000000E+00 -0.74505805969E-08  0.93827000000E+00  0.93827000000E+00 0. -1.
     999902    2    1    2    0    0  0.11735245596E-01  0.16116964316E-01 -0.13052062269E-01  0.10201008402E+01  0.10198224822E+01 0.  0.
     999903    2    3    3    0    0 -0.98149204474E-01  0.30118862741E-01 -0.78518768453E-01  0.13074346818E+00  0.19703939713E-01 0.  0.
         14    1    1    2    0    0 -0.11735245596E-01 -0.16116964316E-01  0.13052062269E-01  0.23829159814E-01  0.00000000000E+00 0. -1.
     999901    1    3    3    0    0  0.10988445007E+00 -0.14001898425E-01  0.65466706184E-01  0.88935737201E+00  0.88000000000E+00 0.  1.
        -11    1    4    4    0    0 -0.22309905005E-01  0.12428495382E-01 -0.11554791281E-01  0.28035222156E-01  0.51100000000E-03 0. -1.
         11    1    4    4    0    0 -0.75839299470E-01  0.17690367358E-01 -0.66963977172E-01  0.10270824602E+00  0.51100000000E-03 0.  1.
</event>
<event>
 8    1  0.1010879E+005  0.1043930E+01  0.7957747E-01            NaN
         13   -1    0    0    0    0  0.00000000000E+00  0.00000000000E+00  0.74505805969E-08  0.10566000000E+00  0.10566000000E+00 0.  1.
     999900   -1    0    0    0    0 -0.00000000000E+00 -0.00000000000E+00 -0.74505805969E-08  0.93827000000E+00  0.93827000000E+00 0. -1.
     999902    2    1    2    0    0 -0.49433229587E-02 -0.11518627206E-01 -0.22184259565E-01  0.10184494861E+01  0.10181306887E+01 0.  0.
     999903    2    3    3    0    0  0.47427579585E-01 -0.11392592273E+00  0.33185847855E-01  0.12923870437E+00  0.19309350913E-01 0.  0.
         14    1    1    2    0    0  0.49433229587E-02  0.11518627206E-01  0.22184259565E-01  0.25480513869E-01  0.00000000000E+00 0.  1.
     999901    1    3    3    0    0 -0.52370902544E-01  0.10240729553E+00 -0.55370107420E-01  0.88921078176E+00  0.88000000000E+00 0. -1.
        -11    1    4    4    0    0  0.23185765400E-01 -0.78338248429E-01  0.24664449957E-01  0.85340829014E-01  0.51100000000E-03 0.  1.
         11    1    4    4    0    0  0.24241814185E-01 -0.35587674303E-01  0.85213978981E-02  0.43897875352E-01  0.51100000000E-03 0. -1.
</event>
<event>
 8    1  0.1010879E+005  0.1043930E+01  0.7957747E-01            NaN
         13   -1    0    0    0    0  0.00000000000E+00  0.00000000000E+00  0.74505805969E-08  0.10566000000E+00  0.10566000000E+00 0.  1.
     999900   -1    0    0    0    0 -0.00000000000E+00 -0.00000000000E+00 -0.74505805969E-08  0.93827000000E+00  0.93827000000E+00 0.  1.
     999902    2    1    2    0    0 -0.10677024985E-01  0.22110292584E-01 -0.70555155391E-03  0.10193665779E+01  0.10190705856E+01 0.  0.
     999903    2    3    3    0    0  0.83233648806E-01  0.26891945596E-01 -0.93312504542E-01  0.12952494787E+00  0.20456578019E-01 0.  0.
         14    1    1    2    0    0  0.10677024985E-01 -0.22110292584E-01  0.70555155391E-03  0.24563422068E-01  0.00000000000E+00 0. -1.
     999901    1    3    3    0    0 -0.93910673791E-01 -0.47816530120E-02  0.92606952989E-01  0.88984163007E+00  0.88000000000E+00 0. -1.
        -11    1    4    4    0    0  0.63507782835E-01  0.11089869882E-01 -0.64541124006E-01  0.91225224053E-01  0.51100000000E-03 0.  1.
         11    1    4    4    0    0  0.19725865971E-01  0.15802075714E-01 -0.28771380537E-01  0.38299723813E-01  0.51100000000E-03 0. -1.
</event>
<event>
 8    1  0.1010879E+005  0.1043930E+01  0.7957747E-01            NaN
         13   -1    0    0    0    0  0.00000000000E+00  0.00000000000E+00  0.74505805969E-08  0.10566000000E+00  0.10566000000E+00 0. -1.
     999900   -1    0    0    0    0 -0.00000000000E+00 -0.00000000000E+00 -0.74505805969E-08  0.93827000000E+00  0.93827000000E+00 0. -1.
     999902    2    1    2    0    0 -0.21257932863E-01  0.12447131546E-01  0.64591794481E-02  0.10184633200E+01  0.10181448729E+01 0.  0.
     999903    2    3    3    0    0 -0.24590041136E-01  0.27461393442E-01 -0.12244295472E+00  0.12893968834E+00  0.16564051945E-01 0.  0.
         14    1    1    2    0    0  0.21257932863E-01 -0.12447131546E-01 -0.64591794481E-02  0.25466680044E-01  0.00000000000E+00 0. -1.
     999901    1    3    3    0    0  0.33321082731E-02 -0.15014261896E-01  0.12890213417E+00  0.88952363161E+00  0.88000000000E+00 0.  1.
        -11    1    4    4    0    0 -0.17266280001E-01  0.14491901932E-01 -0.48166071223E-01  0.53182433047E-01  0.51100000000E-03 0.  1.
         11    1    4    4    0    0 -0.73237611343E-02  0.12969491510E-01 -0.74276883496E-01  0.75757255296E-01  0.51100000000E-03 0. -1.
</event>
<event>
 8    1  0.1010879E+005  0.1043930E+01  0.7957747E-01            NaN
         13   -1    0    0    0    0  0.00000000000E+00  0.00000000000E+00  0.74505805969E-08  0.10566000000E+00  0.10566000000E+00 0. -1.
     999900   -1    0    0    0    0 -0.00000000000E+00 -0.00000000000E+00 -0.74505805969E-08  0.93827000000E+00  0.93827000000E+00 0.  1.
     999902    2    1    2    0    0 -0.13928679343E-01  0.67956614265E-02 -0.17946021121E-01  0.10202182140E+01  0.10199426235E+01 0.  0.
     999903    2    3    3    0    0 -0.82783805121E-02  0.48730072796E-01 -0.12191544203E+00  0.13308797482E+00  0.20146524691E-01 0.  0.
         14    1    1    2    0    0  0.13928679343E-01 -0.67956614265E-02  0.17946021121E-01  0.23711786026E-01  0.00000000000E+00 0. -1.
     999901    1    3    3    0    0 -0.56502988309E-02 -0.41934411369E-01  0.10396942091E+00  0.88713023915E+00  0.88000000000E+00 0. -1.
        -11    1    4    4    0    0 -0.54054752738E-02  0.39364374467E-01 -0.72189262533E-01  0.82403421568E-01  0.51100000000E-03 0.  1.
         11    1    4    4    0    0 -0.28729052383E-02  0.93656983289E-02 -0.49726179501E-01  0.50684553253E-01  0.51100000000E-03 0. -1.
</event>
<event>
 8    1  0.1010879E+005  0.1043930E+01  0.7957747E-01            NaN
         13   -1    0    0    0    0  0.00000000000E+00  0.00000000000E+00  0.74505805969E-08  0.10566000000E+00  0.10566000000E+00 0. -1.
     999900   -1    0    0    0    0 -0.00000000000E+00 -0.00000000000E+00 -0.74505805969E-08  0.93827000000E+00  0.93827000000E+00 0.  1.
     999902    2    1    2    0    0  0.66460283896E-02  0.50613711422E-02  0.21761315157E-01  0.10206203023E+01  0.10203540853E+01 0.  0.
     999903    2    3    3    0    0  0.41374540647E-01  0.12264839394E+00 -0.85270914127E-02  0.13160389912E+00  0.22189948741E-01 0.  0.
         14    1    1    2    0    0 -0.66460283896E-02 -0.50613711422E-02 -0.21761315157E-01  0.23309697737E-01  0.00000000000E+00 0. -1.
     999901    1    3    3    0    0 -0.34728512258E-01 -0.11758702280E+00  0.30288406570E-01  0.88901640315E+00  0.88000000000E+00 0. -1.
        -11    1    4    4    0    0  0.40630737873E-01  0.91604473378E-01 -0.81709144398E-02  0.10054482268E+00  0.51100000000E-03 0.  1.
         11    1    4    4    0    0  0.74380277392E-03  0.31043920560E-01 -0.35617697291E-03  0.31059076440E-01  0.51100000000E-03 0. -1.
</event>
<event>
 8    1  0.1010879E+005  0.1043930E+01  0.7957747E-01            NaN
         13   -1    0    0    0    0  0.00000000000E+00  0.00000000000E+00  0.74505805969E-08  0.10566000000E+00  0.10566000000E+00 0. -1.
     999900   -1    0    0    0    0 -0.00000000000E+00 -0.00000000000E+00 -0.74505805969E-08  0.93827000000E+00  0.93827000000E+00 0. -1.
     999902    2    1    2    0    0  0.20148997919E-01 -0.37137818441E-02 -0.12508121469E-01  0.10199252631E+01  0.10196427388E+01 0.  0.
     999903    2    3    3    0    0 -0.16218491402E-01  0.63482646794E-01 -0.11185924862E+00  0.13104473073E+00  0.19161003171E-01 0.  0.
         14    1    1    2    0    0 -0.20148997919E-01  0.37137818441E-02  0.12508121469E-01  0.24004736937E-01  0.00000000000E+00 0. -1.
     999901    1    3    3    0    0  0.36367489322E-01 -0.67196428638E-01  0.99351127149E-01  0.88888053234E+00  0.88000000000E+00 0.  1.
        -11    1    4    4    0    0 -0.38830848502E-03  0.28219791774E-01 -0.34593165921E-01  0.44648131883E-01  0.51100000000E-03 0. -1.
         11    1    4    4    0    0 -0.15830182917E-01  0.35262855020E-01 -0.77266082696E-01  0.86396598843E-01  0.51100000000E-03 0.  1.
</event>
<event>
 8    1  0.1010879E+005  0.1043930E+01  0.7957747E-01            NaN
         13   -1    0    0    0    0  0.00000000000E+00  0.00000000000E+00  0.74505805969E-08  0.10566000000E+00  0.10566000000E+00 0. -1.
     999900   -1    0    0    0    0 -0.00000000000E+00 -0.00000000000E+00 -0.74505805969E-08  0.93827000000E+00  0.93827000000E+00 0. -1.
     999902    2    1    2    0    0 -0.69031027453E-02 -0.71120752831E-02 -0.22040808009E-01  0.10197632530E+01  0.10194768563E+01 0.  0.
     999903    2    3    3    0    0 -0.50082840128E-01  0.11127016542E-01  0.11547199018E+00  0.12785130452E+00  0.19495491275E-01 0.  0.
         14    1    1    2    0    0  0.69031027453E-02  0.71120752831E-02  0.22040808009E-01  0.24166746989E-01  0.00000000000E+00 0. -1.
     999901    1    3    3    0    0  0.43179737383E-01 -0.18239091825E-01 -0.13751279819E+00  0.89191194849E+00  0.88000000000E+00 0. -1.
        -11    1    4    4    0    0 -0.17632699864E-02 -0.17339542898E-02  0.19220345640E-01  0.19385523621E-01  0.51100000000E-03 0. -1.
         11    1    4    4    0    0 -0.48319570142E-01  0.12860970832E-01  0.96251644539E-01  0.10846578090E+00  0.51100000000E-03 0.  1.
</event>
<event>
 8    1  0.1010879E+005  0.1043930E+01  0.7957747E-01            NaN
         13   -1    0    0    0    0  0.00000000000E+00  0.00000000000E+00  0.74505805969E-08  0.10566000000E+00  0.10566000000E+00 0.  1.
     999900   -1    0    0    0    0 -0.00000000000E+00 -0.00000000000E+00 -0.74505805969E-08  0.93827000000E+00  0.93827000000E+00 0. -1.
     999902    2    1    2    0    0  0.53800424658E-02  0.14405856373E-01 -0.18293190967E-01  0.10200320003E+01  0.10197520126E+01 0.  0.
     999903    2    3    3    0    0 -0.29666053844E-01 -0.76019425031E-01 -0.10057271106E+00  0.13088922220E+00  0.18923280553E-01 0.  0.
         14    1    1    2    0    0 -0.53800424658E-02 -0.14405856373E-01  0.18293190967E-01  0.23897999718E-01  0.00000000000E+00 0. -1.
     999901    1    3    3    0    0  0.35046096310E-01  0.90425281404E-01  0.82279520090E-01  0.88914277808E+00  0.88000000000E+00 0.  1.
        -11    1    4    4    0    0 -0.16420631700E-01 -0.23686048397E-01 -0.44761210968E-01  0.53239958324E-01  0.51100000000E-03 0.  1.
         11    1    4    4    0    0 -0.13245422144E-01 -0.52333376634E-01 -0.55811500089E-01  0.77649263879E-01  0.51100000000E-03 0. -1.
</event>
<event>
 8    1  0.1010879E+005  0.1043930E+01  0.7957747E-01            NaN
         13   -1    0    0    0    0  0.00000000000E+00  0.00000000000E+00  0.74505805969E-08  0.10566000000E+00  0.10566000000E+00 0. -1.
     999900   -1    0    0    0    0 -0.00000000000E+00 -0.00000000000E+00 -0.74505805969E-08  0.93827000000E+00  0.93827000000E+00 0.  1.
     999902    2    1    2    0    0 -0.46101858568E-02 -0.29941588387E-02 -0.23184923979E-01  0.10201022955E+01  0.10198239720E+01 0.  0.
     999903    2    3    3    0    0 -0.15018583872E-01  0.12341025329E+00  0.29951084319E-01  0.12942286636E+00  0.19938967057E-01 0.  0.
         14    1    1    2    0    0  0.46101858568E-02  0.29941588387E-02  0.23184923979E-01  0.23827704478E-01  0.00000000000E+00 0. -1.
     999901    1    3    3    0    0  0.10408398016E-01 -0.12640441213E+00 -0.53136008297E-01  0.89067942916E+00  0.88000000000E+00 0. -1.
        -11    1    4    4    0    0 -0.53565036119E-02  0.94226407886E-01  0.28717248183E-01  0.98652164387E-01  0.51100000000E-03 0. -1.
         11    1    4    4    0    0 -0.96620802605E-02  0.29183845401E-01  0.12338361354E-02  0.30770701973E-01  0.51100000000E-03 0.  1.
</event>
<event>
 8    1  0.1010879E+005  0.1043930E+01  0.7957747E-01            NaN
         13   -1    0    0    0    0  0.00000000000E+00  0.00000000000E+00  0.74505805969E-08  0.10566000000E+00  0.10566000000E+00 0. -1.
     999900   -1    0    0    0    0 -0.00000000000E+00 -0.00000000000E+00 -0.74505805969E-08  0.93827000000E+00  0.93827000000E+00 0.  1.
     999902    2    1    2    0    0  0.13993646967E-02 -0.23897340175E-01 -0.40844782492E-02  0.10196457654E+01  0.10193565435E+01 0.  0.
     999903    2    3    3    0    0 -0.26215625250E-01  0.22241555593E-01 -0.12354038366E+00  0.12994857042E+00  0.21034703592E-01 0.  0.
         14    1    1    2    0    0 -0.13993646967E-02  0.23897340175E-01  0.40844782492E-02  0.24284234630E-01  0.00000000000E+00 0. -1.
     999901    1    3    3    0    0  0.27614989947E-01 -0.46138895768E-01  0.11945590541E+00  0.88969719495E+00  0.88000000000E+00 0. -1.
        -11    1    4    4    0    0 -0.10471610519E-01  0.14421705030E-01 -0.93110605360E-01  0.94802353106E-01  0.51100000000E-03 0. -1.
         11    1    4    4    0    0 -0.15744014731E-01  0.78198505637E-02 -0.30429778302E-01  0.35146217310E-01  0.51100000000E-03 0.  1.
</event>
<event>
 8    1  0.1010879E+005  0.1043930E+01  0.7957747E-01            NaN
         13   -1    0    0    0    0  0.00000000000E+00  0.00000000000E+00  0.74505805969E-08  0.10566000000E+00  0.10566000000E+00 0. -1.
     999900   -1    0    0    0    0 -0.00000000000E+00 -0.00000000000E+00 -0.74505805969E-08  0.93827000000E+00  0.93827000000E+00 0. -1.
     999902    2    1    2    0    0 -0.11968360067E-01  0.95584675359E-02  0.16751940829E-01  0.10212312453E+01  0.10209789532E+01 0.  0.
     999903    2    3    3    0    0  0.92176346767E-01  0.60133680905E-01 -0.66014250044E-01  0.12979744823E+00  0.19415403059E-01 0.  0.
         14    1    1    2    0    0  0.11968360067E-01 -0.95584675359E-02 -0.16751940829E-01  0.22698754721E-01  0.00000000000E+00 0.  1.
     999901    1    3    3    0    0 -0.10414470683E+00 -0.50575213369E-01  0.82766190872E-01  0.89143379705E+00  0.88000000000E+00 0.  1.
        -11    1    4    4    0    0  0.49047046640E-01  0.39636666134E-01 -0.45804707329E-01  0.77942353190E-01  0.51100000000E-03 0. -1.
         11    1    4    4    0    0  0.43129300127E-01  0.20497014772E-01 -0.20209542715E-01  0.51855095041E-01  0.51100000000E-03 0.  1.
</event>
<event>
 8    1  0.1010879E+005  0.1043930E+01  0.7957747E-01            NaN
         13   -1    0    0    0    0  0.00000000000E+00  0.00000000000E+00  0.74505805969E-08  0.10566000000E+00  0.10566000000E+00 0. -1.
     999900   -1    0    0    0    0 -0.00000000000E+00 -0.00000000000E+00 -0.74505805969E-08  0.93827000000E+00  0.93827000000E+00 0.  1.
     999902    2    1    2    0    0  0.76438932473E-02 -0.21026716167E-01  0.10120077944E-01  0.10193745958E+01  0.10190787991E+01 0.  0.
     999903    2    3    3    0    0 -0.42822954638E-02 -0.11484482598E+00 -0.60553424914E-01  0.13149013503E+00  0.20378082159E-01 0.  0.
         14    1    1    2    0    0 -0.76438932473E-02  0.21026716167E-01 -0.10120077944E-01  0.24555404178E-01  0.00000000000E+00 0. -1.
     999901    1    3    3    0    0  0.11926188711E-01  0.93818109816E-01  0.70673502859E-01  0.88788446079E+00  0.88000000000E+00 0. -1.
        -11    1    4    4    0    0  0.40452641325E-02 -0.75600056574E-01 -0.31739719507E-01  0.82093870850E-01  0.51100000000E-03 0. -1.
         11    1    4    4    0    0 -0.83275595963E-02 -0.39244769409E-01 -0.28813705407E-01  0.49396264182E-01  0.51100000000E-03 0.  1.
</event>
<event>
 8    1  0.1010879E+005  0.1043930E+01  0.7957747E-01            NaN
         13   -1    0    0    0    0  0.00000000000E+00  0.00000000000E+00  0.74505805969E-08  0.10566000000E+00  0.10566000000E+00 0. -1.
     999900   -1    0    0    0    0 -0.00000000000E+00 -0.00000000000E+00 -0.74505805969E-08  0.93827000000E+00  0.93827000000E+00 0. -1.
     999902    2    1    2    0    0 -0.20756904679E-01 -0.10662419219E-01 -0.20118541230E-02  0.10205081335E+01  0.10202393183E+01 0.  0.
     999903    2    3    3    0    0 -0.10699643913E+00  0.22239625111E-01  0.70358221199E-01  0.13272593628E+00  0.26889699845E-01 0.  0.
         14    1    1    2    0    0  0.20756904679E-01  0.10662419219E-01  0.20118541230E-02  0.23421866546E-01  0.00000000000E+00 0. -1.
     999901    1    3    3    0    0  0.86239534454E-01 -0.32902044330E-01 -0.72370075322E-01  0.88778219718E+00  0.88000000000E+00 0. -1.
        -11    1    4    4    0    0 -0.64783712841E-01  0.15713063675E-02  0.33233888163E-01  0.72829601788E-01  0.51100000000E-03 0.  1.
         11    1    4    4    0    0 -0.42212726293E-01  0.20668318743E-01  0.37124333037E-01  0.59896334488E-01  0.51100000000E-03 0. -1.
</event>
<event>
 8    1  0.1010879E+005  0.1043930E+01  0.7957747E-01            NaN
         13   -1    0    0    0    0  0.00000000000E+00  0.00000000000E+00  0.74505805969E-08  0.10566000000E+00  0.10566000000E+00 0. -1.
     999900   -1    0    0    0    0 -0.00000000000E+00 -0.00000000000E+00 -0.74505805969E-08  0.93827000000E+00  0.93827000000E+00 0. -1.
     999902    2    1    2    0    0  0.18305918106E-01  0.81410893826E-02 -0.11595875349E-01  0.10207816027E+01  0.10205190993E+01 0.  0.
     999903    2    3    3    0    0 -0.11365772626E+00  0.56247646028E-01  0.45797587644E-02  0.12949584862E+00  0.25813256229E-01 0.  0.
         14    1    1    2    0    0 -0.18305918106E-01 -0.81410893826E-02  0.11595875349E-01  0.23148397334E-01  0.00000000000E+00 0.  1.
     999901    1    3    3    0    0  0.13196364437E+00 -0.48106556645E-01 -0.16175634113E-01  0.89128575405E+00  0.88000000000E+00 0. -1.
        -11    1    4    4    0    0 -0.79911366055E-01  0.30844461795E-01  0.12350789120E-01  0.86544845954E-01  0.51100000000E-03 0.  1.
         11    1    4    4    0    0 -0.33746360205E-01  0.25403184233E-01 -0.77710303555E-02  0.42951002666E-01  0.51100000000E-03 0. -1.
</event>
<event>
 8    1  0.1010879E+005  0.1043930E+01  0.7957747E-01            NaN
         13   -1    0    0    0    0  0.00000000000E+00  0.00000000000E+00  0.74505805969E-08  0.10566000000E+00  0.10566000000E+00 0. -1.
     999900   -1    0    0    0    0 -0.00000000000E+00 -0.00000000000E+00 -0.74505805969E-08  0.93827000000E+00  0.93827000000E+00 0.  1.
     999902    2    1    2    0    0 -0.11618287450E-01  0.14927009322E-01 -0.13800829878E-01  0.10205149810E+01  0.10202463248E+01 0.  0.
     999903    2    3    3    0    0 -0.10095150003E-01 -0.30728051966E-01 -0.12640881653E+00  0.13216411379E+00  0.21024719921E-01 0.  0.
         14    1    1    2    0    0  0.11618287450E-01 -0.14927009322E-01  0.13800829878E-01  0.23415019024E-01  0.00000000000E+00 0. -1.
     999901    1    3    3    0    0 -0.15231374472E-02  0.45655061288E-01  0.11260798665E+00  0.88835086718E+00  0.88000000000E+00 0. -1.
        -11    1    4    4    0    0 -0.14401681088E-02 -0.19835118231E-01 -0.40363462695E-01  0.44999736012E-01  0.51100000000E-03 0.  1.
         11    1    4    4    0    0 -0.86549818942E-02 -0.10892933736E-01 -0.86045353831E-01  0.87164377780E-01  0.51100000000E-03 0. -1.
</event>
<event>
 8    1  0.1010879E+005  0.1043930E+01  0.7957747E-01            NaN
         13   -1    0    0    0    0  0.00000000000E+00  0.00000000000E+00  0.74505805969E-08  0.10566000000E+00  0.10566000000E+00 0. -1.
     999900   -1    0    0    0    0 -0.00000000000E+00 -0.00000000000E+00 -0.74505805969E-08  0.93827000000E+00  0.93827000000E+00 0. -1.
     999902    2    1    2    0    0 -0.21730496340E-01 -0.76252147206E-02 -0.10721792077E-01  0.10185269451E+01  0.10182101074E+01 0.  0.
     999903    2    3    3    0    0  0.90614500863E-01 -0.82968395543E-01 -0.29982606568E-01  0.12798274508E+00  0.19643928213E-01 0.  0.
         14    1    1    2    0    0  0.21730496340E-01  0.76252147206E-02  0.10721792077E-01  0.25403054857E-01  0.00000000000E+00 0. -1.
     999901    1    3    3    0    0 -0.11234499720E+00  0.75343180823E-01  0.19260814491E-01  0.89054420006E+00  0.88000000000E+00 0. -1.
        -11    1    4    4    0    0  0.47455841174E-01 -0.37566661788E-01 -0.23785138400E-01  0.65033105948E-01  0.51100000000E-03 0. -1.
         11    1    4    4    0    0  0.43158659689E-01 -0.45401733755E-01 -0.61974681681E-02  0.62949639132E-01  0.51100000000E-03 0.  1.
</event>
<event>
 7    1  0.1010879E+005  0.1043930E+01  0.7957747E-01            NaN
         13   -1    0    0    0    0  0.00000000000E+00  0.00000000000E+00  0.74505805969E-08  0.10566000000E+00  0.10566000000E+00 0. -1.
     999900   -1    0    0    0    0 -0.00000000000E+00 -0.00000000000E+00 -0.74505805969E-08  0.93827000000E+00  0.93827000000E+00 0. -1.
     999903    2    1    2    0    0  0.60463371613E-01  0.67733040686E-01 -0.10067894013E-01  0.93438532308E-01  0.19642116041E-01 0.  0.
         14    1    1    2    0    0 -0.58137141055E-01  0.46469116398E-02 -0.31982304349E-01  0.66516078878E-01  0.00000000000E+00 0.  1.
     999901    1    1    2    0    0 -0.23262305585E-02 -0.72379952326E-01  0.42050198362E-01  0.88397538881E+00  0.88000000000E+00 0.  1.
        -11    1    3    3    0    0  0.29378818252E-01  0.19799203396E-01 -0.76893768686E-02  0.36256186432E-01  0.51100000000E-03 0.  1.
         11    1    3    3    0    0  0.31084553362E-01  0.47933837290E-01 -0.23785171448E-02  0.57182345876E-01  0.51100000000E-03 0. -1.
</event>
<event>
 8    1  0.1010879E+005  0.1043930E+01  0.7957747E-01            NaN
         13   -1    0    0    0    0  0.00000000000E+00  0.00000000000E+00  0.74505805969E-08  0.10566000000E+00  0.10566000000E+00 0.  1.
     999900   -1    0    0    0    0 -0.00000000000E+00 -0.00000000000E+00 -0.74505805969E-08  0.93827000000E+00  0.93827000000E+00 0. -1.
     999902    2    1    2    0    0 -0.19974381562E-02  0.66494415739E-02  0.21871822047E-01  0.10209826378E+01  0.10207247255E+01 0.  0.
     999903    2    3    3    0    0  0.39101918439E-01 -0.10330715778E+00 -0.63459205984E-01  0.12909643699E+00  0.20916269844E-01 0.  0.
         14    1    1    2    0    0  0.19974381562E-02 -0.66494415739E-02 -0.21871822047E-01  0.22947362203E-01  0.00000000000E+00 0. -1.
     999901    1    3    3    0    0 -0.41099356595E-01  0.10995659935E+00  0.85331028031E-01  0.89188620081E+00  0.88000000000E+00 0. -1.
        -11    1    4    4    0    0  0.28496847200E-01 -0.72999668176E-01 -0.55448162596E-01  0.95998863069E-01  0.51100000000E-03 0.  1.
         11    1    4    4    0    0  0.10605071239E-01 -0.30307489603E-01 -0.80110433880E-02  0.33097573917E-01  0.51100000000E-03 0. -1.
</event>
<event>
 8    1  0.1010879E+005  0.1043930E+01  0.7957747E-01            NaN
         13   -1    0    0    0    0  0.00000000000E+00  0.00000000000E+00  0.74505805969E-08  0.10566000000E+00  0.10566000000E+00 0. -1.
     999900   -1    0    0    0    0 -0.00000000000E+00 -0.00000000000E+00 -0.74505805969E-08  0.93827000000E+00  0.93827000000E+00 0. -1.
     999902    2    1    2    0    0 -0.12212629853E-01  0.20232494450E-01  0.36437024098E-02  0.10200181049E+01  0.10197377877E+01 0.  0.
     999903    2    3    3    0    0  0.72608507290E-01 -0.90584426378E-01  0.49439088498E-01  0.12784534550E+00  0.20559067606E-01 0.  0.
         14    1    1    2    0    0  0.12212629853E-01 -0.20232494450E-01 -0.36437024098E-02  0.23911895091E-01  0.00000000000E+00 0.  1.
     999901    1    3    3    0    0 -0.84821137143E-01  0.11081692083E+00 -0.45795386088E-01  0.89217275941E+00  0.88000000000E+00 0.  1.
        -11    1    4    4    0    0  0.62365004904E-01 -0.75914812934E-01  0.33282243999E-01  0.10373245175E+00  0.51100000000E-03 0. -1.
         11    1    4    4    0    0  0.10243502386E-01 -0.14669613444E-01  0.16156844499E-01  0.24112893748E-01  0.51100000000E-03 0.  1.
</event>
<event>
 8    1  0.1010879E+005  0.1043930E+01  0.7957747E-01            NaN
         13   -1    0    0    0    0  0.00000000000E+00  0.00000000000E+00  0.74505805969E-08  0.10566000000E+00  0.10566000000E+00 0. -1.
     999900   -1    0    0    0    0 -0.00000000000E+00 -0.00000000000E+00 -0.74505805969E-08  0.93827000000E+00  0.93827000000E+00 0.  1.
     999902    2    1    2    0    0  0.71896721958E-03 -0.39649965810E-02 -0.26752545413E-01  0.10168756695E+01  0.10165157109E+01 0.  0.
     999903    2    3    3    0    0  0.42205642094E-01 -0.10629906784E+00  0.50486777968E-01  0.12661766230E+00  0.20057657148E-01 0.  0.
         14    1    1    2    0    0 -0.71896721958E-03  0.39649965810E-02  0.26752545413E-01  0.27054330482E-01  0.00000000000E+00 0. -1.
     999901    1    3    3    0    0 -0.41486674874E-01  0.10233407126E+00 -0.77239323380E-01  0.89025800721E+00  0.88000000000E+00 0.  1.
        -11    1    4    4    0    0  0.82852073409E-02 -0.46468787058E-01  0.23542571780E-01  0.52749470503E-01  0.51100000000E-03 0. -1.
         11    1    4    4    0    0  0.33920434753E-01 -0.59830280779E-01  0.26944206188E-01  0.73868191801E-01  0.51100000000E-03 0.  1.
</event>
<event>
 8    1  0.1010879E+005  0.1043930E+01  0.7957747E-01            NaN
         13   -1    0    0    0    0  0.00000000000E+00  0.00000000000E+00  0.74505805969E-08  0.10566000000E+00  0.10566000000E+00 0.  1.
     999900   -1    0    0    0    0 -0.00000000000E+00 -0.00000000000E+00 -0.74505805969E-08  0.93827000000E+00  0.93827000000E+00 0.  1.
     999902    2    1    2    0    0 -0.32426348698E-02 -0.13804083368E-01  0.19763723173E-01  0.10196056880E+01  0.10193154992E+01 0.  0.
     999903    2    3    3    0    0  0.55368403129E-01  0.71020091160E-02 -0.11287055557E+00  0.12749349197E+00  0.19968214329E-01 0.  0.
         14    1    1    2    0    0  0.32426348698E-02  0.13804083368E-01 -0.19763723173E-01  0.24324311957E-01  0.00000000000E+00 0. -1.
     999901    1    3    3    0    0 -0.58611037999E-01 -0.20906092484E-01  0.13263427874E+00  0.89211219607E+00  0.88000000000E+00 0. -1.
        -11    1    4    4    0    0  0.36963033578E-01 -0.45407690122E-02 -0.76810602548E-01  0.85364010094E-01  0.51100000000E-03 0.  1.
         11    1    4    4    0    0  0.18405369551E-01  0.11642778128E-01 -0.36059953017E-01  0.42129481879E-01  0.51100000000E-03 0. -1.
</event>
<event>
 8    1  0.1010879E+005  0.1043930E+01  0.7957747E-01            NaN
         13   -1    0    0    0    0  0.00000000000E+00  0.00000000000E+00  0.74505805969E-08  0.10566000000E+00  0.10566000000E+00 0. -1.
     999900   -1    0    0    0    0 -0.00000000000E+00 -0.00000000000E+00 -0.74505805969E-08  0.93827000000E+00  0.93827000000E+00 0. -1.
     999902    2    1    2    0    0 -0.77834879110E-02  0.13086623744E-01 -0.18554750362E-01  0.10199274758E+01  0.10196450043E+01 0.  0.
     999903    2    3    3    0    0 -0.84349847808E-01  0.98269414153E-01  0.15219496937E-01  0.13186260488E+00  0.19604563137E-01 0.  0.
         14    1    1    2    0    0  0.77834879110E-02 -0.13086623744E-01  0.18554750362E-01  0.24002524160E-01  0.00000000000E+00 0.  1.
     999901    1    3    3    0    0  0.76566359898E-01 -0.85182790409E-01 -0.33774247299E-01  0.88806487096E+00  0.88000000000E+00 0. -1.
        -11    1    4    4    0    0 -0.48777189523E-01  0.65386537061E-01  0.18178025623E-02  0.81597665247E-01  0.51100000000E-03 0. -1.
         11    1    4    4    0    0 -0.35572658285E-01  0.32882877091E-01  0.13401694374E-01  0.50264939634E-01  0.51100000000E-03 0.  1.
</event>
<event>
 8    1  0.1010879E+005  0.1043930E+01  0.7957747E-01            NaN
         13   -1    0    0    0    0  0.00000000000E+00  0.00000000000E+00  0.74505805969E-08  0.10566000000E+00  0.10566000000E+00 0.  1.
     999900   -1    0    0    0    0 -0.00000000000E+00 -0.00000000000E+00 -0.74505805969E-08  0.93827000000E+00  0.93827000000E+00 0. -1.
     999902    2    1    2    0    0 -0.17981672647E-01 -0.12809723118E-01  0.91910791690E-02  0.10200154543E+01  0.10197350742E+01 0.  0.
     999903    2    3    3    0    0 -0.10606664917E+00 -0.36467563685E-01 -0.66739060091E-01  0.13204921481E+00  0.20071764308E-01 0.  0.
         14    1    1    2    0    0  0.17981672647E-01  0.12809723118E-01 -0.91910791690E-02  0.23914545654E-01  0.00000000000E+00 0. -1.
     999901    1    3    3    0    0  0.88084976523E-01  0.23657840567E-01  0.75930139260E-01  0.88796623954E+00  0.88000000000E+00 0.  1.
        -11    1    4    4    0    0 -0.81885269826E-01 -0.24582740657E-01 -0.41141692266E-01  0.94881022951E-01  0.51100000000E-03 0.  1.
         11    1    4    4    0    0 -0.24181379344E-01 -0.11884823028E-01 -0.25597367826E-01  0.37168191858E-01  0.51100000000E-03 0. -1.
</event>
<event>
 8    1  0.1010879E+005  0.1043930E+01  0.7957747E-01            NaN
         13   -1    0    0    0    0  0.00000000000E+00  0.00000000000E+00  0.74505805969E-08  0.10566000000E+00  0.10566000000E+00 0.  1.
     999900   -1    0    0    0    0 -0.00000000000E+00 -0.00000000000E+00 -0.74505805969E-08  0.93827000000E+00  0.93827000000E+00 0. -1.
     999902    2    1    2    0    0 -0.48846571727E-02 -0.22933237039E-01 -0.14015739745E-02  0.10204404779E+01  0.10201700894E+01 0.  0.
     999903    2    3    3    0    0 -0.65895195571E-01 -0.11351362705E+00 -0.17002485990E-01  0.13355238957E+00  0.17878364153E-01 0.  0.
         14    1    1    2    0    0  0.48846571727E-02  0.22933237039E-01  0.14015739745E-02  0.23489522055E-01  0.00000000000E+00 0. -1.
     999901    1    3    3    0    0  0.61010538398E-01  0.90580390008E-01  0.15600912015E-01  0.88688808838E+00  0.88000000000E+00 0.  1.
        -11    1    4    4    0    0 -0.58249957213E-03 -0.32177012136E-02  0.21478466521E-02  0.39455383780E-02  0.51100000000E-03 0. -1.
         11    1    4    4    0    0 -0.65312695999E-01 -0.11029592583E+00 -0.19150332642E-01  0.12960685119E+00  0.51100000000E-03 0.  1.
</event>
<event>
 7    1  0.1010879E+005  0.1043930E+01  0.7957747E-01            NaN
         13   -1    0    0    0    0  0.00000000000E+00  0.00000000000E+00  0.74505805969E-08  0.10566000000E+00  0.10566000000E+00 0.  1.
     999900   -1    0    0    0    0 -0.00000000000E+00 -0.00000000000E+00 -0.74505805969E-08  0.93827000000E+00  0.93827000000E+00 0.  1.
     999903    2    1    2    0    0 -0.10623653400E+00  0.76445938187E-02 -0.46018332307E-01  0.11793736711E+00  0.21139883704E-01 0.  0.
         14    1    1    2    0    0  0.24516379001E-01 -0.21035013039E-01  0.26674366117E-01  0.41893274169E-01  0.00000000000E+00 0.  1.
     999901    1    1    2    0    0  0.81720154994E-01  0.13390419220E-01  0.19343966190E-01  0.88409935872E+00  0.88000000000E+00 0.  1.
        -11    1    3    3    0    0 -0.41357341930E-01  0.29323165308E-02 -0.29298405038E-01  0.50770915597E-01  0.51100000000E-03 0. -1.
         11    1    3    3    0    0 -0.64879192065E-01  0.47122772879E-02 -0.16719927269E-01  0.67166451515E-01  0.51100000000E-03 0.  1.
</event>
<event>
 8    1  0.1010879E+005  0.1043930E+01  0.7957747E-01            NaN
         13   -1    0    0    0    0  0.00000000000E+00  0.00000000000E+00  0.74505805969E-08  0.10566000000E+00  0.10566000000E+00 0.  1.
     999900   -1    0    0    0    0 -0.00000000000E+00 -0.00000000000E+00 -0.74505805969E-08  0.93827000000E+00  0.93827000000E+00 0.  1.
     999902    2    1    2    0    0  0.10061726461E-01  0.77576708812E-02 -0.19864990700E-01  0.10203495494E+01  0.10200770389E+01 0.  0.
     999903    2    3    3    0    0 -0.30287112489E-01  0.49755279189E-01 -0.11843383638E+00  0.13293327430E+00  0.15867729065E-01 0.  0.
         14    1    1    2    0    0 -0.10061726461E-01 -0.77576708812E-02  0.19864990700E-01  0.23580450640E-01  0.00000000000E+00 0.  1.
     999901    1    3    3    0    0  0.40348838951E-01 -0.41997608308E-01  0.98568845680E-01  0.88741627506E+00  0.88000000000E+00 0. -1.
        -11    1    4    4    0    0  0.24828360551E-03  0.11042647616E-01 -0.21016671640E-01  0.23747911886E-01  0.51100000000E-03 0. -1.
         11    1    4    4    0    0 -0.30535396095E-01  0.38712631573E-01 -0.97417164739E-01  0.10918536241E+00  0.51100000000E-03 0.  1.
</event>
<event>
 8    1  0.1010879E+005  0.1043930E+01  0.7957747E-01            NaN
         13   -1    0    0    0    0  0.00000000000E+00  0.00000000000E+00  0.74505805969E-08  0.10566000000E+00  0.10566000000E+00 0.  1.
     999900   -1    0    0    0    0 -0.00000000000E+00 -0.00000000000E+00 -0.74505805969E-08  0.93827000000E+00  0.93827000000E+00 0.  1.
     999902    2    1    2    0    0  0.20478662335E-01  0.39008957683E-02  0.10673282880E-01  0.10205096762E+01  0.10202408969E+01 0.  0.
     999903    2    3    3    0    0  0.10959046162E+00  0.37208069202E-01 -0.61486658775E-01  0.13244586220E+00  0.19151697482E-01 0.  0.
         14    1    1    2    0    0 -0.20478662335E-01 -0.39008957683E-02 -0.10673282880E-01  0.23420323786E-01  0.00000000000E+00 0. -1.
     999901    1    3    3    0    0 -0.89111799283E-01 -0.33307173433E-01  0.72159941654E-01  0.88806381401E+00  0.88000000000E+00 0. -1.
        -11    1    4    4    0    0  0.45136974703E-01  0.21860543212E-01 -0.34648990289E-01  0.60959359281E-01  0.51100000000E-03 0.  1.
         11    1    4    4    0    0  0.64453486915E-01  0.15347525989E-01 -0.26837668485E-01  0.71486502923E-01  0.51100000000E-03 0. -1.
</event>
<event>
 8    1  0.1010879E+005  0.1043930E+01  0.7957747E-01            NaN
         13   -1    0    0    0    0  0.00000000000E+00  0.00000000000E+00  0.74505805969E-08  0.10566000000E+00  0.10566000000E+00 0. -1.
     999900   -1    0    0    0    0 -0.00000000000E+00 -0.00000000000E+00 -0.74505805969E-08  0.93827000000E+00  0.93827000000E+00 0. -1.
     999902    2    1    2    0    0 -0.93580424094E-02 -0.85653044992E-02  0.20327636393E-01  0.10199685685E+01  0.10196870748E+01 0.  0.
     999903    2    3    3    0    0  0.46833100478E-01 -0.10408243114E+00  0.63192371069E-01  0.13198301033E+00  0.19993686026E-01 0.  0.
         14    1    1    2    0    0  0.93580424094E-02  0.85653044992E-02 -0.20327636393E-01  0.23961431514E-01  0.00000000000E+00 0.  1.
     999901    1    3    3    0    0 -0.56191142888E-01  0.95517126642E-01 -0.42864734676E-01  0.88798555816E+00  0.88000000000E+00 0. -1.
        -11    1    4    4    0    0  0.69992850869E-02 -0.16867995083E-01  0.23352231912E-02  0.18418296290E-01  0.51100000000E-03 0.  1.
         11    1    4    4    0    0  0.39833815391E-01 -0.87214436057E-01  0.60857147878E-01  0.11356471404E+00  0.51100000000E-03 0. -1.
</event>
<event>
 8    1  0.1010879E+005  0.1043930E+01  0.7957747E-01            NaN
         13   -1    0    0    0    0  0.00000000000E+00  0.00000000000E+00  0.74505805969E-08  0.10566000000E+00  0.10566000000E+00 0. -1.
     999900   -1    0    0    0    0 -0.00000000000E+00 -0.00000000000E+00 -0.74505805969E-08  0.93827000000E+00  0.93827000000E+00 0.  1.
     999902    2    1    2    0    0 -0.19791000954E-01  0.52774052355E-03  0.16581928313E-01  0.10181051558E+01  0.10177775719E+01 0.  0.
     999903    2    3    3    0    0  0.21492181471E-01  0.12483278378E+00  0.70287509527E-02  0.12835951347E+00  0.19535188495E-01 0.  0.
         14    1    1    2    0    0  0.19791000954E-01 -0.52774052355E-03 -0.16581928313E-01  0.25824844151E-01  0.00000000000E+00 0.  1.
     999901    1    3    3    0    0 -0.41283182425E-01 -0.12430504325E+00  0.95531773607E-02  0.88974564238E+00  0.88000000000E+00 0. -1.
        -11    1    4    4    0    0  0.28355392977E-02  0.70323567507E-01  0.59032314876E-03  0.70385041255E-01  0.51100000000E-03 0. -1.
         11    1    4    4    0    0  0.18656642173E-01  0.54509216269E-01  0.64384278039E-02  0.57974472219E-01  0.51100000000E-03 0.  1.
</event>
<event>
 8    1  0.1010879E+005  0.1043930E+01  0.7957747E-01            NaN
         13   -1    0    0    0    0  0.00000000000E+00  0.00000000000E+00  0.74505805969E-08  0.10566000000E+00  0.10566000000E+00 0.  1.
     999900   -1    0    0    0    0 -0.00000000000E+00 -0.00000000000E+00 -0.74505805969E-08  0.93827000000E+00  0.93827000000E+00 0. -1.
     999902    2    1    2    0    0 -0.98272752651E-02 -0.13655432334E-01 -0.15606648604E-01  0.10209819358E+01  0.10207240075E+01 0.  0.
     999903    2    3    3    0    0 -0.12154793963E+00  0.20926625543E-01 -0.44960005422E-01  0.13275952830E+00  0.19795579839E-01 0.  0.
         14    1    1    2    0    0  0.98272752651E-02  0.13655432334E-01  0.15606648604E-01  0.22948064233E-01  0.00000000000E+00 0.  1.
     999901    1    3    3    0    0  0.11172066437E+00 -0.34582057878E-01  0.29353356818E-01  0.88822240747E+00  0.88000000000E+00 0.  1.
        -11    1    4    4    0    0 -0.64900741154E-01  0.15790546750E-01 -0.14957858117E-01  0.68450319280E-01  0.51100000000E-03 0.  1.
         11    1    4    4    0    0 -0.56647198477E-01  0.51360787930E-02 -0.30002147305E-01  0.64309209019E-01  0.51100000000E-03 0. -1.
</event>
<event>
 8    1  0.1010879E+005  0.1043930E+01  0.7957747E-01            NaN
         13   -1    0    0    0    0  0.00000000000E+00  0.00000000000E+00  0.74505805969E-08  0.10566000000E+00  0.10566000000E+00 0. -1.
     999900   -1    0    0    0    0 -0.00000000000E+00 -0.00000000000E+00 -0.74505805969E-08  0.93827000000E+00  0.93827000000E+00 0. -1.
     999902    2    1    2    0    0 -0.20645481644E-01 -0.76464606324E-02  0.83174301298E-02  0.10203952615E+01  0.10201238188E+01 0.  0.
     999903    2    3    3    0    0 -0.71671912800E-01 -0.10809069586E+00 -0.20168737956E-01  0.13275558075E+00  0.19919955167E-01 0.  0.
         14    1    1    2    0    0  0.20645481644E-01  0.76464606324E-02 -0.83174301298E-02  0.23534738504E-01  0.00000000000E+00 0. -1.
     999901    1    3    3    0    0  0.51026431156E-01  0.10044423522E+00  0.28486168085E-01  0.88763968075E+00  0.88000000000E+00 0.  1.
        -11    1    4    4    0    0 -0.71353944135E-01 -0.98728640630E-01 -0.19287886842E-01  0.12333293771E+00  0.51100000000E-03 0. -1.
         11    1    4    4    0    0 -0.31796866466E-03 -0.93620552270E-02 -0.88085111328E-03  0.94226430384E-02  0.51100000000E-03 0.  1.
</event>
<event>
 8    1  0.1010879E+005  0.1043930E+01  0.7957747E-01            NaN
         13   -1    0    0    0    0  0.00000000000E+00  0.00000000000E+00  0.74505805969E-08  0.10566000000E+00  0.10566000000E+00 0. -1.
     999900   -1    0    0    0    0 -0.00000000000E+00 -0.00000000000E+00 -0.74505805969E-08  0.93827000000E+00  0.93827000000E+00 0.  1.
     999902    2    1    2    0    0  0.96743874904E-02 -0.19553755912E-01  0.90090859179E-02  0.10203268906E+01  0.10200538500E+01 0.  0.
     999903    2    3    3    0    0  0.16394563645E-02 -0.11392977362E+00 -0.64321200042E-01  0.13221162576E+00  0.18974089582E-01 0.  0.
         14    1    1    2    0    0 -0.96743874904E-02  0.19553755912E-01 -0.90090859179E-02  0.23603109385E-01  0.00000000000E+00 0.  1.
     999901    1    3    3    0    0  0.80349311259E-02  0.94376017710E-01  0.73330285959E-01  0.88811526486E+00  0.88000000000E+00 0. -1.
        -11    1    4    4    0    0  0.53125214836E-02 -0.87990381480E-01 -0.41364281814E-01  0.97374509234E-01  0.51100000000E-03 0. -1.
         11    1    4    4    0    0 -0.36730651191E-02 -0.25939392141E-01 -0.22956918227E-01  0.34837116521E-01  0.51100000000E-03 0.  1.
</event>
<event>
 8    1  0.1010879E+005  0.1043930E+01  0.7957747E-01            NaN
         13   -1    0    0    0    0  0.00000000000E+00  0.00000000000E+00  0.74505805969E-08  0.10566000000E+00  0.10566000000E+00 0.  1.
     999900   -1    0    0    0    0 -0.00000000000E+00 -0.00000000000E+00 -0.74505805969E-08  0.93827000000E+00  0.93827000000E+00 0. -1.
     999902    2    1    2    0    0  0.24955218882E-03  0.21506011665E-01  0.81155380858E-02  0.10209423343E+01  0.10206835050E+01 0.  0.
     999903    2    3    3    0    0 -0.10669924271E+00  0.76308101011E-01 -0.39284353788E-02  0.13269328648E+00  0.19606656966E-01 0.  0.
         14    1    1    2    0    0 -0.24955218882E-03 -0.21506011665E-01 -0.81155380858E-02  0.22987665659E-01  0.00000000000E+00 0. -1.
     999901    1    3    3    0    0  0.10694879490E+00 -0.54802089346E-01  0.12043973465E-01  0.88824904786E+00  0.88000000000E+00 0.  1.
        -11    1    4    4    0    0 -0.95333808320E-01  0.69592273788E-01 -0.93712144831E-02  0.11840481562E+00  0.51100000000E-03 0.  1.
         11    1    4    4    0    0 -0.11365434392E-01  0.67158272234E-02  0.54427791042E-02  0.14288470862E-01  0.51100000000E-03 0. -1.
</event>
<event>
 8    1  0.1010879E+005  0.1043930E+01  0.7957747E-01            NaN
         13   -1    0    0    0    0  0.00000000000E+00  0.00000000000E+00  0.74505805969E-08  0.10566000000E+00  0.10566000000E+00 0. -1.
     999900   -1    0    0    0    0 -0.00000000000E+00 -0.00000000000E+00 -0.74505805969E-08  0.93827000000E+00  0.93827000000E+00 0.  1.
     999902    2    1    2    0    0 -0.32739515486E-02  0.10864432900E-01 -0.20834441348E-01  0.10202059909E+01  0.10199301129E+01 0.  0.
     999903    2    3    3    0    0  0.11508795989E+00 -0.41079418811E-01 -0.41305344691E-01  0.13052809207E+00  0.19967327255E-01 0.  0.
         14    1    1    2    0    0  0.32739515486E-02 -0.10864432900E-01  0.20834441348E-01  0.23724009089E-01  0.00000000000E+00 0. -1.
     999901    1    3    3    0    0 -0.11836191144E+00  0.51943851711E-01  0.20470903344E-01  0.88967789884E+00  0.88000000000E+00 0. -1.
        -11    1    4    4    0    0  0.42080428821E-01 -0.12535775239E-01 -0.24759266327E-01  0.50410222580E-01  0.51100000000E-03 0. -1.
         11    1    4    4    0    0  0.73007531066E-01 -0.28543643572E-01 -0.16546078364E-01  0.80117869486E-01  0.51100000000E-03 0.  1.
</event>
<event>
 8    1  0.1010879E+005  0.1043930E+01  0.7957747E-01            NaN
         13   -1    0    0    0    0  0.00000000000E+00  0.00000000000E+00  0.74505805969E-08  0.10566000000E+00  0.10566000000E+00 0.  1.
     999900   -1    0    0    0    0 -0.00000000000E+00 -0.00000000000E+00 -0.74505805969E-08  0.93827000000E+00  0.93827000000E+00 0. -1.
     999902    2    1    2    0    0 -0.10832210713E-01 -0.18584951432E-01 -0.10284274230E-01  0.10200866885E+01  0.10198079959E+01 0.  0.
     999903    2    3    3    0    0  0.87989920165E-01 -0.12796449925E-01 -0.93599291971E-01  0.13062577730E+00  0.19907060474E-01 0.  0.
         14    1    1    2    0    0  0.10832210713E-01  0.18584951432E-01  0.10284274230E-01  0.23843311538E-01  0.00000000000E+00 0. -1.
     999901    1    3    3    0    0 -0.98822130878E-01 -0.57885015075E-02  0.83315017742E-01  0.88946091116E+00  0.88000000000E+00 0.  1.
        -11    1    4    4    0    0  0.62412229978E-01 -0.12032194670E-02 -0.71273096034E-01  0.94746237536E-01  0.51100000000E-03 0.  1.
         11    1    4    4    0    0  0.25577690187E-01 -0.11593230458E-01 -0.22326195938E-01  0.35879539766E-01  0.51100000000E-03 0. -1.
</event>
<event>
 8    1  0.1010879E+005  0.1043930E+01  0.7957747E-01            NaN
         13   -1    0    0    0    0  0.00000000000E+00  0.00000000000E+00  0.74505805969E-08  0.10566000000E+00  0.10566000000E+00 0. -1.
     999900   -1    0    0    0    0 -0.00000000000E+00 -0.00000000000E+00 -0.74505805969E-08  0.93827000000E+00  0.93827000000E+00 0.  1.
     999902    2    1    2    0    0  0.18542567927E-01  0.47772666988E-02  0.16995287090E-01  0.10183274828E+01  0.10180055861E+01 0.  0.
     999903    2    3    3    0    0 -0.47512901961E-01  0.72185971501E-01 -0.90601106134E-01  0.12676467381E+00  0.19809890432E-01 0.  0.
         14    1    1    2    0    0 -0.18542567927E-01 -0.47772666988E-02 -0.16995287090E-01  0.25602517175E-01  0.00000000000E+00 0.  1.
     999901    1    3    3    0    0  0.66055469888E-01 -0.67408704802E-01  0.10759639322E+00  0.89156280902E+00  0.88000000000E+00 0. -1.
        -11    1    4    4    0    0 -0.12615741618E-01  0.35095982449E-01 -0.44558404227E-01  0.58108497045E-01  0.51100000000E-03 0.  1.
         11    1    4    4    0    0 -0.34897160343E-01  0.37089989051E-01 -0.46042701907E-01  0.68656176763E-01  0.51100000000E-03 0. -1.
</event>
<event>
 8    1  0.1010879E+005  0.1043930E+01  0.7957747E-01            NaN
         13   -1    0    0    0    0  0.00000000000E+00  0.00000000000E+00  0.74505805969E-08  0.10566000000E+00  0.10566000000E+00 0.  1.
     999900   -1    0    0    0    0 -0.00000000000E+00 -0.00000000000E+00 -0.74505805969E-08  0.93827000000E+00  0.93827000000E+00 0. -1.
     999902    2    1    2    0    0 -0.16576765360E-01  0.14305849522E-01  0.67031306548E-02  0.10210306891E+01  0.10207738680E+01 0.  0.
     999903    2    3    3    0    0  0.23796379089E-01  0.73141656751E-01 -0.10449558402E+00  0.13116733038E+00  0.19224252103E-01 0.  0.
         14    1    1    2    0    0  0.16576765360E-01 -0.14305849522E-01 -0.67031306548E-02  0.22899310927E-01  0.00000000000E+00 0. -1.
     999901    1    3    3    0    0 -0.40373144449E-01 -0.58835807228E-01  0.11119871467E+00  0.88986335870E+00  0.88000000000E+00 0.  1.
        -11    1    4    4    0    0  0.13230059926E-01  0.21389780541E-01 -0.23215862292E-01  0.34231485217E-01  0.51100000000E-03 0. -1.
         11    1    4    4    0    0  0.10566319164E-01  0.51751876210E-01 -0.81279721727E-01  0.96935845160E-01  0.51100000000E-03 0.  1.
</event>
<event>
 8    1  0.1010879E+005  0.1043930E+01  0.7957747E-01            NaN
         13   -1    0    0    0    0  0.00000000000E+00  0.00000000000E+00  0.74505805969E-08  0.10566000000E+00  0.10566000000E+00 0. -1.
     999900   -1    0    0    0    0 -0.00000000000E+00 -0.00000000000E+00 -0.74505805969E-08  0.93827000000E+00  0.93827000000E+00 0.  1.
     999902    2    1    2    0    0  0.56994997860E-02 -0.24357905947E-01 -0.15942777447E-02  0.10188634166E+01  0.10185550197E+01 0.  0.
     999903    2    3    3    0    0 -0.33094585417E-01  0.59262947778E-01 -0.10648379394E+00  0.12785318166E+00  0.20007226832E-01 0.  0.
         14    1    1    2    0    0 -0.56994997860E-02  0.24357905947E-01  0.15942777447E-02  0.25066583362E-01  0.00000000000E+00 0.  1.
     999901    1    3    3    0    0  0.38794085203E-01 -0.83620853725E-01  0.10488951620E+00  0.89101023498E+00  0.88000000000E+00 0. -1.
        -11    1    4    4    0    0 -0.71231304941E-02  0.13213413222E-01 -0.10683448623E-01  0.18431778875E-01  0.51100000000E-03 0. -1.
         11    1    4    4    0    0 -0.25971454923E-01  0.46049534556E-01 -0.95800345318E-01  0.10942140279E+00  0.51100000000E-03 0.  1.
</event>
<event>
 8    1  0.1010879E+005  0.1043930E+01  0.7957747E-01            NaN
         13   -1    0    0    0    0  0.00000000000E+00  0.00000000000E+00  0.74505805969E-08  0.10566000000E+00  0.10566000000E+00 0. -1.
     999900   -1    0    0    0    0 -0.00000000000E+00 -0.00000000000E+00 -0.74505805969E-08  0.93827000000E+00  0.93827000000E+00 0.  1.
     999902    2    1    2    0    0 -0.21693393659E-01  0.57974154835E-02 -0.56679697220E-02  0.10207710010E+01  0.10205082544E+01 0.  0.
     999903    2    3    3    0    0 -0.76094171062E-01  0.86485491909E-01 -0.64998781982E-01  0.13342092602E+00  0.17499675985E-01 0.  0.
         14    1    1    2    0    0  0.21693393659E-01 -0.57974154835E-02  0.56679697220E-02  0.23158999017E-01  0.00000000000E+00 0.  1.
     999901    1    3    3    0    0  0.54400777403E-01 -0.80688076425E-01  0.59330812260E-01  0.88735007497E+00  0.88000000000E+00 0.  1.
        -11    1    4    4    0    0 -0.11089858300E-01  0.16921423186E-01 -0.18681663337E-01  0.27542425198E-01  0.51100000000E-03 0.  1.
         11    1    4    4    0    0 -0.65004312762E-01  0.69564068723E-01 -0.46317118645E-01  0.10587850082E+00  0.51100000000E-03 0. -1.
</event>
<event>
 8    1  0.1010879E+005  0.1043930E+01  0.7957747E-01            NaN
         13   -1    0    0    0    0  0.00000000000E+00  0.00000000000E+00  0.74505805969E-08  0.10566000000E+00  0.10566000000E+00 0.  1.
     999900   -1    0    0    0    0 -0.00000000000E+00 -0.00000000000E+00 -0.74505805969E-08  0.93827000000E+00  0.93827000000E+00 0. -1.
     999902    2    1    2    0    0 -0.77179179030E-02 -0.26539724076E-01 -0.12732046748E-01  0.10134992881E+01  0.10130423381E+01 0.  0.
     999903    2    3    3    0    0 -0.53108810083E-01 -0.10961182310E+00  0.33596811544E-01  0.12721058243E+00  0.14781375646E-01 0.  0.
         14    1    1    2    0    0  0.77179179030E-02  0.26539724076E-01  0.12732046748E-01  0.30430711874E-01  0.00000000000E+00 0.  1.
     999901    1    3    3    0    0  0.45390892180E-01  0.83072099021E-01 -0.46328858292E-01  0.88628870569E+00  0.88000000000E+00 0. -1.
        -11    1    4    4    0    0 -0.34939976847E-01 -0.82887857162E-01  0.29315248987E-01  0.94608899112E-01  0.51100000000E-03 0. -1.
         11    1    4    4    0    0 -0.18168833236E-01 -0.26723965935E-01  0.42815625569E-02  0.32601683321E-01  0.51100000000E-03 0.  1.
</event>
<event>
 8    1  0.1010879E+005  0.1043930E+01  0.7957747E-01            NaN
         13   -1    0    0    0    0  0.00000000000E+00  0.00000000000E+00  0.74505805969E-08  0.10566000000E+00  0.10566000000E+00 0.  1.
     999900   -1    0    0    0    0 -0.00000000000E+00 -0.00000000000E+00 -0.74505805969E-08  0.93827000000E+00  0.93827000000E+00 0.  1.
     999902    2    1    2    0    0  0.17650194428E-01  0.12865390457E-01 -0.63265901235E-02  0.10211907525E+01  0.10209375493E+01 0.  0.
     999903    2    3    3    0    0 -0.21704370483E-03 -0.45238529627E-01 -0.12120791490E+00  0.13164422615E+00  0.24336638524E-01 0.  0.
         14    1    1    2    0    0 -0.17650194428E-01 -0.12865390457E-01  0.63265901235E-02  0.22739247515E-01  0.00000000000E+00 0.  1.
     999901    1    3    3    0    0  0.17867238133E-01  0.58103920084E-01  0.11488132477E+00  0.88954652633E+00  0.88000000000E+00 0. -1.
        -11    1    4    4    0    0  0.10241419673E-03 -0.22022737737E-01 -0.28219295781E-01  0.35799458676E-01  0.51100000000E-03 0.  1.
         11    1    4    4    0    0 -0.31945790156E-03 -0.23215791890E-01 -0.92988619117E-01  0.95844767476E-01  0.51100000000E-03 0. -1.
</event>
<event>
 8    1  0.1010879E+005  0.1043930E+01  0.7957747E-01            NaN
         13   -1    0    0    0    0  0.00000000000E+00  0.00000000000E+00  0.74505805969E-08  0.10566000000E+00  0.10566000000E+00 0. -1.
     999900   -1    0    0    0    0 -0.00000000000E+00 -0.00000000000E+00 -0.74505805969E-08  0.93827000000E+00  0.93827000000E+00 0.  1.
     999902    2    1    2    0    0  0.50518023552E-02 -0.21495501376E-01  0.10258364103E-01  0.10195822831E+01  0.10192915288E+01 0.  0.
     999903    2    3    3    0    0  0.65780403989E-01  0.35613995903E-01  0.10510865659E+00  0.13056820233E+00  0.20119828967E-01 0.  0.
         14    1    1    2    0    0 -0.50518023552E-02  0.21495501376E-01 -0.10258364103E-01  0.24347716946E-01  0.00000000000E+00 0. -1.
     999901    1    3    3    0    0 -0.60728601633E-01 -0.57109497278E-01 -0.94850292485E-01  0.88901408072E+00  0.88000000000E+00 0.  1.
        -11    1    4    4    0    0  0.31356528665E-01  0.19580436085E-01  0.68381377002E-01  0.77736086915E-01  0.51100000000E-03 0. -1.
         11    1    4    4    0    0  0.34423875324E-01  0.16033559818E-01  0.36727279586E-01  0.52832115418E-01  0.51100000000E-03 0.  1.
</event>
<event>
 8    1  0.1010879E+005  0.1043930E+01  0.7957747E-01            NaN
         13   -1    0    0    0    0  0.00000000000E+00  0.00000000000E+00  0.74505805969E-08  0.10566000000E+00  0.10566000000E+00 0.  1.
     999900   -1    0    0    0    0 -0.00000000000E+00 -0.00000000000E+00 -0.74505805969E-08  0.93827000000E+00  0.93827000000E+00 0.  1.
     999902    2    1    2    0    0 -0.11050693195E-01 -0.17081931633E-01  0.82208359645E-02  0.10219870660E+01  0.10217514721E+01 0.  0.
     999903    2    3    3    0    0 -0.10218120770E+00  0.35899902171E-01  0.74679232203E-01  0.13320781117E+00  0.20917242967E-01 0.  0.
         14    1    1    2    0    0  0.11050693195E-01  0.17081931633E-01 -0.82208359645E-02  0.21942933996E-01  0.00000000000E+00 0. -1.
     999901    1    3    3    0    0  0.91130514500E-01 -0.52981833803E-01 -0.66458396239E-01  0.88877925483E+00  0.88000000000E+00 0.  1.
        -11    1    4    4    0    0 -0.43878151160E-01  0.10362823986E-01  0.20124672060E-01  0.49375538647E-01  0.51100000000E-03 0.  1.
         11    1    4    4    0    0 -0.58303056535E-01  0.25537078185E-01  0.54554560143E-01  0.83832272527E-01  0.51100000000E-03 0. -1.
</event>
<event>
 8    1  0.1010879E+005  0.1043930E+01  0.7957747E-01            NaN
         13   -1    0    0    0    0  0.00000000000E+00  0.00000000000E+00  0.74505805969E-08  0.10566000000E+00  0.10566000000E+00 0. -1.
     999900   -1    0    0    0    0 -0.00000000000E+00 -0.00000000000E+00 -0.74505805969E-08  0.93827000000E+00  0.93827000000E+00 0. -1.
     999902    2    1    2    0    0 -0.12292372584E-01 -0.15670271936E-01 -0.13047979358E-01  0.10201201363E+01  0.10198422343E+01 0.  0.
     999903    2    3    3    0    0 -0.59723781795E-01 -0.10273027401E+00  0.53945959115E-01  0.13202252319E+00  0.19983513561E-01 0.  0.
         14    1    1    2    0    0  0.12292372584E-01  0.15670271936E-01  0.13047979358E-01  0.23809863746E-01  0.00000000000E+00 0. -1.
     999901    1    3    3    0    0  0.47431409211E-01  0.87060002073E-01 -0.66993938473E-01  0.88809761307E+00  0.88000000000E+00 0. -1.
        -11    1    4    4    0    0 -0.45044095080E-01 -0.85264456528E-01  0.50771144460E-01  0.10898150430E+00  0.51100000000E-03 0.  1.
         11    1    4    4    0    0 -0.14679686715E-01 -0.17465817481E-01  0.31748146550E-02  0.23041018889E-01  0.51100000000E-03 0. -1.
</event>
<event>
 8    1  0.1010879E+005  0.1043930E+01  0.7957747E-01            NaN
         13   -1    0    0    0    0  0.00000000000E+00  0.00000000000E+00  0.74505805969E-08  0.10566000000E+00  0.10566000000E+00 0.  1.
     999900   -1    0    0    0    0 -0.00000000000E+00 -0.00000000000E+00 -0.74505805969E-08  0.93827000000E+00  0.93827000000E+00 0.  1.
     999902    2    1    2    0    0  0.63685690707E-02 -0.23267785436E-01 -0.28395656282E-02  0.10196398447E+01  0.10193504801E+01 0.  0.
     999903    2    3    3    0    0 -0.10830251829E+00 -0.50273048168E-01 -0.49084294652E-01  0.13058567456E+00  0.19660508133E-01 0.  0.
         14    1    1    2    0    0 -0.63685690707E-02  0.23267785436E-01  0.28395656282E-02  0.24290155291E-01  0.00000000000E+00 0.  1.
     999901    1    3    3    0    0  0.11467108736E+00  0.27005262732E-01  0.46244729024E-01  0.88905417015E+00  0.88000000000E+00 0.  1.
        -11    1    4    4    0    0 -0.72008425418E-01 -0.28567671814E-01 -0.40550116087E-01  0.87440827076E-01  0.51100000000E-03 0.  1.
         11    1    4    4    0    0 -0.36294092870E-01 -0.21705376354E-01 -0.85341785650E-02  0.43144847487E-01  0.51100000000E-03 0. -1.
</event>
<event>
 8    1  0.1010879E+005  0.1043930E+01  0.7957747E-01            NaN
         13   -1    0    0    0    0  0.00000000000E+00  0.00000000000E+00  0.74505805969E-08  0.10566000000E+00  0.10566000000E+00 0.  1.
     999900   -1    0    0    0    0 -0.00000000000E+00 -0.00000000000E+00 -0.74505805969E-08  0.93827000000E+00  0.93827000000E+00 0. -1.
     999902    2    1    2    0    0 -0.19962198585E-01 -0.70857188410E-02 -0.10792683566E-01  0.10201565105E+01  0.10198794670E+01 0.  0.
     999903    2    3    3    0    0 -0.42427453054E-01 -0.11247645880E+00 -0.52097775848E-01  0.13262171887E+00  0.20574243855E-01 0.  0.
         14    1    1    2    0    0  0.19962198585E-01  0.70857188410E-02  0.10792683566E-01  0.23773489487E-01  0.00000000000E+00 0.  1.
     999901    1    3    3    0    0  0.22465254469E-01  0.10539073996E+00  0.41305092283E-01  0.88753479164E+00  0.88000000000E+00 0. -1.
        -11    1    4    4    0    0 -0.13419380685E-01 -0.40042618616E-01 -0.79699674854E-02  0.42979909101E-01  0.51100000000E-03 0.  1.
         11    1    4    4    0    0 -0.29008072369E-01 -0.72433840187E-01 -0.44127808363E-01  0.89641809770E-01  0.51100000000E-03 0. -1.
</event>
<event>
 8    1  0.1010879E+005  0.1043930E+01  0.7957747E-01            NaN
         13   -1    0    0    0    0  0.00000000000E+00  0.00000000000E+00  0.74505805969E-08  0.10566000000E+00  0.10566000000E+00 0. -1.
     999900   -1    0    0    0    0 -0.00000000000E+00 -0.00000000000E+00 -0.74505805969E-08  0.93827000000E+00  0.93827000000E+00 0.  1.
     999902    2    1    2    0    0 -0.16536621945E-01 -0.68999155518E-03 -0.15058535295E-01  0.10215537751E+01  0.10213086801E+01 0.  0.
     999903    2    3    3    0    0 -0.29370131619E-01  0.57019384115E-02  0.12520541352E+00  0.13033016062E+00  0.20357761662E-01 0.  0.
         14    1    1    2    0    0  0.16536621945E-01  0.68999155518E-03  0.15058535295E-01  0.22376224858E-01  0.00000000000E+00 0. -1.
     999901    1    3    3    0    0  0.12833509675E-01 -0.63919299667E-02 -0.14026394882E+00  0.89122361452E+00  0.88000000000E+00 0.  1.
        -11    1    4    4    0    0 -0.11833256272E-01  0.77101408156E-02  0.26261767593E-01  0.29823041151E-01  0.51100000000E-03 0.  1.
         11    1    4    4    0    0 -0.17536875347E-01 -0.20082024041E-02  0.98943645928E-01  0.10050711947E+00  0.51100000000E-03 0. -1.
</event>
<event>
 8    1  0.1010879E+005  0.1043930E+01  0.7957747E-01            NaN
         13   -1    0    0    0    0  0.00000000000E+00  0.00000000000E+00  0.74505805969E-08  0.10566000000E+00  0.10566000000E+00 0. -1.
     999900   -1    0    0    0    0 -0.00000000000E+00 -0.00000000000E+00 -0.74505805969E-08  0.93827000000E+00  0.93827000000E+00 0. -1.
     999902    2    1    2    0    0 -0.54627188322E-02 -0.18717411727E-01 -0.14203365976E-01  0.10198070150E+01  0.10195216670E+01 0.  0.
     999903    2    3    3    0    0 -0.61082516369E-02 -0.96988540369E-01  0.85176095844E-01  0.13076086115E+00  0.19983688485E-01 0.  0.
         14    1    1    2    0    0  0.54627188322E-02  0.18717411727E-01  0.14203365976E-01  0.24122984970E-01  0.00000000000E+00 0. -1.
     999901    1    3    3    0    0  0.64553280463E-03  0.78271128642E-01 -0.99379461820E-01  0.88904615388E+00  0.88000000000E+00 0. -1.
        -11    1    4    4    0    0  0.59263300498E-02 -0.51429452226E-01  0.39358208145E-01  0.65034141907E-01  0.51100000000E-03 0. -1.
         11    1    4    4    0    0 -0.12034581687E-01 -0.45559088143E-01  0.45817887699E-01  0.65726719247E-01  0.51100000000E-03 0.  1.
</event>
<event>
 8    1  0.1010879E+005  0.1043930E+01  0.7957747E-01            NaN
         13   -1    0    0    0    0  0.00000000000E+00  0.00000000000E+00  0.74505805969E-08  0.10566000000E+00  0.10566000000E+00 0.  1.
     999900   -1    0    0    0    0 -0.00000000000E+00 -0.00000000000E+00 -0.74505805969E-08  0.93827000000E+00  0.93827000000E+00 0.  1.
     999902    2    1    2    0    0 -0.13649184670E-01 -0.86382057601E-02 -0.15805744886E-01  0.10213304334E+01  0.10210803659E+01 0.  0.
     999903    2    3    3    0    0  0.73429333820E-01 -0.94529604357E-01  0.46646109754E-01  0.13067885452E+00  0.23945569519E-01 0.  0.
         14    1    1    2    0    0  0.13649184670E-01  0.86382057601E-02  0.15805744886E-01  0.22599566640E-01  0.00000000000E+00 0.  1.
     999901    1    3    3    0    0 -0.87078518490E-01  0.85891398597E-01 -0.62451854639E-01  0.89065157884E+00  0.88000000000E+00 0.  1.
        -11    1    4    4    0    0  0.20856920764E-01 -0.25541229391E-01  0.17880227413E-02  0.33027620091E-01  0.51100000000E-03 0.  1.
         11    1    4    4    0    0  0.52572413055E-01 -0.68988374966E-01  0.44858087012E-01  0.97651234433E-01  0.51100000000E-03 0. -1.
</event>
<event>
 8    1  0.1010879E+005  0.1043930E+01  0.7957747E-01            NaN
         13   -1    0    0    0    0  0.00000000000E+00  0.00000000000E+00  0.74505805969E-08  0.10566000000E+00  0.10566000000E+00 0.  1.
     999900   -1    0    0    0    0 -0.00000000000E+00 -0.00000000000E+00 -0.74505805969E-08  0.93827000000E+00  0.93827000000E+00 0. -1.
     999902    2    1    2    0    0  0.91143771856E-02  0.24609533756E-03  0.16820605959E-01  0.10247971691E+01  0.10246185498E+01 0.  0.
     999903    2    3    3    0    0 -0.11452232347E+00 -0.10784026686E-01  0.67317426422E-01  0.13465244701E+00  0.19183007630E-01 0.  0.
         14    1    1    2    0    0 -0.91143771856E-02 -0.24609533756E-03 -0.16820605959E-01  0.19132830926E-01  0.00000000000E+00 0. -1.
     999901    1    3    3    0    0  0.12363670065E+00  0.11030122023E-01 -0.50496820463E-01  0.89014472206E+00  0.88000000000E+00 0. -1.
        -11    1    4    4    0    0 -0.76360234010E-01 -0.12030049178E-01  0.36039848229E-01  0.85292081711E-01  0.51100000000E-03 0.  1.
         11    1    4    4    0    0 -0.38162089459E-01  0.12460224919E-02  0.31277578193E-01  0.49360365300E-01  0.51100000000E-03 0. -1.
</event>
<event>
 8    1  0.1010879E+005  0.1043930E+01  0.7957747E-01            NaN
         13   -1    0    0    0    0  0.00000000000E+00  0.00000000000E+00  0.74505805969E-08  0.10566000000E+00  0.10566000000E+00 0.  1.
     999900   -1    0    0    0    0 -0.00000000000E+00 -0.00000000000E+00 -0.74505805969E-08  0.93827000000E+00  0.93827000000E+00 0. -1.
     999902    2    1    2    0    0  0.92947608819E-02  0.15275847457E-01  0.15655150399E-01  0.10201638933E+01  0.10198870238E+01 0.  0.
     999903    2    3    3    0    0  0.43214314663E-01  0.10817702483E-02  0.12396138652E+00  0.13276192756E+00  0.19765040902E-01 0.  0.
         14    1    1    2    0    0 -0.92947608819E-02 -0.15275847457E-01 -0.15655150399E-01  0.23766106736E-01  0.00000000000E+00 0. -1.
     999901    1    3    3    0    0 -0.33919553781E-01  0.14194077208E-01 -0.10830623612E+00  0.88740196571E+00  0.88000000000E+00 0. -1.
        -11    1    4    4    0    0  0.38968645629E-01  0.28526056360E-02  0.85300788193E-01  0.93825254001E-01  0.51100000000E-03 0. -1.
         11    1    4    4    0    0  0.42456690339E-02 -0.17708353877E-02  0.38660598328E-01  0.38936673556E-01  0.51100000000E-03 0.  1.
</event>
<event>
 8    1  0.1010879E+005  0.1043930E+01  0.7957747E-01            NaN
         13   -1    0    0    0    0  0.00000000000E+00  0.00000000000E+00  0.74505805969E-08  0.10566000000E+00  0.10566000000E+00 0. -1.
     999900   -1    0    0    0    0 -0.00000000000E+00 -0.00000000000E+00 -0.74505805969E-08  0.93827000000E+00  0.93827000000E+00 0.  1.
     999902    2    1    2    0    0 -0.16481344671E-01  0.13299182141E-01  0.89100652951E-02  0.10209540945E+01  0.10206955329E+01 0.  0.
     999903    2    3    3    0    0  0.88641621735E-01  0.83797220067E-02 -0.91222170154E-01  0.12904518455E+00  0.20090258433E-01 0.  0.
         14    1    1    2    0    0  0.16481344671E-01 -0.13299182141E-01 -0.89100652951E-02  0.22975905452E-01  0.00000000000E+00 0. -1.
     999901    1    3    3    0    0 -0.10512296641E+00  0.49194601347E-02  0.10013223545E+00  0.89190891000E+00  0.88000000000E+00 0. -1.
        -11    1    4    4    0    0  0.63281981433E-01 -0.28930928993E-02 -0.66969575260E-01  0.92185488512E-01  0.51100000000E-03 0. -1.
         11    1    4    4    0    0  0.25359640301E-01  0.11272814906E-01 -0.24252594893E-01  0.36859696040E-01  0.51100000000E-03 0.  1.
</event>
<event>
 8    1  0.1010879E+005  0.1043930E+01  0.7957747E-01            NaN
         13   -1    0    0    0    0  0.00000000000E+00  0.00000000000E+00  0.74505805969E-08  0.10566000000E+00  0.10566000000E+00 0.  1.
     999900   -1    0    0    0    0 -0.00000000000E+00 -0.00000000000E+00 -0.74505805969E-08  0.93827000000E+00  0.93827000000E+00 0.  1.
     999902    2    1    2    0    0 -0.24094776230E-01  0.10042689401E-02 -0.18597039905E-02  0.10197427038E+01  0.10194558140E+01 0.  0.
     999903    2    3    3    0    0  0.65012088374E-01 -0.27415270854E-01 -0.10575345198E+00  0.12870868963E+00  0.20098892297E-01 0.  0.
         14    1    1    2    0    0  0.24094776230E-01 -0.10042689401E-02  0.18597039905E-02  0.24187296182E-01  0.00000000000E+00 0.  1.
     999901    1    3    3    0    0 -0.89106864604E-01  0.28419539794E-01  0.10389374799E+00  0.89103401418E+00  0.88000000000E+00 0. -1.
        -11    1    4    4    0    0  0.52637162413E-01 -0.23699488749E-01 -0.70267551759E-01  0.90940236337E-01  0.51100000000E-03 0.  1.
         11    1    4    4    0    0  0.12374925962E-01 -0.37157821052E-02 -0.35485900217E-01  0.37768453297E-01  0.51100000000E-03 0. -1.
</event>
<event>
 8    1  0.1010879E+005  0.1043930E+01  0.7957747E-01            NaN
         13   -1    0    0    0    0  0.00000000000E+00  0.00000000000E+00  0.74505805969E-08  0.10566000000E+00  0.10566000000E+00 0. -1.
     999900   -1    0    0    0    0 -0.00000000000E+00 -0.00000000000E+00 -0.74505805969E-08  0.93827000000E+00  0.93827000000E+00 0. -1.
     999902    2    1    2    0    0 -0.67371189618E-02 -0.22246631805E-01  0.19569084319E-02  0.10206033867E+01  0.10203367787E+01 0.  0.
     999903    2    3    3    0    0  0.10535931150E+00  0.52184626197E-01  0.49275469995E-01  0.12911885615E+00  0.20488712533E-01 0.  0.
         14    1    1    2    0    0  0.67371189618E-02  0.22246631805E-01 -0.19569084319E-02  0.23326613325E-01  0.00000000000E+00 0.  1.
     999901    1    3    3    0    0 -0.11209643046E+00 -0.74431258002E-01 -0.47318561563E-01  0.89148453052E+00  0.88000000000E+00 0. -1.
        -11    1    4    4    0    0  0.42181945083E-01  0.25068710651E-01  0.30765013166E-01  0.57918079223E-01  0.51100000000E-03 0.  1.
         11    1    4    4    0    0  0.63177366413E-01  0.27115915545E-01  0.18510456829E-01  0.71200776932E-01  0.51100000000E-03 0. -1.
</event>
<event>
 8    1  0.1010879E+005  0.1043930E+01  0.7957747E-01            NaN
         13   -1    0    0    0    0  0.00000000000E+00  0.00000000000E+00  0.74505805969E-08  0.10566000000E+00  0.10566000000E+00 0. -1.
     999900   -1    0    0    0    0 -0.00000000000E+00 -0.00000000000E+00 -0.74505805969E-08  0.93827000000E+00  0.93827000000E+00 0. -1.
     999902    2    1    2    0    0 -0.22455798055E-01 -0.96972977725E-02 -0.40664217082E-02  0.10191341085E+01  0.10188324174E+01 0.  0.
     999903    2    3    3    0    0 -0.71246287170E-01  0.10671399095E+00 -0.84759903428E-02  0.13011692965E+00  0.19866143780E-01 0.  0.
         14    1    1    2    0    0  0.22455798055E-01  0.96972977725E-02  0.40664217082E-02  0.24795891512E-01  0.00000000000E+00 0.  1.
     999901    1    3    3    0    0  0.48790489115E-01 -0.11641128873E+00  0.44095686347E-02  0.88901717884E+00  0.88000000000E+00 0. -1.
        -11    1    4    4    0    0 -0.48244832765E-01  0.54532676400E-01 -0.47677189421E-02  0.72968273576E-01  0.51100000000E-03 0.  1.
         11    1    4    4    0    0 -0.23001454405E-01  0.52181314554E-01 -0.37082714007E-02  0.57148656075E-01  0.51100000000E-03 0. -1.
</event>
<event>
 8    1  0.1089586E+005  0.1043930E+01  0.7957747E-01            NaN
         13   -1    0    0    0    0  0.00000000000E+00  0.00000000000E+00  0.74505805969E-08  0.10566000000E+00  0.10566000000E+00 0.  1.
     999900   -1    0    0    0    0 -0.00000000000E+00 -0.00000000000E+00 -0.74505805969E-08  0.93827000000E+00  0.93827000000E+00 0.  1.
     999902    2    1    2    0    0  0.47161860712E-02  0.22357185159E-01  0.84496442213E-02  0.10195685011E+01  0.10192774136E+01 0.  0.
     999903    2    3    3    0    0 -0.38417779363E-01 -0.65066836796E-01 -0.10068198155E+00  0.12748486698E+00  0.20147230057E-01 0.  0.
         14    1    1    2    0    0 -0.47161860712E-02 -0.22357185159E-01 -0.84496442213E-02  0.24361498861E-01  0.00000000000E+00 0.  1.
     999901    1    3    3    0    0  0.43133965434E-01  0.87424021955E-01  0.10913162577E+00  0.89208363416E+00  0.88000000000E+00 0. -1.
        -11    1    4    4    0    0 -0.73734067128E-02 -0.11143962291E-01 -0.32686922428E-01  0.35316441510E-01  0.51100000000E-03 0.  1.
         11    1    4    4    0    0 -0.31044372650E-01 -0.53922874505E-01 -0.67995059120E-01  0.92168425472E-01  0.51100000000E-03 0. -1.
</event>
<event>
 8    1  0.1010879E+005  0.1043930E+01  0.7957747E-01            NaN
         13   -1    0    0    0    0  0.00000000000E+00  0.00000000000E+00  0.74505805969E-08  0.10566000000E+00  0.10566000000E+00 0.  1.
     999900   -1    0    0    0    0 -0.00000000000E+00 -0.00000000000E+00 -0.74505805969E-08  0.93827000000E+00  0.93827000000E+00 0.  1.
     999902    2    1    2    0    0 -0.94296803575E-03 -0.86248846357E-02  0.22290474801E-01  0.10200104872E+01  0.10197299893E+01 0.  0.
     999903    2    3    3    0    0  0.10792218767E+00  0.68841871523E-01  0.39215141607E-02  0.12973517075E+00  0.20722798819E-01 0.  0.
         14    1    1    2    0    0  0.94296803575E-03  0.86248846357E-02 -0.22290474801E-01  0.23919512757E-01  0.00000000000E+00 0. -1.
     999901    1    3    3    0    0 -0.10886515570E+00 -0.77466756159E-01  0.18368960640E-01  0.89027531649E+00  0.88000000000E+00 0. -1.
        -11    1    4    4    0    0  0.47576560574E-01  0.42598594938E-01  0.25690053489E-02  0.63914241889E-01  0.51100000000E-03 0.  1.
         11    1    4    4    0    0  0.60345627095E-01  0.26243276585E-01  0.13525088118E-02  0.65820928863E-01  0.51100000000E-03 0. -1.
</event>
<event>
 8    1  0.1010879E+005  0.1043930E+01  0.7957747E-01            NaN
         13   -1    0    0    0    0  0.00000000000E+00  0.00000000000E+00  0.74505805969E-08  0.10566000000E+00  0.10566000000E+00 0. -1.
     999900   -1    0    0    0    0 -0.00000000000E+00 -0.00000000000E+00 -0.74505805969E-08  0.93827000000E+00  0.93827000000E+00 0.  1.
     999902    2    1    2    0    0 -0.21059552690E-01  0.33562596901E-02 -0.13582215208E-01  0.10186466891E+01  0.10183328687E+01 0.  0.
     999903    2    3    3    0    0  0.24835984820E-01  0.76652876276E-01  0.96923888969E-01  0.12752919215E+00  0.19415586877E-01 0.  0.
         14    1    1    2    0    0  0.21059552690E-01 -0.33562596901E-02  0.13582215208E-01  0.25283310870E-01  0.00000000000E+00 0. -1.
     999901    1    3    3    0    0 -0.45895537509E-01 -0.73296616586E-01 -0.11050610418E+00  0.89111749698E+00  0.88000000000E+00 0.  1.
        -11    1    4    4    0    0  0.20484507742E-01  0.50204444088E-01  0.76771841408E-01  0.93990840074E-01  0.51100000000E-03 0.  1.
         11    1    4    4    0    0  0.43514770772E-02  0.26448432188E-01  0.20152047561E-01  0.33538352075E-01  0.51100000000E-03 0. -1.
</event>
<event>
 8    1  0.1010879E+005  0.1043930E+01  0.7957747E-01            NaN
         13   -1    0    0    0    0  0.00000000000E+00  0.00000000000E+00  0.74505805969E-08  0.10566000000E+00  0.10566000000E+00 0. -1.
     999900   -1    0    0    0    0 -0.00000000000E+00 -0.00000000000E+00 -0.74505805969E-08  0.93827000000E+00  0.93827000000E+00 0. -1.
     999902    2    1    2    0    0 -0.23102970973E-01  0.13573573365E-02 -0.23725985229E-03  0.10207859731E+01  0.10205235700E+01 0.  0.
     999903    2    3    3    0    0 -0.13026261193E+00 -0.79873970694E-02 -0.22625029291E-01  0.13395356209E+00  0.19987953056E-01 0.  0.
         14    1    1    2    0    0  0.23102970973E-01 -0.13573573365E-02  0.23725985229E-03  0.23144026853E-01  0.00000000000E+00 0.  1.
     999901    1    3    3    0    0  0.10715964095E+00  0.93447544059E-02  0.22387769439E-01  0.88683241106E+00  0.88000000000E+00 0.  1.
        -11    1    4    4    0    0 -0.10493094933E+00 -0.13127245560E-01 -0.13856268664E-01  0.10665404824E+00  0.51100000000E-03 0.  1.
         11    1    4    4    0    0 -0.25331662594E-01  0.51398484907E-02 -0.87687606274E-02  0.27299513846E-01  0.51100000000E-03 0. -1.
</event>
<event>
 8    1  0.1010879E+005  0.1043930E+01  0.7957747E-01            NaN
         13   -1    0    0    0    0  0.00000000000E+00  0.00000000000E+00  0.74505805969E-08  0.10566000000E+00  0.10566000000E+00 0. -1.
     999900   -1    0    0    0    0 -0.00000000000E+00 -0.00000000000E+00 -0.74505805969E-08  0.93827000000E+00  0.93827000000E+00 0.  1.
     999902    2    1    2    0    0  0.45525394275E-02  0.28983596009E-02  0.23519724793E-01  0.10197990332E+01  0.10195134941E+01 0.  0.
     999903    2    3    3    0    0 -0.12791469312E+00 -0.17908975006E-03 -0.32648128292E-02  0.12947636707E+00  0.19780541881E-01 0.  0.
         14    1    1    2    0    0 -0.45525394275E-02 -0.28983596009E-02 -0.23519724793E-01  0.24130966785E-01  0.00000000000E+00 0.  1.
     999901    1    3    3    0    0  0.13246723255E+00  0.30774493510E-02  0.26784537623E-01  0.89032266614E+00  0.88000000000E+00 0.  1.
        -11    1    4    4    0    0 -0.48436299264E-01 -0.62729497200E-02  0.60663745974E-02  0.49218766810E-01  0.51100000000E-03 0.  1.
         11    1    4    4    0    0 -0.79478393859E-01  0.60938599699E-02 -0.93311874266E-02  0.80257600261E-01  0.51100000000E-03 0. -1.
</event>
<event>
 8    1  0.1010879E+005  0.1043930E+01  0.7957747E-01            NaN
         13   -1    0    0    0    0  0.00000000000E+00  0.00000000000E+00  0.74505805969E-08  0.10566000000E+00  0.10566000000E+00 0. -1.
     999900   -1    0    0    0    0 -0.00000000000E+00 -0.00000000000E+00 -0.74505805969E-08  0.93827000000E+00  0.93827000000E+00 0. -1.
     999902    2    1    2    0    0 -0.17290264253E-01 -0.15424672502E-01  0.65057746085E-03  0.10207503320E+01  0.10204871107E+01 0.  0.
     999903    2    3    3    0    0  0.10583782948E+00  0.66098879399E-01 -0.21363782376E-01  0.12817470545E+00  0.20040856114E-01 0.  0.
         14    1    1    2    0    0  0.17290264253E-01  0.15424672502E-01 -0.65057746085E-03  0.23179668047E-01  0.00000000000E+00 0. -1.
     999901    1    3    3    0    0 -0.12312809373E+00 -0.81523551901E-01  0.22014359837E-01  0.89257562650E+00  0.88000000000E+00 0. -1.
        -11    1    4    4    0    0  0.60335809667E-01  0.46296679876E-01 -0.63069786708E-02  0.76314032764E-01  0.51100000000E-03 0.  1.
         11    1    4    4    0    0  0.45502019813E-01  0.19802199524E-01 -0.15056803705E-01  0.51860672690E-01  0.51100000000E-03 0. -1.
</event>
<event>
 8    1  0.1010879E+005  0.1043930E+01  0.7957747E-01            NaN
         13   -1    0    0    0    0  0.00000000000E+00  0.00000000000E+00  0.74505805969E-08  0.10566000000E+00  0.10566000000E+00 0.  1.
     999900   -1    0    0    0    0 -0.00000000000E+00 -0.00000000000E+00 -0.74505805969E-08  0.93827000000E+00  0.93827000000E+00 0. -1.
     999902    2    1    2    0    0 -0.11257686052E-01 -0.19895310692E-01 -0.51602951921E-02  0.10204952495E+01  0.10202261351E+01 0.  0.
     999903    2    3    3    0    0 -0.67448299992E-01  0.10786045260E+00  0.12549167702E-01  0.12932043772E+00  0.19574054136E-01 0.  0.
         14    1    1    2    0    0  0.11257686052E-01  0.19895310692E-01  0.51602951921E-02  0.23434750463E-01  0.00000000000E+00 0.  1.
     999901    1    3    3    0    0  0.56190613939E-01 -0.12775576329E+00 -0.17709462894E-01  0.89117481182E+00  0.88000000000E+00 0.  1.
        -11    1    4    4    0    0 -0.22370264799E-01  0.49061338456E-01  0.11924049964E-01  0.55225788965E-01  0.51100000000E-03 0. -1.
         11    1    4    4    0    0 -0.45078035193E-01  0.58799114139E-01  0.62511773739E-03  0.74094648751E-01  0.51100000000E-03 0.  1.
</event>
<event>
 8    1  0.1010879E+005  0.1043930E+01  0.7957747E-01            NaN
         13   -1    0    0    0    0  0.00000000000E+00  0.00000000000E+00  0.74505805969E-08  0.10566000000E+00  0.10566000000E+00 0.  1.
     999900   -1    0    0    0    0 -0.00000000000E+00 -0.00000000000E+00 -0.74505805969E-08  0.93827000000E+00  0.93827000000E+00 0.  1.
     999902    2    1    2    0    0 -0.17051963118E-01 -0.10089959724E-01  0.12829153913E-01  0.10203256800E+01  0.10200526110E+01 0.  0.
     999903    2    3    3    0    0 -0.79862240808E-01  0.83146228544E-01 -0.57467236033E-01  0.13039326669E+00  0.20215042741E-01 0.  0.
         14    1    1    2    0    0  0.17051963118E-01  0.10089959724E-01 -0.12829153913E-01  0.23604320018E-01  0.00000000000E+00 0. -1.
     999901    1    3    3    0    0  0.62810277690E-01 -0.93236188268E-01  0.70296389946E-01  0.88993241329E+00  0.88000000000E+00 0. -1.
        -11    1    4    4    0    0 -0.53414597775E-01  0.53022075500E-01 -0.47779792455E-01  0.89149478035E-01  0.51100000000E-03 0.  1.
         11    1    4    4    0    0 -0.26447643033E-01  0.30124153044E-01 -0.96874435775E-02  0.41243788656E-01  0.51100000000E-03 0. -1.
</event>
<event>
 8    1  0.1010879E+005  0.1043930E+01  0.7957747E-01            NaN
         13   -1    0    0    0    0  0.00000000000E+00  0.00000000000E+00  0.74505805969E-08  0.10566000000E+00  0.10566000000E+00 0.  1.
     999900   -1    0    0    0    0 -0.00000000000E+00 -0.00000000000E+00 -0.74505805969E-08  0.93827000000E+00  0.93827000000E+00 0. -1.
     999902    2    1    2    0    0 -0.14562053207E-01 -0.48211686029E-02 -0.17607044916E-01  0.10205782315E+01  0.10203110416E+01 0.  0.
     999903    2    3    3    0    0  0.12450775370E+00 -0.80134704724E-03  0.24423398383E-01  0.12865719896E+00  0.21292007111E-01 0.  0.
         14    1    1    2    0    0  0.14562053207E-01  0.48211686029E-02  0.17607044916E-01  0.23351768477E-01  0.00000000000E+00 0. -1.
     999901    1    3    3    0    0 -0.13906980691E+00 -0.40198215557E-02 -0.42030443300E-01  0.89192103256E+00  0.88000000000E+00 0. -1.
        -11    1    4    4    0    0  0.87846680423E-01 -0.21409965312E-02  0.73236340111E-02  0.88178908270E-01  0.51100000000E-03 0. -1.
         11    1    4    4    0    0  0.36661073281E-01  0.13396494840E-02  0.17099764372E-01  0.40478290693E-01  0.51100000000E-03 0.  1.
</event>
<event>
 8    1  0.1010879E+005  0.1043930E+01  0.7957747E-01            NaN
         13   -1    0    0    0    0  0.00000000000E+00  0.00000000000E+00  0.74505805969E-08  0.10566000000E+00  0.10566000000E+00 0. -1.
     999900   -1    0    0    0    0 -0.00000000000E+00 -0.00000000000E+00 -0.74505805969E-08  0.93827000000E+00  0.93827000000E+00 0. -1.
     999902    2    1    2    0    0 -0.28049890423E-02 -0.22298312932E-01 -0.72765850967E-02  0.10203073115E+01  0.10200338124E+01 0.  0.
     999903    2    3    3    0    0 -0.50798618252E-01  0.27148740924E-01  0.11404936168E+00  0.12931439065E+00  0.19934918606E-01 0.  0.
         14    1    1    2    0    0  0.28049890423E-02  0.22298312932E-01  0.72765850967E-02  0.23622688539E-01  0.00000000000E+00 0. -1.
     999901    1    3    3    0    0  0.47993629210E-01 -0.49447053856E-01 -0.12132594677E+00  0.89099292081E+00  0.88000000000E+00 0. -1.
        -11    1    4    4    0    0 -0.26567228337E-01  0.56847326895E-02  0.38531282376E-01  0.47149280480E-01  0.51100000000E-03 0.  1.
         11    1    4    4    0    0 -0.24231389916E-01  0.21464008234E-01  0.75518079300E-01  0.82165110168E-01  0.51100000000E-03 0. -1.
</event>
<event>
 8    1  0.1010879E+005  0.1043930E+01  0.7957747E-01            NaN
         13   -1    0    0    0    0  0.00000000000E+00  0.00000000000E+00  0.74505805969E-08  0.10566000000E+00  0.10566000000E+00 0. -1.
     999900   -1    0    0    0    0 -0.00000000000E+00 -0.00000000000E+00 -0.74505805969E-08  0.93827000000E+00  0.93827000000E+00 0.  1.
     999902    2    1    2    0    0  0.51188997974E-02  0.16441988572E-01 -0.16386489250E-01  0.10201590271E+01  0.10198820429E+01 0.  0.
     999903    2    3    3    0    0 -0.95691648070E-01  0.45531127300E-01 -0.76197503923E-01  0.13191001806E+00  0.19084501509E-01 0.  0.
         14    1    1    2    0    0 -0.51188997974E-02 -0.16441988572E-01  0.16386489250E-01  0.23770972914E-01  0.00000000000E+00 0. -1.
     999901    1    3    3    0    0  0.10081054787E+00 -0.29089138728E-01  0.59811014674E-01  0.88824900902E+00  0.88000000000E+00 0. -1.
        -11    1    4    4    0    0 -0.33279570250E-01  0.25431564335E-01 -0.33829793456E-01  0.53842458217E-01  0.51100000000E-03 0.  1.
         11    1    4    4    0    0 -0.62412077820E-01  0.20099562965E-01 -0.42367710467E-01  0.78067559846E-01  0.51100000000E-03 0. -1.
</event>
<event>
 8    1  0.1010879E+005  0.1043930E+01  0.7957747E-01            NaN
         13   -1    0    0    0    0  0.00000000000E+00  0.00000000000E+00  0.74505805969E-08  0.10566000000E+00  0.10566000000E+00 0.  1.
     999900   -1    0    0    0    0 -0.00000000000E+00 -0.00000000000E+00 -0.74505805969E-08  0.93827000000E+00  0.93827000000E+00 0. -1.
     999902    2    1    2    0    0 -0.10814513562E-01  0.20447953866E-01  0.83296769730E-02  0.10193443123E+01  0.10190477766E+01 0.  0.
     999903    2    3    3    0    0  0.60720878428E-01 -0.10562169833E+00  0.31077252386E-01  0.12719616222E+00  0.19237978948E-01 0.  0.
         14    1    1    2    0    0  0.10814513562E-01 -0.20447953866E-01 -0.83296769730E-02  0.24585687694E-01  0.00000000000E+00 0. -1.
     999901    1    3    3    0    0 -0.71535391991E-01  0.12606965219E+00 -0.22747575413E-01  0.89214815008E+00  0.88000000000E+00 0.  1.
        -11    1    4    4    0    0  0.48869724852E-01 -0.76253055505E-01  0.30328110596E-01  0.95513527284E-01  0.51100000000E-03 0. -1.
         11    1    4    4    0    0  0.11851153576E-01 -0.29368642820E-01  0.74914178995E-03  0.31682634938E-01  0.51100000000E-03 0.  1.
</event>
<event>
 8    1  0.1010879E+005  0.1043930E+01  0.7957747E-01            NaN
         13   -1    0    0    0    0  0.00000000000E+00  0.00000000000E+00  0.74505805969E-08  0.10566000000E+00  0.10566000000E+00 0. -1.
     999900   -1    0    0    0    0 -0.00000000000E+00 -0.00000000000E+00 -0.74505805969E-08  0.93827000000E+00  0.93827000000E+00 0. -1.
     999902    2    1    2    0    0 -0.65841649668E-02  0.77162077252E-02  0.21200675909E-01  0.10204276650E+01  0.10201569780E+01 0.  0.
     999903    2    3    3    0    0 -0.10334453014E+00 -0.10225942173E-01  0.80613731551E-01  0.13295124270E+00  0.19819117486E-01 0.  0.
         14    1    1    2    0    0  0.65841649668E-02 -0.77162077252E-02 -0.21200675909E-01  0.23502334968E-01  0.00000000000E+00 0.  1.
     999901    1    3    3    0    0  0.96760365174E-01  0.17942149898E-01 -0.59413055642E-01  0.88747642233E+00  0.88000000000E+00 0. -1.
        -11    1    4    4    0    0 -0.56094139795E-01 -0.12142041171E-01  0.53362029338E-01  0.78369311463E-01  0.51100000000E-03 0.  1.
         11    1    4    4    0    0 -0.47250390346E-01  0.19160989976E-02  0.27251702213E-01  0.54581931238E-01  0.51100000000E-03 0. -1.
</event>
<event>
 8    1  0.1010879E+005  0.1043930E+01  0.7957747E-01            NaN
         13   -1    0    0    0    0  0.00000000000E+00  0.00000000000E+00  0.74505805969E-08  0.10566000000E+00  0.10566000000E+00 0.  1.
     999900   -1    0    0    0    0 -0.00000000000E+00 -0.00000000000E+00 -0.74505805969E-08  0.93827000000E+00  0.93827000000E+00 0. -1.
     999902    2    1    2    0    0 -0.43928448369E-02 -0.17236765831E-01  0.17145407050E-01  0.10192243698E+01  0.10189248980E+01 0.  0.
     999903    2    3    3    0    0 -0.56706911203E-01 -0.10816103661E+00 -0.42553791110E-01  0.13098567504E+00  0.20783125599E-01 0.  0.
         14    1    1    2    0    0  0.43928448369E-02  0.17236765831E-01 -0.17145407050E-01  0.24705630228E-01  0.00000000000E+00 0. -1.
     999901    1    3    3    0    0  0.52314066366E-01  0.90924270778E-01  0.59699198160E-01  0.88823869473E+00  0.88000000000E+00 0.  1.
        -11    1    4    4    0    0 -0.25866038422E-01 -0.70070065660E-01 -0.22292325057E-01  0.77949181668E-01  0.51100000000E-03 0. -1.
         11    1    4    4    0    0 -0.30840872781E-01 -0.38090970948E-01 -0.20261466053E-01  0.53036493373E-01  0.51100000000E-03 0.  1.
</event>
<event>
 8    1  0.1010879E+005  0.1043930E+01  0.7957747E-01            NaN
         13   -1    0    0    0    0  0.00000000000E+00  0.00000000000E+00  0.74505805969E-08  0.10566000000E+00  0.10566000000E+00 0.  1.
     999900   -1    0    0    0    0 -0.00000000000E+00 -0.00000000000E+00 -0.74505805969E-08  0.93827000000E+00  0.93827000000E+00 0. -1.
     999902    2    1    2    0    0 -0.56687202922E-02  0.95512675226E-02  0.21551206182E-01  0.10196850915E+01  0.10193968169E+01 0.  0.
     999903    2    3    3    0    0  0.10880447943E+00 -0.11560281835E-01  0.68820425734E-01  0.13076204077E+00  0.19758680336E-01 0.  0.
         14    1    1    2    0    0  0.56687202922E-02 -0.95512675226E-02 -0.21551206182E-01  0.24244908515E-01  0.00000000000E+00 0.  1.
     999901    1    3    3    0    0 -0.11447319972E+00  0.21111549358E-01 -0.47269219553E-01  0.88892305071E+00  0.88000000000E+00 0.  1.
        -11    1    4    4    0    0  0.66981402712E-01  0.57178760121E-03  0.34716619159E-01  0.75447597822E-01  0.51100000000E-03 0. -1.
         11    1    4    4    0    0  0.41823076718E-01 -0.12132069436E-01  0.34103806575E-01  0.55314442950E-01  0.51100000000E-03 0.  1.
</event>
<event>
 8    1  0.1010879E+005  0.1043930E+01  0.7957747E-01            NaN
         13   -1    0    0    0    0  0.00000000000E+00  0.00000000000E+00  0.74505805969E-08  0.10566000000E+00  0.10566000000E+00 0. -1.
     999900   -1    0    0    0    0 -0.00000000000E+00 -0.00000000000E+00 -0.74505805969E-08  0.93827000000E+00  0.93827000000E+00 0.  1.
     999902    2    1    2    0    0  0.19523640654E-01  0.88083910131E-02  0.77536507845E-02  0.10211510756E+01  0.10208969780E+01 0.  0.
     999903    2    3    3    0    0 -0.44127856625E-01  0.10481815643E+00  0.63788355515E-01  0.13187649691E+00  0.19706407341E-01 0.  0.
         14    1    1    2    0    0 -0.19523640654E-01 -0.88083910131E-02 -0.77536507845E-02  0.22778924406E-01  0.00000000000E+00 0. -1.
     999901    1    3    3    0    0  0.63651497279E-01 -0.96009765416E-01 -0.56034704730E-01  0.88927457868E+00  0.88000000000E+00 0.  1.
        -11    1    4    4    0    0 -0.42359735524E-03  0.13785287475E-01  0.12481958184E-01  0.18608438586E-01  0.51100000000E-03 0.  1.
         11    1    4    4    0    0 -0.43704259270E-01  0.91032868954E-01  0.51306397330E-01  0.11326805832E+00  0.51100000000E-03 0. -1.
</event>
<event>
 8    1  0.1010879E+005  0.1043930E+01  0.7957747E-01            NaN
         13   -1    0    0    0    0  0.00000000000E+00  0.00000000000E+00  0.74505805969E-08  0.10566000000E+00  0.10566000000E+00 0. -1.
     999900   -1    0    0    0    0 -0.00000000000E+00 -0.00000000000E+00 -0.74505805969E-08  0.93827000000E+00  0.93827000000E+00 0.  1.
     999902    2    1    2    0    0 -0.95977935443E-02 -0.75156207718E-03 -0.21334037726E-01  0.10205243671E+01  0.10202559288E+01 0.  0.
     999903    2    3    3    0    0 -0.11442238280E+00  0.54158255712E-02  0.59442442469E-01  0.13060803903E+00  0.20080912364E-01 0.  0.
         14    1    1    2    0    0  0.95977935443E-02  0.75156207718E-03  0.21334037726E-01  0.23405632915E-01  0.00000000000E+00 0. -1.
     999901    1    3    3    0    0  0.10482458925E+00 -0.61673876484E-02 -0.80776480195E-01  0.88991632805E+00  0.88000000000E+00 0.  1.
        -11    1    4    4    0    0 -0.74119604592E-01  0.65237739223E-02  0.28096544980E-01  0.79535855889E-01  0.51100000000E-03 0.  1.
         11    1    4    4    0    0 -0.40302778205E-01 -0.11079483511E-02  0.31345897490E-01  0.51072183143E-01  0.51100000000E-03 0. -1.
</event>
<event>
 8    1  0.1010879E+005  0.1043930E+01  0.7957747E-01            NaN
         13   -1    0    0    0    0  0.00000000000E+00  0.00000000000E+00  0.74505805969E-08  0.10566000000E+00  0.10566000000E+00 0. -1.
     999900   -1    0    0    0    0 -0.00000000000E+00 -0.00000000000E+00 -0.74505805969E-08  0.93827000000E+00  0.93827000000E+00 0. -1.
     999902    2    1    2    0    0  0.33068583603E-02  0.22326856159E-01 -0.38495585869E-02  0.10210336483E+01  0.10207768944E+01 0.  0.
     999903    2    3    3    0    0 -0.11609303670E+00  0.58968572442E-01  0.10753803720E-01  0.13209483801E+00  0.19455493534E-01 0.  0.
         14    1    1    2    0    0 -0.33068583603E-02 -0.22326856159E-01  0.38495585869E-02  0.22896351663E-01  0.00000000000E+00 0.  1.
     999901    1    3    3    0    0  0.11939989506E+00 -0.36641716283E-01 -0.14603362307E-01  0.88893881033E+00  0.88000000000E+00 0. -1.
        -11    1    4    4    0    0 -0.46642783887E-01  0.16638801407E-01 -0.29552644018E-02  0.49612435031E-01  0.51100000000E-03 0.  1.
         11    1    4    4    0    0 -0.69450252813E-01  0.42329771035E-01  0.13709068122E-01  0.82482402981E-01  0.51100000000E-03 0. -1.
</event>
<event>
 8    1  0.1010879E+005  0.1043930E+01  0.7957747E-01            NaN
         13   -1    0    0    0    0  0.00000000000E+00  0.00000000000E+00  0.74505805969E-08  0.10566000000E+00  0.10566000000E+00 0. -1.
     999900   -1    0    0    0    0 -0.00000000000E+00 -0.00000000000E+00 -0.74505805969E-08  0.93827000000E+00  0.93827000000E+00 0.  1.
     999902    2    1    2    0    0  0.80337727314E-02 -0.17955842227E-01  0.12249239847E-01  0.10207567902E+01  0.10204937173E+01 0.  0.
     999903    2    3    3    0    0  0.12197232634E+00 -0.48362072531E-01  0.60517108434E-02  0.13286887939E+00  0.20034406759E-01 0.  0.
         14    1    1    2    0    0 -0.80337727314E-02  0.17955842227E-01 -0.12249239847E-01  0.23173209773E-01  0.00000000000E+00 0.  1.
     999901    1    3    3    0    0 -0.11393855361E+00  0.30406230304E-01  0.61975290033E-02  0.88788791083E+00  0.88000000000E+00 0.  1.
        -11    1    4    4    0    0  0.10742301546E+00 -0.48157639107E-01  0.19440943234E-02  0.11774083012E+00  0.51100000000E-03 0.  1.
         11    1    4    4    0    0  0.14549310883E-01 -0.20443342466E-03  0.41076165200E-02  0.15128049268E-01  0.51100000000E-03 0. -1.
</event>
<event>
 8    1  0.1010879E+005  0.1043930E+01  0.7957747E-01            NaN
         13   -1    0    0    0    0  0.00000000000E+00  0.00000000000E+00  0.74505805969E-08  0.10566000000E+00  0.10566000000E+00 0.  1.
     999900   -1    0    0    0    0 -0.00000000000E+00 -0.00000000000E+00 -0.74505805969E-08  0.93827000000E+00  0.93827000000E+00 0.  1.
     999902    2    1    2    0    0 -0.24231094532E-02  0.16982516784E-01  0.13622221641E-01  0.10220246979E+01  0.10217899202E+01 0.  0.
     999903    2    3    3    0    0  0.45870663522E-01  0.87579305532E-01  0.89071442313E-01  0.13466412862E+00  0.20650742652E-01 0.  0.
         14    1    1    2    0    0  0.24231094532E-02 -0.16982516784E-01 -0.13622221641E-01  0.21905302056E-01  0.00000000000E+00 0.  1.
     999901    1    3    3    0    0 -0.48293772975E-01 -0.70596788748E-01 -0.75449220672E-01  0.88736056932E+00  0.88000000000E+00 0. -1.
        -11    1    4    4    0    0  0.43943038201E-01  0.83010928695E-01  0.76490189227E-01  0.12113139584E+00  0.51100000000E-03 0.  1.
         11    1    4    4    0    0  0.19276253207E-02  0.45683768367E-02  0.12581253086E-01  0.13532732781E-01  0.51100000000E-03 0. -1.
</event>
<event>
 8    1  0.1010879E+005  0.1043930E+01  0.7957747E-01            NaN
         13   -1    0    0    0    0  0.00000000000E+00  0.00000000000E+00  0.74505805969E-08  0.10566000000E+00  0.10566000000E+00 0.  1.
     999900   -1    0    0    0    0 -0.00000000000E+00 -0.00000000000E+00 -0.74505805969E-08  0.93827000000E+00  0.93827000000E+00 0.  1.
     999902    2    1    2    0    0  0.45032401275E-02  0.25699245398E-01 -0.94376361569E-02  0.10161847416E+01  0.10158059016E+01 0.  0.
     999903    2    3    3    0    0 -0.79632715300E-01 -0.79101276809E-01  0.48909018980E-01  0.12407132921E+00  0.20080369926E-01 0.  0.
         14    1    1    2    0    0 -0.45032401275E-02 -0.25699245398E-01  0.94376361569E-02  0.27745258368E-01  0.00000000000E+00 0. -1.
     999901    1    3    3    0    0  0.84135955428E-01  0.10480052221E+00 -0.58346655137E-01  0.89211341242E+00  0.88000000000E+00 0. -1.
        -11    1    4    4    0    0 -0.53345870799E-01 -0.63625637814E-01  0.30600175059E-01  0.88490878361E-01  0.51100000000E-03 0. -1.
         11    1    4    4    0    0 -0.26286844501E-01 -0.15475638996E-01  0.18308843922E-01  0.35580450853E-01  0.51100000000E-03 0.  1.
</event>
<event>
 8    1  0.1010879E+005  0.1043930E+01  0.7957747E-01            NaN
         13   -1    0    0    0    0  0.00000000000E+00  0.00000000000E+00  0.74505805969E-08  0.10566000000E+00  0.10566000000E+00 0.  1.
     999900   -1    0    0    0    0 -0.00000000000E+00 -0.00000000000E+00 -0.74505805969E-08  0.93827000000E+00  0.93827000000E+00 0.  1.
     999902    2    1    2    0    0  0.14486769965E-01 -0.12595686754E-01  0.13057976923E-01  0.10207130107E+01  0.10204489315E+01 0.  0.
     999903    2    3    3    0    0 -0.75993050787E-01 -0.83225468760E-01  0.65149448088E-01  0.13173118560E+00  0.20179996403E-01 0.  0.
         14    1    1    2    0    0 -0.14486769965E-01  0.12595686754E-01 -0.13057976923E-01  0.23216989256E-01  0.00000000000E+00 0. -1.
     999901    1    3    3    0    0  0.90479820752E-01  0.70629782006E-01 -0.52091471165E-01  0.88898182514E+00  0.88000000000E+00 0.  1.
        -11    1    4    4    0    0 -0.40758608700E-01 -0.41932134044E-01  0.45144758212E-01  0.73877455043E-01  0.51100000000E-03 0.  1.
         11    1    4    4    0    0 -0.35234442088E-01 -0.41293334716E-01  0.20004689876E-01  0.57853730556E-01  0.51100000000E-03 0. -1.
</event>
<event>
 8    1  0.1010879E+005  0.1043930E+01  0.7957747E-01            NaN
         13   -1    0    0    0    0  0.00000000000E+00  0.00000000000E+00  0.74505805969E-08  0.10566000000E+00  0.10566000000E+00 0.  1.
     999900   -1    0    0    0    0 -0.00000000000E+00 -0.00000000000E+00 -0.74505805969E-08  0.93827000000E+00  0.93827000000E+00 0.  1.
     999902    2    1    2    0    0 -0.19635349613E-01 -0.11009015513E-01  0.74374828949E-02  0.10202221631E+01  0.10199466656E+01 0.  0.
     999903    2    3    3    0    0 -0.34576435783E-01  0.64624128634E-01 -0.10487297000E+00  0.12974069428E+00  0.21505813232E-01 0.  0.
         14    1    1    2    0    0  0.19635349613E-01  0.11009015513E-01 -0.74374828949E-02  0.23707836865E-01  0.00000000000E+00 0.  1.
     999901    1    3    3    0    0  0.14941086169E-01 -0.75633144147E-01  0.11231045289E+00  0.89048146886E+00  0.88000000000E+00 0. -1.
        -11    1    4    4    0    0 -0.24567589129E-01  0.52190612744E-01 -0.65662170407E-01  0.87402564252E-01  0.51100000000E-03 0.  1.
         11    1    4    4    0    0 -0.10008846654E-01  0.12433515890E-01 -0.39210799588E-01  0.42338130026E-01  0.51100000000E-03 0. -1.
</event>
<event>
 8    1  0.1010879E+005  0.1043930E+01  0.7957747E-01            NaN
         13   -1    0    0    0    0  0.00000000000E+00  0.00000000000E+00  0.74505805969E-08  0.10566000000E+00  0.10566000000E+00 0.  1.
     999900   -1    0    0    0    0 -0.00000000000E+00 -0.00000000000E+00 -0.74505805969E-08  0.93827000000E+00  0.93827000000E+00 0. -1.
     999902    2    1    2    0    0  0.12893510443E-01 -0.17800481153E-01 -0.78316644880E-02  0.10205968753E+01  0.10203301167E+01 0.  0.
     999903    2    3    3    0    0 -0.12361997969E+00 -0.21250040837E-01  0.24754334803E-01  0.12946855690E+00  0.20392805627E-01 0.  0.
         14    1    1    2    0    0 -0.12893510443E-01  0.17800481153E-01  0.78316644880E-02  0.23333124726E-01  0.00000000000E+00 0. -1.
     999901    1    3    3    0    0  0.13651349013E+00  0.34495596840E-02 -0.32585999291E-01  0.89112831837E+00  0.88000000000E+00 0.  1.
        -11    1    4    4    0    0 -0.64246931268E-01 -0.41793611021E-02  0.48773310884E-02  0.64569224218E-01  0.51100000000E-03 0.  1.
         11    1    4    4    0    0 -0.59373048422E-01 -0.17070679735E-01  0.19877003714E-01  0.64899332687E-01  0.51100000000E-03 0. -1.
</event>
<event>
 8    1  0.1010879E+005  0.1043930E+01  0.7957747E-01            NaN
         13   -1    0    0    0    0  0.00000000000E+00  0.00000000000E+00  0.74505805969E-08  0.10566000000E+00  0.10566000000E+00 0.  1.
     999900   -1    0    0    0    0 -0.00000000000E+00 -0.00000000000E+00 -0.74505805969E-08  0.93827000000E+00  0.93827000000E+00 0.  1.
     999902    2    1    2    0    0 -0.14527063089E-01  0.42429156939E-03  0.20645309741E-01  0.10186823387E+01  0.10183694137E+01 0.  0.
     999903    2    3    3    0    0 -0.23908937718E-01  0.25236682719E-01  0.12600809683E+00  0.13200032627E+00  0.18371668691E-01 0.  0.
         14    1    1    2    0    0  0.14527063089E-01 -0.42429156939E-03 -0.20645309741E-01  0.25247661270E-01  0.00000000000E+00 0.  1.
     999901    1    3    3    0    0  0.93818746289E-02 -0.24812391150E-01 -0.10536278709E+00  0.88668201246E+00  0.88000000000E+00 0.  1.
        -11    1    4    4    0    0 -0.94679243491E-02  0.24536076650E-02  0.58267452304E-01  0.59084844935E-01  0.51100000000E-03 0. -1.
         11    1    4    4    0    0 -0.14441013368E-01  0.22783075054E-01  0.67740644524E-01  0.72915481330E-01  0.51100000000E-03 0.  1.
</event>
<event>
 8    1  0.1010879E+005  0.1043930E+01  0.7957747E-01            NaN
         13   -1    0    0    0    0  0.00000000000E+00  0.00000000000E+00  0.74505805969E-08  0.10566000000E+00  0.10566000000E+00 0. -1.
     999900   -1    0    0    0    0 -0.00000000000E+00 -0.00000000000E+00 -0.74505805969E-08  0.93827000000E+00  0.93827000000E+00 0. -1.
     999902    2    1    2    0    0 -0.19238926422E-01  0.17440974274E-02 -0.13312621366E-01  0.10204693083E+01  0.10201995909E+01 0.  0.
     999903    2    3    3    0    0 -0.40081314221E-01  0.16891838792E-01 -0.12438105741E+00  0.13311365434E+00  0.18887868114E-01 0.  0.
         14    1    1    2    0    0  0.19238926422E-01 -0.17440974274E-02  0.13312621366E-01  0.23460691664E-01  0.00000000000E+00 0. -1.
     999901    1    3    3    0    0  0.20842387800E-01 -0.15147741364E-01  0.11106843604E+00  0.88735565400E+00  0.88000000000E+00 0.  1.
        -11    1    4    4    0    0 -0.15208412577E-01  0.13827295665E-01 -0.38461685781E-01  0.43612524722E-01  0.51100000000E-03 0. -1.
         11    1    4    4    0    0 -0.24872901644E-01  0.30645431265E-02 -0.85919371627E-01  0.89501129616E-01  0.51100000000E-03 0.  1.
</event>
<event>
 8    1  0.1010879E+005  0.1043930E+01  0.7957747E-01            NaN
         13   -1    0    0    0    0  0.00000000000E+00  0.00000000000E+00  0.74505805969E-08  0.10566000000E+00  0.10566000000E+00 0.  1.
     999900   -1    0    0    0    0 -0.00000000000E+00 -0.00000000000E+00 -0.74505805969E-08  0.93827000000E+00  0.93827000000E+00 0.  1.
     999902    2    1    2    0    0  0.22808864262E-01 -0.16982556698E-02  0.54050957972E-02  0.10204280124E+01  0.10201573335E+01 0.  0.
     999903    2    3    3    0    0 -0.38539744186E-01  0.11817014660E+00  0.31398136343E-01  0.12980591308E+00  0.20352805075E-01 0.  0.
         14    1    1    2    0    0 -0.22808864262E-01  0.16982556698E-02 -0.54050957972E-02  0.23501987614E-01  0.00000000000E+00 0. -1.
     999901    1    3    3    0    0  0.61348608448E-01 -0.11986840227E+00 -0.25993040546E-01  0.89062209931E+00  0.88000000000E+00 0. -1.
        -11    1    4    4    0    0 -0.24596108454E-01  0.53028504209E-01  0.22309067521E-01  0.62569532716E-01  0.51100000000E-03 0. -1.
         11    1    4    4    0    0 -0.13943635732E-01  0.65141642391E-01  0.90890688219E-02  0.67236380360E-01  0.51100000000E-03 0.  1.
</event>
<event>
 8    1  0.1010879E+005  0.1043930E+01  0.7957747E-01            NaN
         13   -1    0    0    0    0  0.00000000000E+00  0.00000000000E+00  0.74505805969E-08  0.10566000000E+00  0.10566000000E+00 0.  1.
     999900   -1    0    0    0    0 -0.00000000000E+00 -0.00000000000E+00 -0.74505805969E-08  0.93827000000E+00  0.93827000000E+00 0.  1.
     999902    2    1    2    0    0 -0.20197821315E-02 -0.94225744923E-02 -0.37186994989E-02  0.10336007621E+01  0.10335491484E+01 0.  0.
     999903    2    3    3    0    0  0.10568643966E+00  0.91041764523E-01 -0.44581923944E-02  0.14135961729E+00  0.22459730738E-01 0.  0.
         14    1    1    2    0    0  0.20197821315E-02  0.94225744923E-02  0.37186994989E-02  0.10329237914E-01  0.00000000000E+00 0.  1.
     999901    1    3    3    0    0 -0.10770622179E+00 -0.10046433902E+00  0.73949289546E-03  0.89224114480E+00  0.88000000000E+00 0.  1.
        -11    1    4    4    0    0  0.33595269660E-01  0.41247322341E-01  0.39072772289E-02  0.53343337731E-01  0.51100000000E-03 0.  1.
         11    1    4    4    0    0  0.72091169996E-01  0.49794442182E-01 -0.83654696233E-02  0.88016279555E-01  0.51100000000E-03 0. -1.
</event>
<event>
 8    1  0.1010879E+005  0.1043930E+01  0.7957747E-01            NaN
         13   -1    0    0    0    0  0.00000000000E+00  0.00000000000E+00  0.74505805969E-08  0.10566000000E+00  0.10566000000E+00 0. -1.
     999900   -1    0    0    0    0 -0.00000000000E+00 -0.00000000000E+00 -0.74505805969E-08  0.93827000000E+00  0.93827000000E+00 0.  1.
     999902    2    1    2    0    0  0.80876548865E-02 -0.11221507614E-01 -0.18808232067E-01  0.10205830090E+01  0.10203159296E+01 0.  0.
     999903    2    3    3    0    0  0.85513534393E-02  0.11842106028E+00 -0.50347526402E-01  0.13052563024E+00  0.20134387738E-01 0.  0.
         14    1    1    2    0    0 -0.80876548865E-02  0.11221507614E-01  0.18808232067E-01  0.23346990988E-01  0.00000000000E+00 0. -1.
     999901    1    3    3    0    0 -0.46369855285E-03 -0.12964256790E+00  0.31539294335E-01  0.89005737878E+00  0.88000000000E+00 0. -1.
        -11    1    4    4    0    0 -0.37527363665E-02  0.76800698940E-01 -0.29294503425E-01  0.82285232210E-01  0.51100000000E-03 0.  1.
         11    1    4    4    0    0  0.12304089806E-01  0.41620361343E-01 -0.21053022977E-01  0.48240398026E-01  0.51100000000E-03 0. -1.
</event>
<event>
 8    1  0.1010879E+005  0.1043930E+01  0.7957747E-01            NaN
         13   -1    0    0    0    0  0.00000000000E+00  0.00000000000E+00  0.74505805969E-08  0.10566000000E+00  0.10566000000E+00 0. -1.
     999900   -1    0    0    0    0 -0.00000000000E+00 -0.00000000000E+00 -0.74505805969E-08  0.93827000000E+00  0.93827000000E+00 0. -1.
     999902    2    1    2    0    0  0.66387124522E-02 -0.15708266013E-01 -0.16247367559E-01  0.10203758268E+01  0.10201039304E+01 0.  0.
     999903    2    3    3    0    0 -0.42513799999E-01 -0.12184788556E+00 -0.23246022661E-01  0.13260864473E+00  0.19757142586E-01 0.  0.
         14    1    1    2    0    0 -0.66387124522E-02  0.15708266013E-01  0.16247367559E-01  0.23554173234E-01  0.00000000000E+00 0. -1.
     999901    1    3    3    0    0  0.49152512451E-01  0.10613961955E+00  0.69986551024E-02  0.88776718203E+00  0.88000000000E+00 0. -1.
        -11    1    4    4    0    0 -0.35819299865E-02 -0.15231343059E-01  0.33983282037E-02  0.16019793675E-01  0.51100000000E-03 0.  1.
         11    1    4    4    0    0 -0.38931870012E-01 -0.10661654250E+00 -0.26644350865E-01  0.11658885106E+00  0.51100000000E-03 0. -1.
</event>
<event>
 8    1  0.1010879E+005  0.1043930E+01  0.7957747E-01            NaN
         13   -1    0    0    0    0  0.00000000000E+00  0.00000000000E+00  0.74505805969E-08  0.10566000000E+00  0.10566000000E+00 0. -1.
     999900   -1    0    0    0    0 -0.00000000000E+00 -0.00000000000E+00 -0.74505805969E-08  0.93827000000E+00  0.93827000000E+00 0. -1.
     999902    2    1    2    0    0 -0.39859362994E-02  0.19042462682E-01  0.10999319040E-01  0.10215807698E+01  0.10213362723E+01 0.  0.
     999903    2    3    3    0    0 -0.63665872145E-01  0.47575468668E-01 -0.10318103039E+00  0.13174203191E+00  0.19820934490E-01 0.  0.
         14    1    1    2    0    0  0.39859362994E-02 -0.19042462682E-01 -0.10999319040E-01  0.22349230244E-01  0.00000000000E+00 0.  1.
     999901    1    3    3    0    0  0.59679935845E-01 -0.28533005987E-01  0.11418034943E+00  0.88983873785E+00  0.88000000000E+00 0.  1.
        -11    1    4    4    0    0 -0.35840661291E-01  0.18655631857E-01 -0.63749323025E-01  0.75477300620E-01  0.51100000000E-03 0. -1.
         11    1    4    4    0    0 -0.27825210854E-01  0.28919836811E-01 -0.39431707368E-01  0.56264731290E-01  0.51100000000E-03 0.  1.
</event>
<event>
 8    1  0.1010879E+005  0.1043930E+01  0.7957747E-01            NaN
         13   -1    0    0    0    0  0.00000000000E+00  0.00000000000E+00  0.74505805969E-08  0.10566000000E+00  0.10566000000E+00 0. -1.
     999900   -1    0    0    0    0 -0.00000000000E+00 -0.00000000000E+00 -0.74505805969E-08  0.93827000000E+00  0.93827000000E+00 0.  1.
     999902    2    1    2    0    0  0.13878933916E-01 -0.14697534208E-01 -0.12933517040E-01  0.10199317046E+01  0.10196493338E+01 0.  0.
     999903    2    3    3    0    0 -0.11695625654E+00  0.33166214142E-01 -0.37318470869E-01  0.12863859265E+00  0.19402462383E-01 0.  0.
         14    1    1    2    0    0 -0.13878933916E-01  0.14697534208E-01  0.12933517040E-01  0.23998295386E-01  0.00000000000E+00 0. -1.
     999901    1    3    3    0    0  0.13083519045E+00 -0.47863748350E-01  0.24384953829E-01  0.89129311197E+00  0.88000000000E+00 0. -1.
        -11    1    4    4    0    0 -0.77469285933E-01  0.25054676965E-01 -0.33840575912E-01  0.88174105041E-01  0.51100000000E-03 0.  1.
         11    1    4    4    0    0 -0.39486970604E-01  0.81115371771E-02 -0.34778949570E-02  0.40464487605E-01  0.51100000000E-03 0. -1.
</event>
<event>
 8    1  0.1010879E+005  0.1043930E+01  0.7957747E-01            NaN
         13   -1    0    0    0    0  0.00000000000E+00  0.00000000000E+00  0.74505805969E-08  0.10566000000E+00  0.10566000000E+00 0.  1.
     999900   -1    0    0    0    0 -0.00000000000E+00 -0.00000000000E+00 -0.74505805969E-08  0.93827000000E+00  0.93827000000E+00 0.  1.
     999902    2    1    2    0    0 -0.26179065090E-03  0.11946218604E-01  0.21001653089E-01  0.10197670096E+01  0.10194807030E+01 0.  0.
     999903    2    3    3    0    0  0.72789648607E-03  0.10381048180E+00  0.80929210035E-01  0.13295737138E+00  0.18734449597E-01 0.  0.
         14    1    1    2    0    0  0.26179065090E-03 -0.11946218604E-01 -0.21001653089E-01  0.24162990414E-01  0.00000000000E+00 0. -1.
     999901    1    3    3    0    0 -0.98968713697E-03 -0.91864263200E-01 -0.59927556946E-01  0.88680963821E+00  0.88000000000E+00 0.  1.
        -11    1    4    4    0    0 -0.56790985853E-02  0.42044340147E-01  0.41784070140E-01  0.59549545234E-01  0.51100000000E-03 0. -1.
         11    1    4    4    0    0  0.64069950714E-02  0.61766141657E-01  0.39145139895E-01  0.73407826146E-01  0.51100000000E-03 0.  1.
</event>
<event>
 8    1  0.1010879E+005  0.1043930E+01  0.7957747E-01            NaN
         13   -1    0    0    0    0  0.00000000000E+00  0.00000000000E+00  0.74505805969E-08  0.10566000000E+00  0.10566000000E+00 0.  1.
     999900   -1    0    0    0    0 -0.00000000000E+00 -0.00000000000E+00 -0.74505805969E-08  0.93827000000E+00  0.93827000000E+00 0. -1.
     999902    2    1    2    0    0  0.22669671160E-02  0.19739439415E-01  0.13131509223E-01  0.10201135951E+01  0.10198355386E+01 0.  0.
     999903    2    3    3    0    0  0.98087581851E-01 -0.17567439120E-01  0.83275755346E-01  0.13135400518E+00  0.19729029825E-01 0.  0.
         14    1    1    2    0    0 -0.22669671160E-02 -0.19739439415E-01 -0.13131509223E-01  0.23816404909E-01  0.00000000000E+00 0. -1.
     999901    1    3    3    0    0 -0.95820614735E-01  0.37306878535E-01 -0.70144246123E-01  0.88875958991E+00  0.88000000000E+00 0. -1.
        -11    1    4    4    0    0  0.45327211017E-01 -0.80372676787E-02  0.25887671252E-01  0.52816535045E-01  0.51100000000E-03 0. -1.
         11    1    4    4    0    0  0.52760370834E-01 -0.95301714412E-02  0.57388084094E-01  0.78537470135E-01  0.51100000000E-03 0.  1.
</event>
<event>
 8    1  0.1010879E+005  0.1043930E+01  0.7957747E-01            NaN
         13   -1    0    0    0    0  0.00000000000E+00  0.00000000000E+00  0.74505805969E-08  0.10566000000E+00  0.10566000000E+00 0.  1.
     999900   -1    0    0    0    0 -0.00000000000E+00 -0.00000000000E+00 -0.74505805969E-08  0.93827000000E+00  0.93827000000E+00 0.  1.
     999902    2    1    2    0    0  0.23799640173E-01 -0.93708312485E-03  0.47255671204E-02  0.10196476611E+01  0.10193584849E+01 0.  0.
     999903    2    3    3    0    0 -0.17942447437E-01 -0.97604461099E-01  0.81671555026E-01  0.13003669620E+00  0.19767073925E-01 0.  0.
         14    1    1    2    0    0 -0.23799640173E-01  0.93708312485E-03 -0.47255671204E-02  0.24282338886E-01  0.00000000000E+00 0. -1.
     999901    1    3    3    0    0  0.41742087610E-01  0.96667377974E-01 -0.76945987905E-01  0.88961096492E+00  0.88000000000E+00 0. -1.
        -11    1    4    4    0    0 -0.98533217445E-02 -0.58496954810E-01  0.60905983978E-01  0.85022242247E-01  0.51100000000E-03 0.  1.
         11    1    4    4    0    0 -0.80891256926E-02 -0.39107506289E-01  0.20765571048E-01  0.45014453952E-01  0.51100000000E-03 0. -1.
</event>
<event>
 8    1  0.1010879E+005  0.1043930E+01  0.7957747E-01            NaN
         13   -1    0    0    0    0  0.00000000000E+00  0.00000000000E+00  0.74505805969E-08  0.10566000000E+00  0.10566000000E+00 0.  1.
     999900   -1    0    0    0    0 -0.00000000000E+00 -0.00000000000E+00 -0.74505805969E-08  0.93827000000E+00  0.93827000000E+00 0. -1.
     999902    2    1    2    0    0 -0.49143656941E-02  0.21839612203E-02  0.22709418850E-01  0.10205925112E+01  0.10203256518E+01 0.  0.
     999903    2    3    3    0    0  0.11235662823E+00 -0.62886346506E-01  0.21073907629E-02  0.13019312079E+00  0.19159935299E-01 0.  0.
         14    1    1    2    0    0  0.49143656941E-02 -0.21839612203E-02 -0.22709418850E-01  0.23337488753E-01  0.00000000000E+00 0. -1.
     999901    1    3    3    0    0 -0.11727099393E+00  0.65070307727E-01  0.20602028087E-01  0.89039939046E+00  0.88000000000E+00 0.  1.
        -11    1    4    4    0    0  0.52138475567E-01 -0.36262920431E-01  0.83370261091E-02  0.64056125062E-01  0.51100000000E-03 0.  1.
         11    1    4    4    0    0  0.60218152666E-01 -0.26623426076E-01 -0.62296353462E-02  0.66136995729E-01  0.51100000000E-03 0. -1.
</event>
<event>
 8    1  0.1010879E+005  0.1043930E+01  0.7957747E-01            NaN
         13   -1    0    0    0    0  0.00000000000E+00  0.00000000000E+00  0.74505805969E-08  0.10566000000E+00  0.10566000000E+00 0. -1.
     999900   -1    0    0    0    0 -0.00000000000E+00 -0.00000000000E+00 -0.74505805969E-08  0.93827000000E+00  0.93827000000E+00 0. -1.
     999902    2    1    2    0    0  0.20692084841E-01  0.12875164874E-02  0.12306199085E-01  0.10198206116E+01  0.10195355890E+01 0.  0.
     999903    2    3    3    0    0 -0.10639748172E-02  0.12072943755E+00  0.47569728911E-01  0.13078562061E+00  0.16287121162E-01 0.  0.
         14    1    1    2    0    0 -0.20692084841E-01 -0.12875164874E-02 -0.12306199085E-01  0.24109388414E-01  0.00000000000E+00 0.  1.
     999901    1    3    3    0    0  0.21756059658E-01 -0.11944192107E+00 -0.35263529826E-01  0.88903499097E+00  0.88000000000E+00 0.  1.
        -11    1    4    4    0    0  0.25806909082E-02  0.73094748198E-01  0.36498811023E-01  0.81743051734E-01  0.51100000000E-03 0.  1.
         11    1    4    4    0    0 -0.36446657253E-02  0.47634689357E-01  0.11070917888E-01  0.49042568879E-01  0.51100000000E-03 0. -1.
</event>
<event>
 7    1  0.1010879E+005  0.1043930E+01  0.7957747E-01            NaN
         13   -1    0    0    0    0  0.00000000000E+00  0.00000000000E+00  0.74505805969E-08  0.10566000000E+00  0.10566000000E+00 0.  1.
     999900   -1    0    0    0    0 -0.00000000000E+00 -0.00000000000E+00 -0.74505805969E-08  0.93827000000E+00  0.93827000000E+00 0. -1.
     999902    2    1    2    0    0  0.17801029147E-01 -0.12349929764E-01  0.90202946168E-02  0.10204616571E+01  0.10201917616E+01 0.  0.
         14    1    1    2    0    0 -0.17801029147E-01  0.12349929764E-01 -0.90202946168E-02  0.23468342908E-01  0.00000000000E+00 0. -1.
     999901    1    3    3    0    0  0.81072407422E-01 -0.10528085401E+00 -0.43021238350E-01  0.89101493838E+00  0.88000000000E+00 0. -1.
        -11    1    3    3    0    0 -0.21330255419E-01  0.33226142235E-01 -0.57065470160E-03  0.39491050782E-01  0.51100000000E-03 0. -1.
         11    1    3    3    0    0 -0.41941122856E-01  0.59704782006E-01  0.52612187668E-01  0.89955667932E-01  0.51100000000E-03 0.  1.
</event>
<event>
 8    1  0.1010879E+005  0.1043930E+01  0.7957747E-01            NaN
         13   -1    0    0    0    0  0.00000000000E+00  0.00000000000E+00  0.74505805969E-08  0.10566000000E+00  0.10566000000E+00 0.  1.
     999900   -1    0    0    0    0 -0.00000000000E+00 -0.00000000000E+00 -0.74505805969E-08  0.93827000000E+00  0.93827000000E+00 0.  1.
     999902    2    1    2    0    0 -0.51045842496E-02 -0.70908885248E-02  0.22132232941E-01  0.10201356054E+01  0.10198580686E+01 0.  0.
     999903    2    3    3    0    0 -0.56149069167E-01 -0.11724006662E+00  0.11961094925E-02  0.13155431920E+00  0.20178132594E-01 0.  0.
         14    1    1    2    0    0  0.51045842496E-02  0.70908885248E-02 -0.22132232941E-01  0.23794394622E-01  0.00000000000E+00 0. -1.
     999901    1    3    3    0    0  0.51044484917E-01  0.11014917809E+00  0.20936123449E-01  0.88858128617E+00  0.88000000000E+00 0.  1.
        -11    1    4    4    0    0 -0.11660211918E-01 -0.27530462211E-01 -0.81203623142E-02  0.30985291618E-01  0.51100000000E-03 0.  1.
         11    1    4    4    0    0 -0.44488857249E-01 -0.89709604405E-01  0.93164718067E-02  0.10056902759E+00  0.51100000000E-03 0. -1.
</event>
<event>
 8    1  0.1010879E+005  0.1043930E+01  0.7957747E-01            NaN
         13   -1    0    0    0    0  0.00000000000E+00  0.00000000000E+00  0.74505805969E-08  0.10566000000E+00  0.10566000000E+00 0.  1.
     999900   -1    0    0    0    0 -0.00000000000E+00 -0.00000000000E+00 -0.74505805969E-08  0.93827000000E+00  0.93827000000E+00 0.  1.
     999902    2    1    2    0    0  0.18339771035E-01 -0.14427105217E-01  0.25448853603E-02  0.10204573562E+01  0.10201873606E+01 0.  0.
     999903    2    3    3    0    0 -0.74689741854E-01 -0.23642065641E-01 -0.10116619142E+00  0.12944927922E+00  0.19621742976E-01 0.  0.
         14    1    1    2    0    0 -0.18339771035E-01  0.14427105217E-01 -0.25448853603E-02  0.23472643823E-01  0.00000000000E+00 0. -1.
     999901    1    3    3    0    0  0.93029512888E-01  0.92149604243E-02  0.10371107678E+00  0.89100807696E+00  0.88000000000E+00 0. -1.
        -11    1    4    4    0    0 -0.59694677859E-01 -0.25551282340E-01 -0.88212782484E-01  0.10953574169E+00  0.51100000000E-03 0. -1.
         11    1    4    4    0    0 -0.14995063995E-01  0.19092166984E-02 -0.12953408934E-01  0.19913537521E-01  0.51100000000E-03 0.  1.
</event>
<event>
 8    1  0.1010879E+005  0.1043930E+01  0.7957747E-01            NaN
         13   -1    0    0    0    0  0.00000000000E+00  0.00000000000E+00  0.74505805969E-08  0.10566000000E+00  0.10566000000E+00 0. -1.
     999900   -1    0    0    0    0 -0.00000000000E+00 -0.00000000000E+00 -0.74505805969E-08  0.93827000000E+00  0.93827000000E+00 0. -1.
     999902    2    1    2    0    0 -0.15383752842E-01 -0.80306470939E-02  0.15285116960E-01  0.10208045607E+01  0.10205425837E+01 0.  0.
     999903    2    3    3    0    0 -0.73938834787E-01 -0.10677179713E+00  0.22427977253E-01  0.13331961274E+00  0.20098184620E-01 0.  0.
         14    1    1    2    0    0  0.15383752842E-01  0.80306470939E-02 -0.15285116960E-01  0.23125439342E-01  0.00000000000E+00 0.  1.
     999901    1    3    3    0    0  0.58555081945E-01  0.98741150036E-01 -0.71428602932E-02  0.88748494792E+00  0.88000000000E+00 0.  1.
        -11    1    4    4    0    0 -0.26437053653E-01 -0.23430927221E-01  0.89749285001E-02  0.36451839718E-01  0.51100000000E-03 0. -1.
         11    1    4    4    0    0 -0.47501781134E-01 -0.83340869908E-01  0.13453048753E-01  0.96867773020E-01  0.51100000000E-03 0.  1.
</event>
<event>
 8    1  0.1010879E+005  0.1043930E+01  0.7957747E-01            NaN
         13   -1    0    0    0    0  0.00000000000E+00  0.00000000000E+00  0.74505805969E-08  0.10566000000E+00  0.10566000000E+00 0.  1.
     999900   -1    0    0    0    0 -0.00000000000E+00 -0.00000000000E+00 -0.74505805969E-08  0.93827000000E+00  0.93827000000E+00 0. -1.
     999902    2    1    2    0    0  0.46992374344E-02 -0.23059574127E-01 -0.28876404858E-02  0.10202199756E+01  0.10199444266E+01 0.  0.
     999903    2    3    3    0    0 -0.39281649050E-02  0.12330384823E+00  0.26051117124E-01  0.12762032557E+00  0.19723522145E-01 0.  0.
         14    1    1    2    0    0 -0.46992374344E-02  0.23059574127E-01  0.28876404858E-02  0.23710024440E-01  0.00000000000E+00 0. -1.
     999901    1    3    3    0    0  0.86274023394E-02 -0.14636342236E+00 -0.28938757610E-01  0.89259964999E+00  0.88000000000E+00 0.  1.
        -11    1    4    4    0    0  0.58157726859E-02  0.49626584653E-01  0.16845110308E-01  0.52731773899E-01  0.51100000000E-03 0. -1.
         11    1    4    4    0    0 -0.97439375909E-02  0.73677263579E-01  0.92060068165E-02  0.74888551667E-01  0.51100000000E-03 0.  1.
</event>
<event>
 8    1  0.1010879E+005  0.1043930E+01  0.7957747E-01            NaN
         13   -1    0    0    0    0  0.00000000000E+00  0.00000000000E+00  0.74505805969E-08  0.10566000000E+00  0.10566000000E+00 0. -1.
     999900   -1    0    0    0    0 -0.00000000000E+00 -0.00000000000E+00 -0.74505805969E-08  0.93827000000E+00  0.93827000000E+00 0. -1.
     999902    2    1    2    0    0 -0.30502908155E-02  0.80066271443E-02  0.22049340391E-01  0.10202744771E+01  0.10200002083E+01 0.  0.
     999903    2    3    3    0    0  0.32724897610E-01  0.80130885129E-01 -0.93576417647E-01  0.12906681969E+00  0.20244019601E-01 0.  0.
         14    1    1    2    0    0  0.30502908155E-02 -0.80066271443E-02 -0.22049340391E-01  0.23655522906E-01  0.00000000000E+00 0.  1.
     999901    1    3    3    0    0 -0.35775188425E-01 -0.72124257985E-01  0.11562575804E+00  0.89120765741E+00  0.88000000000E+00 0.  1.
        -11    1    4    4    0    0  0.28992127941E-03  0.10120322576E-01 -0.41522094441E-02  0.10954768261E-01  0.51100000000E-03 0.  1.
         11    1    4    4    0    0  0.32434976330E-01  0.70010562553E-01 -0.89424208202E-01  0.11811205143E+00  0.51100000000E-03 0. -1.
</event>
<event>
 8    1  0.1089829E+005  0.1043930E+01  0.7957747E-01            NaN
         13   -1    0    0    0    0  0.00000000000E+00  0.00000000000E+00  0.74505805969E-08  0.10566000000E+00  0.10566000000E+00 0. -1.
     999900   -1    0    0    0    0 -0.00000000000E+00 -0.00000000000E+00 -0.74505805969E-08  0.93827000000E+00  0.93827000000E+00 0.  1.
     999902    2    1    2    0    0  0.12477298221E-02  0.14805657464E-01 -0.19322999231E-01  0.10195549590E+01  0.10192635439E+01 0.  0.
     999903    2    3    3    0    0  0.92153053560E-01 -0.18832325831E-01 -0.89575336731E-01  0.13144985111E+00  0.20210903728E-01 0.  0.
         14    1    1    2    0    0 -0.12477298221E-02 -0.14805657464E-01  0.19322999231E-01  0.24375040963E-01  0.00000000000E+00 0. -1.
     999901    1    3    3    0    0 -0.90905323738E-01  0.33637983295E-01  0.70252337500E-01  0.88810510793E+00  0.88000000000E+00 0. -1.
        -11    1    4    4    0    0  0.50756295012E-01 -0.16589270412E-01 -0.39409951171E-01  0.66368748281E-01  0.51100000000E-03 0.  1.
         11    1    4    4    0    0  0.41396758548E-01 -0.22430554191E-02 -0.50165385560E-01  0.65081102828E-01  0.51100000000E-03 0. -1.
</event>
<event>
 8    1  0.1010879E+005  0.1043930E+01  0.7957747E-01            NaN
         13   -1    0    0    0    0  0.00000000000E+00  0.00000000000E+00  0.74505805969E-08  0.10566000000E+00  0.10566000000E+00 0.  1.
     999900   -1    0    0    0    0 -0.00000000000E+00 -0.00000000000E+00 -0.74505805969E-08  0.93827000000E+00  0.93827000000E+00 0.  1.
     999902    2    1    2    0    0  0.12982299824E-01  0.10429356957E-01 -0.20101257610E-01  0.10178268938E+01  0.10174921197E+01 0.  0.
     999903    2    3    3    0    0 -0.30361050706E-01 -0.11661721210E+00  0.32157438721E-01  0.12611480570E+00  0.18694271657E-01 0.  0.
         14    1    1    2    0    0 -0.12982299824E-01 -0.10429356957E-01  0.20101257610E-01  0.26103106190E-01  0.00000000000E+00 0. -1.
     999901    1    3    3    0    0  0.43343350530E-01  0.12704656906E+00 -0.52258696332E-01  0.89171208811E+00  0.88000000000E+00 0.  1.
        -11    1    4    4    0    0 -0.32066997315E-01 -0.99531458456E-01  0.30081043690E-01  0.10881146010E+00  0.51100000000E-03 0.  1.
         11    1    4    4    0    0  0.17059466086E-02 -0.17085753645E-01  0.20763950316E-02  0.17303345595E-01  0.51100000000E-03 0. -1.
</event>
<event>
 8    1  0.1010879E+005  0.1043930E+01  0.7957747E-01            NaN
         13   -1    0    0    0    0  0.00000000000E+00  0.00000000000E+00  0.74505805969E-08  0.10566000000E+00  0.10566000000E+00 0. -1.
     999900   -1    0    0    0    0 -0.00000000000E+00 -0.00000000000E+00 -0.74505805969E-08  0.93827000000E+00  0.93827000000E+00 0. -1.
     999902    2    1    2    0    0 -0.13436118777E-01  0.15626364042E-01 -0.20881936578E-01  0.10145911552E+01  0.10141668720E+01 0.  0.
     999903    2    3    3    0    0 -0.83339659930E-01  0.34754324163E-01 -0.89250602651E-01  0.12896896799E+00  0.22670744680E-01 0.  0.
         14    1    1    2    0    0  0.13436118777E-01 -0.15626364042E-01  0.20881936578E-01  0.29338844835E-01  0.00000000000E+00 0. -1.
     999901    1    3    3    0    0  0.69903541153E-01 -0.19127960121E-01  0.68368666073E-01  0.88562218718E+00  0.88000000000E+00 0.  1.
        -11    1    4    4    0    0 -0.65173888134E-01  0.23794559636E-01 -0.79777765842E-01  0.10572875582E+00  0.51100000000E-03 0. -1.
         11    1    4    4    0    0 -0.18165771796E-01  0.10959764528E-01 -0.94728368089E-02  0.23240212169E-01  0.51100000000E-03 0.  1.
</event>
<event>
 8    1  0.1010879E+005  0.1043930E+01  0.7957747E-01            NaN
         13   -1    0    0    0    0  0.00000000000E+00  0.00000000000E+00  0.74505805969E-08  0.10566000000E+00  0.10566000000E+00 0.  1.
     999900   -1    0    0    0    0 -0.00000000000E+00 -0.00000000000E+00 -0.74505805969E-08  0.93827000000E+00  0.93827000000E+00 0.  1.
     999902    2    1    2    0    0 -0.18104434666E-01  0.10773553081E-02  0.14994477488E-01  0.10203977752E+01  0.10201263912E+01 0.  0.
     999903    2    3    3    0    0 -0.58750361465E-01  0.10253855018E+00 -0.52972297693E-01  0.13103511129E+00  0.19959379285E-01 0.  0.
         14    1    1    2    0    0  0.18104434666E-01 -0.10773553081E-02 -0.14994477488E-01  0.23532224802E-01  0.00000000000E+00 0. -1.
     999901    1    3    3    0    0  0.40645926799E-01 -0.10146119487E+00  0.67966775180E-01  0.88936266391E+00  0.88000000000E+00 0. -1.
        -11    1    4    4    0    0 -0.13410509096E-01  0.14176631727E-01 -0.26597398013E-02  0.19701623744E-01  0.51100000000E-03 0. -1.
         11    1    4    4    0    0 -0.45339852369E-01  0.88361918455E-01 -0.50312557891E-01  0.11133348754E+00  0.51100000000E-03 0.  1.
</event>
<event>
 8    1  0.1010879E+005  0.1043930E+01  0.7957747E-01            NaN
         13   -1    0    0    0    0  0.00000000000E+00  0.00000000000E+00  0.74505805969E-08  0.10566000000E+00  0.10566000000E+00 0.  1.
     999900   -1    0    0    0    0 -0.00000000000E+00 -0.00000000000E+00 -0.74505805969E-08  0.93827000000E+00  0.93827000000E+00 0.  1.
     999902    2    1    2    0    0  0.23971087816E-01 -0.74459516926E-03  0.31232987626E-02  0.10197448296E+01  0.10194579908E+01 0.  0.
     999903    2    3    3    0    0 -0.10289436440E+00  0.56097843962E-01  0.46628524364E-01  0.12777027248E+00  0.20415800827E-01 0.  0.
         14    1    1    2    0    0 -0.23971087816E-01  0.74459516926E-03 -0.31232987626E-02  0.24185170419E-01  0.00000000000E+00 0. -1.
     999901    1    3    3    0    0  0.12686545222E+00 -0.56842439131E-01 -0.43505225602E-01  0.89197455710E+00  0.88000000000E+00 0. -1.
        -11    1    4    4    0    0 -0.34816922286E-01  0.15581053054E-01  0.56118196245E-02  0.38558279685E-01  0.51100000000E-03 0. -1.
         11    1    4    4    0    0 -0.68077442115E-01  0.40516790908E-01  0.41016704740E-01  0.89211992799E-01  0.51100000000E-03 0.  1.
</event>
<event>
 8    1  0.1010879E+005  0.1043930E+01  0.7957747E-01            NaN
         13   -1    0    0    0    0  0.00000000000E+00  0.00000000000E+00  0.74505805969E-08  0.10566000000E+00  0.10566000000E+00 0. -1.
     999900   -1    0    0    0    0 -0.00000000000E+00 -0.00000000000E+00 -0.74505805969E-08  0.93827000000E+00  0.93827000000E+00 0.  1.
     999902    2    1    2    0    0 -0.13615225527E-01 -0.18183998676E-01  0.67616776071E-02  0.10202286824E+01  0.10199533381E+01 0.  0.
     999903    2    3    3    0    0  0.10597269965E+00 -0.46017695466E-01  0.55969996765E-01  0.13034248446E+00  0.22553965307E-01 0.  0.
         14    1    1    2    0    0  0.13615225527E-01  0.18183998676E-01 -0.67616776071E-02  0.23701317644E-01  0.00000000000E+00 0.  1.
     999901    1    3    3    0    0 -0.11958792518E+00  0.27833696790E-01 -0.49208319158E-01  0.88988619789E+00  0.88000000000E+00 0.  1.
        -11    1    4    4    0    0  0.31777847837E-01 -0.14375651307E-01  0.58272157836E-02  0.35365357745E-01  0.51100000000E-03 0. -1.
         11    1    4    4    0    0  0.74194851814E-01 -0.31642044158E-01  0.50142780981E-01  0.94977126719E-01  0.51100000000E-03 0.  1.
</event>
<event>
 8    1  0.1010879E+005  0.1043930E+01  0.7957747E-01            NaN
         13   -1    0    0    0    0  0.00000000000E+00  0.00000000000E+00  0.74505805969E-08  0.10566000000E+00  0.10566000000E+00 0. -1.
     999900   -1    0    0    0    0 -0.00000000000E+00 -0.00000000000E+00 -0.74505805969E-08  0.93827000000E+00  0.93827000000E+00 0.  1.
     999902    2    1    2    0    0 -0.14057113898E-02 -0.23249006104E-01 -0.35025882379E-03  0.10206359022E+01  0.10203700456E+01 0.  0.
     999903    2    3    3    0    0 -0.94465223240E-01  0.49016876131E-01  0.71757179089E-01  0.12985988489E+00  0.19701888366E-01 0.  0.
         14    1    1    2    0    0  0.14057113898E-02  0.23249006104E-01  0.35025882379E-03  0.23294097763E-01  0.00000000000E+00 0.  1.
     999901    1    3    3    0    0  0.93059511850E-01 -0.72265882235E-01 -0.72107437913E-01  0.89077601735E+00  0.88000000000E+00 0.  1.
        -11    1    4    4    0    0 -0.32374670011E-01  0.26657368690E-01  0.32615661165E-01  0.53129813081E-01  0.51100000000E-03 0. -1.
         11    1    4    4    0    0 -0.62090553229E-01  0.22359507440E-01  0.39141517924E-01  0.76730071808E-01  0.51100000000E-03 0.  1.
</event>
<event>
 8    1  0.1010879E+005  0.1043930E+01  0.7957747E-01            NaN
         13   -1    0    0    0    0  0.00000000000E+00  0.00000000000E+00  0.74505805969E-08  0.10566000000E+00  0.10566000000E+00 0.  1.
     999900   -1    0    0    0    0 -0.00000000000E+00 -0.00000000000E+00 -0.74505805969E-08  0.93827000000E+00  0.93827000000E+00 0. -1.
     999902    2    1    2    0    0 -0.15570510552E-01  0.13395182609E-01  0.14699066717E-01  0.10186726391E+01  0.10183594706E+01 0.  0.
     999903    2    3    3    0    0  0.16976710692E-01  0.76194708612E-01 -0.99429225268E-01  0.12848818121E+00  0.23004337588E-01 0.  0.
         14    1    1    2    0    0  0.15570510552E-01 -0.13395182609E-01 -0.14699066717E-01  0.25257360874E-01  0.00000000000E+00 0. -1.
     999901    1    3    3    0    0 -0.32547221244E-01 -0.62799526002E-01  0.11412829198E+00  0.89018445791E+00  0.88000000000E+00 0.  1.
        -11    1    4    4    0    0  0.10325003905E-01  0.62852654087E-01 -0.65202220582E-01  0.91151810301E-01  0.51100000000E-03 0. -1.
         11    1    4    4    0    0  0.66517067872E-02  0.13342054525E-01 -0.34227004686E-01  0.37336370913E-01  0.51100000000E-03 0.  1.
</event>
<event>
 8    1  0.1010879E+005  0.1043930E+01  0.7957747E-01            NaN
         13   -1    0    0    0    0  0.00000000000E+00  0.00000000000E+00  0.74505805969E-08  0.10566000000E+00  0.10566000000E+00 0. -1.
     999900   -1    0    0    0    0 -0.00000000000E+00 -0.00000000000E+00 -0.74505805969E-08  0.93827000000E+00  0.93827000000E+00 0. -1.
     999902    2    1    2    0    0  0.44635500094E-02 -0.24192319257E-01 -0.19489549801E-02  0.10192522769E+01  0.10189534896E+01 0.  0.
     999903    2    3    3    0    0  0.14844137337E-01  0.10949214494E+00  0.59118623550E-01  0.12700312917E+00  0.20637464769E-01 0.  0.
         14    1    1    2    0    0 -0.44635500094E-02  0.24192319257E-01  0.19489549801E-02  0.24677723056E-01  0.00000000000E+00 0.  1.
     999901    1    3    3    0    0 -0.10380587328E-01 -0.13368446419E+00 -0.61067578530E-01  0.89224914778E+00  0.88000000000E+00 0. -1.
        -11    1    4    4    0    0  0.12405831372E-01  0.85794596856E-01  0.36204050693E-01  0.93944727948E-01  0.51100000000E-03 0.  1.
         11    1    4    4    0    0  0.24383059647E-02  0.23697548080E-01  0.22914572857E-01  0.33058401219E-01  0.51100000000E-03 0. -1.
</event>
<event>
 8    1  0.1010879E+005  0.1043930E+01  0.7957747E-01            NaN
         13   -1    0    0    0    0  0.00000000000E+00  0.00000000000E+00  0.74505805969E-08  0.10566000000E+00  0.10566000000E+00 0.  1.
     999900   -1    0    0    0    0 -0.00000000000E+00 -0.00000000000E+00 -0.74505805969E-08  0.93827000000E+00  0.93827000000E+00 0.  1.
     999902    2    1    2    0    0  0.36620912345E-02  0.19491903379E-01  0.10885205502E-01  0.10213062755E+01  0.10210556672E+01 0.  0.
     999903    2    3    3    0    0  0.12672917962E+00 -0.25692942876E-01 -0.11016970695E-01  0.13132488029E+00  0.20110650393E-01 0.  0.
         14    1    1    2    0    0 -0.36620912345E-02 -0.19491903379E-01 -0.10885205502E-01  0.22623724458E-01  0.00000000000E+00 0.  1.
     999901    1    3    3    0    0 -0.12306708838E+00  0.45184846255E-01  0.21902176196E-01  0.88998139525E+00  0.88000000000E+00 0. -1.
        -11    1    4    4    0    0  0.53206785775E-01 -0.20781844901E-01 -0.30053296046E-02  0.57202624564E-01  0.51100000000E-03 0. -1.
         11    1    4    4    0    0  0.73522393843E-01 -0.49110979751E-02 -0.80116410903E-02  0.74122255725E-01  0.51100000000E-03 0.  1.
</event>
<event>
 8    1  0.1010879E+005  0.1043930E+01  0.7957747E-01            NaN
         13   -1    0    0    0    0  0.00000000000E+00  0.00000000000E+00  0.74505805969E-08  0.10566000000E+00  0.10566000000E+00 0. -1.
     999900   -1    0    0    0    0 -0.00000000000E+00 -0.00000000000E+00 -0.74505805969E-08  0.93827000000E+00  0.93827000000E+00 0. -1.
     999902    2    1    2    0    0 -0.14227951019E-01  0.67467886734E-02  0.16081169662E-01  0.10214231618E+01  0.10211751651E+01 0.  0.
     999903    2    3    3    0    0 -0.78514455468E-01  0.10221041859E+00 -0.27767700074E-01  0.13284633189E+00  0.16297648432E-01 0.  0.
         14    1    1    2    0    0  0.14227951019E-01 -0.67467886734E-02 -0.16081169662E-01  0.22506838190E-01  0.00000000000E+00 0.  1.
     999901    1    3    3    0    0  0.64286504449E-01 -0.95463629915E-01  0.43848869736E-01  0.88857682992E+00  0.88000000000E+00 0.  1.
        -11    1    4    4    0    0 -0.43154848517E-01  0.60654108316E-01 -0.82623669280E-02  0.74898528920E-01  0.51100000000E-03 0. -1.
         11    1    4    4    0    0 -0.35359606951E-01  0.41556310272E-01 -0.19505333146E-01  0.57947802972E-01  0.51100000000E-03 0.  1.
</event>
<event>
 8    1  0.1010879E+005  0.1043930E+01  0.7957747E-01            NaN
         13   -1    0    0    0    0  0.00000000000E+00  0.00000000000E+00  0.74505805969E-08  0.10566000000E+00  0.10566000000E+00 0.  1.
     999900   -1    0    0    0    0 -0.00000000000E+00 -0.00000000000E+00 -0.74505805969E-08  0.93827000000E+00  0.93827000000E+00 0. -1.
     999902    2    1    2    0    0 -0.21925197462E-01 -0.68874225750E-02  0.51840572314E-02  0.10203710246E+01  0.10200990160E+01 0.  0.
     999903    2    3    3    0    0 -0.47039647996E-02 -0.75981614545E-01  0.10591678642E+00  0.13176669140E+00  0.18675178284E-01 0.  0.
         14    1    1    2    0    0  0.21925197462E-01  0.68874225750E-02 -0.51840572314E-02  0.23558975420E-01  0.00000000000E+00 0. -1.
     999901    1    3    3    0    0 -0.17221232662E-01  0.69094191969E-01 -0.10073272918E+00  0.88860433318E+00  0.88000000000E+00 0. -1.
        -11    1    4    4    0    0 -0.94950286632E-02 -0.48999565557E-01  0.57605138659E-01  0.76221559385E-01  0.51100000000E-03 0.  1.
         11    1    4    4    0    0  0.47910638636E-02 -0.26982048987E-01  0.48311647757E-01  0.55545132014E-01  0.51100000000E-03 0. -1.
</event>
<event>
 8    1  0.1010879E+005  0.1043930E+01  0.7957747E-01            NaN
         13   -1    0    0    0    0  0.00000000000E+00  0.00000000000E+00  0.74505805969E-08  0.10566000000E+00  0.10566000000E+00 0.  1.
     999900   -1    0    0    0    0 -0.00000000000E+00 -0.00000000000E+00 -0.74505805969E-08  0.93827000000E+00  0.93827000000E+00 0.  1.
     999902    2    1    2    0    0  0.11057278259E-01  0.26053360241E-03  0.20513870124E-01  0.10206244181E+01  0.10203582962E+01 0.  0.
     999903    2    3    3    0    0 -0.45196004507E-01  0.30047145927E-01  0.11952942252E+00  0.13278673377E+00  0.19988096834E-01 0.  0.
         14    1    1    2    0    0 -0.11057278259E-01 -0.26053360241E-03 -0.20513870124E-01  0.23305581901E-01  0.00000000000E+00 0. -1.
     999901    1    3    3    0    0  0.56253282766E-01 -0.29786612325E-01 -0.99015552399E-01  0.88783768433E+00  0.88000000000E+00 0.  1.
        -11    1    4    4    0    0 -0.37206504960E-01  0.14586559944E-01  0.75201850726E-01  0.85162616306E-01  0.51100000000E-03 0.  1.
         11    1    4    4    0    0 -0.79894995470E-02  0.15460585983E-01  0.44327571797E-01  0.47624117466E-01  0.51100000000E-03 0. -1.
</event>
<event>
 8    1  0.1010879E+005  0.1043930E+01  0.7957747E-01            NaN
         13   -1    0    0    0    0  0.00000000000E+00  0.00000000000E+00  0.74505805969E-08  0.10566000000E+00  0.10566000000E+00 0.  1.
     999900   -1    0    0    0    0 -0.00000000000E+00 -0.00000000000E+00 -0.74505805969E-08  0.93827000000E+00  0.93827000000E+00 0.  1.
     999902    2    1    2    0    0 -0.18229818155E-05 -0.54237523660E-02 -0.17925897164E-01  0.10252015489E+01  0.10250304683E+01 0.  0.
     999903    2    3    3    0    0  0.10895160594E+00  0.74364472597E-01  0.15684381266E-01  0.13426571428E+00  0.19512944250E-01 0.  0.
         14    1    1    2    0    0  0.18229818155E-05  0.54237523660E-02  0.17925897164E-01  0.18728451142E-01  0.00000000000E+00 0.  1.
     999901    1    3    3    0    0 -0.10895342893E+00 -0.79788224963E-01 -0.33610278430E-01  0.89093583458E+00  0.88000000000E+00 0. -1.
        -11    1    4    4    0    0  0.77872887091E-01  0.60976092487E-01  0.17186065552E-01  0.10038870638E+00  0.51100000000E-03 0.  1.
         11    1    4    4    0    0  0.31078718853E-01  0.13388380110E-01 -0.15016842859E-02  0.33877007899E-01  0.51100000000E-03 0. -1.
</event>
<event>
 8    1  0.1010879E+005  0.1043930E+01  0.7957747E-01            NaN
         13   -1    0    0    0    0  0.00000000000E+00  0.00000000000E+00  0.74505805969E-08  0.10566000000E+00  0.10566000000E+00 0. -1.
     999900   -1    0    0    0    0 -0.00000000000E+00 -0.00000000000E+00 -0.74505805969E-08  0.93827000000E+00  0.93827000000E+00 0. -1.
     999902    2    1    2    0    0  0.13877475451E-01  0.29038454747E-02  0.19397414593E-01  0.10199034244E+01  0.10196203797E+01 0.  0.
     999903    2    3    3    0    0  0.53713713091E-01 -0.11634464830E+00 -0.14121316815E-01  0.13033575722E+00  0.19150923205E-01 0.  0.
         14    1    1    2    0    0 -0.13877475451E-01 -0.29038454747E-02 -0.19397414593E-01  0.24026575626E-01  0.00000000000E+00 0.  1.
     999901    1    3    3    0    0 -0.39836237640E-01  0.11924849377E+00  0.33518731408E-01  0.88956766716E+00  0.88000000000E+00 0.  1.
        -11    1    4    4    0    0  0.39826873808E-01 -0.10209457878E+00 -0.10339554041E-01  0.11007565758E+00  0.51100000000E-03 0. -1.
         11    1    4    4    0    0  0.13886839283E-01 -0.14250069515E-01 -0.37817627742E-02  0.20260099633E-01  0.51100000000E-03 0.  1.
</event>
<event>
 8    1  0.1010879E+005  0.1043930E+01  0.7957747E-01            NaN
         13   -1    0    0    0    0  0.00000000000E+00  0.00000000000E+00  0.74505805969E-08  0.10566000000E+00  0.10566000000E+00 0.  1.
     999900   -1    0    0    0    0 -0.00000000000E+00 -0.00000000000E+00 -0.74505805969E-08  0.93827000000E+00  0.93827000000E+00 0.  1.
     999902    2    1    2    0    0 -0.10798346342E-01  0.13258724876E-01 -0.17842724662E-01  0.10192164229E+01  0.10189167561E+01 0.  0.
     999903    2    3    3    0    0 -0.80851591483E-02 -0.26631025237E-01  0.12251977746E+00  0.12719613976E+00  0.19828787143E-01 0.  0.
         14    1    1    2    0    0  0.10798346342E-01 -0.13258724876E-01  0.17842724662E-01  0.24713577086E-01  0.00000000000E+00 0.  1.
     999901    1    3    3    0    0 -0.27131871932E-02  0.39889750113E-01 -0.14036250212E+00  0.89202028315E+00  0.88000000000E+00 0.  1.
        -11    1    4    4    0    0 -0.13242234810E-01 -0.98509748723E-02  0.54571632654E-01  0.57015109403E-01  0.51100000000E-03 0. -1.
         11    1    4    4    0    0  0.51570756618E-02 -0.16780050365E-01  0.67948144802E-01  0.70181030362E-01  0.51100000000E-03 0.  1.
</event>
<event>
 8    1  0.1010879E+005  0.1043930E+01  0.7957747E-01            NaN
         13   -1    0    0    0    0  0.00000000000E+00  0.00000000000E+00  0.74505805969E-08  0.10566000000E+00  0.10566000000E+00 0. -1.
     999900   -1    0    0    0    0 -0.00000000000E+00 -0.00000000000E+00 -0.74505805969E-08  0.93827000000E+00  0.93827000000E+00 0. -1.
     999902    2    1    2    0    0  0.61208207004E-02 -0.20232566347E-01  0.11614673079E-01  0.10198110900E+01  0.10195258396E+01 0.  0.
     999903    2    3    3    0    0 -0.33888340874E-01  0.10708132031E+00 -0.56056749459E-01  0.12718071851E+00  0.20438864820E-01 0.  0.
         14    1    1    2    0    0 -0.61208207004E-02  0.20232566347E-01 -0.11614673079E-01  0.24118909963E-01  0.00000000000E+00 0.  1.
     999901    1    3    3    0    0  0.40009161575E-01 -0.12731388665E+00  0.67671422539E-01  0.89263037153E+00  0.88000000000E+00 0.  1.
        -11    1    4    4    0    0 -0.33287555301E-01  0.10428472656E+00 -0.49765165502E-01  0.12025056486E+00  0.51100000000E-03 0. -1.
         11    1    4    4    0    0 -0.60078557320E-03  0.27965937485E-02 -0.62915839574E-02  0.69301536485E-02  0.51100000000E-03 0.  1.
</event>
<event>
 8    1  0.1010879E+005  0.1043930E+01  0.7957747E-01            NaN
         13   -1    0    0    0    0  0.00000000000E+00  0.00000000000E+00  0.74505805969E-08  0.10566000000E+00  0.10566000000E+00 0.  1.
     999900   -1    0    0    0    0 -0.00000000000E+00 -0.00000000000E+00 -0.74505805969E-08  0.93827000000E+00  0.93827000000E+00 0.  1.
     999902    2    1    2    0    0 -0.20709226570E-01 -0.11312074567E-01  0.36885992031E-02  0.10200460962E+01  0.10197664426E+01 0.  0.
     999903    2    3    3    0    0 -0.10306245749E+00  0.60671808196E-01 -0.51383147145E-01  0.13156614074E+00  0.19143748977E-01 0.  0.
         14    1    1    2    0    0  0.20709226570E-01  0.11312074567E-01 -0.36885992031E-02  0.23883903790E-01  0.00000000000E+00 0.  1.
     999901    1    3    3    0    0  0.82353230924E-01 -0.71983882763E-01  0.55071746348E-01  0.88847995547E+00  0.88000000000E+00 0. -1.
        -11    1    4    4    0    0 -0.72419447777E-01  0.48694123793E-01 -0.44455733307E-01  0.97940121774E-01  0.51100000000E-03 0. -1.
         11    1    4    4    0    0 -0.30643009717E-01  0.11977684403E-01 -0.69274138380E-02  0.33626018969E-01  0.51100000000E-03 0.  1.
</event>
<event>
 8    1  0.1010879E+005  0.1043930E+01  0.7957747E-01            NaN
         13   -1    0    0    0    0  0.00000000000E+00  0.00000000000E+00  0.74505805969E-08  0.10566000000E+00  0.10566000000E+00 0.  1.
     999900   -1    0    0    0    0 -0.00000000000E+00 -0.00000000000E+00 -0.74505805969E-08  0.93827000000E+00  0.93827000000E+00 0. -1.
     999902    2    1    2    0    0 -0.15134950280E-01  0.16795565995E-01  0.15801722422E-01  0.10163464508E+01  0.10159720743E+01 0.  0.
     999903    2    3    3    0    0 -0.38655726462E-01  0.11546233249E+00 -0.35444167134E-01  0.12903900747E+00  0.23852904502E-01 0.  0.
         14    1    1    2    0    0  0.15134950280E-01 -0.16795565995E-01 -0.15801722422E-01  0.27583549238E-01  0.00000000000E+00 0.  1.
     999901    1    3    3    0    0  0.23520776182E-01 -0.98666766494E-01  0.51245889556E-01  0.88730744329E+00  0.88000000000E+00 0.  1.
        -11    1    4    4    0    0 -0.35991502382E-01  0.75960228449E-01 -0.19079217346E-01  0.86195256281E-01  0.51100000000E-03 0.  1.
         11    1    4    4    0    0 -0.26642240809E-02  0.39502104040E-01 -0.16364949788E-01  0.42843751190E-01  0.51100000000E-03 0. -1.
</event>
<event>
 8    1  0.1010879E+005  0.1043930E+01  0.7957747E-01            NaN
         13   -1    0    0    0    0  0.00000000000E+00  0.00000000000E+00  0.74505805969E-08  0.10566000000E+00  0.10566000000E+00 0.  1.
     999900   -1    0    0    0    0 -0.00000000000E+00 -0.00000000000E+00 -0.74505805969E-08  0.93827000000E+00  0.93827000000E+00 0. -1.
     999902    2    1    2    0    0  0.19337153442E-01 -0.14616427265E-01  0.21087103276E-02  0.10195987011E+01  0.10193083435E+01 0.  0.
     999903    2    3    3    0    0  0.99953968276E-01 -0.70217490435E-01 -0.41995154364E-01  0.13306855495E+00  0.31974295778E-01 0.  0.
         14    1    1    2    0    0 -0.19337153442E-01  0.14616427265E-01 -0.21087103276E-02  0.24331298947E-01  0.00000000000E+00 0.  1.
     999901    1    3    3    0    0 -0.80616814834E-01  0.55601063170E-01  0.44103864692E-01  0.88653014610E+00  0.88000000000E+00 0.  1.
        -11    1    4    4    0    0  0.88078113317E-02 -0.19085775630E-01 -0.18285934418E-02  0.21105668595E-01  0.51100000000E-03 0. -1.
         11    1    4    4    0    0  0.91146156944E-01 -0.51131714805E-01 -0.40166560923E-01  0.11196288636E+00  0.51100000000E-03 0.  1.
</event>
<event>
 7    1  0.1010879E+005  0.1043930E+01  0.7957747E-01            NaN
         13   -1    0    0    0    0  0.00000000000E+00  0.00000000000E+00  0.74505805969E-08  0.10566000000E+00  0.10566000000E+00 0.  1.
     999900   -1    0    0    0    0 -0.00000000000E+00 -0.00000000000E+00 -0.74505805969E-08  0.93827000000E+00  0.93827000000E+00 0. -1.
     999903    2    1    2    0    0 -0.82488677251E-01 -0.68527068393E-01  0.46427659289E-01  0.11846144615E+00  0.19422813926E-01 0.  0.
         14    1    1    2    0    0 -0.30839406386E-02  0.38611216865E-02 -0.38606617333E-01  0.38921585945E-01  0.00000000000E+00 0. -1.
     999901    1    1    2    0    0  0.85572617890E-01  0.64665946707E-01 -0.78210419559E-02  0.88654696790E+00  0.88000000000E+00 0. -1.
        -11    1    3    3    0    0 -0.42544092006E-01 -0.42658778854E-01  0.34378050120E-01  0.69367734783E-01  0.51100000000E-03 0. -1.
         11    1    3    3    0    0 -0.39944585245E-01 -0.25868289539E-01  0.12049609169E-01  0.49093711372E-01  0.51100000000E-03 0.  1.
</event>
<event>
 8    1  0.1010879E+005  0.1043930E+01  0.7957747E-01            NaN
         13   -1    0    0    0    0  0.00000000000E+00  0.00000000000E+00  0.74505805969E-08  0.10566000000E+00  0.10566000000E+00 0. -1.
     999900   -1    0    0    0    0 -0.00000000000E+00 -0.00000000000E+00 -0.74505805969E-08  0.93827000000E+00  0.93827000000E+00 0. -1.
     999902    2    1    2    0    0  0.11168871578E-02  0.56697230825E-02 -0.23172065263E-01  0.10200482537E+01  0.10197686513E+01 0.  0.
     999903    2    3    3    0    0 -0.10804464070E-02  0.24446912594E-01 -0.12972513400E+00  0.13341926278E+00  0.19320206754E-01 0.  0.
         14    1    1    2    0    0 -0.11168871578E-02 -0.56697230825E-02  0.23172065263E-01  0.23881746278E-01  0.00000000000E+00 0. -1.
     999901    1    3    3    0    0  0.21973335648E-02 -0.18777189512E-01  0.10655306874E+00  0.88662899094E+00  0.88000000000E+00 0.  1.
        -11    1    4    4    0    0 -0.76814215024E-02  0.24920088938E-02 -0.39990496938E-01  0.40800922918E-01  0.51100000000E-03 0. -1.
         11    1    4    4    0    0  0.66009750954E-02  0.21954903701E-01 -0.89734637065E-01  0.92618339862E-01  0.51100000000E-03 0.  1.
</event>
<event>
 8    1  0.1010879E+005  0.1043930E+01  0.7957747E-01            NaN
         13   -1    0    0    0    0  0.00000000000E+00  0.00000000000E+00  0.74505805969E-08  0.10566000000E+00  0.10566000000E+00 0. -1.
     999900   -1    0    0    0    0 -0.00000000000E+00 -0.00000000000E+00 -0.74505805969E-08  0.93827000000E+00  0.93827000000E+00 0.  1.
     999902    2    1    2    0    0  0.22190088727E-01  0.14897324456E-02 -0.70380883176E-02  0.10206028907E+01  0.10203362713E+01 0.  0.
     999903    2    3    3    0    0 -0.50832045696E-01 -0.61764341928E-01  0.99282800077E-01  0.12895416989E+00  0.19322855307E-01 0.  0.
         14    1    1    2    0    0 -0.22190088727E-01 -0.14897324456E-02  0.70380883176E-02  0.23327109286E-01  0.00000000000E+00 0.  1.
     999901    1    3    3    0    0  0.73022134423E-01  0.63254074374E-01 -0.10632088839E+00  0.89164872083E+00  0.88000000000E+00 0.  1.
        -11    1    4    4    0    0 -0.24360073391E-01 -0.16273826951E-01  0.41385375378E-01  0.50707603330E-01  0.51100000000E-03 0. -1.
         11    1    4    4    0    0 -0.26471972305E-01 -0.45490514977E-01  0.57897424698E-01  0.78246566559E-01  0.51100000000E-03 0.  1.
</event>
<event>
 7    1  0.1692615E+005  0.1043930E+01  0.7957747E-01            NaN
         13   -1    0    0    0    0  0.00000000000E+00  0.00000000000E+00  0.74505805969E-08  0.10566000000E+00  0.10566000000E+00 0. -1.
     999900   -1    0    0    0    0 -0.00000000000E+00 -0.00000000000E+00 -0.74505805969E-08  0.93827000000E+00  0.93827000000E+00 0.  1.
     999903    2    1    2    0    0 -0.70372410572E-01  0.29345775971E-01 -0.35962147865E-01  0.86590377294E-01  0.19777932748E-01 0.  0.
         14    1    1    2    0    0  0.51070232889E-01 -0.56123536237E-01  0.76422453146E-02  0.76265483153E-01  0.00000000000E+00 0.  1.
     999901    1    1    2    0    0  0.19302177683E-01  0.26777760265E-01  0.28319902550E-01  0.88107413955E+00  0.88000000000E+00 0. -1.
        -11    1    3    3    0    0 -0.37015204159E-01  0.54947475333E-02 -0.21149967965E-01  0.42987205717E-01  0.51100000000E-03 0. -1.
         11    1    3    3    0    0 -0.33357206413E-01  0.23851028438E-01 -0.14812179899E-01  0.43603171577E-01  0.51100000000E-03 0.  1.
</event>
<event>
 8    1  0.1010879E+005  0.1043930E+01  0.7957747E-01            NaN
         13   -1    0    0    0    0  0.00000000000E+00  0.00000000000E+00  0.74505805969E-08  0.10566000000E+00  0.10566000000E+00 0. -1.
     999900   -1    0    0    0    0 -0.00000000000E+00 -0.00000000000E+00 -0.74505805969E-08  0.93827000000E+00  0.93827000000E+00 0. -1.
     999902    2    1    2    0    0  0.75588646203E-02  0.23157695919E-01 -0.15497955444E-02  0.10195206333E+01  0.10192283869E+01 0.  0.
     999903    2    3    3    0    0  0.11636282630E+00  0.47531742096E-01 -0.34589684515E-01  0.13186978392E+00  0.19839853479E-01 0.  0.
         14    1    1    2    0    0 -0.75588646203E-02 -0.23157695919E-01  0.15497955444E-02  0.24409366662E-01  0.00000000000E+00 0. -1.
     999901    1    3    3    0    0 -0.10880396168E+00 -0.24374046177E-01  0.33039888971E-01  0.88765084942E+00  0.88000000000E+00 0.  1.
        -11    1    4    4    0    0  0.48712210775E-01  0.27430773885E-01 -0.81195182862E-02  0.56493491065E-01  0.51100000000E-03 0. -1.
         11    1    4    4    0    0  0.67650615524E-01  0.20100968211E-01 -0.26470166229E-01  0.75376292858E-01  0.51100000000E-03 0.  1.
</event>
<event>
 8    1  0.1010879E+005  0.1043930E+01  0.7957747E-01            NaN
         13   -1    0    0    0    0  0.00000000000E+00  0.00000000000E+00  0.74505805969E-08  0.10566000000E+00  0.10566000000E+00 0.  1.
     999900   -1    0    0    0    0 -0.00000000000E+00 -0.00000000000E+00 -0.74505805969E-08  0.93827000000E+00  0.93827000000E+00 0.  1.
     999902    2    1    2    0    0  0.22024036753E-01 -0.39279044480E-02  0.10912598262E-01  0.10190388082E+01  0.10187347649E+01 0.  0.
     999903    2    3    3    0    0 -0.47762774532E-01 -0.76655698896E-01  0.91046376877E-01  0.12966770816E+00  0.19154451001E-01 0.  0.
         14    1    1    2    0    0 -0.22024036753E-01  0.39279044480E-02 -0.10912598262E-01  0.24891191797E-01  0.00000000000E+00 0. -1.
     999901    1    3    3    0    0  0.69786811285E-01  0.72727794448E-01 -0.80133778615E-01  0.88937110004E+00  0.88000000000E+00 0.  1.
        -11    1    4    4    0    0 -0.26240670726E-01 -0.24514351984E-01  0.35885891286E-01  0.50769917941E-01  0.51100000000E-03 0.  1.
         11    1    4    4    0    0 -0.21522103807E-01 -0.52141346912E-01  0.55160485591E-01  0.78897790220E-01  0.51100000000E-03 0. -1.
</event>
<event>
 8    1  0.1010879E+005  0.1043930E+01  0.7957747E-01            NaN
         13   -1    0    0    0    0  0.00000000000E+00  0.00000000000E+00  0.74505805969E-08  0.10566000000E+00  0.10566000000E+00 0.  1.
     999900   -1    0    0    0    0 -0.00000000000E+00 -0.00000000000E+00 -0.74505805969E-08  0.93827000000E+00  0.93827000000E+00 0.  1.
     999902    2    1    2    0    0 -0.97968792443E-02 -0.34634016905E-02 -0.20003226505E-01  0.10213888584E+01  0.10211400967E+01 0.  0.
     999903    2    3    3    0    0 -0.11579379546E+00 -0.11294094057E-01  0.58438475048E-01  0.13152945010E+00  0.18686392100E-01 0.  0.
         14    1    1    2    0    0  0.97968792443E-02  0.34634016905E-02  0.20003226505E-01  0.22541141604E-01  0.00000000000E+00 0.  1.
     999901    1    3    3    0    0  0.10599691622E+00  0.78306923663E-02 -0.78441701553E-01  0.88985940830E+00  0.88000000000E+00 0.  1.
        -11    1    4    4    0    0 -0.54156204427E-01 -0.10959423790E-01  0.35915440331E-01  0.65902833193E-01  0.51100000000E-03 0. -1.
         11    1    4    4    0    0 -0.61637591035E-01 -0.33467026648E-03  0.22523034717E-01  0.65626616907E-01  0.51100000000E-03 0.  1.
</event>
<event>
 8    1  0.1010879E+005  0.1043930E+01  0.7957747E-01            NaN
         13   -1    0    0    0    0  0.00000000000E+00  0.00000000000E+00  0.74505805969E-08  0.10566000000E+00  0.10566000000E+00 0.  1.
     999900   -1    0    0    0    0 -0.00000000000E+00 -0.00000000000E+00 -0.74505805969E-08  0.93827000000E+00  0.93827000000E+00 0. -1.
     999902    2    1    2    0    0 -0.35233894816E-01  0.70830511674E-02 -0.31876009532E-02  0.10078501198E+01  0.10072041035E+01 0.  0.
     999903    2    3    3    0    0 -0.11664342999E-01  0.10230998136E+00  0.58436850851E-01  0.12025715840E+00  0.21060138295E-01 0.  0.
         14    1    1    2    0    0  0.35233894816E-01 -0.70830511674E-02  0.31876009532E-02  0.36079880232E-01  0.00000000000E+00 0.  1.
     999901    1    3    3    0    0 -0.23569551817E-01 -0.95226930197E-01 -0.61624451805E-01  0.88759296137E+00  0.88000000000E+00 0.  1.
        -11    1    4    4    0    0 -0.64389193706E-02  0.72148068765E-01  0.51465226028E-01  0.88857943484E-01  0.51100000000E-03 0. -1.
         11    1    4    4    0    0 -0.52254236280E-02  0.30161912599E-01  0.69716248238E-02  0.31399214917E-01  0.51100000000E-03 0.  1.
</event>
<event>
 8    1  0.1010879E+005  0.1043930E+01  0.7957747E-01            NaN
         13   -1    0    0    0    0  0.00000000000E+00  0.00000000000E+00  0.74505805969E-08  0.10566000000E+00  0.10566000000E+00 0. -1.
     999900   -1    0    0    0    0 -0.00000000000E+00 -0.00000000000E+00 -0.74505805969E-08  0.93827000000E+00  0.93827000000E+00 0. -1.
     999902    2    1    2    0    0 -0.28474367483E-02 -0.23529322088E-01  0.73584635024E-02  0.10191129921E+01  0.10188107807E+01 0.  0.
     999903    2    3    3    0    0  0.65751262916E-01  0.54723073673E-01  0.94109225783E-01  0.12874513906E+00  0.20023013956E-01 0.  0.
         14    1    1    2    0    0  0.28474367483E-02  0.23529322088E-01 -0.73584635024E-02  0.24817007859E-01  0.00000000000E+00 0. -1.
     999901    1    3    3    0    0 -0.68598699664E-01 -0.78252395760E-01 -0.86750762281E-01  0.89036785308E+00  0.88000000000E+00 0. -1.
        -11    1    4    4    0    0  0.47349208414E-01  0.30140782680E-01  0.51175581842E-01  0.75957985859E-01  0.51100000000E-03 0. -1.
         11    1    4    4    0    0  0.18402054502E-01  0.24582290993E-01  0.42933643941E-01  0.52787153205E-01  0.51100000000E-03 0.  1.
</event>
<event>
 8    1  0.1010879E+005  0.1043930E+01  0.7957747E-01            NaN
         13   -1    0    0    0    0  0.00000000000E+00  0.00000000000E+00  0.74505805969E-08  0.10566000000E+00  0.10566000000E+00 0. -1.
     999900   -1    0    0    0    0 -0.00000000000E+00 -0.00000000000E+00 -0.74505805969E-08  0.93827000000E+00  0.93827000000E+00 0. -1.
     999902    2    1    2    0    0  0.91395968947E-02 -0.19818071973E-01  0.80350381075E-02  0.10206738170E+01  0.10204088351E+01 0.  0.
     999903    2    3    3    0    0  0.12899825421E-01 -0.80749811881E-01 -0.10142183659E+00  0.13179383434E+00  0.19906989158E-01 0.  0.
         14    1    1    2    0    0 -0.91395968947E-02  0.19818071973E-01 -0.80350381075E-02  0.23256182952E-01  0.00000000000E+00 0.  1.
     999901    1    3    3    0    0 -0.37602285261E-02  0.60931739908E-01  0.10945687470E+00  0.88887998271E+00  0.88000000000E+00 0.  1.
        -11    1    4    4    0    0  0.11162302498E-01 -0.36549512063E-01 -0.33994833165E-01  0.51150499822E-01  0.51100000000E-03 0.  1.
         11    1    4    4    0    0  0.17375229227E-02 -0.44200299818E-01 -0.67427003424E-01  0.80643334515E-01  0.51100000000E-03 0. -1.
</event>
<event>
 8    1  0.1010879E+005  0.1043930E+01  0.7957747E-01            NaN
         13   -1    0    0    0    0  0.00000000000E+00  0.00000000000E+00  0.74505805969E-08  0.10566000000E+00  0.10566000000E+00 0.  1.
     999900   -1    0    0    0    0 -0.00000000000E+00 -0.00000000000E+00 -0.74505805969E-08  0.93827000000E+00  0.93827000000E+00 0.  1.
     999902    2    1    2    0    0 -0.15832890689E-01 -0.10992910517E-01  0.13281400081E-01  0.10205223069E+01  0.10202538207E+01 0.  0.
     999903    2    3    3    0    0  0.75077252250E-03 -0.94477206899E-01  0.91138272115E-01  0.13299408865E+00  0.21324556007E-01 0.  0.
         14    1    1    2    0    0  0.15832890689E-01  0.10992910517E-01 -0.13281400081E-01  0.23407693122E-01  0.00000000000E+00 0. -1.
     999901    1    3    3    0    0 -0.16583663211E-01  0.83484296382E-01 -0.77856872034E-01  0.88752821823E+00  0.88000000000E+00 0.  1.
        -11    1    4    4    0    0 -0.93865126825E-02 -0.62494409761E-01  0.62440989853E-01  0.88841410426E-01  0.51100000000E-03 0. -1.
         11    1    4    4    0    0  0.10137285205E-01 -0.31982797138E-01  0.28697282263E-01  0.44152678224E-01  0.51100000000E-03 0.  1.
</event>
<event>
 8    1  0.1010879E+005  0.1043930E+01  0.7957747E-01            NaN
         13   -1    0    0    0    0  0.00000000000E+00  0.00000000000E+00  0.74505805969E-08  0.10566000000E+00  0.10566000000E+00 0. -1.
     999900   -1    0    0    0    0 -0.00000000000E+00 -0.00000000000E+00 -0.74505805969E-08  0.93827000000E+00  0.93827000000E+00 0.  1.
     999902    2    1    2    0    0  0.17801824274E-01 -0.10590442860E-01 -0.11128194754E-01  0.10204161924E+01  0.10201452380E+01 0.  0.
     999903    2    3    3    0    0 -0.45461074970E-01  0.96891363686E-01 -0.70389717016E-01  0.12964884842E+00  0.19986644036E-01 0.  0.
         14    1    1    2    0    0 -0.17801824274E-01  0.10590442860E-01  0.11128194754E-01  0.23513807559E-01  0.00000000000E+00 0. -1.
     999901    1    3    3    0    0  0.63262899244E-01 -0.10748180655E+00  0.59261522262E-01  0.89076734402E+00  0.88000000000E+00 0. -1.
        -11    1    4    4    0    0 -0.16213669528E-01  0.15709406197E-01 -0.15034744627E-01  0.27128825807E-01  0.51100000000E-03 0.  1.
         11    1    4    4    0    0 -0.29247405442E-01  0.81181957489E-01 -0.55354972388E-01  0.10252002261E+00  0.51100000000E-03 0. -1.
</event>
<event>
 8    1  0.1010879E+005  0.1043930E+01  0.7957747E-01            NaN
         13   -1    0    0    0    0  0.00000000000E+00  0.00000000000E+00  0.74505805969E-08  0.10566000000E+00  0.10566000000E+00 0. -1.
     999900   -1    0    0    0    0 -0.00000000000E+00 -0.00000000000E+00 -0.74505805969E-08  0.93827000000E+00  0.93827000000E+00 0.  1.
     999902    2    1    2    0    0 -0.80293107605E-03 -0.71807837892E-02 -0.22950923922E-01  0.10198685523E+01  0.10195846756E+01 0.  0.
     999903    2    3    3    0    0 -0.65536860710E-01 -0.11040476946E+00  0.14287541575E-01  0.13069344239E+00  0.19807796650E-01 0.  0.
         14    1    1    2    0    0  0.80293107605E-03  0.71807837892E-02  0.22950923922E-01  0.24061447650E-01  0.00000000000E+00 0. -1.
     999901    1    3    3    0    0  0.64733929634E-01  0.10322398567E+00 -0.37238465497E-01  0.88917510996E+00  0.88000000000E+00 0. -1.
        -11    1    4    4    0    0 -0.39852113012E-01 -0.49345801701E-01  0.10926849827E-01  0.64365023306E-01  0.51100000000E-03 0.  1.
         11    1    4    4    0    0 -0.25684747698E-01 -0.61058967757E-01  0.33606917479E-02  0.66328419082E-01  0.51100000000E-03 0. -1.
</event>
<event>
 8    1  0.1010879E+005  0.1043930E+01  0.7957747E-01            NaN
         13   -1    0    0    0    0  0.00000000000E+00  0.00000000000E+00  0.74505805969E-08  0.10566000000E+00  0.10566000000E+00 0. -1.
     999900   -1    0    0    0    0 -0.00000000000E+00 -0.00000000000E+00 -0.74505805969E-08  0.93827000000E+00  0.93827000000E+00 0. -1.
     999902    2    1    2    0    0  0.22944458334E-01  0.30966463394E-02  0.42463272896E-02  0.10203913364E+01  0.10201198022E+01 0.  0.
     999903    2    3    3    0    0 -0.85830901741E-01 -0.26554115229E-01  0.90025832034E-01  0.12906122360E+00  0.21910825503E-01 0.  0.
         14    1    1    2    0    0 -0.22944458334E-01 -0.30966463394E-02 -0.42463272896E-02  0.23538663561E-01  0.00000000000E+00 0. -1.
     999901    1    3    3    0    0  0.10877536007E+00  0.29650761568E-01 -0.85779504745E-01  0.89133011284E+00  0.88000000000E+00 0. -1.
        -11    1    4    4    0    0 -0.37572844745E-01 -0.19242233739E-02  0.29384632381E-01  0.47740329272E-01  0.51100000000E-03 0.  1.
         11    1    4    4    0    0 -0.48258056996E-01 -0.24629891855E-01  0.60641199654E-01  0.81320894327E-01  0.51100000000E-03 0. -1.
</event>
<event>
 7    1  0.1010879E+005  0.1043930E+01  0.7957747E-01            NaN
         13   -1    0    0    0    0  0.00000000000E+00  0.00000000000E+00  0.74505805969E-08  0.10566000000E+00  0.10566000000E+00 0. -1.
     999900   -1    0    0    0    0 -0.00000000000E+00 -0.00000000000E+00 -0.74505805969E-08  0.93827000000E+00  0.93827000000E+00 0. -1.
     999903    2    1    2    0    0 -0.27510050391E-01  0.81125984117E-01  0.47070719828E-01  0.99031652175E-01  0.15918143607E-01 0.  0.
         14    1    1    2    0    0  0.88192680917E-02  0.19310112669E-01 -0.54997884412E-01  0.58952754226E-01  0.00000000000E+00 0.  1.
     999901    1    1    2    0    0  0.18690782299E-01 -0.10043609679E+00  0.79271645844E-02  0.88594559360E+00  0.88000000000E+00 0.  1.
        -11    1    3    3    0    0 -0.88596961018E-02  0.20748230900E-01  0.49996914777E-02  0.23113661250E-01  0.51100000000E-03 0. -1.
         11    1    3    3    0    0 -0.18650354289E-01  0.60377753217E-01  0.42071028350E-01  0.75917990925E-01  0.51100000000E-03 0.  1.
</event>
<event>
 8    1  0.1010879E+005  0.1043930E+01  0.7957747E-01            NaN
         13   -1    0    0    0    0  0.00000000000E+00  0.00000000000E+00  0.74505805969E-08  0.10566000000E+00  0.10566000000E+00 0. -1.
     999900   -1    0    0    0    0 -0.00000000000E+00 -0.00000000000E+00 -0.74505805969E-08  0.93827000000E+00  0.93827000000E+00 0.  1.
     999902    2    1    2    0    0 -0.20496267071E-01  0.60986269102E-02  0.97984234416E-02  0.10204076847E+01  0.10201365319E+01 0.  0.
     999903    2    3    3    0    0 -0.42791296315E-01  0.23739499431E-01  0.12201225771E+00  0.13282658234E+00  0.19006605930E-01 0.  0.
         14    1    1    2    0    0  0.20496267071E-01 -0.60986269102E-02 -0.97984234416E-02  0.23522315276E-01  0.00000000000E+00 0.  1.
     999901    1    3    3    0    0  0.22295029244E-01 -0.17640872521E-01 -0.11221383427E+00  0.88758110239E+00  0.88000000000E+00 0.  1.
        -11    1    4    4    0    0 -0.29082406937E-01  0.55300880584E-02  0.72764347852E-01  0.78557493000E-01  0.51100000000E-03 0.  1.
         11    1    4    4    0    0 -0.13708889378E-01  0.18209411372E-01  0.49247909863E-01  0.54269089337E-01  0.51100000000E-03 0. -1.
</event>
<event>
 8    1  0.1010879E+005  0.1043930E+01  0.7957747E-01            NaN
         13   -1    0    0    0    0  0.00000000000E+00  0.00000000000E+00  0.74505805969E-08  0.10566000000E+00  0.10566000000E+00 0.  1.
     999900   -1    0    0    0    0 -0.00000000000E+00 -0.00000000000E+00 -0.74505805969E-08  0.93827000000E+00  0.93827000000E+00 0. -1.
     999902    2    1    2    0    0  0.79860118624E-02 -0.23216908292E-01 -0.15720506945E-04  0.10193779845E+01  0.10190822704E+01 0.  0.
     999903    2    3    3    0    0 -0.11267000810E+00 -0.61518912657E-01 -0.83052318301E-02  0.13028089496E+00  0.20616192099E-01 0.  0.
         14    1    1    2    0    0 -0.79860118624E-02  0.23216908292E-01  0.15720506945E-04  0.24552015462E-01  0.00000000000E+00 0.  1.
     999901    1    3    3    0    0  0.12065601996E+00  0.38302004365E-01  0.82895113231E-02  0.88909708957E+00  0.88000000000E+00 0.  1.
        -11    1    4    4    0    0 -0.93002724469E-01 -0.58775885383E-01 -0.49163118354E-02  0.11012966314E+00  0.51100000000E-03 0.  1.
         11    1    4    4    0    0 -0.19667283632E-01 -0.27430272740E-02 -0.33889199947E-02  0.20151231819E-01  0.51100000000E-03 0. -1.
</event>
<event>
 7    1  0.1907812E+005  0.1043930E+01  0.7957747E-01            NaN
         13   -1    0    0    0    0  0.00000000000E+00  0.00000000000E+00  0.74505805969E-08  0.10566000000E+00  0.10566000000E+00 0.  1.
     999900   -1    0    0    0    0 -0.00000000000E+00 -0.00000000000E+00 -0.74505805969E-08  0.93827000000E+00  0.93827000000E+00 0.  1.
     999903    2    1    2    0    0 -0.23721697477E-01  0.91781270409E-01  0.37758480171E-01  0.10406149967E+00  0.20410104341E-01 0.  0.
         14    1    1    2    0    0 -0.67841378723E-02 -0.54084007907E-01 -0.20884526433E-01  0.58371807256E-01  0.00000000000E+00 0. -1.
     999901    1    1    2    0    0  0.30505835349E-01 -0.37697262501E-01 -0.16873953738E-01  0.88149669308E+00  0.88000000000E+00 0.  1.
        -11    1    3    3    0    0 -0.10457187047E-01  0.47205267001E-01  0.30014663118E-01  0.56910729363E-01  0.51100000000E-03 0. -1.
         11    1    3    3    0    0 -0.13264510430E-01  0.44576003408E-01  0.77438170534E-02  0.47150770304E-01  0.51100000000E-03 0.  1.
</event>
<event>
 8    1  0.1010879E+005  0.1043930E+01  0.7957747E-01            NaN
         13   -1    0    0    0    0  0.00000000000E+00  0.00000000000E+00  0.74505805969E-08  0.10566000000E+00  0.10566000000E+00 0.  1.
     999900   -1    0    0    0    0 -0.00000000000E+00 -0.00000000000E+00 -0.74505805969E-08  0.93827000000E+00  0.93827000000E+00 0. -1.
     999902    2    1    2    0    0  0.14929708680E-01 -0.16563420330E-01  0.92253699185E-02  0.10197980597E+01  0.10195124972E+01 0.  0.
     999903    2    3    3    0    0 -0.47749871675E-01 -0.55013727734E-01  0.10740933575E+00  0.13128962015E+00  0.19840324356E-01 0.  0.
         14    1    1    2    0    0 -0.14929708680E-01  0.16563420330E-01 -0.92253699185E-02  0.24131940337E-01  0.00000000000E+00 0. -1.
     999901    1    3    3    0    0  0.62679580355E-01  0.38450307404E-01 -0.98183965827E-01  0.88850843951E+00  0.88000000000E+00 0. -1.
        -11    1    4    4    0    0 -0.27834362727E-01 -0.22459866608E-01  0.65321591456E-01  0.74473947041E-01  0.51100000000E-03 0.  1.
         11    1    4    4    0    0 -0.19915508948E-01 -0.32553861126E-01  0.42087744290E-01  0.56815673113E-01  0.51100000000E-03 0. -1.
</event>
<event>
 8    1  0.1010879E+005  0.1043930E+01  0.7957747E-01            NaN
         13   -1    0    0    0    0  0.00000000000E+00  0.00000000000E+00  0.74505805969E-08  0.10566000000E+00  0.10566000000E+00 0. -1.
     999900   -1    0    0    0    0 -0.00000000000E+00 -0.00000000000E+00 -0.74505805969E-08  0.93827000000E+00  0.93827000000E+00 0.  1.
     999902    2    1    2    0    0 -0.23590526161E-01  0.50009199172E-03  0.36258778512E-02  0.10200572120E+01  0.10197778218E+01 0.  0.
     999903    2    3    3    0    0  0.93350020654E-01  0.49719351404E-01  0.69440386960E-01  0.12852528515E+00  0.22595161477E-01 0.  0.
         14    1    1    2    0    0  0.23590526161E-01 -0.50009199172E-03 -0.36258778512E-02  0.23872787996E-01  0.00000000000E+00 0.  1.
     999901    1    3    3    0    0 -0.11694054681E+00 -0.49219259412E-01 -0.65814509109E-01  0.89153192685E+00  0.88000000000E+00 0.  1.
        -11    1    4    4    0    0  0.22826060476E-01  0.18372378074E-02  0.15010944235E-01  0.27386019196E-01  0.51100000000E-03 0.  1.
         11    1    4    4    0    0  0.70523960178E-01  0.47882113596E-01  0.54429442726E-01  0.10113926596E+00  0.51100000000E-03 0. -1.
</event>
<event>
 8    1  0.1010879E+005  0.1043930E+01  0.7957747E-01            NaN
         13   -1    0    0    0    0  0.00000000000E+00  0.00000000000E+00  0.74505805969E-08  0.10566000000E+00  0.10566000000E+00 0.  1.
     999900   -1    0    0    0    0 -0.00000000000E+00 -0.00000000000E+00 -0.74505805969E-08  0.93827000000E+00  0.93827000000E+00 0.  1.
     999902    2    1    2    0    0 -0.11287856488E-01 -0.81879383049E-02 -0.19661424704E-01  0.10198254432E+01  0.10195405362E+01 0.  0.
     999903    2    3    3    0    0 -0.53451363775E-01  0.11388852093E+00 -0.29204571674E-01  0.13034722822E+00  0.17602539815E-01 0.  0.
         14    1    1    2    0    0  0.11287856488E-01  0.81879383049E-02  0.19661424704E-01  0.24104556813E-01  0.00000000000E+00 0.  1.
     999901    1    3    3    0    0  0.42163507288E-01 -0.12207645924E+00  0.95431469693E-02  0.88947821497E+00  0.88000000000E+00 0. -1.
        -11    1    4    4    0    0 -0.17874973994E-01  0.32809739473E-01 -0.85136451098E-03  0.37376190845E-01  0.51100000000E-03 0. -1.
         11    1    4    4    0    0 -0.35576389782E-01  0.81078781461E-01 -0.28353207163E-01  0.92971037374E-01  0.51100000000E-03 0.  1.
</event>
<event>
 8    1  0.1010879E+005  0.1043930E+01  0.7957747E-01            NaN
         13   -1    0    0    0    0  0.00000000000E+00  0.00000000000E+00  0.74505805969E-08  0.10566000000E+00  0.10566000000E+00 0. -1.
     999900   -1    0    0    0    0 -0.00000000000E+00 -0.00000000000E+00 -0.74505805969E-08  0.93827000000E+00  0.93827000000E+00 0.  1.
     999902    2    1    2    0    0 -0.12477430048E-01 -0.81183029127E-02  0.18710916162E-01  0.10200199292E+01  0.10197396552E+01 0.  0.
     999903    2    3    3    0    0  0.11265177313E-01 -0.12781668906E+00  0.20994269026E-01  0.13159625281E+00  0.20317583487E-01 0.  0.
         14    1    1    2    0    0  0.12477430048E-01  0.81183029127E-02 -0.18710916162E-01  0.23910070815E-01  0.00000000000E+00 0.  1.
     999901    1    3    3    0    0 -0.23742607361E-01  0.11969838615E+00 -0.22833528646E-02  0.88842367638E+00  0.88000000000E+00 0. -1.
        -11    1    4    4    0    0  0.14852996018E-01 -0.10854237889E+00  0.12650446160E-01  0.11028306495E+00  0.51100000000E-03 0. -1.
         11    1    4    4    0    0 -0.35878187049E-02 -0.19274310167E-01  0.83438228658E-02  0.21313187854E-01  0.51100000000E-03 0.  1.
</event>
<event>
 8    1  0.1010879E+005  0.1043930E+01  0.7957747E-01            NaN
         13   -1    0    0    0    0  0.00000000000E+00  0.00000000000E+00  0.74505805969E-08  0.10566000000E+00  0.10566000000E+00 0. -1.
     999900   -1    0    0    0    0 -0.00000000000E+00 -0.00000000000E+00 -0.74505805969E-08  0.93827000000E+00  0.93827000000E+00 0.  1.
     999902    2    1    2    0    0  0.13221967570E-01 -0.77676967979E-02 -0.17827913533E-01  0.10204142172E+01  0.10201432167E+01 0.  0.
     999903    2    3    3    0    0 -0.25882924495E-02  0.11353921462E+00  0.57401983071E-01  0.12877254678E+00  0.19736479634E-01 0.  0.
         14    1    1    2    0    0 -0.13221967570E-01  0.77676967979E-02  0.17827913533E-01  0.23515782805E-01  0.00000000000E+00 0. -1.
     999901    1    3    3    0    0  0.15810260020E-01 -0.12130691142E+00 -0.75229896605E-01  0.89164167042E+00  0.88000000000E+00 0. -1.
        -11    1    4    4    0    0 -0.12412008819E-02  0.98817149139E-01  0.41889169568E-01  0.10733747338E+00  0.51100000000E-03 0. -1.
         11    1    4    4    0    0 -0.13470915676E-02  0.14722065483E-01  0.15512813503E-01  0.21435073397E-01  0.51100000000E-03 0.  1.
</event>
<event>
 8    1  0.1010879E+005  0.1043930E+01  0.7957747E-01            NaN
         13   -1    0    0    0    0  0.00000000000E+00  0.00000000000E+00  0.74505805969E-08  0.10566000000E+00  0.10566000000E+00 0. -1.
     999900   -1    0    0    0    0 -0.00000000000E+00 -0.00000000000E+00 -0.74505805969E-08  0.93827000000E+00  0.93827000000E+00 0. -1.
     999902    2    1    2    0    0 -0.11409749336E-01  0.18307036400E-01 -0.87254105452E-02  0.10206606478E+01  0.10203953622E+01 0.  0.
     999903    2    3    3    0    0 -0.57644934528E-01  0.67042449143E-01  0.95904644811E-01  0.13191980748E+00  0.19685178317E-01 0.  0.
         14    1    1    2    0    0  0.11409749336E-01 -0.18307036400E-01  0.87254105452E-02  0.23269352179E-01  0.00000000000E+00 0. -1.
     999901    1    3    3    0    0  0.46235185192E-01 -0.48735412744E-01 -0.10463005536E+00  0.88874084034E+00  0.88000000000E+00 0. -1.
        -11    1    4    4    0    0 -0.54331384982E-01  0.57259719014E-01  0.91028316960E-01  0.12048647403E+00  0.51100000000E-03 0. -1.
         11    1    4    4    0    0 -0.33135495466E-02  0.97827301298E-02  0.48763278516E-02  0.11433333447E-01  0.51100000000E-03 0.  1.
</event>
<event>
 8    1  0.1010879E+005  0.1043930E+01  0.7957747E-01            NaN
         13   -1    0    0    0    0  0.00000000000E+00  0.00000000000E+00  0.74505805969E-08  0.10566000000E+00  0.10566000000E+00 0. -1.
     999900   -1    0    0    0    0 -0.00000000000E+00 -0.00000000000E+00 -0.74505805969E-08  0.93827000000E+00  0.93827000000E+00 0.  1.
     999902    2    1    2    0    0 -0.69167233362E-02 -0.14934997033E-01  0.15047691579E-01  0.10216291431E+01  0.10213857145E+01 0.  0.
     999903    2    3    3    0    0 -0.58213485359E-01 -0.87073926190E-01  0.82191701897E-01  0.13464340417E+00  0.20067185275E-01 0.  0.
         14    1    1    2    0    0  0.69167233362E-02  0.14934997033E-01 -0.15047691579E-01  0.22300856933E-01  0.00000000000E+00 0.  1.
     999901    1    3    3    0    0  0.51296762022E-01  0.72138929157E-01 -0.67144010318E-01  0.88698573890E+00  0.88000000000E+00 0.  1.
        -11    1    4    4    0    0 -0.21075008365E-01 -0.31767104837E-01  0.18121939300E-01  0.42213395176E-01  0.51100000000E-03 0.  1.
         11    1    4    4    0    0 -0.37138476994E-01 -0.55306821353E-01  0.64069762596E-01  0.92430008989E-01  0.51100000000E-03 0. -1.
</event>
<event>
 8    1  0.1010879E+005  0.1043930E+01  0.7957747E-01            NaN
         13   -1    0    0    0    0  0.00000000000E+00  0.00000000000E+00  0.74505805969E-08  0.10566000000E+00  0.10566000000E+00 0. -1.
     999900   -1    0    0    0    0 -0.00000000000E+00 -0.00000000000E+00 -0.74505805969E-08  0.93827000000E+00  0.93827000000E+00 0. -1.
     999902    2    1    2    0    0  0.17372809293E-01  0.12451868653E-01  0.79152210607E-02  0.10211371445E+01  0.10208827326E+01 0.  0.
     999903    2    3    3    0    0  0.43482657061E-01  0.10320876355E+00 -0.68431756082E-01  0.13279745780E+00  0.20235345743E-01 0.  0.
         14    1    1    2    0    0 -0.17372809293E-01 -0.12451868653E-01 -0.79152210607E-02  0.22792855462E-01  0.00000000000E+00 0.  1.
     999901    1    3    3    0    0 -0.26109847768E-01 -0.90756894900E-01  0.76346977142E-01  0.88833968674E+00  0.88000000000E+00 0.  1.
        -11    1    4    4    0    0  0.36994702244E-01  0.65941213462E-01 -0.40526522846E-01  0.85787597017E-01  0.51100000000E-03 0. -1.
         11    1    4    4    0    0  0.64879548172E-02  0.37267550091E-01 -0.27905233236E-01  0.47009860779E-01  0.51100000000E-03 0.  1.
</event>
<event>
 8    1  0.1010879E+005  0.1043930E+01  0.7957747E-01            NaN
         13   -1    0    0    0    0  0.00000000000E+00  0.00000000000E+00  0.74505805969E-08  0.10566000000E+00  0.10566000000E+00 0. -1.
     999900   -1    0    0    0    0 -0.00000000000E+00 -0.00000000000E+00 -0.74505805969E-08  0.93827000000E+00  0.93827000000E+00 0. -1.
     999902    2    1    2    0    0 -0.10425741495E-01 -0.55708539332E-03 -0.22946780312E-01  0.10187196617E+01  0.10184076728E+01 0.  0.
     999903    2    3    3    0    0 -0.55474317500E-01  0.53253459307E-01 -0.10529300435E+00  0.13209355701E+00  0.21183961117E-01 0.  0.
         14    1    1    2    0    0  0.10425741495E-01  0.55708539332E-03  0.22946780312E-01  0.25210338287E-01  0.00000000000E+00 0. -1.
     999901    1    3    3    0    0  0.45048576005E-01 -0.53810544700E-01  0.82346224040E-01  0.88662610470E+00  0.88000000000E+00 0.  1.
        -11    1    4    4    0    0 -0.46282147572E-01  0.42834438082E-01 -0.70309930450E-01  0.94448788825E-01  0.51100000000E-03 0. -1.
         11    1    4    4    0    0 -0.91921699279E-02  0.10419021225E-01 -0.34983073902E-01  0.37644768188E-01  0.51100000000E-03 0.  1.
</event>
<event>
 7    1  0.1010879E+005  0.1043930E+01  0.7957747E-01            NaN
         13   -1    0    0    0    0  0.00000000000E+00  0.00000000000E+00  0.74505805969E-08  0.10566000000E+00  0.10566000000E+00 0.  1.
     999900   -1    0    0    0    0 -0.00000000000E+00 -0.00000000000E+00 -0.74505805969E-08  0.93827000000E+00  0.93827000000E+00 0. -1.
     999902    2    1    2    0    0  0.11995732904E-01 -0.11546624223E-01  0.14882591949E-01  0.10215981017E+01  0.10213539875E+01 0.  0.
         14    1    1    2    0    0 -0.11995732904E-01  0.11546624223E-01 -0.14882591949E-01  0.22331898306E-01  0.00000000000E+00 0. -1.
     999901    1    3    3    0    0  0.34649423836E-01 -0.13442211717E+00  0.13337074498E-01  0.89098134981E+00  0.88000000000E+00 0. -1.
        -11    1    3    3    0    0 -0.11122980161E-01  0.11478755825E+00  0.69182647396E-02  0.11553366490E+00  0.51100000000E-03 0.  1.
         11    1    3    3    0    0 -0.11530710771E-01  0.80879346903E-02 -0.53727472881E-02  0.15083086981E-01  0.51100000000E-03 0. -1.
</event>
<event>
 8    1  0.1010879E+005  0.1043930E+01  0.7957747E-01            NaN
         13   -1    0    0    0    0  0.00000000000E+00  0.00000000000E+00  0.74505805969E-08  0.10566000000E+00  0.10566000000E+00 0.  1.
     999900   -1    0    0    0    0 -0.00000000000E+00 -0.00000000000E+00 -0.74505805969E-08  0.93827000000E+00  0.93827000000E+00 0. -1.
     999902    2    1    2    0    0  0.14468245156E-01  0.80982933390E-03  0.18049909157E-01  0.10207829665E+01  0.10205204944E+01 0.  0.
     999903    2    3    3    0    0 -0.36950658454E-02 -0.57442467568E-01  0.11829985338E+00  0.13299172563E+00  0.19459012950E-01 0.  0.
         14    1    1    2    0    0 -0.14468245156E-01 -0.80982933390E-03 -0.18049909157E-01  0.23147033546E-01  0.00000000000E+00 0. -1.
     999901    1    3    3    0    0  0.18163311001E-01  0.58252296902E-01 -0.10024994422E+00  0.88779124082E+00  0.88000000000E+00 0. -1.
        -11    1    4    4    0    0 -0.64833851021E-02 -0.45178748674E-01  0.10592244962E+00  0.11533854546E+00  0.51100000000E-03 0. -1.
         11    1    4    4    0    0  0.27883192567E-02 -0.12263718894E-01  0.12377403761E-01  0.17653180174E-01  0.51100000000E-03 0.  1.
</event>
<event>
 8    1  0.1010879E+005  0.1043930E+01  0.7957747E-01            NaN
         13   -1    0    0    0    0  0.00000000000E+00  0.00000000000E+00  0.74505805969E-08  0.10566000000E+00  0.10566000000E+00 0. -1.
     999900   -1    0    0    0    0 -0.00000000000E+00 -0.00000000000E+00 -0.74505805969E-08  0.93827000000E+00  0.93827000000E+00 0.  1.
     999902    2    1    2    0    0  0.15041304320E-01  0.18017015741E-03  0.18219435260E-01  0.10203032965E+01  0.10200297034E+01 0.  0.
     999903    2    3    3    0    0  0.91652504959E-01  0.92693987747E-01 -0.15773773497E-02  0.13192274950E+00  0.20217979273E-01 0.  0.
         14    1    1    2    0    0 -0.15041304320E-01 -0.18017015741E-03 -0.18219435260E-01  0.23626703497E-01  0.00000000000E+00 0.  1.
     999901    1    3    3    0    0 -0.76611200639E-01 -0.92513817590E-01  0.19796812610E-01  0.88838054701E+00  0.88000000000E+00 0.  1.
        -11    1    4    4    0    0  0.62647274474E-01  0.70474574315E-01 -0.86926884068E-02  0.94695145475E-01  0.51100000000E-03 0.  1.
         11    1    4    4    0    0  0.29005230485E-01  0.22219413432E-01  0.71153110571E-02  0.37227604022E-01  0.51100000000E-03 0. -1.
</event>
<event>
 8    1  0.1010879E+005  0.1043930E+01  0.7957747E-01            NaN
         13   -1    0    0    0    0  0.00000000000E+00  0.00000000000E+00  0.74505805969E-08  0.10566000000E+00  0.10566000000E+00 0. -1.
     999900   -1    0    0    0    0 -0.00000000000E+00 -0.00000000000E+00 -0.74505805969E-08  0.93827000000E+00  0.93827000000E+00 0. -1.
     999902    2    1    2    0    0  0.80813782716E-02  0.20483291270E-03 -0.23524040551E-01  0.10190556937E+01  0.10187520678E+01 0.  0.
     999903    2    3    3    0    0 -0.12466969519E+00  0.14948540574E-01  0.15250711253E-01  0.12813274201E+00  0.20479834417E-01 0.  0.
         14    1    1    2    0    0 -0.80813782716E-02 -0.20483291270E-03  0.23524040551E-01  0.24874306324E-01  0.00000000000E+00 0. -1.
     999901    1    3    3    0    0  0.13275107346E+00 -0.14743707661E-01 -0.38774751803E-01  0.89092295166E+00  0.88000000000E+00 0. -1.
        -11    1    4    4    0    0 -0.86311967266E-01  0.24095135237E-02  0.15747059890E-01  0.87771250788E-01  0.51100000000E-03 0. -1.
         11    1    4    4    0    0 -0.38357727926E-01  0.12539027050E-01 -0.49634863695E-03  0.40361491225E-01  0.51100000000E-03 0.  1.
</event>
<event>
 8    1  0.1010879E+005  0.1043930E+01  0.7957747E-01            NaN
         13   -1    0    0    0    0  0.00000000000E+00  0.00000000000E+00  0.74505805969E-08  0.10566000000E+00  0.10566000000E+00 0.  1.
     999900   -1    0    0    0    0 -0.00000000000E+00 -0.00000000000E+00 -0.74505805969E-08  0.93827000000E+00  0.93827000000E+00 0.  1.
     999902    2    1    2    0    0  0.13595823321E-01 -0.19353979093E-01  0.11159825921E-01  0.10177772825E+01  0.10174412180E+01 0.  0.
     999903    2    3    3    0    0 -0.82604880343E-01 -0.47870072601E-01 -0.81566240750E-01  0.12723482622E+00  0.20507054077E-01 0.  0.
         14    1    1    2    0    0 -0.13595823321E-01  0.19353979093E-01 -0.11159825921E-01  0.26152717509E-01  0.00000000000E+00 0. -1.
     999901    1    3    3    0    0  0.96200703663E-01  0.28516093508E-01  0.92726066671E-01  0.89054245627E+00  0.88000000000E+00 0. -1.
        -11    1    4    4    0    0 -0.65895862321E-01 -0.39738113236E-01 -0.54089219749E-01  0.94060018757E-01  0.51100000000E-03 0.  1.
         11    1    4    4    0    0 -0.16709018022E-01 -0.81319593652E-02 -0.27477021001E-01  0.33174807467E-01  0.51100000000E-03 0. -1.
</event>
<event>
 8    1  0.1010879E+005  0.1043930E+01  0.7957747E-01            NaN
         13   -1    0    0    0    0  0.00000000000E+00  0.00000000000E+00  0.74505805969E-08  0.10566000000E+00  0.10566000000E+00 0. -1.
     999900   -1    0    0    0    0 -0.00000000000E+00 -0.00000000000E+00 -0.74505805969E-08  0.93827000000E+00  0.93827000000E+00 0. -1.
     999902    2    1    2    0    0  0.40714088384E-02 -0.95615484978E-02 -0.20392984225E-01  0.10210417195E+01  0.10207851486E+01 0.  0.
     999903    2    3    3    0    0  0.95430338146E-01  0.75952011379E-01 -0.46003736637E-01  0.13182018717E+00  0.19610213897E-01 0.  0.
         14    1    1    2    0    0 -0.40714088384E-02  0.95615484978E-02  0.20392984225E-01  0.22888280521E-01  0.00000000000E+00 0. -1.
     999901    1    3    3    0    0 -0.91358929308E-01 -0.85513559877E-01  0.25610752411E-01  0.88922153231E+00  0.88000000000E+00 0. -1.
        -11    1    4    4    0    0  0.49465019559E-02  0.59944109188E-02  0.15706253039E-02  0.79453652344E-02  0.51100000000E-03 0. -1.
         11    1    4    4    0    0  0.90483836191E-01  0.69957600460E-01 -0.47574361940E-01  0.12387482193E+00  0.51100000000E-03 0.  1.
</event>
<event>
 8    1  0.1010879E+005  0.1043930E+01  0.7957747E-01            NaN
         13   -1    0    0    0    0  0.00000000000E+00  0.00000000000E+00  0.74505805969E-08  0.10566000000E+00  0.10566000000E+00 0. -1.
     999900   -1    0    0    0    0 -0.00000000000E+00 -0.00000000000E+00 -0.74505805969E-08  0.93827000000E+00  0.93827000000E+00 0.  1.
     999902    2    1    2    0    0 -0.51978204643E-02  0.22388514140E-01 -0.17905184689E-02  0.10208763916E+01  0.10206160581E+01 0.  0.
     999903    2    3    3    0    0  0.87832206530E-01 -0.10333336239E-01  0.93201278074E-01  0.13028740290E+00  0.21611450171E-01 0.  0.
         14    1    1    2    0    0  0.51978204643E-02 -0.22388514140E-01  0.17905184689E-02  0.23053608381E-01  0.00000000000E+00 0.  1.
     999901    1    3    3    0    0 -0.93030026995E-01  0.32721850379E-01 -0.94991796543E-01  0.89058898872E+00  0.88000000000E+00 0.  1.
        -11    1    4    4    0    0  0.39543176100E-01  0.69451179725E-03  0.54939860744E-01  0.67696340687E-01  0.51100000000E-03 0.  1.
         11    1    4    4    0    0  0.48289030430E-01 -0.11027848037E-01  0.38261417329E-01  0.62591062215E-01  0.51100000000E-03 0. -1.
</event>
<event>
 8    1  0.1010879E+005  0.1043930E+01  0.7957747E-01            NaN
         13   -1    0    0    0    0  0.00000000000E+00  0.00000000000E+00  0.74505805969E-08  0.10566000000E+00  0.10566000000E+00 0. -1.
     999900   -1    0    0    0    0 -0.00000000000E+00 -0.00000000000E+00 -0.74505805969E-08  0.93827000000E+00  0.93827000000E+00 0. -1.
     999902    2    1    2    0    0 -0.54957217056E-02  0.19170644691E-01  0.13249386033E-01  0.10199870928E+01  0.10197060393E+01 0.  0.
     999903    2    3    3    0    0 -0.73296832747E-01  0.10469210708E+00  0.31903464919E-01  0.13304916608E+00  0.18745307324E-01 0.  0.
         14    1    1    2    0    0  0.54957217056E-02 -0.19170644691E-01 -0.13249386033E-01  0.23942907200E-01  0.00000000000E+00 0. -1.
     999901    1    3    3    0    0  0.67801111041E-01 -0.85521462388E-01 -0.18654078886E-01  0.88693792672E+00  0.88000000000E+00 0.  1.
        -11    1    4    4    0    0 -0.56704671802E-01  0.83910610607E-01  0.17415674802E-01  0.10276174982E+00  0.51100000000E-03 0. -1.
         11    1    4    4    0    0 -0.16592160945E-01  0.20781496473E-01  0.14487790116E-01  0.30287416263E-01  0.51100000000E-03 0.  1.
</event>
<event>
 8    1  0.1010879E+005  0.1043930E+01  0.7957747E-01            NaN
         13   -1    0    0    0    0  0.00000000000E+00  0.00000000000E+00  0.74505805969E-08  0.10566000000E+00  0.10566000000E+00 0. -1.
     999900   -1    0    0    0    0 -0.00000000000E+00 -0.00000000000E+00 -0.74505805969E-08  0.93827000000E+00  0.93827000000E+00 0. -1.
     999902    2    1    2    0    0  0.10483937265E-01  0.20529003614E-01  0.31247773727E-02  0.10206680748E+01  0.10204029605E+01 0.  0.
     999903    2    3    3    0    0 -0.27463033078E-01  0.33154098913E-02  0.12652109582E+00  0.13108225446E+00  0.20242520047E-01 0.  0.
         14    1    1    2    0    0 -0.10483937265E-01 -0.20529003614E-01 -0.31247773727E-02  0.23261925191E-01  0.00000000000E+00 0.  1.
     999901    1    3    3    0    0  0.37946970343E-01  0.17213593723E-01 -0.12339631844E+00  0.88958582035E+00  0.88000000000E+00 0. -1.
        -11    1    4    4    0    0 -0.13644331054E-01  0.50715500072E-02  0.10061782504E+00  0.10166659346E+00  0.51100000000E-03 0. -1.
         11    1    4    4    0    0 -0.13818702024E-01 -0.17561401159E-02  0.25903270776E-01  0.29415660993E-01  0.51100000000E-03 0.  1.
</event>
<event>
 8    1  0.1010879E+005  0.1043930E+01  0.7957747E-01            NaN
         13   -1    0    0    0    0  0.00000000000E+00  0.00000000000E+00  0.74505805969E-08  0.10566000000E+00  0.10566000000E+00 0. -1.
     999900   -1    0    0    0    0 -0.00000000000E+00 -0.00000000000E+00 -0.74505805969E-08  0.93827000000E+00  0.93827000000E+00 0.  1.
     999902    2    1    2    0    0 -0.23265116623E-01  0.97168984013E-02 -0.28301855674E-03  0.10187156417E+01  0.10184035520E+01 0.  0.
     999903    2    3    3    0    0  0.30882942093E-01 -0.11831886507E+00 -0.29580156933E-01  0.12732151375E+00  0.19562010015E-01 0.  0.
         14    1    1    2    0    0  0.23265116623E-01 -0.97168984013E-02  0.28301855674E-03  0.25214358321E-01  0.00000000000E+00 0. -1.
     999901    1    3    3    0    0 -0.54148058716E-01  0.12803576347E+00  0.29297138376E-01  0.89139412793E+00  0.88000000000E+00 0.  1.
        -11    1    4    4    0    0  0.24432248080E-01 -0.54973402772E-01 -0.13988029875E-01  0.61765167039E-01  0.51100000000E-03 0. -1.
         11    1    4    4    0    0  0.64506940128E-02 -0.63345462297E-01 -0.15592127058E-01  0.65556346711E-01  0.51100000000E-03 0.  1.
</event>
<event>
 8    1  0.1010879E+005  0.1043930E+01  0.7957747E-01            NaN
         13   -1    0    0    0    0  0.00000000000E+00  0.00000000000E+00  0.74505805969E-08  0.10566000000E+00  0.10566000000E+00 0. -1.
     999900   -1    0    0    0    0 -0.00000000000E+00 -0.00000000000E+00 -0.74505805969E-08  0.93827000000E+00  0.93827000000E+00 0.  1.
     999902    2    1    2    0    0 -0.22369956435E-03  0.16660974456E-01 -0.16578247779E-01  0.10204251832E+01  0.10201544384E+01 0.  0.
     999903    2    3    3    0    0 -0.73338866651E-02  0.49060210811E-02  0.12675481732E+00  0.12872282189E+00  0.20613738792E-01 0.  0.
         14    1    1    2    0    0  0.22369956435E-03 -0.16660974456E-01  0.16578247779E-01  0.23504816756E-01  0.00000000000E+00 0. -1.
     999901    1    3    3    0    0  0.71101871008E-02  0.11754953375E-01 -0.14333306509E+00  0.89170236135E+00  0.88000000000E+00 0.  1.
        -11    1    4    4    0    0  0.23890901379E-02 -0.59577547678E-02  0.62598151865E-01  0.62928469960E-01  0.51100000000E-03 0. -1.
         11    1    4    4    0    0 -0.97229768030E-02  0.10863775849E-01  0.64156665450E-01  0.65794351933E-01  0.51100000000E-03 0.  1.
</event>
<event>
 8    1  0.1010879E+005  0.1043930E+01  0.7957747E-01            NaN
         13   -1    0    0    0    0  0.00000000000E+00  0.00000000000E+00  0.74505805969E-08  0.10566000000E+00  0.10566000000E+00 0. -1.
     999900   -1    0    0    0    0 -0.00000000000E+00 -0.00000000000E+00 -0.74505805969E-08  0.93827000000E+00  0.93827000000E+00 0. -1.
     999902    2    1    2    0    0  0.17975350253E-01 -0.12236645255E-01 -0.60090218097E-02  0.10213699236E+01  0.10211207391E+01 0.  0.
     999903    2    3    3    0    0  0.12646426417E-01 -0.12741308446E+00 -0.30597840021E-01  0.13350809902E+00  0.22229676073E-01 0.  0.
         14    1    1    2    0    0 -0.17975350253E-01  0.12236645255E-01  0.60090218097E-02  0.22560076395E-01  0.00000000000E+00 0.  1.
     999901    1    3    3    0    0  0.53289238359E-02  0.11517643920E+00  0.24588818211E-01  0.88786182459E+00  0.88000000000E+00 0.  1.
        -11    1    4    4    0    0  0.18457090441E-01 -0.10584773794E+00 -0.22739764081E-01  0.10982607070E+00  0.51100000000E-03 0.  1.
         11    1    4    4    0    0 -0.58106640239E-02 -0.21565346520E-01 -0.78580759393E-02  0.23682028321E-01  0.51100000000E-03 0. -1.
</event>
<event>
 8    1  0.1010879E+005  0.1043930E+01  0.7957747E-01            NaN
         13   -1    0    0    0    0  0.00000000000E+00  0.00000000000E+00  0.74505805969E-08  0.10566000000E+00  0.10566000000E+00 0.  1.
     999900   -1    0    0    0    0 -0.00000000000E+00 -0.00000000000E+00 -0.74505805969E-08  0.93827000000E+00  0.93827000000E+00 0.  1.
     999902    2    1    2    0    0  0.14820860474E-01 -0.11405810791E-01  0.15023998011E-01  0.10199410246E+01  0.10196588757E+01 0.  0.
     999903    2    3    3    0    0  0.11582272408E+00 -0.54787009162E-01 -0.25727055088E-01  0.13216630477E+00  0.19736538864E-01 0.  0.
         14    1    1    2    0    0 -0.14820860474E-01  0.11405810791E-01 -0.15023998011E-01  0.23988975410E-01  0.00000000000E+00 0.  1.
     999901    1    3    3    0    0 -0.10100186361E+00  0.43381198370E-01  0.40751053099E-01  0.88777471982E+00  0.88000000000E+00 0. -1.
        -11    1    4    4    0    0  0.15596038963E-01 -0.13341248680E-01  0.66981605079E-03  0.20541059423E-01  0.51100000000E-03 0. -1.
         11    1    4    4    0    0  0.10022668512E+00 -0.41445760482E-01 -0.26396871139E-01  0.11162524535E+00  0.51100000000E-03 0.  1.
</event>
<event>
 8    1  0.1010879E+005  0.1043930E+01  0.7957747E-01            NaN
         13   -1    0    0    0    0  0.00000000000E+00  0.00000000000E+00  0.74505805969E-08  0.10566000000E+00  0.10566000000E+00 0.  1.
     999900   -1    0    0    0    0 -0.00000000000E+00 -0.00000000000E+00 -0.74505805969E-08  0.93827000000E+00  0.93827000000E+00 0.  1.
     999902    2    1    2    0    0  0.14281907793E-01 -0.19990046599E-01  0.54669588687E-02  0.10187613192E+01  0.10184503734E+01 0.  0.
     999903    2    3    3    0    0 -0.67734642897E-01  0.10453038229E+00  0.25890936728E-02  0.12621421463E+00  0.20217366271E-01 0.  0.
         14    1    1    2    0    0 -0.14281907793E-01  0.19990046599E-01 -0.54669588687E-02  0.25168680786E-01  0.00000000000E+00 0. -1.
     999901    1    3    3    0    0  0.82016550689E-01 -0.12452042889E+00  0.28778651959E-02  0.89254710459E+00  0.88000000000E+00 0. -1.
        -11    1    4    4    0    0 -0.26997565612E-01  0.26858003750E-01 -0.37946763388E-02  0.38273771749E-01  0.51100000000E-03 0.  1.
         11    1    4    4    0    0 -0.40737077285E-01  0.77672378536E-01  0.63837700117E-02  0.87940442879E-01  0.51100000000E-03 0. -1.
</event>
<event>
 8    1  0.1010879E+005  0.1043930E+01  0.7957747E-01            NaN
         13   -1    0    0    0    0  0.00000000000E+00  0.00000000000E+00  0.74505805969E-08  0.10566000000E+00  0.10566000000E+00 0.  1.
     999900   -1    0    0    0    0 -0.00000000000E+00 -0.00000000000E+00 -0.74505805969E-08  0.93827000000E+00  0.93827000000E+00 0. -1.
     999902    2    1    2    0    0  0.19789078675E-01  0.18347026888E-02  0.14167160009E-01  0.10195233986E+01  0.10192312192E+01 0.  0.
     999903    2    3    3    0    0 -0.45684085889E-01  0.15595988579E-02 -0.11766304003E+00  0.12729808368E+00  0.16454271978E-01 0.  0.
         14    1    1    2    0    0 -0.19789078675E-01 -0.18347026888E-02 -0.14167160009E-01  0.24406601391E-01  0.00000000000E+00 0. -1.
     999901    1    3    3    0    0  0.65473164564E-01  0.27510383096E-03  0.13183020004E+00  0.89222531493E+00  0.88000000000E+00 0.  1.
        -11    1    4    4    0    0 -0.34417993680E-01 -0.60110436031E-02 -0.87416653890E-01  0.94141719936E-01  0.51100000000E-03 0.  1.
         11    1    4    4    0    0 -0.11266092209E-01  0.75706424609E-02 -0.30246386142E-01  0.33156363742E-01  0.51100000000E-03 0. -1.
</event>
<event>
 8    1  0.1010879E+005  0.1043930E+01  0.7957747E-01            NaN
         13   -1    0    0    0    0  0.00000000000E+00  0.00000000000E+00  0.74505805969E-08  0.10566000000E+00  0.10566000000E+00 0.  1.
     999900   -1    0    0    0    0 -0.00000000000E+00 -0.00000000000E+00 -0.74505805969E-08  0.93827000000E+00  0.93827000000E+00 0.  1.
     999902    2    1    2    0    0  0.19522392610E-01 -0.68066310912E-02 -0.10648606709E-01  0.10206738854E+01  0.10204089051E+01 0.  0.
     999903    2    3    3    0    0 -0.10516557937E+00  0.70878870056E-01 -0.73960887315E-02  0.12848965204E+00  0.19268504011E-01 0.  0.
         14    1    1    2    0    0 -0.19522392610E-01  0.68066310912E-02  0.10648606709E-01  0.23256114569E-01  0.00000000000E+00 0.  1.
     999901    1    3    3    0    0  0.12468797198E+00 -0.77685501147E-01 -0.32525179773E-02  0.89218423339E+00  0.88000000000E+00 0. -1.
        -11    1    4    4    0    0 -0.63631597410E-01  0.53273207178E-01 -0.16037063425E-02  0.83005106994E-01  0.51100000000E-03 0. -1.
         11    1    4    4    0    0 -0.41533981961E-01  0.17605662877E-01 -0.57923823890E-02  0.45484545042E-01  0.51100000000E-03 0.  1.
</event>
<event>
 8    1  0.1010879E+005  0.1043930E+01  0.7957747E-01            NaN
         13   -1    0    0    0    0  0.00000000000E+00  0.00000000000E+00  0.74505805969E-08  0.10566000000E+00  0.10566000000E+00 0. -1.
     999900   -1    0    0    0    0 -0.00000000000E+00 -0.00000000000E+00 -0.74505805969E-08  0.93827000000E+00  0.93827000000E+00 0.  1.
     999902    2    1    2    0    0 -0.19649825563E-01  0.63723931423E-03  0.14667656638E-01  0.10194012033E+01  0.10191060550E+01 0.  0.
     999903    2    3    3    0    0  0.10486394260E+00  0.70212460281E-01  0.30652759197E-02  0.12784133141E+00  0.20193416348E-01 0.  0.
         14    1    1    2    0    0  0.19649825563E-01 -0.63723931423E-03 -0.14667656638E-01  0.24528796747E-01  0.00000000000E+00 0.  1.
     999901    1    3    3    0    0 -0.12451376817E+00 -0.69575220967E-01  0.11602380718E-01  0.89155987184E+00  0.88000000000E+00 0. -1.
        -11    1    4    4    0    0  0.22904504472E-01  0.22064220410E-01  0.75042191542E-02  0.32680584045E-01  0.51100000000E-03 0. -1.
         11    1    4    4    0    0  0.81959438133E-01  0.48148239872E-01 -0.44389432344E-02  0.95160747369E-01  0.51100000000E-03 0.  1.
</event>
<event>
 8    1  0.1010879E+005  0.1043930E+01  0.7957747E-01            NaN
         13   -1    0    0    0    0  0.00000000000E+00  0.00000000000E+00  0.74505805969E-08  0.10566000000E+00  0.10566000000E+00 0.  1.
     999900   -1    0    0    0    0 -0.00000000000E+00 -0.00000000000E+00 -0.74505805969E-08  0.93827000000E+00  0.93827000000E+00 0.  1.
     999902    2    1    2    0    0  0.26480771865E-02  0.70869748212E-02  0.19175521714E-01  0.10233159718E+01  0.10231083227E+01 0.  0.
     999903    2    3    3    0    0  0.63919737705E-01 -0.53110149193E-01  0.10449768823E+00  0.13502672713E+00  0.20150170700E-01 0.  0.
         14    1    1    2    0    0 -0.26480771865E-02 -0.70869748212E-02 -0.19175521714E-01  0.20614028183E-01  0.00000000000E+00 0. -1.
     999901    1    3    3    0    0 -0.61271660519E-01  0.60197124015E-01 -0.85322166516E-01  0.88828924468E+00  0.88000000000E+00 0.  1.
        -11    1    4    4    0    0  0.28530378977E-01 -0.35971743524E-01  0.50884643968E-01  0.68537996538E-01  0.51100000000E-03 0.  1.
         11    1    4    4    0    0  0.35389358728E-01 -0.17138405669E-01  0.53613044262E-01  0.66488730595E-01  0.51100000000E-03 0. -1.
</event>
<event>
 8    1  0.1010879E+005  0.1043930E+01  0.7957747E-01            NaN
         13   -1    0    0    0    0  0.00000000000E+00  0.00000000000E+00  0.74505805969E-08  0.10566000000E+00  0.10566000000E+00 0.  1.
     999900   -1    0    0    0    0 -0.00000000000E+00 -0.00000000000E+00 -0.74505805969E-08  0.93827000000E+00  0.93827000000E+00 0. -1.
     999902    2    1    2    0    0  0.44485742879E-02 -0.22907665905E-01  0.68067660981E-02  0.10196219142E+01  0.10193321171E+01 0.  0.
     999903    2    3    3    0    0  0.29573601042E-02  0.30430648554E-01  0.12490595139E+00  0.13013070172E+00  0.19943231620E-01 0.  0.
         14    1    1    2    0    0 -0.44485742879E-02  0.22907665905E-01 -0.68067660981E-02  0.24308085798E-01  0.00000000000E+00 0. -1.
     999901    1    3    3    0    0  0.14912141837E-02 -0.53338314459E-01 -0.11809918530E+00  0.88949121248E+00  0.88000000000E+00 0. -1.
        -11    1    4    4    0    0  0.60000236931E-02  0.19377754715E-02  0.40520414832E-01  0.41011222821E-01  0.51100000000E-03 0.  1.
         11    1    4    4    0    0 -0.30426635889E-02  0.28492873082E-01  0.84385536561E-01  0.89119478903E-01  0.51100000000E-03 0. -1.
</event>
<event>
 8    1  0.1010879E+005  0.1043930E+01  0.7957747E-01            NaN
         13   -1    0    0    0    0  0.00000000000E+00  0.00000000000E+00  0.74505805969E-08  0.10566000000E+00  0.10566000000E+00 0. -1.
     999900   -1    0    0    0    0 -0.00000000000E+00 -0.00000000000E+00 -0.74505805969E-08  0.93827000000E+00  0.93827000000E+00 0.  1.
     999902    2    1    2    0    0  0.76110583454E-02  0.23823706558E-02 -0.21407892866E-01  0.10210848304E+01  0.10208292360E+01 0.  0.
     999903    2    3    3    0    0  0.49850536011E-01 -0.11195927159E+00  0.40504194555E-01  0.13052809932E+00  0.19417530714E-01 0.  0.
         14    1    1    2    0    0 -0.76110583454E-02 -0.23823706558E-02  0.21407892866E-01  0.22845169644E-01  0.00000000000E+00 0. -1.
     999901    1    3    3    0    0 -0.42239477666E-01  0.11434164225E+00 -0.61912087421E-01  0.89055673104E+00  0.88000000000E+00 0. -1.
        -11    1    4    4    0    0  0.22499691314E-01 -0.40704057544E-01  0.64749329683E-02  0.46960007322E-01  0.51100000000E-03 0.  1.
         11    1    4    4    0    0  0.27350844697E-01 -0.71255214050E-01  0.34029261586E-01  0.83568091998E-01  0.51100000000E-03 0. -1.
</event>
<event>
 8    1  0.1010879E+005  0.1043930E+01  0.7957747E-01            NaN
         13   -1    0    0    0    0  0.00000000000E+00  0.00000000000E+00  0.74505805969E-08  0.10566000000E+00  0.10566000000E+00 0. -1.
     999900   -1    0    0    0    0 -0.00000000000E+00 -0.00000000000E+00 -0.74505805969E-08  0.93827000000E+00  0.93827000000E+00 0. -1.
     999902    2    1    2    0    0 -0.77819651140E-03  0.15571214755E-01  0.21454718133E-01  0.10174088151E+01  0.10170630874E+01 0.  0.
     999903    2    3    3    0    0  0.86718348117E-01 -0.81996365219E-01  0.40549534631E-01  0.12749888145E+00  0.19189168875E-01 0.  0.
         14    1    1    2    0    0  0.77819651140E-03 -0.15571214755E-01 -0.21454718133E-01  0.26521184908E-01  0.00000000000E+00 0.  1.
     999901    1    3    3    0    0 -0.87496544628E-01  0.97567579974E-01 -0.19094816498E-01  0.88990993365E+00  0.88000000000E+00 0. -1.
        -11    1    4    4    0    0  0.36521551473E-01 -0.26369153108E-01  0.77735341584E-02  0.45714821579E-01  0.51100000000E-03 0. -1.
         11    1    4    4    0    0  0.50196796643E-01 -0.55627212111E-01  0.32776000472E-01  0.81784059868E-01  0.51100000000E-03 0.  1.
</event>
<event>
 8    1  0.1010879E+005  0.1043930E+01  0.7957747E-01            NaN
         13   -1    0    0    0    0  0.00000000000E+00  0.00000000000E+00  0.74505805969E-08  0.10566000000E+00  0.10566000000E+00 0. -1.
     999900   -1    0    0    0    0 -0.00000000000E+00 -0.00000000000E+00 -0.74505805969E-08  0.93827000000E+00  0.93827000000E+00 0.  1.
     999902    2    1    2    0    0  0.21300813521E-01 -0.31724178573E-02  0.14480939247E-01  0.10179783817E+01  0.10176475319E+01 0.  0.
     999903    2    3    3    0    0 -0.30199406076E-02  0.85095918379E-01  0.95587157855E-01  0.12951846871E+00  0.19689937133E-01 0.  0.
         14    1    1    2    0    0 -0.21300813521E-01  0.31724178573E-02 -0.14480939247E-01  0.25951618316E-01  0.00000000000E+00 0.  1.
     999901    1    3    3    0    0  0.24320754129E-01 -0.88268336236E-01 -0.81106218608E-01  0.88845991297E+00  0.88000000000E+00 0.  1.
        -11    1    4    4    0    0  0.83996941600E-02  0.35028895555E-01  0.38212580296E-01  0.52517052466E-01  0.51100000000E-03 0. -1.
         11    1    4    4    0    0 -0.11419634768E-01  0.50067022824E-01  0.57374577559E-01  0.77001416245E-01  0.51100000000E-03 0.  1.
</event>
<event>
 8    1  0.1010879E+005  0.1043930E+01  0.7957747E-01            NaN
         13   -1    0    0    0    0  0.00000000000E+00  0.00000000000E+00  0.74505805969E-08  0.10566000000E+00  0.10566000000E+00 0. -1.
     999900   -1    0    0    0    0 -0.00000000000E+00 -0.00000000000E+00 -0.74505805969E-08  0.93827000000E+00  0.93827000000E+00 0. -1.
     999902    2    1    2    0    0 -0.11804400832E-01  0.17703397722E-01 -0.73114245136E-02  0.10214308645E+01  0.10211830393E+01 0.  0.
     999903    2    3    3    0    0 -0.12244982564E+00  0.62952616380E-02 -0.48935733767E-01  0.13345274612E+00  0.19527910492E-01 0.  0.
         14    1    1    2    0    0  0.11804400832E-01 -0.17703397722E-01  0.73114245136E-02  0.22499135502E-01  0.00000000000E+00 0. -1.
     999901    1    3    3    0    0  0.11064542481E+00  0.11408136084E-01  0.41624309254E-01  0.88797811838E+00  0.88000000000E+00 0.  1.
        -11    1    4    4    0    0 -0.19818111012E-01  0.73075381552E-02 -0.12442869692E-01  0.24520272534E-01  0.51100000000E-03 0. -1.
         11    1    4    4    0    0 -0.10263171463E+00 -0.10122765173E-02 -0.36492864075E-01  0.10893247358E+00  0.51100000000E-03 0.  1.
</event>
<event>
 8    1  0.1010879E+005  0.1043930E+01  0.7957747E-01            NaN
         13   -1    0    0    0    0  0.00000000000E+00  0.00000000000E+00  0.74505805969E-08  0.10566000000E+00  0.10566000000E+00 0.  1.
     999900   -1    0    0    0    0 -0.00000000000E+00 -0.00000000000E+00 -0.74505805969E-08  0.93827000000E+00  0.93827000000E+00 0.  1.
     999902    2    1    2    0    0 -0.16492485649E-01  0.16929076883E-01 -0.78483908188E-02  0.10190263263E+01  0.10187219742E+01 0.  0.
     999903    2    3    3    0    0  0.41466384033E-01  0.15369526489E-01  0.11862262917E+00  0.12809614849E+00  0.19534885631E-01 0.  0.
         14    1    1    2    0    0  0.16492485649E-01 -0.16929076883E-01  0.78483908188E-02  0.24903673734E-01  0.00000000000E+00 0. -1.
     999901    1    3    3    0    0 -0.57958869682E-01  0.15595503940E-02 -0.12647101999E+00  0.89093017778E+00  0.88000000000E+00 0.  1.
        -11    1    4    4    0    0  0.19754258203E-01  0.16972593033E-01  0.73820410264E-01  0.78281630821E-01  0.51100000000E-03 0.  1.
         11    1    4    4    0    0  0.21712125830E-01 -0.16030665432E-02  0.44802218910E-01  0.49814517670E-01  0.51100000000E-03 0. -1.
</event>
<event>
 8    1  0.1010879E+005  0.1043930E+01  0.7957747E-01            NaN
         13   -1    0    0    0    0  0.00000000000E+00  0.00000000000E+00  0.74505805969E-08  0.10566000000E+00  0.10566000000E+00 0.  1.
     999900   -1    0    0    0    0 -0.00000000000E+00 -0.00000000000E+00 -0.74505805969E-08  0.93827000000E+00  0.93827000000E+00 0. -1.
     999902    2    1    2    0    0  0.13965248703E-01  0.17401961158E-01  0.75618300926E-02  0.10203707619E+01  0.10200987472E+01 0.  0.
     999903    2    3    3    0    0 -0.12022138566E+00  0.25804972597E-01  0.37881904662E-01  0.12964298627E+00  0.15911851131E-01 0.  0.
         14    1    1    2    0    0 -0.13965248703E-01 -0.17401961158E-01 -0.75618300926E-02  0.23559238057E-01  0.00000000000E+00 0.  1.
     999901    1    3    3    0    0  0.13418663436E+00 -0.84030114388E-02 -0.30320074569E-01  0.89072777568E+00  0.88000000000E+00 0. -1.
        -11    1    4    4    0    0 -0.80151314745E-01  0.21283768502E-01  0.31992491756E-01  0.88887640911E-01  0.51100000000E-03 0. -1.
         11    1    4    4    0    0 -0.40070070915E-01  0.45212040942E-02  0.58894129054E-02  0.40755345354E-01  0.51100000000E-03 0.  1.
</event>
<event>
 8    1  0.1010879E+005  0.1043930E+01  0.7957747E-01            NaN
         13   -1    0    0    0    0  0.00000000000E+00  0.00000000000E+00  0.74505805969E-08  0.10566000000E+00  0.10566000000E+00 0. -1.
     999900   -1    0    0    0    0 -0.00000000000E+00 -0.00000000000E+00 -0.74505805969E-08  0.93827000000E+00  0.93827000000E+00 0.  1.
     999902    2    1    2    0    0  0.13986887386E-01 -0.11648565900E-01 -0.15866123987E-01  0.10197834475E+01  0.10194975350E+01 0.  0.
     999903    2    3    3    0    0 -0.49614112986E-01  0.94269787390E-01  0.62762314462E-01  0.12768131427E+00  0.31859957250E-01 0.  0.
         14    1    1    2    0    0 -0.13986887386E-01  0.11648565900E-01  0.15866123987E-01  0.24146552479E-01  0.00000000000E+00 0. -1.
     999901    1    3    3    0    0  0.63601000372E-01 -0.10591835329E+00 -0.78628438449E-01  0.89210213325E+00  0.88000000000E+00 0.  1.
        -11    1    4    4    0    0 -0.19286269269E-01  0.64335055991E-01  0.28340206055E-01  0.72899849190E-01  0.51100000000E-03 0.  1.
         11    1    4    4    0    0 -0.30327843717E-01  0.29934731398E-01  0.34422108408E-01  0.54781465083E-01  0.51100000000E-03 0. -1.
</event>
<event>
 8    1  0.1010879E+005  0.1043930E+01  0.7957747E-01            NaN
         13   -1    0    0    0    0  0.00000000000E+00  0.00000000000E+00  0.74505805969E-08  0.10566000000E+00  0.10566000000E+00 0. -1.
     999900   -1    0    0    0    0 -0.00000000000E+00 -0.00000000000E+00 -0.74505805969E-08  0.93827000000E+00  0.93827000000E+00 0.  1.
     999902    2    1    2    0    0  0.97915027356E-02 -0.20394132658E-01 -0.74356259962E-02  0.10201165016E+01  0.10198385137E+01 0.  0.
     999903    2    3    3    0    0 -0.21435081257E-02 -0.85165593613E-01  0.97988057900E-01  0.13138035415E+00  0.20034095999E-01 0.  0.
         14    1    1    2    0    0 -0.97915027356E-02  0.20394132658E-01  0.74356259962E-02  0.23813498413E-01  0.00000000000E+00 0. -1.
     999901    1    3    3    0    0  0.11935010861E-01  0.64771460954E-01 -0.10542368390E+00  0.88873614744E+00  0.88000000000E+00 0.  1.
        -11    1    4    4    0    0 -0.98845426311E-02 -0.67030301099E-01  0.77413467224E-01  0.10287794456E+00  0.51100000000E-03 0.  1.
         11    1    4    4    0    0  0.77410345054E-02 -0.18135292513E-01  0.20574590676E-01  0.28502409587E-01  0.51100000000E-03 0. -1.
</event>
<event>
 8    1  0.1010879E+005  0.1043930E+01  0.7957747E-01            NaN
         13   -1    0    0    0    0  0.00000000000E+00  0.00000000000E+00  0.74505805969E-08  0.10566000000E+00  0.10566000000E+00 0.  1.
     999900   -1    0    0    0    0 -0.00000000000E+00 -0.00000000000E+00 -0.74505805969E-08  0.93827000000E+00  0.93827000000E+00 0. -1.
     999902    2    1    2    0    0  0.20823463619E-01 -0.12633248646E-01  0.14113173448E-02  0.10195331267E+01  0.10192411830E+01 0.  0.
     999903    2    3    3    0    0  0.12735555093E+00  0.22905150782E-01 -0.18580244958E-01  0.13217089741E+00  0.19489441619E-01 0.  0.
         14    1    1    2    0    0 -0.20823463619E-01  0.12633248646E-01 -0.14113173448E-02  0.24396873265E-01  0.00000000000E+00 0.  1.
     999901    1    3    3    0    0 -0.10653208731E+00 -0.35538399428E-01  0.19991562303E-01  0.88736222932E+00  0.88000000000E+00 0.  1.
        -11    1    4    4    0    0  0.11650932058E+00  0.26337106022E-01 -0.16299676660E-01  0.12055706331E+00  0.51100000000E-03 0. -1.
         11    1    4    4    0    0  0.10846230358E-01 -0.34319552404E-02 -0.22805682980E-02  0.11613834101E-01  0.51100000000E-03 0.  1.
</event>
<event>
 8    1  0.1010879E+005  0.1043930E+01  0.7957747E-01            NaN
         13   -1    0    0    0    0  0.00000000000E+00  0.00000000000E+00  0.74505805969E-08  0.10566000000E+00  0.10566000000E+00 0. -1.
     999900   -1    0    0    0    0 -0.00000000000E+00 -0.00000000000E+00 -0.74505805969E-08  0.93827000000E+00  0.93827000000E+00 0.  1.
     999902    2    1    2    0    0  0.66408066747E-02  0.21920097877E-01  0.41509318387E-02  0.10206529461E+01  0.10203874828E+01 0.  0.
     999903    2    3    3    0    0  0.24762128829E-01  0.13015366545E+00 -0.22694626172E-02  0.13381355310E+00  0.18648776852E-01 0.  0.
         14    1    1    2    0    0 -0.66408066747E-02 -0.21920097877E-01 -0.41509318387E-02  0.23277053924E-01  0.00000000000E+00 0. -1.
     999901    1    3    3    0    0 -0.18121322154E-01 -0.10823356758E+00  0.64203944559E-02  0.88683939297E+00  0.88000000000E+00 0.  1.
        -11    1    4    4    0    0  0.18615155312E-01  0.77732838754E-01  0.69423909149E-02  0.80233260813E-01  0.51100000000E-03 0.  1.
         11    1    4    4    0    0  0.61469735162E-02  0.52420826699E-01 -0.92118535321E-02  0.53580292289E-01  0.51100000000E-03 0. -1.
</event>
<event>
 8    1  0.1010879E+005  0.1043930E+01  0.7957747E-01            NaN
         13   -1    0    0    0    0  0.00000000000E+00  0.00000000000E+00  0.74505805969E-08  0.10566000000E+00  0.10566000000E+00 0.  1.
     999900   -1    0    0    0    0 -0.00000000000E+00 -0.00000000000E+00 -0.74505805969E-08  0.93827000000E+00  0.93827000000E+00 0. -1.
     999902    2    1    2    0    0  0.20843221383E-01  0.85586685051E-02  0.46598987837E-02  0.10209211899E+01  0.10206618787E+01 0.  0.
     999903    2    3    3    0    0 -0.11857465302E+00 -0.40746080032E-01  0.18860626214E-01  0.12846953152E+00  0.20700384846E-01 0.  0.
         14    1    1    2    0    0 -0.20843221383E-01 -0.85586685051E-02 -0.46598987837E-02  0.23008810071E-01  0.00000000000E+00 0.  1.
     999901    1    3    3    0    0  0.13941787440E+00  0.49304748537E-01 -0.14200727431E-01  0.89245165841E+00  0.88000000000E+00 0.  1.
        -11    1    4    4    0    0 -0.37993490652E-01 -0.15836979728E-01  0.15724998381E-01  0.44066449300E-01  0.51100000000E-03 0.  1.
         11    1    4    4    0    0 -0.80581162365E-01 -0.24909100304E-01  0.31356278335E-02  0.84403082224E-01  0.51100000000E-03 0. -1.
</event>
<event>
 8    1  0.1010879E+005  0.1043930E+01  0.7957747E-01            NaN
         13   -1    0    0    0    0  0.00000000000E+00  0.00000000000E+00  0.74505805969E-08  0.10566000000E+00  0.10566000000E+00 0. -1.
     999900   -1    0    0    0    0 -0.00000000000E+00 -0.00000000000E+00 -0.74505805969E-08  0.93827000000E+00  0.93827000000E+00 0.  1.
     999902    2    1    2    0    0  0.18595759690E-01  0.12065000518E-01  0.94321380315E-02  0.10198399244E+01  0.10195553637E+01 0.  0.
     999903    2    3    3    0    0 -0.99123831565E-01  0.77815260028E-01 -0.18621478391E-01  0.12912784733E+00  0.21130376748E-01 0.  0.
         14    1    1    2    0    0 -0.18595759690E-01 -0.12065000518E-01 -0.94321380315E-02  0.24090075629E-01  0.00000000000E+00 0. -1.
     999901    1    3    3    0    0  0.11771959126E+00 -0.65750259510E-01  0.28053616422E-01  0.89071207704E+00  0.88000000000E+00 0. -1.
        -11    1    4    4    0    0 -0.16817179724E-01  0.24379937410E-01 -0.53687870898E-02  0.30104549122E-01  0.51100000000E-03 0. -1.
         11    1    4    4    0    0 -0.82306651841E-01  0.53435322617E-01 -0.13252691301E-01  0.99023298209E-01  0.51100000000E-03 0.  1.
</event>
<event>
 8    1  0.1010879E+005  0.1043930E+01  0.7957747E-01            NaN
         13   -1    0    0    0    0  0.00000000000E+00  0.00000000000E+00  0.74505805969E-08  0.10566000000E+00  0.10566000000E+00 0.  1.
     999900   -1    0    0    0    0 -0.00000000000E+00 -0.00000000000E+00 -0.74505805969E-08  0.93827000000E+00  0.93827000000E+00 0. -1.
     999902    2    1    2    0    0  0.20362314319E-01 -0.10658547751E-02  0.13589215375E-01  0.10194263949E+01  0.10191318599E+01 0.  0.
     999903    2    3    3    0    0  0.82014231487E-01 -0.22094439350E-01  0.99758032578E-01  0.13282150804E+00  0.21803429027E-01 0.  0.
         14    1    1    2    0    0 -0.20362314319E-01  0.10658547751E-02 -0.13589215375E-01  0.24503605149E-01  0.00000000000E+00 0.  1.
     999901    1    3    3    0    0 -0.61651917169E-01  0.21028584574E-01 -0.86168817203E-01  0.88660488681E+00  0.88000000000E+00 0. -1.
        -11    1    4    4    0    0  0.20669794811E-01  0.10306991700E-02  0.14517081358E-01  0.25284570996E-01  0.51100000000E-03 0. -1.
         11    1    4    4    0    0  0.61344436676E-01 -0.23125138520E-01  0.85240951220E-01  0.10753693704E+00  0.51100000000E-03 0.  1.
</event>
<event>
 8    1  0.1010879E+005  0.1043930E+01  0.7957747E-01            NaN
         13   -1    0    0    0    0  0.00000000000E+00  0.00000000000E+00  0.74505805969E-08  0.10566000000E+00  0.10566000000E+00 0. -1.
     999900   -1    0    0    0    0 -0.00000000000E+00 -0.00000000000E+00 -0.74505805969E-08  0.93827000000E+00  0.93827000000E+00 0. -1.
     999902    2    1    2    0    0 -0.15249786764E-01  0.19731622910E-01  0.67067769294E-02  0.10181061003E+01  0.10177785406E+01 0.  0.
     999903    2    3    3    0    0 -0.78259025467E-01 -0.56691996238E-01  0.83406675245E-01  0.12923400144E+00  0.20156789143E-01 0.  0.
         14    1    1    2    0    0  0.15249786764E-01 -0.19731622910E-01 -0.67067769294E-02  0.25823899702E-01  0.00000000000E+00 0.  1.
     999901    1    3    3    0    0  0.63009238702E-01  0.76423619148E-01 -0.76699898316E-01  0.88887209886E+00  0.88000000000E+00 0. -1.
        -11    1    4    4    0    0 -0.37663196876E-01 -0.16727694639E-01  0.28464596400E-01  0.50088187590E-01  0.51100000000E-03 0.  1.
         11    1    4    4    0    0 -0.40595828591E-01 -0.39964301600E-01  0.54942078845E-01  0.79145813851E-01  0.51100000000E-03 0. -1.
</event>
<event>
 8    1  0.1010879E+005  0.1043930E+01  0.7957747E-01            NaN
         13   -1    0    0    0    0  0.00000000000E+00  0.00000000000E+00  0.74505805969E-08  0.10566000000E+00  0.10566000000E+00 0.  1.
     999900   -1    0    0    0    0 -0.00000000000E+00 -0.00000000000E+00 -0.74505805969E-08  0.93827000000E+00  0.93827000000E+00 0.  1.
     999902    2    1    2    0    0 -0.64716601093E-02  0.13207007660E-02  0.22413126847E-01  0.10205638944E+01  0.10202963725E+01 0.  0.
     999903    2    3    3    0    0  0.12242892527E+00  0.39269939827E-01  0.66354294407E-02  0.13022438536E+00  0.19580390731E-01 0.  0.
         14    1    1    2    0    0  0.64716601093E-02 -0.13207007660E-02 -0.22413126847E-01  0.23366105584E-01  0.00000000000E+00 0. -1.
     999901    1    3    3    0    0 -0.12890058538E+00 -0.37949239061E-01  0.15777697406E-01  0.89033950906E+00  0.88000000000E+00 0. -1.
        -11    1    4    4    0    0  0.75661717761E-01  0.33226357488E-01  0.81718190776E-02  0.83040508877E-01  0.51100000000E-03 0.  1.
         11    1    4    4    0    0  0.46767207508E-01  0.60435823389E-02 -0.15363896369E-02  0.47183876480E-01  0.51100000000E-03 0. -1.
</event>
<event>
 8    1  0.1010879E+005  0.1043930E+01  0.7957747E-01            NaN
         13   -1    0    0    0    0  0.00000000000E+00  0.00000000000E+00  0.74505805969E-08  0.10566000000E+00  0.10566000000E+00 0. -1.
     999900   -1    0    0    0    0 -0.00000000000E+00 -0.00000000000E+00 -0.74505805969E-08  0.93827000000E+00  0.93827000000E+00 0. -1.
     999902    2    1    2    0    0 -0.10867878925E-01 -0.37613404347E-03  0.22646530749E-01  0.10188079455E+01  0.10184981650E+01 0.  0.
     999903    2    3    3    0    0 -0.17152163141E-01  0.38071369798E-01 -0.11800190133E+00  0.12678794332E+00  0.20176916414E-01 0.  0.
         14    1    1    2    0    0  0.10867878925E-01  0.37613404347E-03 -0.22646530749E-01  0.25122054536E-01  0.00000000000E+00 0.  1.
     999901    1    3    3    0    0  0.62842842165E-02 -0.38447503842E-01  0.14064843208E+00  0.89202000214E+00  0.88000000000E+00 0.  1.
        -11    1    4    4    0    0 -0.66609692182E-02  0.73929373511E-02 -0.55371873118E-01  0.56261260981E-01  0.51100000000E-03 0. -1.
         11    1    4    4    0    0 -0.10491193923E-01  0.30678432447E-01 -0.62630028208E-01  0.70526682338E-01  0.51100000000E-03 0.  1.
</event>
<event>
 8    1  0.1010879E+005  0.1043930E+01  0.7957747E-01            NaN
         13   -1    0    0    0    0  0.00000000000E+00  0.00000000000E+00  0.74505805969E-08  0.10566000000E+00  0.10566000000E+00 0.  1.
     999900   -1    0    0    0    0 -0.00000000000E+00 -0.00000000000E+00 -0.74505805969E-08  0.93827000000E+00  0.93827000000E+00 0. -1.
     999902    2    1    2    0    0  0.71979482838E-02  0.20329122301E-01  0.11115920455E-01  0.10196679440E+01  0.10193792566E+01 0.  0.
     999903    2    3    3    0    0  0.20668531470E-01  0.10214435854E+00 -0.77926644971E-01  0.13129653073E+00  0.17480240576E-01 0.  0.
         14    1    1    2    0    0 -0.71979482838E-02 -0.20329122301E-01 -0.11115920455E-01  0.24262055984E-01  0.00000000000E+00 0. -1.
     999901    1    3    3    0    0 -0.13470583186E-01 -0.81815236234E-01  0.89042565426E-01  0.88837141329E+00  0.88000000000E+00 0.  1.
        -11    1    4    4    0    0  0.19639829411E-01  0.10209108773E+00 -0.75120806318E-01  0.12826421853E+00  0.51100000000E-03 0.  1.
         11    1    4    4    0    0  0.10287020590E-02  0.53270809415E-04 -0.28058386534E-02  0.30323121960E-02  0.51100000000E-03 0. -1.
</event>
<event>
 8    1  0.1010879E+005  0.1043930E+01  0.7957747E-01            NaN
         13   -1    0    0    0    0  0.00000000000E+00  0.00000000000E+00  0.74505805969E-08  0.10566000000E+00  0.10566000000E+00 0.  1.
     999900   -1    0    0    0    0 -0.00000000000E+00 -0.00000000000E+00 -0.74505805969E-08  0.93827000000E+00  0.93827000000E+00 0.  1.
     999902    2    1    2    0    0  0.19242689182E-01 -0.45370037429E-02 -0.13424253724E-01  0.10200328019E+01  0.10197528332E+01 0.  0.
     999903    2    3    3    0    0 -0.53237862596E-01  0.24148551076E-01 -0.11475642485E+00  0.13079464461E+00  0.22820593345E-01 0.  0.
         14    1    1    2    0    0 -0.19242689182E-01  0.45370037429E-02  0.13424253724E-01  0.23897198120E-01  0.00000000000E+00 0. -1.
     999901    1    3    3    0    0  0.72480551778E-01 -0.28685554819E-01  0.10133217113E+00  0.88923815727E+00  0.88000000000E+00 0. -1.
        -11    1    4    4    0    0 -0.38828177644E-01  0.26029053539E-01 -0.98199053073E-01  0.10875869691E+00  0.51100000000E-03 0.  1.
         11    1    4    4    0    0 -0.14409684952E-01 -0.18805024629E-02 -0.16557371780E-01  0.22035947703E-01  0.51100000000E-03 0. -1.
</event>
<event>
 8    1  0.1010879E+005  0.1043930E+01  0.7957747E-01            NaN
         13   -1    0    0    0    0  0.00000000000E+00  0.00000000000E+00  0.74505805969E-08  0.10566000000E+00  0.10566000000E+00 0.  1.
     999900   -1    0    0    0    0 -0.00000000000E+00 -0.00000000000E+00 -0.74505805969E-08  0.93827000000E+00  0.93827000000E+00 0.  1.
     999902    2    1    2    0    0  0.11963922280E-01  0.19356085161E-01  0.48952984554E-02  0.10206543171E+01  0.10203888854E+01 0.  0.
     999903    2    3    3    0    0  0.59353714589E-01 -0.76479933850E-01  0.85180220065E-01  0.13055544413E+00  0.20420832153E-01 0.  0.
         14    1    1    2    0    0 -0.11963922280E-01 -0.19356085161E-01 -0.48952984554E-02  0.23275682935E-01  0.00000000000E+00 0.  1.
     999901    1    3    3    0    0 -0.47389792308E-01  0.95836019011E-01 -0.80284921609E-01  0.89009887293E+00  0.88000000000E+00 0.  1.
        -11    1    4    4    0    0  0.24708099730E-01 -0.17867658933E-01  0.31581394512E-01  0.43902039000E-01  0.51100000000E-03 0.  1.
         11    1    4    4    0    0  0.34645614859E-01 -0.58612274917E-01  0.53598825553E-01  0.86653405135E-01  0.51100000000E-03 0. -1.
</event>
<event>
 8    1  0.1010879E+005  0.1043930E+01  0.7957747E-01            NaN
         13   -1    0    0    0    0  0.00000000000E+00  0.00000000000E+00  0.74505805969E-08  0.10566000000E+00  0.10566000000E+00 0.  1.
     999900   -1    0    0    0    0 -0.00000000000E+00 -0.00000000000E+00 -0.74505805969E-08  0.93827000000E+00  0.93827000000E+00 0. -1.
     999902    2    1    2    0    0  0.56278365161E-02 -0.22336382291E-01 -0.63995896008E-02  0.10200230708E+01  0.10197428713E+01 0.  0.
     999903    2    3    3    0    0  0.85038897324E-01  0.87365652633E-01 -0.37474872712E-01  0.12912109735E+00  0.20087816644E-01 0.  0.
         14    1    1    2    0    0 -0.56278365161E-02  0.22336382291E-01  0.63995896008E-02  0.23906929220E-01  0.00000000000E+00 0. -1.
     999901    1    3    3    0    0 -0.79411060807E-01 -0.10970203492E+00  0.31075283112E-01  0.89090197343E+00  0.88000000000E+00 0. -1.
        -11    1    4    4    0    0  0.10850864028E-01  0.21406423681E-01 -0.10839926725E-01  0.26338970317E-01  0.51100000000E-03 0. -1.
         11    1    4    4    0    0  0.74188033296E-01  0.65959228952E-01 -0.26634945987E-01  0.10278212703E+00  0.51100000000E-03 0.  1.
</event>
<event>
 8    1  0.1010879E+005  0.1043930E+01  0.7957747E-01            NaN
         13   -1    0    0    0    0  0.00000000000E+00  0.00000000000E+00  0.74505805969E-08  0.10566000000E+00  0.10566000000E+00 0.  1.
     999900   -1    0    0    0    0 -0.00000000000E+00 -0.00000000000E+00 -0.74505805969E-08  0.93827000000E+00  0.93827000000E+00 0.  1.
     999902    2    1    2    0    0 -0.20789180850E-03 -0.20805387043E-01  0.10251489081E-01  0.10207351649E+01  0.10204715951E+01 0.  0.
     999903    2    3    3    0    0  0.23039349711E-01 -0.90739530243E-01  0.93437410443E-01  0.13374524601E+00  0.19818354515E-01 0.  0.
         14    1    1    2    0    0  0.20789180850E-03  0.20805387043E-01 -0.10251489081E-01  0.23194835145E-01  0.00000000000E+00 0.  1.
     999901    1    3    3    0    0 -0.23247241520E-01  0.69934143200E-01 -0.83185921362E-01  0.88698991885E+00  0.88000000000E+00 0.  1.
        -11    1    4    4    0    0  0.96835254401E-02 -0.10958615374E-01  0.17282659636E-01  0.22645382773E-01  0.51100000000E-03 0.  1.
         11    1    4    4    0    0  0.13355824271E-01 -0.79780914869E-01  0.76154750807E-01  0.11109986323E+00  0.51100000000E-03 0. -1.
</event>
<event>
 8    1  0.1010879E+005  0.1043930E+01  0.7957747E-01            NaN
         13   -1    0    0    0    0  0.00000000000E+00  0.00000000000E+00  0.74505805969E-08  0.10566000000E+00  0.10566000000E+00 0. -1.
     999900   -1    0    0    0    0 -0.00000000000E+00 -0.00000000000E+00 -0.74505805969E-08  0.93827000000E+00  0.93827000000E+00 0.  1.
     999902    2    1    2    0    0 -0.18320048767E-01  0.10707513279E-01  0.13196199403E-02  0.10226693221E+01  0.10224482999E+01 0.  0.
     999903    2    3    3    0    0  0.22354265271E-02 -0.42477438526E-01 -0.12337046946E+00  0.13205224106E+00  0.20203755048E-01 0.  0.
         14    1    1    2    0    0  0.18320048767E-01 -0.10707513279E-01 -0.13196199403E-02  0.21260677887E-01  0.00000000000E+00 0. -1.
     999901    1    3    3    0    0 -0.20555475294E-01  0.53184951805E-01  0.12469008941E+00  0.89061708105E+00  0.88000000000E+00 0. -1.
        -11    1    4    4    0    0  0.88040337524E-02 -0.31340564010E-01 -0.71033266341E-01  0.78139157987E-01  0.51100000000E-03 0.  1.
         11    1    4    4    0    0 -0.65686072253E-02 -0.11136874516E-01 -0.52337203124E-01  0.53913083075E-01  0.51100000000E-03 0. -1.
</event>
<event>
 8    1  0.1010879E+005  0.1043930E+01  0.7957747E-01            NaN
         13   -1    0    0    0    0  0.00000000000E+00  0.00000000000E+00  0.74505805969E-08  0.10566000000E+00  0.10566000000E+00 0. -1.
     999900   -1    0    0    0    0 -0.00000000000E+00 -0.00000000000E+00 -0.74505805969E-08  0.93827000000E+00  0.93827000000E+00 0.  1.
     999902    2    1    2    0    0  0.17869044827E-02  0.20098466388E-02 -0.24500042811E-01  0.10192827971E+01  0.10189847575E+01 0.  0.
     999903    2    3    3    0    0 -0.12120366145E+00 -0.40984639475E-01 -0.19194310569E-02  0.12940354175E+00  0.19274962551E-01 0.  0.
         14    1    1    2    0    0 -0.17869044827E-02 -0.20098466388E-02  0.24500042811E-01  0.24647202861E-01  0.00000000000E+00 0. -1.
     999901    1    3    3    0    0  0.12299056593E+00  0.42994486114E-01 -0.22580611754E-01  0.88987925539E+00  0.88000000000E+00 0. -1.
        -11    1    4    4    0    0 -0.39580092686E-01 -0.93042682748E-02 -0.87048749404E-02  0.41583519739E-01  0.51100000000E-03 0. -1.
         11    1    4    4    0    0 -0.81623568760E-01 -0.31680371200E-01  0.67854438835E-02  0.87820022012E-01  0.51100000000E-03 0.  1.
</event>
<event>
 8    1  0.1010879E+005  0.1043930E+01  0.7957747E-01            NaN
         13   -1    0    0    0    0  0.00000000000E+00  0.00000000000E+00  0.74505805969E-08  0.10566000000E+00  0.10566000000E+00 0.  1.
     999900   -1    0    0    0    0 -0.00000000000E+00 -0.00000000000E+00 -0.74505805969E-08  0.93827000000E+00  0.93827000000E+00 0.  1.
     999902    2    1    2    0    0 -0.13808319305E-01  0.18616993244E-01 -0.64361736205E-02  0.10198740974E+01  0.10195903531E+01 0.  0.
     999903    2    3    3    0    0  0.65201429521E-01 -0.21856430653E-01  0.10643670665E+00  0.12823463799E+00  0.19657565619E-01 0.  0.
         14    1    1    2    0    0  0.13808319305E-01 -0.18616993244E-01  0.64361736205E-02  0.24055902610E-01  0.00000000000E+00 0. -1.
     999901    1    3    3    0    0 -0.79009748826E-01  0.40473423897E-01 -0.11287288027E+00  0.89163945940E+00  0.88000000000E+00 0.  1.
        -11    1    4    4    0    0  0.13850233793E-01 -0.13514369670E-01  0.25429024229E-01  0.31958779043E-01  0.51100000000E-03 0.  1.
         11    1    4    4    0    0  0.51351195728E-01 -0.83420609824E-02  0.81007682423E-01  0.96275858951E-01  0.51100000000E-03 0. -1.
</event>
<event>
 8    1  0.1010879E+005  0.1043930E+01  0.7957747E-01            NaN
         13   -1    0    0    0    0  0.00000000000E+00  0.00000000000E+00  0.74505805969E-08  0.10566000000E+00  0.10566000000E+00 0. -1.
     999900   -1    0    0    0    0 -0.00000000000E+00 -0.00000000000E+00 -0.74505805969E-08  0.93827000000E+00  0.93827000000E+00 0. -1.
     999902    2    1    2    0    0 -0.46771878613E-02 -0.31307483315E-02 -0.23073323782E-01  0.10201801381E+01  0.10199036514E+01 0.  0.
     999903    2    3    3    0    0 -0.87823091847E-01 -0.47681696973E-01  0.79472106209E-01  0.12921796514E+00  0.19875290241E-01 0.  0.
         14    1    1    2    0    0  0.46771878613E-02  0.31307483315E-02  0.23073323782E-01  0.23749861931E-01  0.00000000000E+00 0. -1.
     999901    1    3    3    0    0  0.83145903986E-01  0.44550948641E-01 -0.10254542999E+00  0.89096217293E+00  0.88000000000E+00 0. -1.
        -11    1    4    4    0    0 -0.33999248410E-01 -0.83027031000E-02  0.23610104027E-01  0.42220633633E-01  0.51100000000E-03 0.  1.
         11    1    4    4    0    0 -0.53823843437E-01 -0.39378993873E-01  0.55862002182E-01  0.86997331508E-01  0.51100000000E-03 0. -1.
</event>
<event>
 8    1  0.1010879E+005  0.1043930E+01  0.7957747E-01            NaN
         13   -1    0    0    0    0  0.00000000000E+00  0.00000000000E+00  0.74505805969E-08  0.10566000000E+00  0.10566000000E+00 0.  1.
     999900   -1    0    0    0    0 -0.00000000000E+00 -0.00000000000E+00 -0.74505805969E-08  0.93827000000E+00  0.93827000000E+00 0. -1.
     999902    2    1    2    0    0  0.21436173036E-01 -0.10199690485E-01  0.11209105737E-02  0.10201644863E+01  0.10198876308E+01 0.  0.
     999903    2    3    3    0    0 -0.74139190728E-01  0.19643594823E-01  0.10140490489E+00  0.12882720371E+00  0.20760618002E-01 0.  0.
         14    1    1    2    0    0 -0.21436173036E-01  0.10199690485E-01 -0.11209105737E-02  0.23765513689E-01  0.00000000000E+00 0. -1.
     999901    1    3    3    0    0  0.95575363764E-01 -0.29843285308E-01 -0.10028399432E+00  0.89133728260E+00  0.88000000000E+00 0. -1.
        -11    1    4    4    0    0 -0.15518325151E-01 -0.14648812786E-02  0.11222529778E-01  0.19213812434E-01  0.51100000000E-03 0.  1.
         11    1    4    4    0    0 -0.58620865577E-01  0.21108476102E-01  0.90182375117E-01  0.10961339128E+00  0.51100000000E-03 0. -1.
</event>
<event>
 8    1  0.1010879E+005  0.1043930E+01  0.7957747E-01            NaN
         13   -1    0    0    0    0  0.00000000000E+00  0.00000000000E+00  0.74505805969E-08  0.10566000000E+00  0.10566000000E+00 0.  1.
     999900   -1    0    0    0    0 -0.00000000000E+00 -0.00000000000E+00 -0.74505805969E-08  0.93827000000E+00  0.93827000000E+00 0. -1.
     999902    2    1    2    0    0 -0.78103496332E-02 -0.78026463118E-02  0.20072967604E-01  0.10210213362E+01  0.10207643029E+01 0.  0.
     999903    2    3    3    0    0 -0.64311737667E-01  0.10464133978E+00  0.43303092376E-01  0.13176563864E+00  0.20030380069E-01 0.  0.
         14    1    1    2    0    0  0.78103496332E-02  0.78026463118E-02 -0.20072967604E-01  0.22908663848E-01  0.00000000000E+00 0. -1.
     999901    1    3    3    0    0  0.56501388034E-01 -0.11244398609E+00 -0.23230124773E-01  0.88925569751E+00  0.88000000000E+00 0. -1.
        -11    1    4    4    0    0 -0.24821959115E-01  0.56381989821E-01  0.27311002330E-01  0.67388503469E-01  0.51100000000E-03 0.  1.
         11    1    4    4    0    0 -0.39489778552E-01  0.48259349954E-01  0.15992090046E-01  0.64377135174E-01  0.51100000000E-03 0. -1.
</event>
<event>
 8    1  0.1010879E+005  0.1043930E+01  0.7957747E-01            NaN
         13   -1    0    0    0    0  0.00000000000E+00  0.00000000000E+00  0.74505805969E-08  0.10566000000E+00  0.10566000000E+00 0.  1.
     999900   -1    0    0    0    0 -0.00000000000E+00 -0.00000000000E+00 -0.74505805969E-08  0.93827000000E+00  0.93827000000E+00 0.  1.
     999902    2    1    2    0    0  0.15649638384E-01  0.15166920803E-01 -0.84205260199E-02  0.10205665258E+01  0.10202990648E+01 0.  0.
     999903    2    3    3    0    0  0.53707357464E-02 -0.71501704338E-01  0.10523136614E+00  0.12897589159E+00  0.20489062114E-01 0.  0.
         14    1    1    2    0    0 -0.15649638384E-01 -0.15166920803E-01  0.84205260199E-02  0.23363474199E-01  0.00000000000E+00 0.  1.
     999901    1    3    3    0    0  0.10278902637E-01  0.86668625141E-01 -0.11365189216E+00  0.89159063421E+00  0.88000000000E+00 0.  1.
        -11    1    4    4    0    0  0.83814307181E-02 -0.25582535847E-01  0.26485945866E-01  0.37768783018E-01  0.51100000000E-03 0. -1.
         11    1    4    4    0    0 -0.30106949717E-02 -0.45919168491E-01  0.78745420272E-01  0.91207108571E-01  0.51100000000E-03 0.  1.
</event>
<event>
 8    1  0.1010879E+005  0.1043930E+01  0.7957747E-01            NaN
         13   -1    0    0    0    0  0.00000000000E+00  0.00000000000E+00  0.74505805969E-08  0.10566000000E+00  0.10566000000E+00 0. -1.
     999900   -1    0    0    0    0 -0.00000000000E+00 -0.00000000000E+00 -0.74505805969E-08  0.93827000000E+00  0.93827000000E+00 0.  1.
     999902    2    1    2    0    0  0.62192524564E-02  0.21606092535E-01  0.66934805880E-02  0.10204714191E+01  0.10202017507E+01 0.  0.
     999903    2    3    3    0    0  0.72398598950E-01  0.48033171295E-01  0.98436302011E-01  0.13283701143E+00  0.20179776420E-01 0.  0.
         14    1    1    2    0    0 -0.62192524564E-02 -0.21606092535E-01 -0.66934805880E-02  0.23458580906E-01  0.00000000000E+00 0. -1.
     999901    1    3    3    0    0 -0.66179346494E-01 -0.26427078761E-01 -0.91742821423E-01  0.88763440767E+00  0.88000000000E+00 0.  1.
        -11    1    4    4    0    0  0.28573617816E-01  0.30743613638E-01  0.49624279408E-01  0.64995781728E-01  0.51100000000E-03 0. -1.
         11    1    4    4    0    0  0.43824981134E-01  0.17289557657E-01  0.48812022602E-01  0.67841229698E-01  0.51100000000E-03 0.  1.
</event>
<event>
 8    1  0.1010879E+005  0.1043930E+01  0.7957747E-01            NaN
         13   -1    0    0    0    0  0.00000000000E+00  0.00000000000E+00  0.74505805969E-08  0.10566000000E+00  0.10566000000E+00 0.  1.
     999900   -1    0    0    0    0 -0.00000000000E+00 -0.00000000000E+00 -0.74505805969E-08  0.93827000000E+00  0.93827000000E+00 0. -1.
     999902    2    1    2    0    0  0.67077933462E-02 -0.18105448001E-01 -0.13155598276E-01  0.10205661068E+01  0.10202986361E+01 0.  0.
     999903    2    3    3    0    0 -0.91525192911E-01  0.75131628446E-01 -0.48389257572E-01  0.12950814980E+00  0.20229139508E-01 0.  0.
         14    1    1    2    0    0 -0.67077933462E-02  0.18105448001E-01  0.13155598276E-01  0.23363893187E-01  0.00000000000E+00 0.  1.
     999901    1    3    3    0    0  0.98232986257E-01 -0.93237076446E-01  0.35233659296E-01  0.89105795702E+00  0.88000000000E+00 0.  1.
        -11    1    4    4    0    0 -0.41829627620E-01  0.25344714376E-01 -0.12253012633E-01  0.50422908813E-01  0.51100000000E-03 0.  1.
         11    1    4    4    0    0 -0.49695565291E-01  0.49786914070E-01 -0.36136244939E-01  0.79085240984E-01  0.51100000000E-03 0. -1.
</event>
<event>
 8    1  0.1010879E+005  0.1043930E+01  0.7957747E-01            NaN
         13   -1    0    0    0    0  0.00000000000E+00  0.00000000000E+00  0.74505805969E-08  0.10566000000E+00  0.10566000000E+00 0.  1.
     999900   -1    0    0    0    0 -0.00000000000E+00 -0.00000000000E+00 -0.74505805969E-08  0.93827000000E+00  0.93827000000E+00 0.  1.
     999902    2    1    2    0    0  0.13104867338E-01  0.16144481147E-01  0.11493184728E-01  0.10201713150E+01  0.10198946204E+01 0.  0.
     999903    2    3    3    0    0 -0.12719684355E+00  0.21825177149E-04  0.72800418345E-02  0.12890128816E+00  0.19583298873E-01 0.  0.
         14    1    1    2    0    0 -0.13104867338E-01 -0.16144481147E-01 -0.11493184728E-01  0.23758685036E-01  0.00000000000E+00 0. -1.
     999901    1    3    3    0    0  0.14030171088E+00  0.16122655970E-01  0.42131428936E-02  0.89127002681E+00  0.88000000000E+00 0.  1.
        -11    1    4    4    0    0 -0.75131878873E-01  0.88644200747E-02  0.51263700158E-03  0.75656467562E-01  0.51100000000E-03 0. -1.
         11    1    4    4    0    0 -0.52064964673E-01 -0.88425948976E-02  0.67674048330E-02  0.53244820594E-01  0.51100000000E-03 0.  1.
</event>
<event>
 8    1  0.1010879E+005  0.1043930E+01  0.7957747E-01            NaN
         13   -1    0    0    0    0  0.00000000000E+00  0.00000000000E+00  0.74505805969E-08  0.10566000000E+00  0.10566000000E+00 0.  1.
     999900   -1    0    0    0    0 -0.00000000000E+00 -0.00000000000E+00 -0.74505805969E-08  0.93827000000E+00  0.93827000000E+00 0.  1.
     999902    2    1    2    0    0  0.23092701062E-01 -0.33355289960E-02  0.49457169812E-02  0.10200792408E+01  0.10198003721E+01 0.  0.
     999903    2    3    3    0    0 -0.38998479951E-01  0.67275550932E-01  0.10206057977E+00  0.12975764954E+00  0.19334023866E-01 0.  0.
         14    1    1    2    0    0 -0.23092701062E-01  0.33355289960E-02 -0.49457169812E-02  0.23850759160E-01  0.00000000000E+00 0.  1.
     999901    1    3    3    0    0  0.62091181013E-01 -0.70611079928E-01 -0.97114862787E-01  0.89032159130E+00  0.88000000000E+00 0.  1.
        -11    1    4    4    0    0 -0.11259986493E-01  0.35424888696E-01  0.39202699477E-01  0.54026130735E-01  0.51100000000E-03 0. -1.
         11    1    4    4    0    0 -0.27738493458E-01  0.31850662237E-01  0.62857880291E-01  0.75731518801E-01  0.51100000000E-03 0.  1.
</event>
<event>
 8    1  0.1010879E+005  0.1043930E+01  0.7957747E-01            NaN
         13   -1    0    0    0    0  0.00000000000E+00  0.00000000000E+00  0.74505805969E-08  0.10566000000E+00  0.10566000000E+00 0. -1.
     999900   -1    0    0    0    0 -0.00000000000E+00 -0.00000000000E+00 -0.74505805969E-08  0.93827000000E+00  0.93827000000E+00 0. -1.
     999902    2    1    2    0    0 -0.14240327153E-01  0.80008467396E-02 -0.16660344180E-01  0.10205983148E+01  0.10203315896E+01 0.  0.
     999903    2    3    3    0    0 -0.23804456917E-01 -0.11092294607E+00 -0.63135600566E-01  0.13133216199E+00  0.19785868250E-01 0.  0.
         14    1    1    2    0    0  0.14240327153E-01 -0.80008467396E-02  0.16660344180E-01  0.23331685198E-01  0.00000000000E+00 0. -1.
     999901    1    3    3    0    0  0.95641297635E-02  0.11892379280E+00  0.46475256386E-01  0.88926615281E+00  0.88000000000E+00 0.  1.
        -11    1    4    4    0    0 -0.55895466070E-02 -0.71420258928E-01 -0.38170305030E-01  0.81174686471E-01  0.51100000000E-03 0.  1.
         11    1    4    4    0    0 -0.18214910310E-01 -0.39502687137E-01 -0.24965295536E-01  0.50157475523E-01  0.51100000000E-03 0. -1.
</event>
<event>
 8    1  0.1010879E+005  0.1043930E+01  0.7957747E-01            NaN
         13   -1    0    0    0    0  0.00000000000E+00  0.00000000000E+00  0.74505805969E-08  0.10566000000E+00  0.10566000000E+00 0.  1.
     999900   -1    0    0    0    0 -0.00000000000E+00 -0.00000000000E+00 -0.74505805969E-08  0.93827000000E+00  0.93827000000E+00 0. -1.
     999902    2    1    2    0    0 -0.20242711596E-01  0.10594769161E-01 -0.43461443740E-02  0.10206726253E+01  0.10204076159E+01 0.  0.
     999903    2    3    3    0    0  0.10649998333E+00  0.59009073936E-01 -0.38511509603E-01  0.12961991767E+00  0.22223173214E-01 0.  0.
         14    1    1    2    0    0  0.20242711596E-01 -0.10594769161E-01  0.43461443740E-02  0.23257374685E-01  0.00000000000E+00 0.  1.
     999901    1    3    3    0    0 -0.12674269493E+00 -0.48414304775E-01  0.34165365229E-01  0.89105270765E+00  0.88000000000E+00 0. -1.
        -11    1    4    4    0    0  0.75187727320E-01  0.37240133724E-01 -0.36284113522E-01  0.91415643707E-01  0.51100000000E-03 0. -1.
         11    1    4    4    0    0  0.31312256012E-01  0.21768940212E-01 -0.22273960810E-02  0.38204273960E-01  0.51100000000E-03 0.  1.
</event>
<event>
 8    1  0.1010879E+005  0.1043930E+01  0.7957747E-01            NaN
         13   -1    0    0    0    0  0.00000000000E+00  0.00000000000E+00  0.74505805969E-08  0.10566000000E+00  0.10566000000E+00 0.  1.
     999900   -1    0    0    0    0 -0.00000000000E+00 -0.00000000000E+00 -0.74505805969E-08  0.93827000000E+00  0.93827000000E+00 0. -1.
     999902    2    1    2    0    0 -0.25181055202E-01  0.14556779278E-02  0.36748786565E-02  0.10184406047E+01  0.10181215822E+01 0.  0.
     999903    2    3    3    0    0  0.26866446362E-01 -0.12311899522E+00  0.10831306022E-01  0.12811537982E+00  0.20399520427E-01 0.  0.
         14    1    1    2    0    0  0.25181055202E-01 -0.14556779278E-02 -0.36748786565E-02  0.25489395294E-01  0.00000000000E+00 0.  1.
     999901    1    3    3    0    0 -0.52047501563E-01  0.12457467315E+00 -0.71564273655E-02  0.89032522488E+00  0.88000000000E+00 0.  1.
        -11    1    4    4    0    0  0.13609773267E-01 -0.74635427630E-01  0.16153693289E-01  0.77568523988E-01  0.51100000000E-03 0. -1.
         11    1    4    4    0    0  0.13256673095E-01 -0.48483567589E-01 -0.53223872668E-02  0.50546855836E-01  0.51100000000E-03 0.  1.
</event>
<event>
 8    1  0.1010879E+005  0.1043930E+01  0.7957747E-01            NaN
         13   -1    0    0    0    0  0.00000000000E+00  0.00000000000E+00  0.74505805969E-08  0.10566000000E+00  0.10566000000E+00 0.  1.
     999900   -1    0    0    0    0 -0.00000000000E+00 -0.00000000000E+00 -0.74505805969E-08  0.93827000000E+00  0.93827000000E+00 0.  1.
     999902    2    1    2    0    0 -0.20892905127E-01  0.72755641369E-02  0.92659759030E-02  0.10199444705E+01  0.10196624035E+01 0.  0.
     999903    2    3    3    0    0 -0.18065613816E-01  0.74869717307E-01  0.10555136589E+00  0.13211124318E+00  0.19505095818E-01 0.  0.
         14    1    1    2    0    0  0.20892905127E-01 -0.72755641369E-02 -0.92659759030E-02  0.23985529546E-01  0.00000000000E+00 0. -1.
     999901    1    3    3    0    0 -0.28272913107E-02 -0.67594153170E-01 -0.96285389985E-01  0.88783322727E+00  0.88000000000E+00 0.  1.
        -11    1    4    4    0    0  0.27742606105E-02  0.24973691574E-01  0.38403809097E-01  0.45896573586E-01  0.51100000000E-03 0. -1.
         11    1    4    4    0    0 -0.20839874427E-01  0.49896025733E-01  0.67147556791E-01  0.86214669599E-01  0.51100000000E-03 0.  1.
</event>
<event>
 8    1  0.1010879E+005  0.1043930E+01  0.7957747E-01            NaN
         13   -1    0    0    0    0  0.00000000000E+00  0.00000000000E+00  0.74505805969E-08  0.10566000000E+00  0.10566000000E+00 0.  1.
     999900   -1    0    0    0    0 -0.00000000000E+00 -0.00000000000E+00 -0.74505805969E-08  0.93827000000E+00  0.93827000000E+00 0.  1.
     999902    2    1    2    0    0 -0.15841381019E-01  0.17902003249E-01  0.76248251550E-02  0.10188387858E+01  0.10185297749E+01 0.  0.
     999903    2    3    3    0    0  0.11090017132E+00  0.45726981668E-01 -0.40213243290E-01  0.12803794871E+00  0.19667397427E-01 0.  0.
         14    1    1    2    0    0  0.15841381019E-01 -0.17902003249E-01 -0.76248251550E-02  0.25091214231E-01  0.00000000000E+00 0. -1.
     999901    1    3    3    0    0 -0.12674155234E+00 -0.27824978419E-01  0.47838068445E-01  0.89080083706E+00  0.88000000000E+00 0. -1.
        -11    1    4    4    0    0  0.26054556228E-01  0.21427653692E-02 -0.97206628632E-02  0.27895945067E-01  0.51100000000E-03 0. -1.
         11    1    4    4    0    0  0.84845615097E-01  0.43584216299E-01 -0.30492580426E-01  0.10014200364E+00  0.51100000000E-03 0.  1.
</event>
<event>
 8    1  0.1010879E+005  0.1043930E+01  0.7957747E-01            NaN
         13   -1    0    0    0    0  0.00000000000E+00  0.00000000000E+00  0.74505805969E-08  0.10566000000E+00  0.10566000000E+00 0. -1.
     999900   -1    0    0    0    0 -0.00000000000E+00 -0.00000000000E+00 -0.74505805969E-08  0.93827000000E+00  0.93827000000E+00 0. -1.
     999902    2    1    2    0    0 -0.12542289420E-01  0.18876711549E-01  0.17118452196E-02  0.10212018308E+01  0.10209488770E+01 0.  0.
     999903    2    3    3    0    0 -0.38951446158E-01 -0.72844420847E-01  0.99378188248E-01  0.13066888682E+00  0.19359981325E-01 0.  0.
         14    1    1    2    0    0  0.12542289420E-01 -0.18876711549E-01 -0.17118452196E-02  0.22728169237E-01  0.00000000000E+00 0. -1.
     999901    1    3    3    0    0  0.26409156738E-01  0.91721132396E-01 -0.97666343029E-01  0.89053294394E+00  0.88000000000E+00 0. -1.
        -11    1    4    4    0    0 -0.26359618455E-01 -0.54955284966E-01  0.84573197871E-01  0.10424873980E+00  0.51100000000E-03 0.  1.
         11    1    4    4    0    0 -0.12591827704E-01 -0.17889135881E-01  0.14804990377E-01  0.26420147020E-01  0.51100000000E-03 0. -1.
</event>
<event>
 8    1  0.1010879E+005  0.1043930E+01  0.7957747E-01            NaN
         13   -1    0    0    0    0  0.00000000000E+00  0.00000000000E+00  0.74505805969E-08  0.10566000000E+00  0.10566000000E+00 0. -1.
     999900   -1    0    0    0    0 -0.00000000000E+00 -0.00000000000E+00 -0.74505805969E-08  0.93827000000E+00  0.93827000000E+00 0. -1.
     999902    2    1    2    0    0  0.24283304290E-02  0.17405534962E-01  0.12974403972E-01  0.10220854447E+01  0.10218519813E+01 0.  0.
     999903    2    3    3    0    0  0.55257764763E-01  0.78556514877E-01 -0.89179261503E-01  0.13249803316E+00  0.19448432140E-01 0.  0.
         14    1    1    2    0    0 -0.24283304290E-02 -0.17405534962E-01 -0.12974403972E-01  0.21844555258E-01  0.00000000000E+00 0.  1.
     999901    1    3    3    0    0 -0.52829434334E-01 -0.61150979914E-01  0.10215366547E+00  0.88958741158E+00  0.88000000000E+00 0.  1.
        -11    1    4    4    0    0  0.27011977599E-01  0.31143704776E-01 -0.26634486479E-01  0.49083951266E-01  0.51100000000E-03 0. -1.
         11    1    4    4    0    0  0.28245787165E-01  0.47412810101E-01 -0.62544775024E-01  0.83414081893E-01  0.51100000000E-03 0.  1.
</event>
<event>
 8    1  0.1010879E+005  0.1043930E+01  0.7957747E-01            NaN
         13   -1    0    0    0    0  0.00000000000E+00  0.00000000000E+00  0.74505805969E-08  0.10566000000E+00  0.10566000000E+00 0.  1.
     999900   -1    0    0    0    0 -0.00000000000E+00 -0.00000000000E+00 -0.74505805969E-08  0.93827000000E+00  0.93827000000E+00 0.  1.
     999902    2    1    2    0    0  0.21163726296E-01  0.92941379703E-02  0.94264429272E-02  0.10189671849E+01  0.10186613676E+01 0.  0.
     999903    2    3    3    0    0  0.12270131442E+00 -0.35718327760E-01  0.26121930330E-01  0.13182867082E+00  0.19105802953E-01 0.  0.
         14    1    1    2    0    0 -0.21163726296E-01 -0.92941379703E-02 -0.94264429272E-02  0.24962815097E-01  0.00000000000E+00 0.  1.
     999901    1    3    3    0    0 -0.10153758813E+00  0.45012465730E-01 -0.16695487402E-01  0.88713851409E+00  0.88000000000E+00 0. -1.
        -11    1    4    4    0    0  0.69866410294E-01 -0.13185436792E-01  0.21109139580E-01  0.74168914820E-01  0.51100000000E-03 0. -1.
         11    1    4    4    0    0  0.52834904128E-01 -0.22532890968E-01  0.50127907497E-02  0.57659755998E-01  0.51100000000E-03 0.  1.
</event>
<event>
 8    1  0.1010879E+005  0.1043930E+01  0.7957747E-01            NaN
         13   -1    0    0    0    0  0.00000000000E+00  0.00000000000E+00  0.74505805969E-08  0.10566000000E+00  0.10566000000E+00 0. -1.
     999900   -1    0    0    0    0 -0.00000000000E+00 -0.00000000000E+00 -0.74505805969E-08  0.93827000000E+00  0.93827000000E+00 0. -1.
     999902    2    1    2    0    0  0.24517457033E-01 -0.70338851507E-03 -0.63607094528E-02  0.10185911153E+01  0.10182758963E+01 0.  0.
     999903    2    3    3    0    0 -0.73019871202E-01  0.94526753794E-01 -0.39807142041E-01  0.12746768147E+00  0.19904584634E-01 0.  0.
         14    1    1    2    0    0 -0.24517457033E-01  0.70338851507E-03  0.63607094528E-02  0.25338884733E-01  0.00000000000E+00 0. -1.
     999901    1    3    3    0    0  0.97537328235E-01 -0.95230142309E-01  0.33446432588E-01  0.89112343379E+00  0.88000000000E+00 0. -1.
        -11    1    4    4    0    0 -0.14883882993E-02  0.53554327680E-02 -0.61344912606E-02  0.82939172824E-02  0.51100000000E-03 0.  1.
         11    1    4    4    0    0 -0.71531482903E-01  0.89171321026E-01 -0.33672650781E-01  0.11917376419E+00  0.51100000000E-03 0. -1.
</event>
<event>
 8    1  0.1010879E+005  0.1043930E+01  0.7957747E-01            NaN
         13   -1    0    0    0    0  0.00000000000E+00  0.00000000000E+00  0.74505805969E-08  0.10566000000E+00  0.10566000000E+00 0.  1.
     999900   -1    0    0    0    0 -0.00000000000E+00 -0.00000000000E+00 -0.74505805969E-08  0.93827000000E+00  0.93827000000E+00 0.  1.
     999902    2    1    2    0    0 -0.41257956561E-02 -0.22926170625E-01  0.25485197700E-02  0.10204965529E+01  0.10202274688E+01 0.  0.
     999903    2    3    3    0    0 -0.72644390895E-02 -0.12584061527E+00 -0.38899802491E-01  0.13352462697E+00  0.20663950423E-01 0.  0.
         14    1    1    2    0    0  0.41257956561E-02  0.22926170625E-01 -0.25485197700E-02  0.23433447086E-01  0.00000000000E+00 0. -1.
     999901    1    3    3    0    0  0.31386434333E-02  0.10291444464E+00  0.41448322261E-01  0.88697192595E+00  0.88000000000E+00 0. -1.
        -11    1    4    4    0    0  0.41878832648E-02 -0.55069297820E-01 -0.95230127066E-02  0.56045649435E-01  0.51100000000E-03 0.  1.
         11    1    4    4    0    0 -0.11452322354E-01 -0.70771317447E-01 -0.29376789784E-01  0.77478977532E-01  0.51100000000E-03 0. -1.
</event>
<event>
 8    1  0.1010879E+005  0.1043930E+01  0.7957747E-01            NaN
         13   -1    0    0    0    0  0.00000000000E+00  0.00000000000E+00  0.74505805969E-08  0.10566000000E+00  0.10566000000E+00 0.  1.
     999900   -1    0    0    0    0 -0.00000000000E+00 -0.00000000000E+00 -0.74505805969E-08  0.93827000000E+00  0.93827000000E+00 0.  1.
     999902    2    1    2    0    0  0.11906684601E-02 -0.17220581388E-01 -0.15554460749E-01  0.10206940932E+01  0.10204295784E+01 0.  0.
     999903    2    3    3    0    0  0.10114113086E+00 -0.31809796904E-01 -0.77412722906E-01  0.13275863118E+00  0.19766966247E-01 0.  0.
         14    1    1    2    0    0 -0.11906684601E-02  0.17220581388E-01  0.15554460749E-01  0.23235906781E-01  0.00000000000E+00 0.  1.
     999901    1    3    3    0    0 -0.99950462403E-01  0.14589215516E-01  0.61858262157E-01  0.88793546204E+00  0.88000000000E+00 0. -1.
        -11    1    4    4    0    0  0.85229583250E-01 -0.26925346760E-01 -0.55408898490E-01  0.10516398296E+00  0.51100000000E-03 0. -1.
         11    1    4    4    0    0  0.15911547613E-01 -0.48844501443E-02 -0.22003824416E-01  0.27594648224E-01  0.51100000000E-03 0.  1.
</event>
<event>
 8    1  0.1010879E+005  0.1043930E+01  0.7957747E-01            NaN
         13   -1    0    0    0    0  0.00000000000E+00  0.00000000000E+00  0.74505805969E-08  0.10566000000E+00  0.10566000000E+00 0.  1.
     999900   -1    0    0    0    0 -0.00000000000E+00 -0.00000000000E+00 -0.74505805969E-08  0.93827000000E+00  0.93827000000E+00 0.  1.
     999902    2    1    2    0    0 -0.70787387627E-02  0.88960120302E-02 -0.22241425898E-01  0.10189514372E+01  0.10186452291E+01 0.  0.
     999903    2    3    3    0    0  0.25269988544E-01 -0.87964351366E-01 -0.90565842324E-01  0.13041522747E+00  0.20728249526E-01 0.  0.
         14    1    1    2    0    0  0.70787387627E-02 -0.88960120302E-02  0.22241425898E-01  0.24978562779E-01  0.00000000000E+00 0.  1.
     999901    1    3    3    0    0 -0.32348727307E-01  0.96860363396E-01  0.68324416426E-01  0.88853620975E+00  0.88000000000E+00 0. -1.
        -11    1    4    4    0    0  0.18117514546E-01 -0.35690398736E-01 -0.29579377649E-01  0.49771976034E-01  0.51100000000E-03 0. -1.
         11    1    4    4    0    0  0.71524739981E-02 -0.52273952631E-01 -0.60986464674E-01  0.80643251437E-01  0.51100000000E-03 0.  1.
</event>
<event>
 8    1  0.1010879E+005  0.1043930E+01  0.7957747E-01            NaN
         13   -1    0    0    0    0  0.00000000000E+00  0.00000000000E+00  0.74505805969E-08  0.10566000000E+00  0.10566000000E+00 0.  1.
     999900   -1    0    0    0    0 -0.00000000000E+00 -0.00000000000E+00 -0.74505805969E-08  0.93827000000E+00  0.93827000000E+00 0.  1.
     999902    2    1    2    0    0 -0.21863773974E-01 -0.66219321057E-03  0.94902865313E-02  0.10200861612E+01  0.10198074561E+01 0.  0.
     999903    2    3    3    0    0  0.66104105801E-01  0.96642523626E-01 -0.48346127023E-01  0.12848557428E+00  0.21486382269E-01 0.  0.
         14    1    1    2    0    0  0.21863773974E-01  0.66219321057E-03 -0.94902865313E-02  0.23843838842E-01  0.00000000000E+00 0. -1.
     999901    1    3    3    0    0 -0.87967879776E-01 -0.97304716837E-01  0.57836413554E-01  0.89160058688E+00  0.88000000000E+00 0. -1.
        -11    1    4    4    0    0  0.36900483386E-01  0.35144918059E-01 -0.20730002226E-01  0.55016407124E-01  0.51100000000E-03 0. -1.
         11    1    4    4    0    0  0.29203622415E-01  0.61497605567E-01 -0.27616124797E-01  0.73469167155E-01  0.51100000000E-03 0.  1.
</event>
<event>
 8    1  0.1010879E+005  0.1043930E+01  0.7957747E-01            NaN
         13   -1    0    0    0    0  0.00000000000E+00  0.00000000000E+00  0.74505805969E-08  0.10566000000E+00  0.10566000000E+00 0.  1.
     999900   -1    0    0    0    0 -0.00000000000E+00 -0.00000000000E+00 -0.74505805969E-08  0.93827000000E+00  0.93827000000E+00 0.  1.
     999902    2    1    2    0    0  0.11147921740E-01 -0.76324355217E-02  0.18953903314E-01  0.10206538173E+01  0.10203883741E+01 0.  0.
     999903    2    3    3    0    0 -0.12082103576E+00  0.67984536507E-02  0.44052156232E-01  0.13034264774E+00  0.20116453421E-01 0.  0.
         14    1    1    2    0    0 -0.11147921740E-01  0.76324355217E-02 -0.18953903314E-01  0.23276182719E-01  0.00000000000E+00 0. -1.
     999901    1    3    3    0    0  0.13196895750E+00 -0.14430889172E-01 -0.25098252918E-01  0.89031116954E+00  0.88000000000E+00 0. -1.
        -11    1    4    4    0    0 -0.36638552232E-01 -0.68181141109E-02  0.10723592117E-01  0.38783072836E-01  0.51100000000E-03 0.  1.
         11    1    4    4    0    0 -0.84182483526E-01  0.13616567762E-01  0.33328564115E-01  0.91559574907E-01  0.51100000000E-03 0. -1.
</event>
<event>
 8    1  0.1010879E+005  0.1043930E+01  0.7957747E-01            NaN
         13   -1    0    0    0    0  0.00000000000E+00  0.00000000000E+00  0.74505805969E-08  0.10566000000E+00  0.10566000000E+00 0. -1.
     999900   -1    0    0    0    0 -0.00000000000E+00 -0.00000000000E+00 -0.74505805969E-08  0.93827000000E+00  0.93827000000E+00 0.  1.
     999902    2    1    2    0    0  0.18284339181E-01  0.13882229248E-01  0.33975148616E-02  0.10207227499E+01  0.10204588947E+01 0.  0.
     999903    2    3    3    0    0  0.86937505957E-01 -0.77875927772E-01 -0.56633578379E-01  0.13126417932E+00  0.20003312345E-01 0.  0.
         14    1    1    2    0    0 -0.18284339181E-01 -0.13882229248E-01 -0.33975148616E-02  0.23207250061E-01  0.00000000000E+00 0.  1.
     999901    1    3    3    0    0 -0.68653166777E-01  0.91758157020E-01  0.60031093240E-01  0.88945857062E+00  0.88000000000E+00 0. -1.
        -11    1    4    4    0    0  0.77058559001E-01 -0.64703568960E-01 -0.55097528262E-01  0.11471953667E+00  0.51100000000E-03 0. -1.
         11    1    4    4    0    0  0.98789469561E-02 -0.13172358812E-01 -0.15360501165E-02  0.16544642655E-01  0.51100000000E-03 0.  1.
</event>
<event>
 8    1  0.1010879E+005  0.1043930E+01  0.7957747E-01            NaN
         13   -1    0    0    0    0  0.00000000000E+00  0.00000000000E+00  0.74505805969E-08  0.10566000000E+00  0.10566000000E+00 0. -1.
     999900   -1    0    0    0    0 -0.00000000000E+00 -0.00000000000E+00 -0.74505805969E-08  0.93827000000E+00  0.93827000000E+00 0. -1.
     999902    2    1    2    0    0 -0.11615054655E-01  0.19458740931E-01  0.61207871134E-02  0.10204562673E+01  0.10201862464E+01 0.  0.
     999903    2    3    3    0    0 -0.98244804398E-01  0.58525826894E-01  0.66072901658E-01  0.13331185581E+00  0.18141349511E-01 0.  0.
         14    1    1    2    0    0  0.11615054655E-01 -0.19458740931E-01 -0.61207871134E-02  0.23473732727E-01  0.00000000000E+00 0. -1.
     999901    1    3    3    0    0  0.86629749743E-01 -0.39067085963E-01 -0.59952114544E-01  0.88714441146E+00  0.88000000000E+00 0. -1.
        -11    1    4    4    0    0 -0.27888734226E-01  0.24164978063E-01  0.15057091759E-01  0.39858559868E-01  0.51100000000E-03 0.  1.
         11    1    4    4    0    0 -0.70356070172E-01  0.34360848831E-01  0.51015809898E-01  0.93453295945E-01  0.51100000000E-03 0. -1.
</event>
<event>
 8    1  0.1010879E+005  0.1043930E+01  0.7957747E-01            NaN
         13   -1    0    0    0    0  0.00000000000E+00  0.00000000000E+00  0.74505805969E-08  0.10566000000E+00  0.10566000000E+00 0.  1.
     999900   -1    0    0    0    0 -0.00000000000E+00 -0.00000000000E+00 -0.74505805969E-08  0.93827000000E+00  0.93827000000E+00 0.  1.
     999902    2    1    2    0    0  0.49733457057E-02  0.21450199153E-01 -0.49615551934E-02  0.10213587297E+01  0.10211092951E+01 0.  0.
     999903    2    3    3    0    0 -0.22183940459E-01  0.99946178645E-01  0.82601032897E-01  0.13312095537E+00  0.20417940210E-01 0.  0.
         14    1    1    2    0    0 -0.49733457057E-02 -0.21450199153E-01  0.49615551934E-02  0.22571270260E-01  0.00000000000E+00 0.  1.
     999901    1    3    3    0    0  0.27157286165E-01 -0.78495979492E-01 -0.87562588091E-01  0.88823777437E+00  0.88000000000E+00 0.  1.
        -11    1    4    4    0    0 -0.83346743852E-02  0.67440272540E-01  0.63233695246E-01  0.92824665326E-01  0.51100000000E-03 0.  1.
         11    1    4    4    0    0 -0.13849266074E-01  0.32505906105E-01  0.19367337651E-01  0.40296290042E-01  0.51100000000E-03 0. -1.
</event>
<event>
 8    1  0.1010879E+005  0.1043930E+01  0.7957747E-01            NaN
         13   -1    0    0    0    0  0.00000000000E+00  0.00000000000E+00  0.74505805969E-08  0.10566000000E+00  0.10566000000E+00 0. -1.
     999900   -1    0    0    0    0 -0.00000000000E+00 -0.00000000000E+00 -0.74505805969E-08  0.93827000000E+00  0.93827000000E+00 0. -1.
     999902    2    1    2    0    0  0.21357818867E-01  0.25889389578E-03  0.96917929779E-02  0.10204746317E+01  0.10202050380E+01 0.  0.
     999903    2    3    3    0    0 -0.25276254936E-01 -0.78138782984E-01  0.10033739060E+00  0.13112792933E+00  0.19554626791E-01 0.  0.
         14    1    1    2    0    0 -0.21357818867E-01 -0.25889389578E-03 -0.96917929779E-02  0.23455368339E-01  0.00000000000E+00 0.  1.
     999901    1    3    3    0    0  0.46634073803E-01  0.78397676880E-01 -0.90645597618E-01  0.88934670233E+00  0.88000000000E+00 0. -1.
        -11    1    4    4    0    0 -0.16945478317E-01 -0.35490930096E-01  0.60579640850E-01  0.72228175673E-01  0.51100000000E-03 0.  1.
         11    1    4    4    0    0 -0.83307766183E-02 -0.42647852888E-01  0.39757749746E-01  0.58899753657E-01  0.51100000000E-03 0. -1.
</event>
<event>
 8    1  0.1010879E+005  0.1043930E+01  0.7957747E-01            NaN
         13   -1    0    0    0    0  0.00000000000E+00  0.00000000000E+00  0.74505805969E-08  0.10566000000E+00  0.10566000000E+00 0. -1.
     999900   -1    0    0    0    0 -0.00000000000E+00 -0.00000000000E+00 -0.74505805969E-08  0.93827000000E+00  0.93827000000E+00 0. -1.
     999902    2    1    2    0    0  0.19037136008E-01  0.12380280716E-01 -0.73473275479E-02  0.10200622996E+01  0.10197830299E+01 0.  0.
     999903    2    3    3    0    0  0.45250649104E-01 -0.64468817006E-01  0.10077224225E+00  0.12973495902E+00  0.21731662927E-01 0.  0.
         14    1    1    2    0    0 -0.19037136008E-01 -0.12380280716E-01  0.73473275479E-02  0.23867700352E-01  0.00000000000E+00 0. -1.
     999901    1    3    3    0    0 -0.26213513097E-01  0.76849097722E-01 -0.10811956980E+00  0.89032734062E+00  0.88000000000E+00 0. -1.
        -11    1    4    4    0    0  0.36774580892E-01 -0.58544675076E-01  0.75233506851E-01  0.10217725018E+00  0.51100000000E-03 0.  1.
         11    1    4    4    0    0  0.84760682120E-02 -0.59241419296E-02  0.25538735402E-01  0.27557708847E-01  0.51100000000E-03 0. -1.
</event>
<event>
 8    1  0.1010879E+005  0.1043930E+01  0.7957747E-01            NaN
         13   -1    0    0    0    0  0.00000000000E+00  0.00000000000E+00  0.74505805969E-08  0.10566000000E+00  0.10566000000E+00 0.  1.
     999900   -1    0    0    0    0 -0.00000000000E+00 -0.00000000000E+00 -0.74505805969E-08  0.93827000000E+00  0.93827000000E+00 0.  1.
     999902    2    1    2    0    0 -0.18360696035E-01  0.12625086884E-01  0.10371166527E-01  0.10193521833E+01  0.10190558398E+01 0.  0.
     999903    2    3    3    0    0 -0.69832756102E-01 -0.17578269236E-02  0.11042154018E+00  0.13207189026E+00  0.19244840361E-01 0.  0.
         14    1    1    2    0    0  0.18360696035E-01 -0.12625086884E-01 -0.10371166527E-01  0.24577816682E-01  0.00000000000E+00 0.  1.
     999901    1    3    3    0    0  0.51472060068E-01  0.14382913808E-01 -0.10005037366E+00  0.88728029306E+00  0.88000000000E+00 0.  1.
        -11    1    4    4    0    0 -0.36164817876E-01 -0.81659671620E-02  0.68780455956E-01  0.78138270484E-01  0.51100000000E-03 0.  1.
         11    1    4    4    0    0 -0.33667938226E-01  0.64081402385E-02  0.41641084228E-01  0.53933619778E-01  0.51100000000E-03 0. -1.
</event>
<event>
 8    1  0.1010879E+005  0.1043930E+01  0.7957747E-01            NaN
         13   -1    0    0    0    0  0.00000000000E+00  0.00000000000E+00  0.74505805969E-08  0.10566000000E+00  0.10566000000E+00 0. -1.
     999900   -1    0    0    0    0 -0.00000000000E+00 -0.00000000000E+00 -0.74505805969E-08  0.93827000000E+00  0.93827000000E+00 0. -1.
     999902    2    1    2    0    0  0.15851659041E-03  0.79055291574E-03  0.23238345602E-01  0.10206776709E+01  0.10204127778E+01 0.  0.
     999903    2    3    3    0    0  0.10144597750E+00 -0.79622575749E-01  0.14569755542E-01  0.13118311475E+00  0.19123046289E-01 0.  0.
         14    1    1    2    0    0 -0.15851659041E-03 -0.79055291574E-03 -0.23238345602E-01  0.23252329082E-01  0.00000000000E+00 0.  1.
     999901    1    3    3    0    0 -0.10128746091E+00  0.80413128665E-01  0.86685900602E-02  0.88949455617E+00  0.88000000000E+00 0.  1.
        -11    1    4    4    0    0  0.32318497437E-01 -0.14613080452E-01  0.44175733947E-02  0.35746377055E-01  0.51100000000E-03 0. -1.
         11    1    4    4    0    0  0.69127480061E-01 -0.65009495297E-01  0.10152182147E-01  0.95436737694E-01  0.51100000000E-03 0.  1.
</event>
<event>
 8    1  0.1010879E+005  0.1043930E+01  0.7957747E-01            NaN
         13   -1    0    0    0    0  0.00000000000E+00  0.00000000000E+00  0.74505805969E-08  0.10566000000E+00  0.10566000000E+00 0. -1.
     999900   -1    0    0    0    0 -0.00000000000E+00 -0.00000000000E+00 -0.74505805969E-08  0.93827000000E+00  0.93827000000E+00 0. -1.
     999902    2    1    2    0    0  0.21824107099E-01 -0.93849892052E-02 -0.24015804701E-02  0.10200524528E+01  0.10197729498E+01 0.  0.
     999903    2    3    3    0    0  0.68602592602E-01 -0.30867315115E-01 -0.10722626269E+00  0.13233744724E+00  0.18884429493E-01 0.  0.
         14    1    1    2    0    0 -0.21824107099E-01  0.93849892052E-02  0.24015804701E-02  0.23877547232E-01  0.00000000000E+00 0.  1.
     999901    1    3    3    0    0 -0.46778485503E-01  0.21482325910E-01  0.10482468222E+00  0.88771500553E+00  0.88000000000E+00 0.  1.
        -11    1    4    4    0    0  0.38866418417E-01 -0.19394357698E-01 -0.45747297742E-01  0.63085782573E-01  0.51100000000E-03 0.  1.
         11    1    4    4    0    0  0.29736174185E-01 -0.11472957416E-01 -0.61478964951E-01  0.69251664669E-01  0.51100000000E-03 0. -1.
</event>
<event>
 8    1  0.1010879E+005  0.1043930E+01  0.7957747E-01            NaN
         13   -1    0    0    0    0  0.00000000000E+00  0.00000000000E+00  0.74505805969E-08  0.10566000000E+00  0.10566000000E+00 0.  1.
     999900   -1    0    0    0    0 -0.00000000000E+00 -0.00000000000E+00 -0.74505805969E-08  0.93827000000E+00  0.93827000000E+00 0.  1.
     999902    2    1    2    0    0  0.24238577356E-01  0.52689583826E-03  0.10290952922E-01  0.10175920053E+01  0.10172510995E+01 0.  0.
     999903    2    3    3    0    0  0.22715285213E-01  0.31635562237E-01 -0.11902788299E+00  0.12759569586E+00  0.24417855994E-01 0.  0.
         14    1    1    2    0    0 -0.24238577356E-01 -0.52689583826E-03 -0.10290952922E-01  0.26337994675E-01  0.00000000000E+00 0. -1.
     999901    1    3    3    0    0  0.15232921426E-02 -0.31108666398E-01  0.12931883591E+00  0.88999630947E+00  0.88000000000E+00 0. -1.
        -11    1    4    4    0    0  0.10887941303E-01  0.43356027956E-02 -0.63724758319E-01  0.64795452474E-01  0.51100000000E-03 0. -1.
         11    1    4    4    0    0  0.11827343911E-01  0.27299959441E-01 -0.55303124672E-01  0.62800243383E-01  0.51100000000E-03 0.  1.
</event>
<event>
 8    1  0.1010879E+005  0.1043930E+01  0.7957747E-01            NaN
         13   -1    0    0    0    0  0.00000000000E+00  0.00000000000E+00  0.74505805969E-08  0.10566000000E+00  0.10566000000E+00 0. -1.
     999900   -1    0    0    0    0 -0.00000000000E+00 -0.00000000000E+00 -0.74505805969E-08  0.93827000000E+00  0.93827000000E+00 0.  1.
     999902    2    1    2    0    0  0.16337895245E-01 -0.12717516376E-01  0.12336815123E-01  0.10198289824E+01  0.10195441600E+01 0.  0.
     999903    2    3    3    0    0  0.83124181417E-01 -0.97045564484E-01  0.31266861124E-01  0.13307649471E+00  0.20106360111E-01 0.  0.
         14    1    1    2    0    0 -0.16337895245E-01  0.12717516376E-01 -0.12336815123E-01  0.24101017639E-01  0.00000000000E+00 0.  1.
     999901    1    3    3    0    0 -0.66786286172E-01  0.84328048108E-01 -0.18930046001E-01  0.88675248765E+00  0.88000000000E+00 0. -1.
        -11    1    4    4    0    0  0.30577677453E-01 -0.24335088796E-01  0.15215655458E-01  0.41940054807E-01  0.51100000000E-03 0. -1.
         11    1    4    4    0    0  0.52546503964E-01 -0.72710475688E-01  0.16051205666E-01  0.91136439901E-01  0.51100000000E-03 0.  1.
</event>
<event>
 8    1  0.1010879E+005  0.1043930E+01  0.7957747E-01            NaN
         13   -1    0    0    0    0  0.00000000000E+00  0.00000000000E+00  0.74505805969E-08  0.10566000000E+00  0.10566000000E+00 0. -1.
     999900   -1    0    0    0    0 -0.00000000000E+00 -0.00000000000E+00 -0.74505805969E-08  0.93827000000E+00  0.93827000000E+00 0.  1.
     999902    2    1    2    0    0  0.34361056432E-02  0.15977896381E-03  0.22663144897E-01  0.10210072932E+01  0.10207499411E+01 0.  0.
     999903    2    3    3    0    0  0.93592223999E-01  0.76676877007E-01  0.50820985713E-01  0.13265158966E+00  0.19360366500E-01 0.  0.
         14    1    1    2    0    0 -0.34361056432E-02 -0.15977896381E-03 -0.22663144897E-01  0.22922706820E-01  0.00000000000E+00 0.  1.
     999901    1    3    3    0    0 -0.90156118356E-01 -0.76517098043E-01 -0.28157840815E-01  0.88835570352E+00  0.88000000000E+00 0.  1.
        -11    1    4    4    0    0  0.38935066934E-01  0.37198618004E-01  0.32029657948E-01  0.62656497890E-01  0.51100000000E-03 0.  1.
         11    1    4    4    0    0  0.54657157065E-01  0.39478259003E-01  0.18791327765E-01  0.69995091774E-01  0.51100000000E-03 0. -1.
</event>
<event>
 8    1  0.1010879E+005  0.1043930E+01  0.7957747E-01            NaN
         13   -1    0    0    0    0  0.00000000000E+00  0.00000000000E+00  0.74505805969E-08  0.10566000000E+00  0.10566000000E+00 0.  1.
     999900   -1    0    0    0    0 -0.00000000000E+00 -0.00000000000E+00 -0.74505805969E-08  0.93827000000E+00  0.93827000000E+00 0. -1.
     999902    2    1    2    0    0  0.87364587516E-02  0.89005477888E-02  0.14232427487E-01  0.10250062727E+01  0.10248315723E+01 0.  0.
     999903    2    3    3    0    0  0.93063777867E-01 -0.76080315508E-01 -0.56598094961E-01  0.13407989708E+00  0.18027570265E-01 0.  0.
         14    1    1    2    0    0 -0.87364587516E-02 -0.89005477888E-02 -0.14232427487E-01  0.18923727292E-01  0.00000000000E+00 0. -1.
     999901    1    3    3    0    0 -0.84327319116E-01  0.84980863297E-01  0.70830522447E-01  0.89092637563E+00  0.88000000000E+00 0.  1.
        -11    1    4    4    0    0  0.25198294904E-01 -0.10965928559E-01 -0.13536670229E-01  0.30638345535E-01  0.51100000000E-03 0.  1.
         11    1    4    4    0    0  0.67865482963E-01 -0.65114386948E-01 -0.43061424732E-01  0.10344155155E+00  0.51100000000E-03 0. -1.
</event>
<event>
 8    1  0.1010879E+005  0.1043930E+01  0.7957747E-01            NaN
         13   -1    0    0    0    0  0.00000000000E+00  0.00000000000E+00  0.74505805969E-08  0.10566000000E+00  0.10566000000E+00 0. -1.
     999900   -1    0    0    0    0 -0.00000000000E+00 -0.00000000000E+00 -0.74505805969E-08  0.93827000000E+00  0.93827000000E+00 0.  1.
     999902    2    1    2    0    0  0.57901432936E-02 -0.19152049140E-01  0.12432614890E-01  0.10203737554E+01  0.10201018107E+01 0.  0.
     999903    2    3    3    0    0  0.46497138680E-01 -0.21218919473E-01 -0.11778599723E+00  0.12985805182E+00  0.19425396465E-01 0.  0.
         14    1    1    2    0    0 -0.57901432936E-02  0.19152049140E-01 -0.12432614890E-01  0.23556244578E-01  0.00000000000E+00 0.  1.
     999901    1    3    3    0    0 -0.40706995386E-01  0.20668703332E-02  0.13021861212E+00  0.89051570361E+00  0.88000000000E+00 0. -1.
        -11    1    4    4    0    0  0.19703288327E-01 -0.10412933543E-01 -0.29575005039E-01  0.37034994261E-01  0.51100000000E-03 0.  1.
         11    1    4    4    0    0  0.26793850353E-01 -0.10805985929E-01 -0.88210992196E-01  0.92823057555E-01  0.51100000000E-03 0. -1.
</event>
<event>
 8    1  0.1010879E+005  0.1043930E+01  0.7957747E-01            NaN
         13   -1    0    0    0    0  0.00000000000E+00  0.00000000000E+00  0.74505805969E-08  0.10566000000E+00  0.10566000000E+00 0. -1.
     999900   -1    0    0    0    0 -0.00000000000E+00 -0.00000000000E+00 -0.74505805969E-08  0.93827000000E+00  0.93827000000E+00 0.  1.
     999902    2    1    2    0    0  0.23556370452E-01 -0.74657300184E-03 -0.16851056579E-02  0.10203016369E+01  0.10200280049E+01 0.  0.
     999903    2    3    3    0    0  0.11890324728E+00  0.45959853281E-01  0.33066535374E-01  0.13323895948E+00  0.20222122400E-01 0.  0.
         14    1    1    2    0    0 -0.23556370452E-01  0.74657300184E-03  0.16851056579E-02  0.23628363066E-01  0.00000000000E+00 0. -1.
     999901    1    3    3    0    0 -0.95346876828E-01 -0.46706426283E-01 -0.34751641032E-01  0.88706267745E+00  0.88000000000E+00 0.  1.
        -11    1    4    4    0    0  0.17479275824E-01  0.12788647032E-01  0.50570560976E-03  0.21670058500E-01  0.51100000000E-03 0. -1.
         11    1    4    4    0    0  0.10142397146E+00  0.33171206249E-01  0.32560829765E-01  0.11156890098E+00  0.51100000000E-03 0.  1.
</event>
<event>
 8    1  0.1010879E+005  0.1043930E+01  0.7957747E-01            NaN
         13   -1    0    0    0    0  0.00000000000E+00  0.00000000000E+00  0.74505805969E-08  0.10566000000E+00  0.10566000000E+00 0. -1.
     999900   -1    0    0    0    0 -0.00000000000E+00 -0.00000000000E+00 -0.74505805969E-08  0.93827000000E+00  0.93827000000E+00 0.  1.
     999902    2    1    2    0    0 -0.29660535081E-02  0.22349284427E-01  0.49389896337E-02  0.10208501038E+01  0.10205891695E+01 0.  0.
     999903    2    3    3    0    0  0.12448808890E+00  0.18137953264E-01  0.32218556205E-01  0.13123981362E+00  0.18962691993E-01 0.  0.
         14    1    1    2    0    0  0.29660535081E-02 -0.22349284427E-01 -0.49389896337E-02  0.23079896152E-01  0.00000000000E+00 0.  1.
     999901    1    3    3    0    0 -0.12745414241E+00  0.42113311628E-02 -0.27279566572E-01  0.88961029023E+00  0.88000000000E+00 0.  1.
        -11    1    4    4    0    0  0.10665431576E+00  0.16924002455E-01  0.20663726854E-01  0.10994915032E+00  0.51100000000E-03 0.  1.
         11    1    4    4    0    0  0.17833773147E-01  0.12139508093E-02  0.11554829352E-01  0.21290663296E-01  0.51100000000E-03 0. -1.
</event>
<event>
 8    1  0.1010879E+005  0.1043930E+01  0.7957747E-01            NaN
         13   -1    0    0    0    0  0.00000000000E+00  0.00000000000E+00  0.74505805969E-08  0.10566000000E+00  0.10566000000E+00 0.  1.
     999900   -1    0    0    0    0 -0.00000000000E+00 -0.00000000000E+00 -0.74505805969E-08  0.93827000000E+00  0.93827000000E+00 0.  1.
     999902    2    1    2    0    0  0.10296269244E-01  0.17300630734E-01 -0.10858852262E-01  0.10210555676E+01  0.10207993106E+01 0.  0.
     999903    2    3    3    0    0 -0.92921700033E-01  0.31734276179E-01  0.82777426090E-01  0.12997193971E+00  0.19977392757E-01 0.  0.
         14    1    1    2    0    0 -0.10296269244E-01 -0.17300630734E-01  0.10858852262E-01  0.22874432377E-01  0.00000000000E+00 0.  1.
     999901    1    3    3    0    0  0.10321796928E+00 -0.14433645445E-01 -0.93636278352E-01  0.89108362791E+00  0.88000000000E+00 0.  1.
        -11    1    4    4    0    0 -0.31497437104E-01  0.17001586123E-01  0.40017601991E-01  0.53691824936E-01  0.51100000000E-03 0.  1.
         11    1    4    4    0    0 -0.61424262929E-01  0.14732690057E-01  0.42759824099E-01  0.76280114779E-01  0.51100000000E-03 0. -1.
</event>
<event>
 8    1  0.1010879E+005  0.1043930E+01  0.7957747E-01            NaN
         13   -1    0    0    0    0  0.00000000000E+00  0.00000000000E+00  0.74505805969E-08  0.10566000000E+00  0.10566000000E+00 0. -1.
     999900   -1    0    0    0    0 -0.00000000000E+00 -0.00000000000E+00 -0.74505805969E-08  0.93827000000E+00  0.93827000000E+00 0. -1.
     999902    2    1    2    0    0 -0.24427748604E-01 -0.21904809734E-02 -0.35529165614E-02  0.10191482260E+01  0.10188468826E+01 0.  0.
     999903    2    3    3    0    0 -0.77323000946E-01  0.80032444790E-01 -0.67009000363E-01  0.13146292597E+00  0.20205347811E-01 0.  0.
         14    1    1    2    0    0  0.24427748604E-01  0.21904809734E-02  0.35529165614E-02  0.24781774045E-01  0.00000000000E+00 0. -1.
     999901    1    3    3    0    0  0.52895252342E-01 -0.82222925763E-01  0.63456083801E-01  0.88768529999E+00  0.88000000000E+00 0. -1.
        -11    1    4    4    0    0 -0.22584589920E-01  0.12189951461E-01 -0.11585806824E-01  0.28162930587E-01  0.51100000000E-03 0. -1.
         11    1    4    4    0    0 -0.54738411026E-01  0.67842493329E-01 -0.55423193539E-01  0.10329999538E+00  0.51100000000E-03 0.  1.
</event>
<event>
 8    1  0.1010879E+005  0.1043930E+01  0.7957747E-01            NaN
         13   -1    0    0    0    0  0.00000000000E+00  0.00000000000E+00  0.74505805969E-08  0.10566000000E+00  0.10566000000E+00 0.  1.
     999900   -1    0    0    0    0 -0.00000000000E+00 -0.00000000000E+00 -0.74505805969E-08  0.93827000000E+00  0.93827000000E+00 0. -1.
     999902    2    1    2    0    0 -0.10413841853E-01 -0.14302180142E-03 -0.20941388555E-01  0.10205417484E+01  0.10202737133E+01 0.  0.
     999903    2    3    3    0    0  0.66953026833E-01 -0.35919309033E-01 -0.10634350120E+00  0.13230805398E+00  0.20580970247E-01 0.  0.
         14    1    1    2    0    0  0.10413841853E-01  0.14302180142E-03  0.20941388555E-01  0.23388251580E-01  0.00000000000E+00 0.  1.
     999901    1    3    3    0    0 -0.77366868687E-01  0.35776287232E-01  0.85402112645E-01  0.88823369444E+00  0.88000000000E+00 0.  1.
        -11    1    4    4    0    0  0.18162176790E-01 -0.23857880561E-03 -0.21851440930E-01  0.28419503467E-01  0.51100000000E-03 0.  1.
         11    1    4    4    0    0  0.48790850044E-01 -0.35680730227E-01 -0.84492060269E-01  0.10388855051E+00  0.51100000000E-03 0. -1.
</event>
<event>
 8    1  0.1010879E+005  0.1043930E+01  0.7957747E-01            NaN
         13   -1    0    0    0    0  0.00000000000E+00  0.00000000000E+00  0.74505805969E-08  0.10566000000E+00  0.10566000000E+00 0. -1.
     999900   -1    0    0    0    0 -0.00000000000E+00 -0.00000000000E+00 -0.74505805969E-08  0.93827000000E+00  0.93827000000E+00 0.  1.
     999902    2    1    2    0    0  0.21947927487E-01  0.91292685478E-02 -0.40677840955E-03  0.10201556328E+01  0.10198785686E+01 0.  0.
     999903    2    3    3    0    0  0.37624835122E-01 -0.11904553415E+00  0.30232265605E-01  0.13020434401E+00  0.21253561937E-01 0.  0.
         14    1    1    2    0    0 -0.21947927487E-01 -0.91292685478E-02  0.40677840955E-03  0.23774367160E-01  0.00000000000E+00 0. -1.
     999901    1    3    3    0    0 -0.15676907635E-01  0.12817480270E+00 -0.30639044015E-01  0.88995128883E+00  0.88000000000E+00 0.  1.
        -11    1    4    4    0    0  0.25302537348E-01 -0.71306185301E-01  0.78978935469E-02  0.76075149043E-01  0.51100000000E-03 0. -1.
         11    1    4    4    0    0  0.12322297774E-01 -0.47739348850E-01  0.22334372058E-01  0.54129194962E-01  0.51100000000E-03 0.  1.
</event>
<event>
 8    1  0.1010879E+005  0.1043930E+01  0.7957747E-01            NaN
         13   -1    0    0    0    0  0.00000000000E+00  0.00000000000E+00  0.74505805969E-08  0.10566000000E+00  0.10566000000E+00 0. -1.
     999900   -1    0    0    0    0 -0.00000000000E+00 -0.00000000000E+00 -0.74505805969E-08  0.93827000000E+00  0.93827000000E+00 0. -1.
     999902    2    1    2    0    0  0.67376634945E-02 -0.23966964995E-01 -0.21204514676E-02  0.10189438471E+01  0.10186374506E+01 0.  0.
     999903    2    3    3    0    0 -0.10608776061E+00 -0.78079259991E-02  0.69627293504E-01  0.12869757235E+00  0.19988208246E-01 0.  0.
         14    1    1    2    0    0 -0.67376634945E-02  0.23966964995E-01  0.21204514676E-02  0.24986152863E-01  0.00000000000E+00 0.  1.
     999901    1    3    3    0    0  0.11282542410E+00 -0.16159038996E-01 -0.71747744972E-01  0.89024627479E+00  0.88000000000E+00 0. -1.
        -11    1    4    4    0    0 -0.63092925678E-01  0.51841596510E-02  0.41627890142E-01  0.75767639138E-01  0.51100000000E-03 0. -1.
         11    1    4    4    0    0 -0.42994834930E-01 -0.12992085650E-01  0.27999403362E-01  0.52929933212E-01  0.51100000000E-03 0.  1.
</event>
<event>
 8    1  0.1010879E+005  0.1043930E+01  0.7957747E-01            NaN
         13   -1    0    0    0    0  0.00000000000E+00  0.00000000000E+00  0.74505805969E-08  0.10566000000E+00  0.10566000000E+00 0. -1.
     999900   -1    0    0    0    0 -0.00000000000E+00 -0.00000000000E+00 -0.74505805969E-08  0.93827000000E+00  0.93827000000E+00 0.  1.
     999902    2    1    2    0    0 -0.10807285234E-01 -0.19228077332E-01  0.83961858926E-02  0.10203288918E+01  0.10200558980E+01 0.  0.
     999903    2    3    3    0    0 -0.25147706822E-02 -0.12686261021E+00 -0.33423773176E-01  0.13274629424E+00  0.20099355251E-01 0.  0.
         14    1    1    2    0    0  0.10807285234E-01  0.19228077332E-01 -0.83961858926E-02  0.23601108227E-01  0.00000000000E+00 0. -1.
     999901    1    3    3    0    0 -0.82925145518E-02  0.10763453287E+00  0.41819959069E-01  0.88758259753E+00  0.88000000000E+00 0. -1.
        -11    1    4    4    0    0  0.66735006422E-02 -0.17759903524E-01 -0.48493139434E-02  0.19588944604E-01  0.51100000000E-03 0.  1.
         11    1    4    4    0    0 -0.91882713244E-02 -0.10910270668E+00 -0.28574459233E-01  0.11315734964E+00  0.51100000000E-03 0. -1.
</event>
<event>
 8    1  0.1010879E+005  0.1043930E+01  0.7957747E-01            NaN
         13   -1    0    0    0    0  0.00000000000E+00  0.00000000000E+00  0.74505805969E-08  0.10566000000E+00  0.10566000000E+00 0.  1.
     999900   -1    0    0    0    0 -0.00000000000E+00 -0.00000000000E+00 -0.74505805969E-08  0.93827000000E+00  0.93827000000E+00 0.  1.
     999902    2    1    2    0    0  0.41934024405E-02  0.73763900639E-02 -0.22764871535E-01  0.10196352448E+01  0.10193457693E+01 0.  0.
     999903    2    3    3    0    0 -0.41841294555E-01 -0.46731520459E-01 -0.11459224453E+00  0.13200968988E+00  0.18990702516E-01 0.  0.
         14    1    1    2    0    0 -0.41934024405E-02 -0.73763900639E-02  0.22764871535E-01  0.24294755204E-01  0.00000000000E+00 0.  1.
     999901    1    3    3    0    0  0.46034696996E-01  0.54107910523E-01  0.91827372993E-01  0.88762555492E+00  0.88000000000E+00 0. -1.
        -11    1    4    4    0    0 -0.35796984377E-01 -0.47374783985E-01 -0.10544023197E+00  0.12101114778E+00  0.51100000000E-03 0. -1.
         11    1    4    4    0    0 -0.60443101784E-02  0.64326352556E-03 -0.91520125592E-02  0.10998542102E-01  0.51100000000E-03 0.  1.
</event>
<event>
 8    1  0.1010879E+005  0.1043930E+01  0.7957747E-01            NaN
         13   -1    0    0    0    0  0.00000000000E+00  0.00000000000E+00  0.74505805969E-08  0.10566000000E+00  0.10566000000E+00 0.  1.
     999900   -1    0    0    0    0 -0.00000000000E+00 -0.00000000000E+00 -0.74505805969E-08  0.93827000000E+00  0.93827000000E+00 0. -1.
     999902    2    1    2    0    0  0.10077497757E-01 -0.16553808041E-01  0.14885106893E-01  0.10194933282E+01  0.10192004196E+01 0.  0.
     999903    2    3    3    0    0 -0.34976278283E-01 -0.55845441765E-01 -0.10888428098E+00  0.12882361579E+00  0.19942014289E-01 0.  0.
         14    1    1    2    0    0 -0.10077497757E-01  0.16553808041E-01 -0.14885106893E-01  0.24436671805E-01  0.00000000000E+00 0. -1.
     999901    1    3    3    0    0  0.45053776040E-01  0.39291633724E-01  0.12376938787E+00  0.89066971240E+00  0.88000000000E+00 0.  1.
        -11    1    4    4    0    0 -0.27839527617E-01 -0.32920054245E-01 -0.55450894946E-01  0.70241242448E-01  0.51100000000E-03 0.  1.
         11    1    4    4    0    0 -0.71367506654E-02 -0.22925387520E-01 -0.53433386031E-01  0.58582373345E-01  0.51100000000E-03 0. -1.
</event>
<event>
 8    1  0.1010879E+005  0.1043930E+01  0.7957747E-01            NaN
         13   -1    0    0    0    0  0.00000000000E+00  0.00000000000E+00  0.74505805969E-08  0.10566000000E+00  0.10566000000E+00 0. -1.
     999900   -1    0    0    0    0 -0.00000000000E+00 -0.00000000000E+00 -0.74505805969E-08  0.93827000000E+00  0.93827000000E+00 0.  1.
     999902    2    1    2    0    0  0.16691400553E-01  0.11202449569E-01 -0.12483755379E-01  0.10202669090E+01  0.10199924626E+01 0.  0.
     999903    2    3    3    0    0  0.59525595843E-01 -0.46574653332E-01 -0.10674807522E+00  0.13231492609E+00  0.19989827640E-01 0.  0.
         14    1    1    2    0    0 -0.16691400553E-01 -0.11202449569E-01  0.12483755379E-01  0.23663091030E-01  0.00000000000E+00 0.  1.
     999901    1    3    3    0    0 -0.42834195290E-01  0.57777102901E-01  0.94264319843E-01  0.88795198288E+00  0.88000000000E+00 0. -1.
        -11    1    4    4    0    0  0.36519365791E-01 -0.35083462687E-01 -0.56561345822E-01  0.75920750748E-01  0.51100000000E-03 0. -1.
         11    1    4    4    0    0  0.23006230052E-01 -0.11491190645E-01 -0.50186729400E-01  0.56394175342E-01  0.51100000000E-03 0.  1.
</event>
<event>
 8    1  0.1010879E+005  0.1043930E+01  0.7957747E-01            NaN
         13   -1    0    0    0    0  0.00000000000E+00  0.00000000000E+00  0.74505805969E-08  0.10566000000E+00  0.10566000000E+00 0.  1.
     999900   -1    0    0    0    0 -0.00000000000E+00 -0.00000000000E+00 -0.74505805969E-08  0.93827000000E+00  0.93827000000E+00 0.  1.
     999902    2    1    2    0    0 -0.20365661780E-01 -0.42788179399E-02  0.11442330801E-01  0.10201814127E+01  0.10199049561E+01 0.  0.
     999903    2    3    3    0    0  0.10467967925E+00 -0.69848331278E-01  0.21354833614E-01  0.12887116591E+00  0.17751728225E-01 0.  0.
         14    1    1    2    0    0  0.20365661780E-01  0.42788179399E-02 -0.11442330801E-01  0.23748587260E-01  0.00000000000E+00 0. -1.
     999901    1    3    3    0    0 -0.12504534103E+00  0.65569513338E-01 -0.99125028128E-02  0.89131024683E+00  0.88000000000E+00 0.  1.
        -11    1    4    4    0    0  0.23228394733E-01 -0.24577404968E-01  0.77174091768E-02  0.34690440790E-01  0.51100000000E-03 0. -1.
         11    1    4    4    0    0  0.81451284513E-01 -0.45270926310E-01  0.13637424437E-01  0.94180725120E-01  0.51100000000E-03 0.  1.
</event>
<event>
 8    1  0.1010879E+005  0.1043930E+01  0.7957747E-01            NaN
         13   -1    0    0    0    0  0.00000000000E+00  0.00000000000E+00  0.74505805969E-08  0.10566000000E+00  0.10566000000E+00 0.  1.
     999900   -1    0    0    0    0 -0.00000000000E+00 -0.00000000000E+00 -0.74505805969E-08  0.93827000000E+00  0.93827000000E+00 0.  1.
     999902    2    1    2    0    0 -0.26038585557E-01  0.57397279449E-02 -0.16475908716E-01  0.10125866118E+01  0.10121013973E+01 0.  0.
     999903    2    3    3    0    0 -0.13424538108E-01  0.11400170998E+00  0.42457521584E-01  0.12390617423E+00  0.19325909330E-01 0.  0.
         14    1    1    2    0    0  0.26038585557E-01 -0.57397279449E-02  0.16475908716E-01  0.31343388182E-01  0.00000000000E+00 0.  1.
     999901    1    3    3    0    0 -0.12614047449E-01 -0.10826198203E+00 -0.58933430300E-01  0.88868043759E+00  0.88000000000E+00 0.  1.
        -11    1    4    4    0    0 -0.10468956576E-01  0.10260502969E+00  0.31571558174E-01  0.10786294811E+00  0.51100000000E-03 0. -1.
         11    1    4    4    0    0 -0.29555815315E-02  0.11396680291E-01  0.10885963410E-01  0.16043226116E-01  0.51100000000E-03 0.  1.
</event>
<event>
 8    1  0.1010879E+005  0.1043930E+01  0.7957747E-01            NaN
         13   -1    0    0    0    0  0.00000000000E+00  0.00000000000E+00  0.74505805969E-08  0.10566000000E+00  0.10566000000E+00 0.  1.
     999900   -1    0    0    0    0 -0.00000000000E+00 -0.00000000000E+00 -0.74505805969E-08  0.93827000000E+00  0.93827000000E+00 0.  1.
     999902    2    1    2    0    0 -0.22934013316E-01 -0.20305526847E-01 -0.91144108133E-02  0.10119713412E+01  0.10114665786E+01 0.  0.
     999903    2    3    3    0    0 -0.49326871925E-01 -0.23628016716E-01  0.10913578773E+00  0.12366355030E+00  0.19764362947E-01 0.  0.
         14    1    1    2    0    0  0.22934013316E-01  0.20305526847E-01  0.91144108133E-02  0.31958658792E-01  0.00000000000E+00 0.  1.
     999901    1    3    3    0    0  0.26392858609E-01  0.33224898694E-02 -0.11825019854E+00  0.88830779090E+00  0.88000000000E+00 0.  1.
        -11    1    4    4    0    0 -0.16244663583E-01  0.14382588809E-02  0.36991948397E-01  0.40430471809E-01  0.51100000000E-03 0. -1.
         11    1    4    4    0    0 -0.33082208342E-01 -0.25066275597E-01  0.72143839333E-01  0.83233078496E-01  0.51100000000E-03 0.  1.
</event>
<event>
 8    1  0.1359166E+005  0.1043930E+01  0.7957747E-01            NaN
         13   -1    0    0    0    0  0.00000000000E+00  0.00000000000E+00  0.74505805969E-08  0.10566000000E+00  0.10566000000E+00 0.  1.
     999900   -1    0    0    0    0 -0.00000000000E+00 -0.00000000000E+00 -0.74505805969E-08  0.93827000000E+00  0.93827000000E+00 0.  1.
     999902    2    1    2    0    0 -0.20201862776E-01 -0.13100331325E-02  0.18774591208E-01  0.10163199163E+01  0.10159448093E+01 0.  0.
     999903    2    3    3    0    0  0.63548366646E-01  0.70849761463E-01 -0.77362208346E-01  0.12420814018E+00  0.19612934593E-01 0.  0.
         14    1    1    2    0    0  0.20201862776E-01  0.13100331325E-02 -0.18774591208E-01  0.27610083692E-01  0.00000000000E+00 0. -1.
     999901    1    3    3    0    0 -0.83750229422E-01 -0.72159794595E-01  0.96136799554E-01  0.89211177613E+00  0.88000000000E+00 0. -1.
        -11    1    4    4    0    0  0.27871583894E-01  0.45545963930E-01 -0.40937664517E-01  0.67286057368E-01  0.51100000000E-03 0. -1.
         11    1    4    4    0    0  0.35676782752E-01  0.25303797533E-01 -0.36424543829E-01  0.56922082809E-01  0.51100000000E-03 0.  1.
</event>
<event>
 8    1  0.1010879E+005  0.1043930E+01  0.7957747E-01            NaN
         13   -1    0    0    0    0  0.00000000000E+00  0.00000000000E+00  0.74505805969E-08  0.10566000000E+00  0.10566000000E+00 0.  1.
     999900   -1    0    0    0    0 -0.00000000000E+00 -0.00000000000E+00 -0.74505805969E-08  0.93827000000E+00  0.93827000000E+00 0.  1.
     999902    2    1    2    0    0  0.14195726951E-01 -0.17284826488E-01 -0.68898863161E-02  0.10205258460E+01  0.10202574420E+01 0.  0.
     999903    2    3    3    0    0  0.87531338460E-01 -0.64409216669E-03  0.95859218999E-01  0.13136196652E+00  0.20120296054E-01 0.  0.
         14    1    1    2    0    0 -0.14195726951E-01  0.17284826488E-01  0.68898863161E-02  0.23404153987E-01  0.00000000000E+00 0. -1.
     999901    1    3    3    0    0 -0.73335611509E-01 -0.16640734321E-01 -0.10274910532E+00  0.88916387949E+00  0.88000000000E+00 0.  1.
        -11    1    4    4    0    0  0.62085601441E-01  0.79209138696E-02  0.72400261815E-01  0.95704868291E-01  0.51100000000E-03 0.  1.
         11    1    4    4    0    0  0.25445737019E-01 -0.85650060363E-02  0.23458957185E-01  0.35657098228E-01  0.51100000000E-03 0. -1.
</event>
<event>
 8    1  0.1010879E+005  0.1043930E+01  0.7957747E-01            NaN
         13   -1    0    0    0    0  0.00000000000E+00  0.00000000000E+00  0.74505805969E-08  0.10566000000E+00  0.10566000000E+00 0.  1.
     999900   -1    0    0    0    0 -0.00000000000E+00 -0.00000000000E+00 -0.74505805969E-08  0.93827000000E+00  0.93827000000E+00 0. -1.
     999902    2    1    2    0    0  0.92081738711E-02  0.40480149100E-02 -0.20653783868E-01  0.10209570664E+01  0.10206985724E+01 0.  0.
     999903    2    3    3    0    0  0.97128437056E-01  0.70637556198E-01  0.49107548810E-01  0.13133311031E+00  0.20328228723E-01 0.  0.
         14    1    1    2    0    0 -0.92081738711E-02 -0.40480149100E-02  0.20653783868E-01  0.22972933614E-01  0.00000000000E+00 0.  1.
     999901    1    3    3    0    0 -0.87920263185E-01 -0.66589541288E-01 -0.69761332678E-01  0.88962395608E+00  0.88000000000E+00 0. -1.
        -11    1    4    4    0    0  0.67859043318E-01  0.44318503274E-01  0.42155879805E-01  0.91358408566E-01  0.51100000000E-03 0.  1.
         11    1    4    4    0    0  0.29269393737E-01  0.26319052924E-01  0.69516690050E-02  0.39974701744E-01  0.51100000000E-03 0. -1.
</event>
<event>
 8    1  0.1010879E+005  0.1043930E+01  0.7957747E-01            NaN
         13   -1    0    0    0    0  0.00000000000E+00  0.00000000000E+00  0.74505805969E-08  0.10566000000E+00  0.10566000000E+00 0. -1.
     999900   -1    0    0    0    0 -0.00000000000E+00 -0.00000000000E+00 -0.74505805969E-08  0.93827000000E+00  0.93827000000E+00 0. -1.
     999902    2    1    2    0    0  0.73849753408E-02 -0.19757689691E-01 -0.80390343844E-02  0.10213572236E+01  0.10211077553E+01 0.  0.
     999903    2    3    3    0    0 -0.60139239592E-01  0.35796101821E-01  0.10712877425E+00  0.12955603074E+00  0.20250969960E-01 0.  0.
         14    1    1    2    0    0 -0.73849753408E-02  0.19757689691E-01  0.80390343844E-02  0.22572776447E-01  0.00000000000E+00 0.  1.
     999901    1    3    3    0    0  0.67524214933E-01 -0.55553791512E-01 -0.11516780864E+00  0.89180119281E+00  0.88000000000E+00 0. -1.
        -11    1    4    4    0    0 -0.59597970049E-01  0.31509692398E-01  0.10482608646E+00  0.12463365626E+00  0.51100000000E-03 0. -1.
         11    1    4    4    0    0 -0.54126954316E-03  0.42864094232E-02  0.23026877887E-02  0.49223744792E-02  0.51100000000E-03 0.  1.
</event>
<event>
 8    1  0.1010879E+005  0.1043930E+01  0.7957747E-01            NaN
         13   -1    0    0    0    0  0.00000000000E+00  0.00000000000E+00  0.74505805969E-08  0.10566000000E+00  0.10566000000E+00 0.  1.
     999900   -1    0    0    0    0 -0.00000000000E+00 -0.00000000000E+00 -0.74505805969E-08  0.93827000000E+00  0.93827000000E+00 0. -1.
     999902    2    1    2    0    0 -0.87962974523E-02 -0.15262771582E-01 -0.15205030388E-01  0.10206594178E+01  0.10203941039E+01 0.  0.
     999903    2    3    3    0    0  0.23148547819E-01 -0.10514131442E+00 -0.76028229622E-01  0.13341757529E+00  0.20722124184E-01 0.  0.
         14    1    1    2    0    0  0.87962974523E-02  0.15262771582E-01  0.15205030388E-01  0.23270582166E-01  0.00000000000E+00 0.  1.
     999901    1    3    3    0    0 -0.31944845272E-01  0.89878542843E-01  0.60823199234E-01  0.88724184255E+00  0.88000000000E+00 0.  1.
        -11    1    4    4    0    0  0.72337305181E-02 -0.85773157367E-02 -0.12157126015E-01  0.16551556918E-01  0.51100000000E-03 0.  1.
         11    1    4    4    0    0  0.15914817301E-01 -0.96563998688E-01 -0.63871103607E-01  0.11686601837E+00  0.51100000000E-03 0. -1.
</event>
<event>
 8    1  0.1010879E+005  0.1043930E+01  0.7957747E-01            NaN
         13   -1    0    0    0    0  0.00000000000E+00  0.00000000000E+00  0.74505805969E-08  0.10566000000E+00  0.10566000000E+00 0. -1.
     999900   -1    0    0    0    0 -0.00000000000E+00 -0.00000000000E+00 -0.74505805969E-08  0.93827000000E+00  0.93827000000E+00 0. -1.
     999902    2    1    2    0    0  0.39005727535E-02  0.23702097903E-02  0.24516981034E-01  0.10189917819E+01  0.10186865744E+01 0.  0.
     999903    2    3    3    0    0 -0.11153569273E-01 -0.18174692296E-01 -0.12291843215E+00  0.12636312382E+00  0.20099167899E-01 0.  0.
         14    1    1    2    0    0 -0.39005727535E-02 -0.23702097903E-02 -0.24516981034E-01  0.24938218085E-01  0.00000000000E+00 0.  1.
     999901    1    3    3    0    0  0.15054142026E-01  0.20544902086E-01  0.14743541319E+00  0.89262865810E+00  0.88000000000E+00 0.  1.
        -11    1    4    4    0    0 -0.16019620676E-01 -0.85638047784E-02 -0.86147450230E-01  0.88043235407E-01  0.51100000000E-03 0.  1.
         11    1    4    4    0    0  0.48660514033E-02 -0.96108875177E-02 -0.36770981925E-01  0.38319888411E-01  0.51100000000E-03 0. -1.
</event>
<event>
 8    1  0.1010879E+005  0.1043930E+01  0.7957747E-01            NaN
         13   -1    0    0    0    0  0.00000000000E+00  0.00000000000E+00  0.74505805969E-08  0.10566000000E+00  0.10566000000E+00 0.  1.
     999900   -1    0    0    0    0 -0.00000000000E+00 -0.00000000000E+00 -0.74505805969E-08  0.93827000000E+00  0.93827000000E+00 0. -1.
     999902    2    1    2    0    0  0.18349476611E-02 -0.39472050603E-02  0.23476234461E-01  0.10200536300E+01  0.10197741549E+01 0.  0.
     999903    2    3    3    0    0 -0.20667681118E-01  0.44072036101E-01 -0.11599587968E+00  0.12749288334E+00  0.20733880277E-01 0.  0.
         14    1    1    2    0    0 -0.18349476611E-02  0.39472050603E-02 -0.23476234461E-01  0.23876370017E-01  0.00000000000E+00 0. -1.
     999901    1    3    3    0    0  0.22502628779E-01 -0.48019241161E-01  0.13947211414E+00  0.89256074664E+00  0.88000000000E+00 0.  1.
        -11    1    4    4    0    0 -0.20617608816E-01  0.19680494202E-01 -0.63375380725E-01  0.69491781157E-01  0.51100000000E-03 0.  1.
         11    1    4    4    0    0 -0.50072301692E-04  0.24391541899E-01 -0.52620498954E-01  0.58001102184E-01  0.51100000000E-03 0. -1.
</event>
<event>
 8    1  0.1010879E+005  0.1043930E+01  0.7957747E-01            NaN
         13   -1    0    0    0    0  0.00000000000E+00  0.00000000000E+00  0.74505805969E-08  0.10566000000E+00  0.10566000000E+00 0. -1.
     999900   -1    0    0    0    0 -0.00000000000E+00 -0.00000000000E+00 -0.74505805969E-08  0.93827000000E+00  0.93827000000E+00 0. -1.
     999902    2    1    2    0    0  0.53887141882E-02 -0.20493624339E-01  0.54585808530E-02  0.10220479758E+01  0.10218137021E+01 0.  0.
     999903    2    3    3    0    0  0.52934095583E-01 -0.12121332496E+00 -0.17209835064E-01  0.13473806461E+00  0.19065125440E-01 0.  0.
         14    1    1    2    0    0 -0.53887141882E-02  0.20493624339E-01 -0.54585808530E-02  0.21882024222E-01  0.00000000000E+00 0.  1.
     999901    1    3    3    0    0 -0.47545381395E-01  0.10071970062E+00  0.22668415917E-01  0.88730991117E+00  0.88000000000E+00 0.  1.
        -11    1    4    4    0    0  0.26942856897E-01 -0.49280111848E-01 -0.15359847516E-01  0.58229142173E-01  0.51100000000E-03 0. -1.
         11    1    4    4    0    0  0.25991238686E-01 -0.71933213110E-01 -0.18499875482E-02  0.76508922432E-01  0.51100000000E-03 0.  1.
</event>
<event>
 8    1  0.1010879E+005  0.1043930E+01  0.7957747E-01            NaN
         13   -1    0    0    0    0  0.00000000000E+00  0.00000000000E+00  0.74505805969E-08  0.10566000000E+00  0.10566000000E+00 0. -1.
     999900   -1    0    0    0    0 -0.00000000000E+00 -0.00000000000E+00 -0.74505805969E-08  0.93827000000E+00  0.93827000000E+00 0. -1.
     999902    2    1    2    0    0 -0.10072616403E-01  0.15408656866E-01  0.13772781486E-01  0.10209392667E+01  0.10206803674E+01 0.  0.
     999903    2    3    3    0    0  0.59469818615E-01  0.97560342154E-04 -0.11281953441E+00  0.12903333310E+00  0.19613384800E-01 0.  0.
         14    1    1    2    0    0  0.10072616403E-01 -0.15408656866E-01 -0.13772781486E-01  0.22990733296E-01  0.00000000000E+00 0.  1.
     999901    1    3    3    0    0 -0.69542435018E-01  0.15311096524E-01  0.12659231590E+00  0.89190593360E+00  0.88000000000E+00 0.  1.
        -11    1    4    4    0    0  0.52495813634E-01 -0.39186837046E-02 -0.10645366446E+00  0.11875946417E+00  0.51100000000E-03 0.  1.
         11    1    4    4    0    0  0.69740049812E-02  0.40162440467E-02 -0.63658699481E-02  0.10273868936E-01  0.51100000000E-03 0. -1.
</event>
<event>
 8    1  0.1010879E+005  0.1043930E+01  0.7957747E-01            NaN
         13   -1    0    0    0    0  0.00000000000E+00  0.00000000000E+00  0.74505805969E-08  0.10566000000E+00  0.10566000000E+00 0.  1.
     999900   -1    0    0    0    0 -0.00000000000E+00 -0.00000000000E+00 -0.74505805969E-08  0.93827000000E+00  0.93827000000E+00 0. -1.
     999902    2    1    2    0    0  0.16743856179E-01 -0.15057343312E-01  0.96938590507E-02  0.10194136542E+01  0.10191188092E+01 0.  0.
     999903    2    3    3    0    0  0.35039385787E-02  0.12111357312E+00  0.37634951419E-01  0.12840382344E+00  0.19757963583E-01 0.  0.
         14    1    1    2    0    0 -0.16743856179E-01  0.15057343312E-01 -0.96938590507E-02  0.24516345785E-01  0.00000000000E+00 0. -1.
     999901    1    3    3    0    0  0.13239917600E-01 -0.13617091643E+00 -0.27941092368E-01  0.89100983078E+00  0.88000000000E+00 0. -1.
        -11    1    4    4    0    0 -0.77186556889E-02  0.65761196344E-01  0.18161508205E-01  0.68660134660E-01  0.51100000000E-03 0.  1.
         11    1    4    4    0    0  0.11222594268E-01  0.55352376777E-01  0.19473443214E-01  0.59743688777E-01  0.51100000000E-03 0. -1.
</event>
<event>
 8    1  0.1010879E+005  0.1043930E+01  0.7957747E-01            NaN
         13   -1    0    0    0    0  0.00000000000E+00  0.00000000000E+00  0.74505805969E-08  0.10566000000E+00  0.10566000000E+00 0. -1.
     999900   -1    0    0    0    0 -0.00000000000E+00 -0.00000000000E+00 -0.74505805969E-08  0.93827000000E+00  0.93827000000E+00 0. -1.
     999902    2    1    2    0    0 -0.11162216616E-01  0.13990489744E-01  0.15922311013E-01  0.10199748571E+01  0.10196935129E+01 0.  0.
     999903    2    3    3    0    0 -0.12828069638E+00  0.18641521893E-01  0.16994929793E-01  0.13220263355E+00  0.19628175585E-01 0.  0.
         14    1    1    2    0    0  0.11162216616E-01 -0.13990489744E-01 -0.15922311013E-01  0.23955142893E-01  0.00000000000E+00 0. -1.
     999901    1    3    3    0    0  0.11711847977E+00 -0.46510321490E-02 -0.10726187800E-02  0.88777222355E+00  0.88000000000E+00 0.  1.
        -11    1    4    4    0    0 -0.55592692688E-01 -0.24164145057E-03  0.20862739241E-02  0.55634697184E-01  0.51100000000E-03 0. -1.
         11    1    4    4    0    0 -0.72688003694E-01  0.18883163344E-01  0.14908655868E-01  0.76567936368E-01  0.51100000000E-03 0.  1.
</event>
<event>
 8    1  0.1010879E+005  0.1043930E+01  0.7957747E-01            NaN
         13   -1    0    0    0    0  0.00000000000E+00  0.00000000000E+00  0.74505805969E-08  0.10566000000E+00  0.10566000000E+00 0. -1.
     999900   -1    0    0    0    0 -0.00000000000E+00 -0.00000000000E+00 -0.74505805969E-08  0.93827000000E+00  0.93827000000E+00 0. -1.
     999902    2    1    2    0    0 -0.23268197296E-01 -0.63109968495E-02 -0.12484342614E-02  0.10197888262E+01  0.10195030425E+01 0.  0.
     999903    2    3    3    0    0  0.52283555095E-01 -0.11683621934E+00 -0.23070912877E-02  0.12966242341E+00  0.20560863104E-01 0.  0.
         14    1    1    2    0    0  0.23268197296E-01  0.63109968495E-02  0.12484342614E-02  0.24141173848E-01  0.00000000000E+00 0.  1.
     999901    1    3    3    0    0 -0.75551752391E-01  0.11052522249E+00  0.10586570263E-02  0.89012640274E+00  0.88000000000E+00 0.  1.
        -11    1    4    4    0    0  0.45902691503E-01 -0.10383772704E+00 -0.86169804919E-02  0.11385887808E+00  0.51100000000E-03 0. -1.
         11    1    4    4    0    0  0.63808635914E-02 -0.12998492307E-01  0.63098892041E-02  0.15803545336E-01  0.51100000000E-03 0.  1.
</event>
<event>
 8    1  0.1010879E+005  0.1043930E+01  0.7957747E-01            NaN
         13   -1    0    0    0    0  0.00000000000E+00  0.00000000000E+00  0.74505805969E-08  0.10566000000E+00  0.10566000000E+00 0. -1.
     999900   -1    0    0    0    0 -0.00000000000E+00 -0.00000000000E+00 -0.74505805969E-08  0.93827000000E+00  0.93827000000E+00 0. -1.
     999902    2    1    2    0    0  0.18510880760E-01  0.13832010322E-01  0.52106341714E-02  0.10202418611E+01  0.10199668265E+01 0.  0.
     999903    2    3    3    0    0  0.10534458097E+00  0.78249187106E-01 -0.13892723300E-01  0.13341910405E+00  0.19678250512E-01 0.  0.
         14    1    1    2    0    0 -0.18510880760E-01 -0.13832010322E-01 -0.52106341714E-02  0.23688138899E-01  0.00000000000E+00 0.  1.
     999901    1    3    3    0    0 -0.86833700206E-01 -0.64417176784E-01  0.19103357472E-01  0.88682275705E+00  0.88000000000E+00 0.  1.
        -11    1    4    4    0    0  0.96345856663E-01  0.66620757955E-01 -0.17050312462E-01  0.11837154963E+00  0.51100000000E-03 0. -1.
         11    1    4    4    0    0  0.89987243022E-02  0.11628429151E-01  0.31575891616E-02  0.15047554416E-01  0.51100000000E-03 0.  1.
</event>
<event>
 8    1  0.1010879E+005  0.1043930E+01  0.7957747E-01            NaN
         13   -1    0    0    0    0  0.00000000000E+00  0.00000000000E+00  0.74505805969E-08  0.10566000000E+00  0.10566000000E+00 0.  1.
     999900   -1    0    0    0    0 -0.00000000000E+00 -0.00000000000E+00 -0.74505805969E-08  0.93827000000E+00  0.93827000000E+00 0.  1.
     999902    2    1    2    0    0  0.17784842296E-01  0.62068512355E-02 -0.13938443640E-01  0.10204969927E+01  0.10202279188E+01 0.  0.
     999903    2    3    3    0    0  0.35145583509E-01 -0.10235156166E+00 -0.72153049095E-01  0.13174772291E+00  0.20984417662E-01 0.  0.
         14    1    1    2    0    0 -0.17784842296E-01 -0.62068512355E-02  0.13938443640E-01  0.23433007252E-01  0.00000000000E+00 0.  1.
     999901    1    3    3    0    0 -0.17360741213E-01  0.10855841289E+00  0.58214605455E-01  0.88874926984E+00  0.88000000000E+00 0.  1.
        -11    1    4    4    0    0  0.89241919527E-03 -0.91615122087E-02 -0.13758364641E-01  0.16561504659E-01  0.51100000000E-03 0. -1.
         11    1    4    4    0    0  0.34253164313E-01 -0.93190049451E-01 -0.58394684454E-01  0.11518621825E+00  0.51100000000E-03 0.  1.
</event>
<event>
 8    1  0.1010879E+005  0.1043930E+01  0.7957747E-01            NaN
         13   -1    0    0    0    0  0.00000000000E+00  0.00000000000E+00  0.74505805969E-08  0.10566000000E+00  0.10566000000E+00 0.  1.
     999900   -1    0    0    0    0 -0.00000000000E+00 -0.00000000000E+00 -0.74505805969E-08  0.93827000000E+00  0.93827000000E+00 0. -1.
     999902    2    1    2    0    0 -0.19593955956E-01 -0.12463349295E-01  0.21412731810E-03  0.10207070795E+01  0.10204428637E+01 0.  0.
     999903    2    3    3    0    0 -0.10208358253E+00 -0.47926432790E-01  0.68698983413E-01  0.13349101546E+00  0.19552496138E-01 0.  0.
         14    1    1    2    0    0  0.19593955956E-01  0.12463349295E-01 -0.21412731810E-03  0.23222920492E-01  0.00000000000E+00 0.  1.
     999901    1    3    3    0    0  0.82489626574E-01  0.35463083495E-01 -0.68484856095E-01  0.88721606404E+00  0.88000000000E+00 0. -1.
        -11    1    4    4    0    0 -0.62512067836E-01 -0.26415692921E-01  0.51824722002E-01  0.85390926855E-01  0.51100000000E-03 0.  1.
         11    1    4    4    0    0 -0.39571514695E-01 -0.21510739869E-01  0.16874261411E-01  0.48100088608E-01  0.51100000000E-03 0. -1.
</event>
<event>
 8    1  0.1010879E+005  0.1043930E+01  0.7957747E-01            NaN
         13   -1    0    0    0    0  0.00000000000E+00  0.00000000000E+00  0.74505805969E-08  0.10566000000E+00  0.10566000000E+00 0.  1.
     999900   -1    0    0    0    0 -0.00000000000E+00 -0.00000000000E+00 -0.74505805969E-08  0.93827000000E+00  0.93827000000E+00 0. -1.
     999902    2    1    2    0    0  0.16817432475E-01 -0.35982018068E-02  0.16155365104E-01  0.10203340488E+01  0.10200611757E+01 0.  0.
     999903    2    3    3    0    0  0.91665894851E-01 -0.41600619011E-01 -0.81356316345E-01  0.13097753758E+00  0.20075292286E-01 0.  0.
         14    1    1    2    0    0 -0.16817432475E-01  0.35982018068E-02 -0.16155365104E-01  0.23595951198E-01  0.00000000000E+00 0. -1.
     999901    1    3    3    0    0 -0.74848462376E-01  0.38002417204E-01  0.97511681449E-01  0.88935651122E+00  0.88000000000E+00 0.  1.
        -11    1    4    4    0    0  0.56553373794E-01 -0.35700483429E-01 -0.56499266472E-01  0.87551338296E-01  0.51100000000E-03 0.  1.
         11    1    4    4    0    0  0.35112521057E-01 -0.59001355817E-02 -0.24857049873E-01  0.43426199284E-01  0.51100000000E-03 0. -1.
</event>
<event>
 8    1  0.1010879E+005  0.1043930E+01  0.7957747E-01            NaN
         13   -1    0    0    0    0  0.00000000000E+00  0.00000000000E+00  0.74505805969E-08  0.10566000000E+00  0.10566000000E+00 0.  1.
     999900   -1    0    0    0    0 -0.00000000000E+00 -0.00000000000E+00 -0.74505805969E-08  0.93827000000E+00  0.93827000000E+00 0. -1.
     999902    2    1    2    0    0 -0.20218292821E-01  0.91127658613E-02 -0.75788013277E-02  0.10204937013E+01  0.10202245509E+01 0.  0.
     999903    2    3    3    0    0  0.10845433114E-01 -0.34144520909E-01 -0.12400785910E+00  0.13122890756E+00  0.23655978833E-01 0.  0.
         14    1    1    2    0    0  0.20218292821E-01 -0.91127658613E-02  0.75788013277E-02  0.23436298679E-01  0.00000000000E+00 0.  1.
     999901    1    3    3    0    0 -0.31063725935E-01  0.43257286770E-01  0.11642905777E+00  0.88926479376E+00  0.88000000000E+00 0.  1.
        -11    1    4    4    0    0  0.86815715451E-02  0.24362705880E-05 -0.26559777613E-01  0.27947318267E-01  0.51100000000E-03 0. -1.
         11    1    4    4    0    0  0.21638615689E-02 -0.34146957180E-01 -0.97448081482E-01  0.10328158929E+00  0.51100000000E-03 0.  1.
</event>
<event>
 8    1  0.1010879E+005  0.1043930E+01  0.7957747E-01            NaN
         13   -1    0    0    0    0  0.00000000000E+00  0.00000000000E+00  0.74505805969E-08  0.10566000000E+00  0.10566000000E+00 0. -1.
     999900   -1    0    0    0    0 -0.00000000000E+00 -0.00000000000E+00 -0.74505805969E-08  0.93827000000E+00  0.93827000000E+00 0. -1.
     999902    2    1    2    0    0  0.20750743092E-01  0.83356814204E-02 -0.59638610579E-02  0.10207860038E+01  0.10205236013E+01 0.  0.
     999903    2    3    3    0    0  0.33754498148E-01 -0.96701089864E-01 -0.79817235817E-01  0.13137263420E+00  0.19937676844E-01 0.  0.
         14    1    1    2    0    0 -0.20750743092E-01 -0.83356814204E-02  0.59638610579E-02  0.23143996249E-01  0.00000000000E+00 0. -1.
     999901    1    3    3    0    0 -0.13003755056E-01  0.10503677128E+00  0.73853374759E-01  0.88941336955E+00  0.88000000000E+00 0.  1.
        -11    1    4    4    0    0  0.30671205389E-01 -0.59058916951E-01 -0.49573069962E-01  0.82984509988E-01  0.51100000000E-03 0. -1.
         11    1    4    4    0    0  0.30832927592E-02 -0.37642172913E-01 -0.30244165855E-01  0.48388124216E-01  0.51100000000E-03 0.  1.
</event>
<event>
 8    1  0.1010879E+005  0.1043930E+01  0.7957747E-01            NaN
         13   -1    0    0    0    0  0.00000000000E+00  0.00000000000E+00  0.74505805969E-08  0.10566000000E+00  0.10566000000E+00 0.  1.
     999900   -1    0    0    0    0 -0.00000000000E+00 -0.00000000000E+00 -0.74505805969E-08  0.93827000000E+00  0.93827000000E+00 0. -1.
     999902    2    1    2    0    0 -0.12227623241E-01 -0.13340811910E-01 -0.15692642964E-01  0.10199768984E+01  0.10196956027E+01 0.  0.
     999903    2    3    3    0    0  0.54071101941E-02 -0.74057420822E-01  0.10411352387E+00  0.12961123868E+00  0.21111819422E-01 0.  0.
         14    1    1    2    0    0  0.12227623241E-01  0.13340811910E-01  0.15692642964E-01  0.23953101589E-01  0.00000000000E+00 0.  1.
     999901    1    3    3    0    0 -0.17634733436E-01  0.60716608912E-01 -0.11980616683E+00  0.89036565973E+00  0.88000000000E+00 0.  1.
        -11    1    4    4    0    0 -0.27149782254E-02 -0.84148355359E-02  0.24810199465E-01  0.26343645958E-01  0.51100000000E-03 0. -1.
         11    1    4    4    0    0  0.81220884195E-02 -0.65642585286E-01  0.79303324406E-01  0.10326759272E+00  0.51100000000E-03 0.  1.
</event>
<event>
 8    1  0.1010879E+005  0.1043930E+01  0.7957747E-01            NaN
         13   -1    0    0    0    0  0.00000000000E+00  0.00000000000E+00  0.74505805969E-08  0.10566000000E+00  0.10566000000E+00 0. -1.
     999900   -1    0    0    0    0 -0.00000000000E+00 -0.00000000000E+00 -0.74505805969E-08  0.93827000000E+00  0.93827000000E+00 0. -1.
     999902    2    1    2    0    0 -0.57460405109E-02 -0.18338429395E-01 -0.12717717656E-01  0.10208853625E+01  0.10206252339E+01 0.  0.
     999903    2    3    3    0    0 -0.11060982292E+00  0.59161755280E-01 -0.32246191200E-01  0.13106287867E+00  0.20075236066E-01 0.  0.
         14    1    1    2    0    0  0.57460405109E-02  0.18338429395E-01  0.12717717656E-01  0.23044637480E-01  0.00000000000E+00 0. -1.
     999901    1    3    3    0    0  0.10486378241E+00 -0.77500184674E-01  0.19528473544E-01  0.88982248385E+00  0.88000000000E+00 0.  1.
        -11    1    4    4    0    0 -0.57236314986E-01  0.41279421498E-01 -0.14551546111E-01  0.72055499496E-01  0.51100000000E-03 0. -1.
         11    1    4    4    0    0 -0.53373507938E-01  0.17882333782E-01 -0.17694645088E-01  0.59007379174E-01  0.51100000000E-03 0.  1.
</event>
<event>
 8    1  0.1010879E+005  0.1043930E+01  0.7957747E-01            NaN
         13   -1    0    0    0    0  0.00000000000E+00  0.00000000000E+00  0.74505805969E-08  0.10566000000E+00  0.10566000000E+00 0. -1.
     999900   -1    0    0    0    0 -0.00000000000E+00 -0.00000000000E+00 -0.74505805969E-08  0.93827000000E+00  0.93827000000E+00 0. -1.
     999902    2    1    2    0    0  0.21262135838E-01  0.10536146539E-01 -0.29228702645E-02  0.10200211737E+01  0.10197409293E+01 0.  0.
     999903    2    3    3    0    0  0.88926017721E-01  0.83905094447E-01 -0.49291058329E-01  0.13316638723E+00  0.18862045345E-01 0.  0.
         14    1    1    2    0    0 -0.21262135838E-01 -0.10536146539E-01  0.29228702645E-02  0.23908826296E-01  0.00000000000E+00 0. -1.
     999901    1    3    3    0    0 -0.67663881883E-01 -0.73368947908E-01  0.46368188064E-01  0.88685478647E+00  0.88000000000E+00 0.  1.
        -11    1    4    4    0    0  0.60501133267E-01  0.44489476475E-01 -0.30740642598E-01  0.81147697884E-01  0.51100000000E-03 0. -1.
         11    1    4    4    0    0  0.28424884454E-01  0.39415617973E-01 -0.18550415731E-01  0.52018689345E-01  0.51100000000E-03 0.  1.
</event>
<event>
 8    1  0.1010879E+005  0.1043930E+01  0.7957747E-01            NaN
         13   -1    0    0    0    0  0.00000000000E+00  0.00000000000E+00  0.74505805969E-08  0.10566000000E+00  0.10566000000E+00 0.  1.
     999900   -1    0    0    0    0 -0.00000000000E+00 -0.00000000000E+00 -0.74505805969E-08  0.93827000000E+00  0.93827000000E+00 0. -1.
     999902    2    1    2    0    0  0.97268164561E-02 -0.24537324192E-01 -0.71116194585E-02  0.10165938267E+01  0.10162262259E+01 0.  0.
     999903    2    3    3    0    0 -0.19315179185E-01  0.96742326886E-01 -0.74698945628E-01  0.12523517955E+00  0.19281176315E-01 0.  0.
         14    1    1    2    0    0 -0.97268164561E-02  0.24537324192E-01  0.71116194585E-02  0.27336173254E-01  0.00000000000E+00 0.  1.
     999901    1    3    3    0    0  0.29041995642E-01 -0.12127965108E+00  0.67587326169E-01  0.89135864720E+00  0.88000000000E+00 0.  1.
        -11    1    4    4    0    0  0.51382482181E-03  0.45537802656E-01 -0.31673384337E-01  0.55474497591E-01  0.51100000000E-03 0. -1.
         11    1    4    4    0    0 -0.19829004007E-01  0.51204524230E-01 -0.43025561291E-01  0.69760681956E-01  0.51100000000E-03 0.  1.
</event>
<event>
 8    1  0.1010879E+005  0.1043930E+01  0.7957747E-01            NaN
         13   -1    0    0    0    0  0.00000000000E+00  0.00000000000E+00  0.74505805969E-08  0.10566000000E+00  0.10566000000E+00 0. -1.
     999900   -1    0    0    0    0 -0.00000000000E+00 -0.00000000000E+00 -0.74505805969E-08  0.93827000000E+00  0.93827000000E+00 0. -1.
     999902    2    1    2    0    0 -0.21606473774E-01  0.54132973415E-02  0.10212483241E-01  0.10194261572E+01  0.10191316165E+01 0.  0.
     999903    2    3    3    0    0 -0.84655579619E-01 -0.93074060897E-01 -0.25835848107E-01  0.13095869486E+00  0.25560530888E-01 0.  0.
         14    1    1    2    0    0  0.21606473774E-01 -0.54132973415E-02 -0.10212483241E-01  0.24503842780E-01  0.00000000000E+00 0.  1.
     999901    1    3    3    0    0  0.63049105846E-01  0.98487358239E-01  0.36048331348E-01  0.88846746236E+00  0.88000000000E+00 0. -1.
        -11    1    4    4    0    0 -0.71227558902E-01 -0.83811835431E-01 -0.14175917183E-01  0.11090088663E+00  0.51100000000E-03 0.  1.
         11    1    4    4    0    0 -0.13428020718E-01 -0.92622254656E-02 -0.11659930924E-01  0.20057808233E-01  0.51100000000E-03 0. -1.
</event>
<event>
 8    1  0.1010879E+005  0.1043930E+01  0.7957747E-01            NaN
         13   -1    0    0    0    0  0.00000000000E+00  0.00000000000E+00  0.74505805969E-08  0.10566000000E+00  0.10566000000E+00 0.  1.
     999900   -1    0    0    0    0 -0.00000000000E+00 -0.00000000000E+00 -0.74505805969E-08  0.93827000000E+00  0.93827000000E+00 0.  1.
     999902    2    1    2    0    0 -0.12462612686E-01  0.10451100935E-01  0.17826789566E-01  0.10197983475E+01  0.10195127919E+01 0.  0.
     999903    2    3    3    0    0 -0.97601409347E-01 -0.17882455774E-01  0.85586403750E-01  0.13264403712E+00  0.20581320289E-01 0.  0.
         14    1    1    2    0    0  0.12462612686E-01 -0.10451100935E-01 -0.17826789566E-01  0.24131652491E-01  0.00000000000E+00 0. -1.
     999901    1    3    3    0    0  0.85138796661E-01  0.28333556709E-01 -0.67759614183E-01  0.88715431039E+00  0.88000000000E+00 0.  1.
        -11    1    4    4    0    0 -0.77949547920E-01 -0.56472410179E-02  0.64714858558E-01  0.10147067257E+00  0.51100000000E-03 0. -1.
         11    1    4    4    0    0 -0.19651861427E-01 -0.12235214756E-01  0.20871545192E-01  0.31173364550E-01  0.51100000000E-03 0.  1.
</event>
<event>
 8    1  0.1010879E+005  0.1043930E+01  0.7957747E-01            NaN
         13   -1    0    0    0    0  0.00000000000E+00  0.00000000000E+00  0.74505805969E-08  0.10566000000E+00  0.10566000000E+00 0. -1.
     999900   -1    0    0    0    0 -0.00000000000E+00 -0.00000000000E+00 -0.74505805969E-08  0.93827000000E+00  0.93827000000E+00 0. -1.
     999902    2    1    2    0    0  0.15528964940E-01  0.17132353265E-01  0.54885436153E-02  0.10201646809E+01  0.10198878300E+01 0.  0.
     999903    2    3    3    0    0 -0.45752551186E-01 -0.11502302188E+00 -0.23369427263E-01  0.12772238592E+00  0.21054363731E-01 0.  0.
         14    1    1    2    0    0 -0.15528964940E-01 -0.17132353265E-01 -0.54885436153E-02  0.23765319092E-01  0.00000000000E+00 0. -1.
     999901    1    3    3    0    0  0.61281516126E-01  0.13215537515E+00  0.28857970878E-01  0.89244229499E+00  0.88000000000E+00 0.  1.
        -11    1    4    4    0    0 -0.40440660429E-01 -0.11105278861E+00 -0.18852391030E-01  0.11968225700E+00  0.51100000000E-03 0. -1.
         11    1    4    4    0    0 -0.53118907564E-02 -0.39702332748E-02 -0.45170362324E-02  0.80401289162E-02  0.51100000000E-03 0.  1.
</event>
<event>
 8    1  0.1010879E+005  0.1043930E+01  0.7957747E-01            NaN
         13   -1    0    0    0    0  0.00000000000E+00  0.00000000000E+00  0.74505805969E-08  0.10566000000E+00  0.10566000000E+00 0.  1.
     999900   -1    0    0    0    0 -0.00000000000E+00 -0.00000000000E+00 -0.74505805969E-08  0.93827000000E+00  0.93827000000E+00 0.  1.
     999902    2    1    2    0    0  0.83438929552E-02 -0.13541542230E-01 -0.18249900844E-01  0.10197214727E+01  0.10194340729E+01 0.  0.
     999903    2    3    3    0    0 -0.12454200906E+00  0.19642059463E-01  0.14916076545E-01  0.12850892986E+00  0.19888016338E-01 0.  0.
         14    1    1    2    0    0 -0.83438929552E-02  0.13541542230E-01  0.18249900844E-01  0.24208527350E-01  0.00000000000E+00 0.  1.
     999901    1    3    3    0    0  0.13288590201E+00 -0.33183601693E-01 -0.33165977389E-01  0.89121254279E+00  0.88000000000E+00 0.  1.
        -11    1    4    4    0    0 -0.46702352837E-01  0.12868402793E-01 -0.22968802704E-02  0.48499920937E-01  0.51100000000E-03 0. -1.
         11    1    4    4    0    0 -0.77839656220E-01  0.67736566696E-02  0.17212956816E-01  0.80009008921E-01  0.51100000000E-03 0.  1.
</event>
<event>
 8    1  0.1010879E+005  0.1043930E+01  0.7957747E-01            NaN
         13   -1    0    0    0    0  0.00000000000E+00  0.00000000000E+00  0.74505805969E-08  0.10566000000E+00  0.10566000000E+00 0.  1.
     999900   -1    0    0    0    0 -0.00000000000E+00 -0.00000000000E+00 -0.74505805969E-08  0.93827000000E+00  0.93827000000E+00 0.  1.
     999902    2    1    2    0    0 -0.80553708223E-02 -0.21197682469E-01  0.71883155241E-02  0.10201412921E+01  0.10198638896E+01 0.  0.
     999903    2    3    3    0    0  0.56385436161E-01 -0.23881674734E-01  0.11442669867E+00  0.13128815904E+00  0.19835814502E-01 0.  0.
         14    1    1    2    0    0  0.80553708223E-02  0.21197682469E-01 -0.71883155241E-02  0.23788707851E-01  0.00000000000E+00 0. -1.
     999901    1    3    3    0    0 -0.64440806983E-01  0.26839922646E-02 -0.10723838314E+00  0.88885313311E+00  0.88000000000E+00 0.  1.
        -11    1    4    4    0    0  0.77154301816E-02 -0.86481520907E-02  0.11079050030E-01  0.16041348698E-01  0.51100000000E-03 0. -1.
         11    1    4    4    0    0  0.48670005979E-01 -0.15233522643E-01  0.10334764864E+00  0.11524681034E+00  0.51100000000E-03 0.  1.
</event>
<event>
 8    1  0.1010879E+005  0.1043930E+01  0.7957747E-01            NaN
         13   -1    0    0    0    0  0.00000000000E+00  0.00000000000E+00  0.74505805969E-08  0.10566000000E+00  0.10566000000E+00 0. -1.
     999900   -1    0    0    0    0 -0.00000000000E+00 -0.00000000000E+00 -0.74505805969E-08  0.93827000000E+00  0.93827000000E+00 0.  1.
     999902    2    1    2    0    0 -0.18834913023E-01  0.46724197072E-02 -0.12769158638E-01  0.10206999146E+01  0.10204355339E+01 0.  0.
     999903    2    3    3    0    0  0.71455891181E-01 -0.71587580805E-01  0.76446503461E-01  0.12832810233E+00  0.19831990481E-01 0.  0.
         14    1    1    2    0    0  0.18834913023E-01 -0.46724197072E-02  0.12769158638E-01  0.23230085382E-01  0.00000000000E+00 0. -1.
     999901    1    3    3    0    0 -0.90290804204E-01  0.76260000512E-01 -0.89215662099E-01  0.89237181229E+00  0.88000000000E+00 0.  1.
        -11    1    4    4    0    0  0.59801959048E-01 -0.49206022394E-01  0.62310151508E-01  0.99399814123E-01  0.51100000000E-03 0. -1.
         11    1    4    4    0    0  0.11653932132E-01 -0.22381558411E-01  0.14136351953E-01  0.28928288207E-01  0.51100000000E-03 0.  1.
</event>
<event>
 8    1  0.1010879E+005  0.1043930E+01  0.7957747E-01            NaN
         13   -1    0    0    0    0  0.00000000000E+00  0.00000000000E+00  0.74505805969E-08  0.10566000000E+00  0.10566000000E+00 0.  1.
     999900   -1    0    0    0    0 -0.00000000000E+00 -0.00000000000E+00 -0.74505805969E-08  0.93827000000E+00  0.93827000000E+00 0. -1.
     999902    2    1    2    0    0 -0.23391399574E-02 -0.22129339566E-01  0.12250700285E-01  0.10185280532E+01  0.10182112434E+01 0.  0.
     999903    2    3    3    0    0  0.37551726241E-01 -0.34396505489E-01  0.11913389392E+00  0.13107902272E+00  0.19889036774E-01 0.  0.
         14    1    1    2    0    0  0.23391399574E-02  0.22129339566E-01 -0.12250700285E-01  0.25401946832E-01  0.00000000000E+00 0. -1.
     999901    1    3    3    0    0 -0.39890866198E-01  0.12267165922E-01 -0.10688319363E+00  0.88744903045E+00  0.88000000000E+00 0. -1.
        -11    1    4    4    0    0  0.39335733387E-01 -0.34730828145E-01  0.11701176921E+00  0.12824018715E+00  0.51100000000E-03 0.  1.
         11    1    4    4    0    0 -0.17840071460E-02  0.33432265631E-03  0.21221247032E-02  0.28388355696E-02  0.51100000000E-03 0. -1.
</event>
<event>
 8    1  0.1010879E+005  0.1043930E+01  0.7957747E-01            NaN
         13   -1    0    0    0    0  0.00000000000E+00  0.00000000000E+00  0.74505805969E-08  0.10566000000E+00  0.10566000000E+00 0. -1.
     999900   -1    0    0    0    0 -0.00000000000E+00 -0.00000000000E+00 -0.74505805969E-08  0.93827000000E+00  0.93827000000E+00 0. -1.
     999902    2    1    2    0    0  0.12627932323E-01 -0.99999972717E-02  0.17072296724E-01  0.10204581459E+01  0.10201881687E+01 0.  0.
     999903    2    3    3    0    0  0.66014428671E-01  0.57268386668E-01 -0.93323939868E-01  0.12941242174E+00  0.20016099587E-01 0.  0.
         14    1    1    2    0    0 -0.12627932323E-01  0.99999972717E-02 -0.17072296724E-01  0.23471854116E-01  0.00000000000E+00 0.  1.
     999901    1    3    3    0    0 -0.53386496348E-01 -0.67268383939E-01  0.11039623659E+00  0.89104572415E+00  0.88000000000E+00 0.  1.
        -11    1    4    4    0    0  0.15219827826E-01  0.25576131700E-01 -0.32177127875E-01  0.43833895002E-01  0.51100000000E-03 0.  1.
         11    1    4    4    0    0  0.50794600845E-01  0.31692254968E-01 -0.61146811993E-01  0.85578526734E-01  0.51100000000E-03 0. -1.
</event>
<event>
 8    1  0.1010879E+005  0.1043930E+01  0.7957747E-01            NaN
         13   -1    0    0    0    0  0.00000000000E+00  0.00000000000E+00  0.74505805969E-08  0.10566000000E+00  0.10566000000E+00 0.  1.
     999900   -1    0    0    0    0 -0.00000000000E+00 -0.00000000000E+00 -0.74505805969E-08  0.93827000000E+00  0.93827000000E+00 0. -1.
     999902    2    1    2    0    0 -0.20856693027E-01 -0.55112085163E-02 -0.12696045086E-01  0.10188987271E+01  0.10185912092E+01 0.  0.
     999903    2    3    3    0    0  0.90866386511E-01 -0.79454380860E-01  0.35630083943E-01  0.12744763252E+00  0.20092220334E-01 0.  0.
         14    1    1    2    0    0  0.20856693027E-01  0.55112085163E-02  0.12696045086E-01  0.25031272924E-01  0.00000000000E+00 0.  1.
     999901    1    3    3    0    0 -0.11172307954E+00  0.73943172344E-01 -0.48326129029E-01  0.89145109456E+00  0.88000000000E+00 0.  1.
        -11    1    4    4    0    0  0.57903393772E-01 -0.37715752288E-01  0.17951713704E-01  0.71398922449E-01  0.51100000000E-03 0.  1.
         11    1    4    4    0    0  0.32962992739E-01 -0.41738628573E-01  0.17678370238E-01  0.56048710072E-01  0.51100000000E-03 0. -1.
</event>
<event>
 8    1  0.1010879E+005  0.1043930E+01  0.7957747E-01            NaN
         13   -1    0    0    0    0  0.00000000000E+00  0.00000000000E+00  0.74505805969E-08  0.10566000000E+00  0.10566000000E+00 0.  1.
     999900   -1    0    0    0    0 -0.00000000000E+00 -0.00000000000E+00 -0.74505805969E-08  0.93827000000E+00  0.93827000000E+00 0.  1.
     999902    2    1    2    0    0  0.23388160363E-02  0.13942164831E-01 -0.18371163542E-01  0.10207491098E+01  0.10204858605E+01 0.  0.
     999903    2    3    3    0    0 -0.88697478024E-01 -0.21800012231E-01 -0.92450313103E-01  0.13223752830E+00  0.24438092338E-01 0.  0.
         14    1    1    2    0    0 -0.23388160363E-02 -0.13942164831E-01  0.18371163542E-01  0.23180890201E-01  0.00000000000E+00 0.  1.
     999901    1    3    3    0    0  0.91036294060E-01  0.35742177062E-01  0.74079149560E-01  0.88851158150E+00  0.88000000000E+00 0. -1.
        -11    1    4    4    0    0 -0.35125891658E-01 -0.85092423682E-02 -0.20503515013E-01  0.41555874667E-01  0.51100000000E-03 0. -1.
         11    1    4    4    0    0 -0.53571586366E-01 -0.13290769862E-01 -0.71946798090E-01  0.90681653633E-01  0.51100000000E-03 0.  1.
</event>
<event>
 8    1  0.1010879E+005  0.1043930E+01  0.7957747E-01            NaN
         13   -1    0    0    0    0  0.00000000000E+00  0.00000000000E+00  0.74505805969E-08  0.10566000000E+00  0.10566000000E+00 0. -1.
     999900   -1    0    0    0    0 -0.00000000000E+00 -0.00000000000E+00 -0.74505805969E-08  0.93827000000E+00  0.93827000000E+00 0. -1.
     999902    2    1    2    0    0  0.11008216205E-01 -0.22610950674E-01 -0.66396673202E-02  0.10179199808E+01  0.10175876209E+01 0.  0.
     999903    2    3    3    0    0  0.73951570704E-01  0.69062237005E-01  0.74479469256E-01  0.12722016972E+00  0.19983814784E-01 0.  0.
         14    1    1    2    0    0 -0.11008216205E-01  0.22610950674E-01  0.66396673202E-02  0.26010019157E-01  0.00000000000E+00 0. -1.
     999901    1    3    3    0    0 -0.62943354500E-01 -0.91673187680E-01 -0.81119136576E-01  0.89069981112E+00  0.88000000000E+00 0. -1.
        -11    1    4    4    0    0  0.49909470450E-01  0.58427931809E-01  0.55202006428E-01  0.94616600503E-01  0.51100000000E-03 0.  1.
         11    1    4    4    0    0  0.24042100254E-01  0.10634305196E-01  0.19277462827E-01  0.32603569217E-01  0.51100000000E-03 0. -1.
</event>
<event>
 8    1  0.1010879E+005  0.1043930E+01  0.7957747E-01            NaN
         13   -1    0    0    0    0  0.00000000000E+00  0.00000000000E+00  0.74505805969E-08  0.10566000000E+00  0.10566000000E+00 0. -1.
     999900   -1    0    0    0    0 -0.00000000000E+00 -0.00000000000E+00 -0.74505805969E-08  0.93827000000E+00  0.93827000000E+00 0.  1.
     999902    2    1    2    0    0  0.60680227627E-02 -0.19818964445E-01 -0.11746681556E-01  0.10201057103E+01  0.10198274675E+01 0.  0.
     999903    2    3    3    0    0 -0.77089186223E-01  0.41471261709E-01  0.91469023215E-01  0.12807146492E+00  0.19316048730E-01 0.  0.
         14    1    1    2    0    0 -0.60680227627E-02  0.19818964445E-01  0.11746681556E-01  0.23824289695E-01  0.00000000000E+00 0. -1.
     999901    1    3    3    0    0  0.83157208986E-01 -0.61290226154E-01 -0.10321570477E+00  0.89203424538E+00  0.88000000000E+00 0. -1.
        -11    1    4    4    0    0 -0.24031714695E-01  0.72284379549E-02  0.36800266032E-01  0.44545418703E-01  0.51100000000E-03 0.  1.
         11    1    4    4    0    0 -0.53057471528E-01  0.34242823754E-01  0.54668757183E-01  0.83526046216E-01  0.51100000000E-03 0. -1.
</event>
<event>
 8    1  0.1010879E+005  0.1043930E+01  0.7957747E-01            NaN
         13   -1    0    0    0    0  0.00000000000E+00  0.00000000000E+00  0.74505805969E-08  0.10566000000E+00  0.10566000000E+00 0. -1.
     999900   -1    0    0    0    0 -0.00000000000E+00 -0.00000000000E+00 -0.74505805969E-08  0.93827000000E+00  0.93827000000E+00 0. -1.
     999902    2    1    2    0    0 -0.70620786876E-02 -0.22559402230E-01 -0.41367746427E-02  0.10199318232E+01  0.10196494552E+01 0.  0.
     999903    2    3    3    0    0  0.84686364935E-01 -0.47642879657E-01 -0.85453168742E-01  0.13107901555E+00  0.20924623826E-01 0.  0.
         14    1    1    2    0    0  0.70620786876E-02  0.22559402230E-01  0.41367746427E-02  0.23998176781E-01  0.00000000000E+00 0. -1.
     999901    1    3    3    0    0 -0.91748443622E-01  0.25083477426E-01  0.81316394099E-01  0.88885280767E+00  0.88000000000E+00 0.  1.
        -11    1    4    4    0    0  0.34988114806E-01 -0.16968429981E-01 -0.47660828875E-01  0.61513506840E-01  0.51100000000E-03 0. -1.
         11    1    4    4    0    0  0.49698250129E-01 -0.30674449676E-01 -0.37792339867E-01  0.69565508713E-01  0.51100000000E-03 0.  1.
</event>
<event>
 8    1  0.1010879E+005  0.1043930E+01  0.7957747E-01            NaN
         13   -1    0    0    0    0  0.00000000000E+00  0.00000000000E+00  0.74505805969E-08  0.10566000000E+00  0.10566000000E+00 0.  1.
     999900   -1    0    0    0    0 -0.00000000000E+00 -0.00000000000E+00 -0.74505805969E-08  0.93827000000E+00  0.93827000000E+00 0. -1.
     999902    2    1    2    0    0 -0.19889001392E-01 -0.59502145141E-02 -0.99339633383E-02  0.10209156337E+01  0.10206561958E+01 0.  0.
     999903    2    3    3    0    0 -0.89747113793E-01 -0.36323035353E-01 -0.90236038383E-01  0.13398210328E+00  0.20850756430E-01 0.  0.
         14    1    1    2    0    0  0.19889001392E-01  0.59502145141E-02  0.99339633383E-02  0.23014366312E-01  0.00000000000E+00 0.  1.
     999901    1    3    3    0    0  0.69858112400E-01  0.30372820839E-01  0.80302075044E-01  0.88693353041E+00  0.88000000000E+00 0.  1.
        -11    1    4    4    0    0 -0.34816232791E-01 -0.70721792140E-02 -0.43414976334E-01  0.56100865195E-01  0.51100000000E-03 0.  1.
         11    1    4    4    0    0 -0.54930881002E-01 -0.29250856139E-01 -0.46821062048E-01  0.77881238080E-01  0.51100000000E-03 0. -1.
</event>
<event>
 8    1  0.1010879E+005  0.1043930E+01  0.7957747E-01            NaN
         13   -1    0    0    0    0  0.00000000000E+00  0.00000000000E+00  0.74505805969E-08  0.10566000000E+00  0.10566000000E+00 0.  1.
     999900   -1    0    0    0    0 -0.00000000000E+00 -0.00000000000E+00 -0.74505805969E-08  0.93827000000E+00  0.93827000000E+00 0.  1.
     999902    2    1    2    0    0 -0.19238243941E-01 -0.12936277422E-01  0.32735063486E-02  0.10205169022E+01  0.10202482907E+01 0.  0.
     999903    2    3    3    0    0  0.41721692620E-01 -0.73907772357E-01  0.98396733336E-01  0.13120139839E+00  0.18133707771E-01 0.  0.
         14    1    1    2    0    0  0.19238243941E-01  0.12936277422E-01 -0.32735063486E-02  0.23413097772E-01  0.00000000000E+00 0.  1.
     999901    1    3    3    0    0 -0.60959936561E-01  0.60971494935E-01 -0.95123226987E-01  0.88931550384E+00  0.88000000000E+00 0.  1.
        -11    1    4    4    0    0  0.29210161236E-01 -0.64150444685E-01  0.74985246291E-01  0.10291531157E+00  0.51100000000E-03 0.  1.
         11    1    4    4    0    0  0.12511531384E-01 -0.97573276719E-02  0.23411487045E-01  0.28286086819E-01  0.51100000000E-03 0. -1.
</event>
<event>
 8    1  0.1010879E+005  0.1043930E+01  0.7957747E-01            NaN
         13   -1    0    0    0    0  0.00000000000E+00  0.00000000000E+00  0.74505805969E-08  0.10566000000E+00  0.10566000000E+00 0.  1.
     999900   -1    0    0    0    0 -0.00000000000E+00 -0.00000000000E+00 -0.74505805969E-08  0.93827000000E+00  0.93827000000E+00 0. -1.
     999902    2    1    2    0    0  0.18627821505E-01 -0.68321836751E-02  0.41168589466E-02  0.10236661653E+01  0.10234655808E+01 0.  0.
     999903    2    3    3    0    0 -0.92427975553E-01  0.88988848653E-01  0.20641091825E-01  0.13137242975E+00  0.19253954822E-01 0.  0.
         14    1    1    2    0    0 -0.18627821505E-01  0.68321836751E-02 -0.41168589466E-02  0.20263834666E-01  0.00000000000E+00 0. -1.
     999901    1    3    3    0    0  0.11105579706E+00 -0.95821032328E-01 -0.16524232878E-01  0.89229373559E+00  0.88000000000E+00 0. -1.
        -11    1    4    4    0    0 -0.68583441675E-01  0.64410809297E-01  0.23581045431E-01  0.96998802316E-01  0.51100000000E-03 0. -1.
         11    1    4    4    0    0 -0.23844533878E-01  0.24578039356E-01 -0.29399536064E-02  0.34373627430E-01  0.51100000000E-03 0.  1.
</event>
<event>
 8    1  0.1010879E+005  0.1043930E+01  0.7957747E-01            NaN
         13   -1    0    0    0    0  0.00000000000E+00  0.00000000000E+00  0.74505805969E-08  0.10566000000E+00  0.10566000000E+00 0.  1.
     999900   -1    0    0    0    0 -0.00000000000E+00 -0.00000000000E+00 -0.74505805969E-08  0.93827000000E+00  0.93827000000E+00 0. -1.
     999902    2    1    2    0    0  0.35842637427E-02 -0.22808830060E-01  0.59064017446E-02  0.10200977685E+01  0.10198193380E+01 0.  0.
     999903    2    3    3    0    0 -0.48808996096E-01 -0.49546175275E-02 -0.11831392216E+00  0.12965152341E+00  0.20111365180E-01 0.  0.
         14    1    1    2    0    0 -0.35842637427E-02  0.22808830060E-01 -0.59064017446E-02  0.23832231470E-01  0.00000000000E+00 0. -1.
     999901    1    3    3    0    0  0.52393259839E-01 -0.17854212533E-01  0.12422032391E+00  0.89044624512E+00  0.88000000000E+00 0.  1.
        -11    1    4    4    0    0 -0.49749398240E-01 -0.74499322911E-02 -0.11218925084E+00  0.12295199568E+00  0.51100000000E-03 0.  1.
         11    1    4    4    0    0  0.94040214429E-03  0.24953147637E-02 -0.61246713217E-02  0.66995277268E-02  0.51100000000E-03 0. -1.
</event>
<event>
 8    1  0.1010879E+005  0.1043930E+01  0.7957747E-01            NaN
         13   -1    0    0    0    0  0.00000000000E+00  0.00000000000E+00  0.74505805969E-08  0.10566000000E+00  0.10566000000E+00 0. -1.
     999900   -1    0    0    0    0 -0.00000000000E+00 -0.00000000000E+00 -0.74505805969E-08  0.93827000000E+00  0.93827000000E+00 0.  1.
     999902    2    1    2    0    0 -0.73524484860E-03  0.19716316240E-01 -0.12579346000E-01  0.10205309903E+01  0.10202627056E+01 0.  0.
     999903    2    3    3    0    0  0.30072009465E-01  0.16409414060E-01  0.12327556389E+00  0.12956714191E+00  0.20425106814E-01 0.  0.
         14    1    1    2    0    0  0.73524484860E-03 -0.19716316240E-01  0.12579346000E-01  0.23399009741E-01  0.00000000000E+00 0. -1.
     999901    1    3    3    0    0 -0.30807254314E-01  0.33069021794E-02 -0.13585490989E+00  0.89096384835E+00  0.88000000000E+00 0.  1.
        -11    1    4    4    0    0  0.29377955902E-01  0.12069511146E-01  0.80146638893E-01  0.86211845120E-01  0.51100000000E-03 0. -1.
         11    1    4    4    0    0  0.69405356299E-03  0.43399029139E-02  0.43128924996E-01  0.43355296792E-01  0.51100000000E-03 0.  1.
</event>
<event>
 8    1  0.1010879E+005  0.1043930E+01  0.7957747E-01            NaN
         13   -1    0    0    0    0  0.00000000000E+00  0.00000000000E+00  0.74505805969E-08  0.10566000000E+00  0.10566000000E+00 0. -1.
     999900   -1    0    0    0    0 -0.00000000000E+00 -0.00000000000E+00 -0.74505805969E-08  0.93827000000E+00  0.93827000000E+00 0. -1.
     999902    2    1    2    0    0  0.13472499791E-01  0.95110973943E-02  0.17714119703E-01  0.10197275361E+01  0.10194402820E+01 0.  0.
     999903    2    3    3    0    0  0.10299026839E+00 -0.17793745282E-01  0.79334392056E-01  0.13262210642E+00  0.19263036969E-01 0.  0.
         14    1    1    2    0    0 -0.13472499791E-01 -0.95110973943E-02 -0.17714119703E-01  0.24202463947E-01  0.00000000000E+00 0.  1.
     999901    1    3    3    0    0 -0.89517768597E-01  0.27304842676E-01 -0.61620272354E-01  0.88710542964E+00  0.88000000000E+00 0. -1.
        -11    1    4    4    0    0  0.61125254675E-01 -0.54041854625E-02  0.56187143470E-01  0.83203114076E-01  0.51100000000E-03 0.  1.
         11    1    4    4    0    0  0.41865013713E-01 -0.12389559819E-01  0.23147248586E-01  0.49418992339E-01  0.51100000000E-03 0. -1.
</event>
<event>
 8    1  0.1010879E+005  0.1043930E+01  0.7957747E-01            NaN
         13   -1    0    0    0    0  0.00000000000E+00  0.00000000000E+00  0.74505805969E-08  0.10566000000E+00  0.10566000000E+00 0.  1.
     999900   -1    0    0    0    0 -0.00000000000E+00 -0.00000000000E+00 -0.74505805969E-08  0.93827000000E+00  0.93827000000E+00 0. -1.
     999902    2    1    2    0    0 -0.19271038991E-01  0.44316856318E-02  0.10964959316E-01  0.10213193142E+01  0.10210689978E+01 0.  0.
     999903    2    3    3    0    0 -0.91670509407E-01 -0.46933295353E-01  0.83206992180E-01  0.13390793498E+00  0.20042829015E-01 0.  0.
         14    1    1    2    0    0  0.19271038991E-01 -0.44316856318E-02 -0.10964959316E-01  0.22610685840E-01  0.00000000000E+00 0. -1.
     999901    1    3    3    0    0  0.72399470417E-01  0.51364980985E-01 -0.72242032864E-01  0.88741137918E+00  0.88000000000E+00 0. -1.
        -11    1    4    4    0    0 -0.68155071153E-01 -0.43455014323E-01  0.59840663659E-01  0.10057145789E+00  0.51100000000E-03 0.  1.
         11    1    4    4    0    0 -0.23515438255E-01 -0.34782810299E-02  0.23366328522E-01  0.33336477091E-01  0.51100000000E-03 0. -1.
</event>
<event>
 8    1  0.1010879E+005  0.1043930E+01  0.7957747E-01            NaN
         13   -1    0    0    0    0  0.00000000000E+00  0.00000000000E+00  0.74505805969E-08  0.10566000000E+00  0.10566000000E+00 0.  1.
     999900   -1    0    0    0    0 -0.00000000000E+00 -0.00000000000E+00 -0.74505805969E-08  0.93827000000E+00  0.93827000000E+00 0. -1.
     999902    2    1    2    0    0 -0.19866894028E-01 -0.85871707242E-02  0.86883681158E-02  0.10206078920E+01  0.10203413882E+01 0.  0.
     999903    2    3    3    0    0 -0.30829943720E-01  0.45112154605E-01  0.11789760229E+00  0.13216517423E+00  0.24128753199E-01 0.  0.
         14    1    1    2    0    0  0.19866894028E-01  0.85871707242E-02 -0.86883681158E-02  0.23322107964E-01  0.00000000000E+00 0. -1.
     999901    1    3    3    0    0  0.10963049692E-01 -0.53699325329E-01 -0.10920923417E+00  0.88844271781E+00  0.88000000000E+00 0. -1.
        -11    1    4    4    0    0  0.22408694039E-02  0.10817024376E-01  0.33106021644E-01  0.34904144483E-01  0.51100000000E-03 0. -1.
         11    1    4    4    0    0 -0.33070813124E-01  0.34295130229E-01  0.84791580642E-01  0.97261029744E-01  0.51100000000E-03 0.  1.
</event>
<event>
 8    1  0.1010879E+005  0.1043930E+01  0.7957747E-01            NaN
         13   -1    0    0    0    0  0.00000000000E+00  0.00000000000E+00  0.74505805969E-08  0.10566000000E+00  0.10566000000E+00 0. -1.
     999900   -1    0    0    0    0 -0.00000000000E+00 -0.00000000000E+00 -0.74505805969E-08  0.93827000000E+00  0.93827000000E+00 0. -1.
     999902    2    1    2    0    0 -0.61230135798E-03  0.18717614062E-01  0.14707952004E-01  0.10201172336E+01  0.10198392631E+01 0.  0.
     999903    2    3    3    0    0  0.11039048794E-01 -0.91782155724E-01 -0.85460448622E-01  0.12749208188E+00  0.20122573302E-01 0.  0.
         14    1    1    2    0    0  0.61230135798E-03 -0.18717614062E-01 -0.14707952004E-01  0.23812766351E-01  0.00000000000E+00 0. -1.
     999901    1    3    3    0    0 -0.11651350152E-01  0.11049976979E+00  0.10016840063E+00  0.89262515177E+00  0.88000000000E+00 0.  1.
        -11    1    4    4    0    0  0.67807299759E-02 -0.68338881240E-01 -0.74294377965E-01  0.10117359688E+00  0.51100000000E-03 0.  1.
         11    1    4    4    0    0  0.42583188183E-02 -0.23443274485E-01 -0.11166070657E-01  0.26318484999E-01  0.51100000000E-03 0. -1.
</event>
<event>
 8    1  0.1010879E+005  0.1043930E+01  0.7957747E-01            NaN
         13   -1    0    0    0    0  0.00000000000E+00  0.00000000000E+00  0.74505805969E-08  0.10566000000E+00  0.10566000000E+00 0.  1.
     999900   -1    0    0    0    0 -0.00000000000E+00 -0.00000000000E+00 -0.74505805969E-08  0.93827000000E+00  0.93827000000E+00 0.  1.
     999902    2    1    2    0    0 -0.13452490623E-01  0.13458869476E-01 -0.15053039258E-01  0.10196667632E+01  0.10193780472E+01 0.  0.
     999903    2    3    3    0    0 -0.11264548605E+00  0.66473905732E-01 -0.77941258921E-02  0.13247876941E+00  0.19547129573E-01 0.  0.
         14    1    1    2    0    0  0.13452490623E-01 -0.13458869476E-01  0.15053039258E-01  0.24263236850E-01  0.00000000000E+00 0.  1.
     999901    1    3    3    0    0  0.99192995432E-01 -0.53015036256E-01 -0.72589133655E-02  0.88718799374E+00  0.88000000000E+00 0. -1.
        -11    1    4    4    0    0 -0.82088473106E-01  0.58070999221E-01 -0.60441866520E-02  0.10073505686E+00  0.51100000000E-03 0. -1.
         11    1    4    4    0    0 -0.30557012948E-01  0.84029065114E-02 -0.17499392401E-02  0.31743712551E-01  0.51100000000E-03 0.  1.
</event>
<event>
 8    1  0.1010879E+005  0.1043930E+01  0.7957747E-01            NaN
         13   -1    0    0    0    0  0.00000000000E+00  0.00000000000E+00  0.74505805969E-08  0.10566000000E+00  0.10566000000E+00 0. -1.
     999900   -1    0    0    0    0 -0.00000000000E+00 -0.00000000000E+00 -0.74505805969E-08  0.93827000000E+00  0.93827000000E+00 0. -1.
     999902    2    1    2    0    0  0.72512349642E-03 -0.24930034922E-01  0.49831362555E-04  0.10189893719E+01  0.10186841047E+01 0.  0.
     999903    2    3    3    0    0  0.11768687300E+00  0.39860521170E-01 -0.25836961966E-01  0.12851309876E+00  0.20223914710E-01 0.  0.
         14    1    1    2    0    0 -0.72512349642E-03  0.24930034922E-01 -0.49831362555E-04  0.24940628069E-01  0.00000000000E+00 0. -1.
     999901    1    3    3    0    0 -0.11696174950E+00 -0.64790556093E-01  0.25886793329E-01  0.89047627317E+00  0.88000000000E+00 0.  1.
        -11    1    4    4    0    0  0.50396345897E-01  0.27608400187E-01 -0.13070129351E-01  0.58933053908E-01  0.51100000000E-03 0.  1.
         11    1    4    4    0    0  0.67290527101E-01  0.12252120983E-01 -0.12766832615E-01  0.69580044856E-01  0.51100000000E-03 0. -1.
</event>
<event>
 8    1  0.1010879E+005  0.1043930E+01  0.7957747E-01            NaN
         13   -1    0    0    0    0  0.00000000000E+00  0.00000000000E+00  0.74505805969E-08  0.10566000000E+00  0.10566000000E+00 0. -1.
     999900   -1    0    0    0    0 -0.00000000000E+00 -0.00000000000E+00 -0.74505805969E-08  0.93827000000E+00  0.93827000000E+00 0.  1.
     999902    2    1    2    0    0  0.41995819591E-02  0.19908706858E-01  0.63585479284E-02  0.10226127715E+01  0.10223905596E+01 0.  0.
     999903    2    3    3    0    0 -0.84619792992E-01 -0.19231199135E-01 -0.96501253986E-01  0.13132103902E+00  0.20059284207E-01 0.  0.
         14    1    1    2    0    0 -0.41995819591E-02 -0.19908706858E-01 -0.63585479284E-02  0.21317228458E-01  0.00000000000E+00 0. -1.
     999901    1    3    3    0    0  0.88819374951E-01  0.39139905993E-01  0.10285980191E+00  0.89129173252E+00  0.88000000000E+00 0. -1.
        -11    1    4    4    0    0 -0.47909260689E-01 -0.72152442466E-02 -0.67147994123E-01  0.82803811779E-01  0.51100000000E-03 0.  1.
         11    1    4    4    0    0 -0.36710532303E-01 -0.12015954889E-01 -0.29353259862E-01  0.48517227243E-01  0.51100000000E-03 0. -1.
</event>
<event>
 8    1  0.1010879E+005  0.1043930E+01  0.7957747E-01            NaN
         13   -1    0    0    0    0  0.00000000000E+00  0.00000000000E+00  0.74505805969E-08  0.10566000000E+00  0.10566000000E+00 0.  1.
     999900   -1    0    0    0    0 -0.00000000000E+00 -0.00000000000E+00 -0.74505805969E-08  0.93827000000E+00  0.93827000000E+00 0. -1.
     999902    2    1    2    0    0  0.23387144889E-01 -0.61112392003E-02  0.29445584177E-02  0.10195788970E+01  0.10192880609E+01 0.  0.
     999903    2    3    3    0    0  0.12027027947E-01  0.42012536500E-01 -0.12036338376E+00  0.12960710050E+00  0.20023828953E-01 0.  0.
         14    1    1    2    0    0 -0.23387144889E-01  0.61112392003E-02 -0.29445584177E-02  0.24351102951E-01  0.00000000000E+00 0. -1.
     999901    1    3    3    0    0  0.11360116943E-01 -0.48123775700E-01  0.12330794218E+00  0.88997179655E+00  0.88000000000E+00 0.  1.
        -11    1    4    4    0    0  0.12458384300E-01  0.14202556466E-01 -0.34333770902E-01  0.39191745239E-01  0.51100000000E-03 0.  1.
         11    1    4    4    0    0 -0.43135635329E-03  0.27809980034E-01 -0.86029612859E-01  0.90415355264E-01  0.51100000000E-03 0. -1.
</event>
<event>
 8    1  0.1010879E+005  0.1043930E+01  0.7957747E-01            NaN
         13   -1    0    0    0    0  0.00000000000E+00  0.00000000000E+00  0.74505805969E-08  0.10566000000E+00  0.10566000000E+00 0.  1.
     999900   -1    0    0    0    0 -0.00000000000E+00 -0.00000000000E+00 -0.74505805969E-08  0.93827000000E+00  0.93827000000E+00 0.  1.
     999902    2    1    2    0    0  0.22371015341E-01  0.79885531283E-02  0.79087472978E-03  0.10201622742E+01  0.10198853665E+01 0.  0.
     999903    2    3    3    0    0 -0.92901860549E-01 -0.19260460265E-01  0.84131731587E-01  0.12832369961E+00  0.19674923081E-01 0.  0.
         14    1    1    2    0    0 -0.22371015341E-01 -0.79885531283E-02 -0.79087472978E-03  0.23767725834E-01  0.00000000000E+00 0. -1.
     999901    1    3    3    0    0  0.11527287589E+00  0.27249013393E-01 -0.83340856858E-01  0.89183857456E+00  0.88000000000E+00 0.  1.
        -11    1    4    4    0    0 -0.41524116442E-01 -0.86440880544E-02  0.24854018192E-01  0.49162545153E-01  0.51100000000E-03 0. -1.
         11    1    4    4    0    0 -0.51377744107E-01 -0.10616372211E-01  0.59277713395E-01  0.79161154456E-01  0.51100000000E-03 0.  1.
</event>
<event>
 8    1  0.1010879E+005  0.1043930E+01  0.7957747E-01            NaN
         13   -1    0    0    0    0  0.00000000000E+00  0.00000000000E+00  0.74505805969E-08  0.10566000000E+00  0.10566000000E+00 0. -1.
     999900   -1    0    0    0    0 -0.00000000000E+00 -0.00000000000E+00 -0.74505805969E-08  0.93827000000E+00  0.93827000000E+00 0.  1.
     999902    2    1    2    0    0  0.54280216418E-04  0.46070333565E-02  0.22865508069E-01  0.10206049242E+01  0.10203383518E+01 0.  0.
     999903    2    3    3    0    0 -0.44386423949E-01 -0.11660669257E+00  0.34768798935E-01  0.13110538406E+00  0.20309528964E-01 0.  0.
         14    1    1    2    0    0 -0.54280216418E-04 -0.46070333565E-02 -0.22865508069E-01  0.23325075819E-01  0.00000000000E+00 0.  1.
     999901    1    3    3    0    0  0.44440704166E-01  0.12121372593E+00 -0.11903290866E-01  0.88949954012E+00  0.88000000000E+00 0.  1.
        -11    1    4    4    0    0 -0.10273987092E-01 -0.41765606771E-01  0.20413034280E-01  0.47611698240E-01  0.51100000000E-03 0.  1.
         11    1    4    4    0    0 -0.34112436857E-01 -0.74841085801E-01  0.14355764655E-01  0.83493685822E-01  0.51100000000E-03 0. -1.
</event>
<event>
 8    1  0.1010879E+005  0.1043930E+01  0.7957747E-01            NaN
         13   -1    0    0    0    0  0.00000000000E+00  0.00000000000E+00  0.74505805969E-08  0.10566000000E+00  0.10566000000E+00 0. -1.
     999900   -1    0    0    0    0 -0.00000000000E+00 -0.00000000000E+00 -0.74505805969E-08  0.93827000000E+00  0.93827000000E+00 0.  1.
     999902    2    1    2    0    0 -0.78141508561E-03  0.14185214135E-01 -0.18490235461E-01  0.10206122017E+01  0.10203457975E+01 0.  0.
     999903    2    3    3    0    0  0.20771859693E-01 -0.12579805727E+00 -0.16789113474E-02  0.12912889814E+00  0.20367430440E-01 0.  0.
         14    1    1    2    0    0  0.78141508561E-03 -0.14185214135E-01  0.18490235461E-01  0.23317798288E-01  0.00000000000E+00 0. -1.
     999901    1    3    3    0    0 -0.21553274779E-01  0.13998327141E+00 -0.16811324113E-01  0.89148330357E+00  0.88000000000E+00 0. -1.
        -11    1    4    4    0    0  0.11735419365E-01 -0.73670615027E-01  0.90390802484E-02  0.75146827470E-01  0.51100000000E-03 0. -1.
         11    1    4    4    0    0  0.90364403285E-02 -0.52127442247E-01 -0.10717991596E-01  0.53982070671E-01  0.51100000000E-03 0.  1.
</event>
<event>
 8    1  0.1010879E+005  0.1043930E+01  0.7957747E-01            NaN
         13   -1    0    0    0    0  0.00000000000E+00  0.00000000000E+00  0.74505805969E-08  0.10566000000E+00  0.10566000000E+00 0.  1.
     999900   -1    0    0    0    0 -0.00000000000E+00 -0.00000000000E+00 -0.74505805969E-08  0.93827000000E+00  0.93827000000E+00 0.  1.
     999902    2    1    2    0    0  0.81131067240E-02  0.17915910468E-01  0.12828999429E-01  0.10204483992E+01  0.10201781952E+01 0.  0.
     999903    2    3    3    0    0  0.84863100722E-01 -0.40943007049E-02 -0.96951792245E-01  0.13004015960E+00  0.17096313239E-01 0.  0.
         14    1    1    2    0    0 -0.81131067240E-02 -0.17915910468E-01 -0.12828999429E-01  0.23481600775E-01  0.00000000000E+00 0. -1.
     999901    1    3    3    0    0 -0.76749993998E-01  0.22010211173E-01  0.10978079167E+00  0.89040823963E+00  0.88000000000E+00 0. -1.
        -11    1    4    4    0    0  0.69295860577E-01  0.29477313700E-02 -0.74024544182E-01  0.10144210011E+00  0.51100000000E-03 0. -1.
         11    1    4    4    0    0  0.15567240145E-01 -0.70420320749E-02 -0.22927248063E-01  0.28598059484E-01  0.51100000000E-03 0.  1.
</event>
<event>
 8    1  0.1010879E+005  0.1043930E+01  0.7957747E-01            NaN
         13   -1    0    0    0    0  0.00000000000E+00  0.00000000000E+00  0.74505805969E-08  0.10566000000E+00  0.10566000000E+00 0.  1.
     999900   -1    0    0    0    0 -0.00000000000E+00 -0.00000000000E+00 -0.74505805969E-08  0.93827000000E+00  0.93827000000E+00 0. -1.
     999902    2    1    2    0    0 -0.16579804867E-01 -0.15537662314E-01 -0.58219762984E-02  0.10204735662E+01  0.10202039477E+01 0.  0.
     999903    2    3    3    0    0  0.48001599247E-02 -0.13093095816E+00 -0.46215186943E-02  0.13268183569E+00  0.20424342027E-01 0.  0.
         14    1    1    2    0    0  0.16579804867E-01  0.15537662314E-01  0.58219762984E-02  0.23456433822E-01  0.00000000000E+00 0. -1.
     999901    1    3    3    0    0 -0.21379964792E-01  0.11539329585E+00 -0.12004576041E-02  0.88779173049E+00  0.88000000000E+00 0. -1.
        -11    1    4    4    0    0 -0.43903364568E-02 -0.53910567253E-01 -0.96709921796E-02  0.54949190408E-01  0.51100000000E-03 0. -1.
         11    1    4    4    0    0  0.91904963816E-02 -0.77020390908E-01  0.50494734854E-02  0.77732645284E-01  0.51100000000E-03 0.  1.
</event>
<event>
 8    1  0.1010879E+005  0.1043930E+01  0.7957747E-01            NaN
         13   -1    0    0    0    0  0.00000000000E+00  0.00000000000E+00  0.74505805969E-08  0.10566000000E+00  0.10566000000E+00 0. -1.
     999900   -1    0    0    0    0 -0.00000000000E+00 -0.00000000000E+00 -0.74505805969E-08  0.93827000000E+00  0.93827000000E+00 0. -1.
     999902    2    1    2    0    0 -0.14027752263E-01  0.17731604416E-01 -0.47715186635E-02  0.10208225333E+01  0.10205609680E+01 0.  0.
     999903    2    3    3    0    0  0.11229964149E-01  0.12985111705E+00  0.20256796839E-01  0.13299645011E+00  0.17037993695E-01 0.  0.
         14    1    1    2    0    0  0.14027752263E-01 -0.17731604416E-01  0.47715186635E-02  0.23107466739E-01  0.00000000000E+00 0. -1.
     999901    1    3    3    0    0 -0.25257716412E-01 -0.11211951263E+00 -0.25028315503E-01  0.88782608315E+00  0.88000000000E+00 0.  1.
        -11    1    4    4    0    0  0.17791865278E-02  0.56351241307E-01  0.83866576575E-03  0.56387874431E-01  0.51100000000E-03 0. -1.
         11    1    4    4    0    0  0.94507776213E-02  0.73499875742E-01  0.19418131074E-01  0.76608575676E-01  0.51100000000E-03 0.  1.
</event>
<event>
 8    1  0.1010879E+005  0.1043930E+01  0.7957747E-01            NaN
         13   -1    0    0    0    0  0.00000000000E+00  0.00000000000E+00  0.74505805969E-08  0.10566000000E+00  0.10566000000E+00 0.  1.
     999900   -1    0    0    0    0 -0.00000000000E+00 -0.00000000000E+00 -0.74505805969E-08  0.93827000000E+00  0.93827000000E+00 0.  1.
     999902    2    1    2    0    0  0.20818863356E-01 -0.18143286160E-02  0.11171800199E-01  0.10202334606E+01  0.10199582286E+01 0.  0.
     999903    2    3    3    0    0  0.11058141117E+00  0.55632071692E-01 -0.42206654502E-01  0.13219817790E+00  0.19281614548E-01 0.  0.
         14    1    1    2    0    0 -0.20818863356E-01  0.18143286160E-02 -0.11171800199E-01  0.23696539398E-01  0.00000000000E+00 0. -1.
     999901    1    3    3    0    0 -0.89762547810E-01 -0.57446400308E-01  0.53378454700E-01  0.88803528270E+00  0.88000000000E+00 0.  1.
        -11    1    4    4    0    0  0.40963243928E-01  0.14969174307E-01 -0.23035586277E-01  0.49325073631E-01  0.51100000000E-03 0. -1.
         11    1    4    4    0    0  0.69618167238E-01  0.40662897385E-01 -0.19171068224E-01  0.82873104269E-01  0.51100000000E-03 0.  1.
</event>
<event>
 8    1  0.1010879E+005  0.1043930E+01  0.7957747E-01            NaN
         13   -1    0    0    0    0  0.00000000000E+00  0.00000000000E+00  0.74505805969E-08  0.10566000000E+00  0.10566000000E+00 0.  1.
     999900   -1    0    0    0    0 -0.00000000000E+00 -0.00000000000E+00 -0.74505805969E-08  0.93827000000E+00  0.93827000000E+00 0. -1.
     999902    2    1    2    0    0 -0.21504414485E-01 -0.10324229644E-02  0.90851966955E-02  0.10205623613E+01  0.10202948038E+01 0.  0.
     999903    2    3    3    0    0  0.11360870638E+00  0.51572097330E-01 -0.20984002792E-01  0.12819083119E+00  0.20638348750E-01 0.  0.
         14    1    1    2    0    0  0.21504414485E-01  0.10324229644E-02 -0.90851966955E-02  0.23367638702E-01  0.00000000000E+00 0. -1.
     999901    1    3    3    0    0 -0.13511312087E+00 -0.52604520294E-01  0.30069199487E-01  0.89237153011E+00  0.88000000000E+00 0. -1.
        -11    1    4    4    0    0  0.85722345269E-01  0.33293852377E-01 -0.22961528292E-01  0.94785515703E-01  0.51100000000E-03 0. -1.
         11    1    4    4    0    0  0.27886361116E-01  0.18278244953E-01  0.19775255002E-02  0.33405315489E-01  0.51100000000E-03 0.  1.
</event>
<event>
 8    1  0.1010879E+005  0.1043930E+01  0.7957747E-01            NaN
         13   -1    0    0    0    0  0.00000000000E+00  0.00000000000E+00  0.74505805969E-08  0.10566000000E+00  0.10566000000E+00 0. -1.
     999900   -1    0    0    0    0 -0.00000000000E+00 -0.00000000000E+00 -0.74505805969E-08  0.93827000000E+00  0.93827000000E+00 0. -1.
     999902    2    1    2    0    0 -0.86452936785E-02  0.13105707092E-02 -0.17188428737E-01  0.10246452708E+01  0.10244637769E+01 0.  0.
     999903    2    3    3    0    0  0.11645252949E+00  0.13191108008E-01 -0.62984466275E-01  0.13453972110E+00  0.19967388552E-01 0.  0.
         14    1    1    2    0    0  0.86452936785E-02 -0.13105707092E-02  0.17188428737E-01  0.19284729213E-01  0.00000000000E+00 0. -1.
     999901    1    3    3    0    0 -0.12509782317E+00 -0.11880537298E-01  0.45796037538E-01  0.89010554969E+00  0.88000000000E+00 0. -1.
        -11    1    4    4    0    0  0.23512298021E-01  0.10575720720E-01 -0.11205446732E-01  0.28115781768E-01  0.51100000000E-03 0.  1.
         11    1    4    4    0    0  0.92940231474E-01  0.26153872871E-02 -0.51779019543E-01  0.10642393933E+00  0.51100000000E-03 0. -1.
</event>
<event>
 8    1  0.1010879E+005  0.1043930E+01  0.7957747E-01            NaN
         13   -1    0    0    0    0  0.00000000000E+00  0.00000000000E+00  0.74505805969E-08  0.10566000000E+00  0.10566000000E+00 0.  1.
     999900   -1    0    0    0    0 -0.00000000000E+00 -0.00000000000E+00 -0.74505805969E-08  0.93827000000E+00  0.93827000000E+00 0. -1.
     999902    2    1    2    0    0 -0.25604780535E-01 -0.42072912456E-02 -0.18930609846E-01  0.10118103164E+01  0.10113003719E+01 0.  0.
     999903    2    3    3    0    0  0.11415375460E+00 -0.21979598423E-01 -0.25070460303E-01  0.12058307219E+00  0.19939079267E-01 0.  0.
         14    1    1    2    0    0  0.25604780535E-01  0.42072912456E-02  0.18930609846E-01  0.32119683607E-01  0.00000000000E+00 0. -1.
     999901    1    3    3    0    0 -0.13975853514E+00  0.17772307178E-01  0.61398504571E-02  0.89122724420E+00  0.88000000000E+00 0. -1.
        -11    1    4    4    0    0  0.53213632057E-01 -0.13996578827E-02 -0.16239324133E-01  0.55656324422E-01  0.51100000000E-03 0. -1.
         11    1    4    4    0    0  0.60940122547E-01 -0.20579940540E-01 -0.88311361697E-02  0.64926747768E-01  0.51100000000E-03 0.  1.
</event>
<event>
 8    1  0.1010879E+005  0.1043930E+01  0.7957747E-01            NaN
         13   -1    0    0    0    0  0.00000000000E+00  0.00000000000E+00  0.74505805969E-08  0.10566000000E+00  0.10566000000E+00 0.  1.
     999900   -1    0    0    0    0 -0.00000000000E+00 -0.00000000000E+00 -0.74505805969E-08  0.93827000000E+00  0.93827000000E+00 0. -1.
     999902    2    1    2    0    0  0.14946543025E-01  0.17313845818E-01  0.70539305170E-02  0.10199941202E+01  0.10197132337E+01 0.  0.
     999903    2    3    3    0    0  0.78494063410E-01  0.10443708945E+00  0.18010496712E-01  0.13334379834E+00  0.19691798320E-01 0.  0.
         14    1    1    2    0    0 -0.14946543025E-01 -0.17313845818E-01 -0.70539305170E-02  0.23935879786E-01  0.00000000000E+00 0. -1.
     999901    1    3    3    0    0 -0.63547520386E-01 -0.87123243635E-01 -0.10956566195E-01  0.88665032187E+00  0.88000000000E+00 0.  1.
        -11    1    4    4    0    0  0.17644555522E-01  0.14808632849E-01 -0.21829516892E-02  0.23144164394E-01  0.51100000000E-03 0. -1.
         11    1    4    4    0    0  0.60849507888E-01  0.89628456604E-01  0.20193448402E-01  0.11019963395E+00  0.51100000000E-03 0.  1.
</event>
<event>
 8    1  0.1010879E+005  0.1043930E+01  0.7957747E-01            NaN
         13   -1    0    0    0    0  0.00000000000E+00  0.00000000000E+00  0.74505805969E-08  0.10566000000E+00  0.10566000000E+00 0. -1.
     999900   -1    0    0    0    0 -0.00000000000E+00 -0.00000000000E+00 -0.74505805969E-08  0.93827000000E+00  0.93827000000E+00 0. -1.
     999902    2    1    2    0    0 -0.11605078660E-01  0.21427967965E-01  0.84838532077E-03  0.10195464929E+01  0.10192548728E+01 0.  0.
     999903    2    3    3    0    0  0.50964444695E-01  0.45277818342E-01  0.10932351375E+00  0.13036112745E+00  0.19873032829E-01 0.  0.
         14    1    1    2    0    0  0.11605078660E-01 -0.21427967965E-01 -0.84838532077E-03  0.24383507120E-01  0.00000000000E+00 0. -1.
     999901    1    3    3    0    0 -0.62569523356E-01 -0.23849850377E-01 -0.10847512843E+00  0.88918536543E+00  0.88000000000E+00 0. -1.
        -11    1    4    4    0    0  0.42725176841E-01  0.27244842959E-01  0.85203791965E-01  0.99134602890E-01  0.51100000000E-03 0. -1.
         11    1    4    4    0    0  0.82392678541E-02  0.18032975383E-01  0.24119721783E-01  0.31226524556E-01  0.51100000000E-03 0.  1.
</event>
<event>
 8    1  0.1010879E+005  0.1043930E+01  0.7957747E-01            NaN
         13   -1    0    0    0    0  0.00000000000E+00  0.00000000000E+00  0.74505805969E-08  0.10566000000E+00  0.10566000000E+00 0. -1.
     999900   -1    0    0    0    0 -0.00000000000E+00 -0.00000000000E+00 -0.74505805969E-08  0.93827000000E+00  0.93827000000E+00 0.  1.
     999902    2    1    2    0    0  0.76332112081E-02 -0.17920632419E-01 -0.13410012079E-01  0.10202816723E+01  0.10200075722E+01 0.  0.
     999903    2    3    3    0    0  0.77188741355E-01  0.96910210787E-01  0.31035279017E-01  0.12899076679E+00  0.18048230558E-01 0.  0.
         14    1    1    2    0    0 -0.76332112081E-02  0.17920632419E-01  0.13410012079E-01  0.23648327712E-01  0.00000000000E+00 0.  1.
     999901    1    3    3    0    0 -0.69555530147E-01 -0.11483084321E+00 -0.44445291096E-01  0.89129090550E+00  0.88000000000E+00 0.  1.
        -11    1    4    4    0    0  0.17268469157E-01  0.21794129185E-01 -0.63161046649E-03  0.27818054330E-01  0.51100000000E-03 0. -1.
         11    1    4    4    0    0  0.59920272198E-01  0.75116081602E-01  0.31666889484E-01  0.10117271246E+00  0.51100000000E-03 0.  1.
</event>
<event>
 8    1  0.1010879E+005  0.1043930E+01  0.7957747E-01            NaN
         13   -1    0    0    0    0  0.00000000000E+00  0.00000000000E+00  0.74505805969E-08  0.10566000000E+00  0.10566000000E+00 0.  1.
     999900   -1    0    0    0    0 -0.00000000000E+00 -0.00000000000E+00 -0.74505805969E-08  0.93827000000E+00  0.93827000000E+00 0. -1.
     999902    2    1    2    0    0 -0.18592992115E-01  0.11978722261E-01  0.10387325831E-01  0.10194946633E+01  0.10192017871E+01 0.  0.
     999903    2    3    3    0    0 -0.35390669325E-01  0.64304127486E-01 -0.10535453853E+00  0.13021614158E+00  0.21659742637E-01 0.  0.
         14    1    1    2    0    0  0.18592992115E-01 -0.11978722261E-01 -0.10387325831E-01  0.24435336722E-01  0.00000000000E+00 0. -1.
     999901    1    3    3    0    0  0.16797677210E-01 -0.52325405225E-01  0.11574186436E+00  0.88927852170E+00  0.88000000000E+00 0.  1.
        -11    1    4    4    0    0 -0.14431464304E-01  0.24233047142E-01 -0.59309320088E-01  0.65676208067E-01  0.51100000000E-03 0. -1.
         11    1    4    4    0    0 -0.20959205021E-01  0.40071080344E-01 -0.46045218444E-01  0.64539933511E-01  0.51100000000E-03 0.  1.
</event>
<event>
 8    1  0.1010879E+005  0.1043930E+01  0.7957747E-01            NaN
         13   -1    0    0    0    0  0.00000000000E+00  0.00000000000E+00  0.74505805969E-08  0.10566000000E+00  0.10566000000E+00 0.  1.
     999900   -1    0    0    0    0 -0.00000000000E+00 -0.00000000000E+00 -0.74505805969E-08  0.93827000000E+00  0.93827000000E+00 0.  1.
     999902    2    1    2    0    0 -0.91809608335E-02 -0.20413349617E-01  0.49383848306E-02  0.10210087756E+01  0.10207514571E+01 0.  0.
     999903    2    3    3    0    0 -0.64637633660E-01 -0.41418403174E-01 -0.10562174441E+00  0.13211047036E+00  0.20092677247E-01 0.  0.
         14    1    1    2    0    0  0.91809608335E-02  0.20413349617E-01 -0.49383848306E-02  0.22921224425E-01  0.00000000000E+00 0.  1.
     999901    1    3    3    0    0  0.55456672827E-01  0.21005053557E-01  0.11056012924E+00  0.88889830522E+00  0.88000000000E+00 0. -1.
        -11    1    4    4    0    0 -0.55615237552E-01 -0.29397083554E-01 -0.74225819003E-01  0.97298388975E-01  0.51100000000E-03 0.  1.
         11    1    4    4    0    0 -0.90223961082E-02 -0.12021319619E-01 -0.31395925411E-01  0.34812081385E-01  0.51100000000E-03 0. -1.
</event>
<event>
 8    1  0.1010879E+005  0.1043930E+01  0.7957747E-01            NaN
         13   -1    0    0    0    0  0.00000000000E+00  0.00000000000E+00  0.74505805969E-08  0.10566000000E+00  0.10566000000E+00 0. -1.
     999900   -1    0    0    0    0 -0.00000000000E+00 -0.00000000000E+00 -0.74505805969E-08  0.93827000000E+00  0.93827000000E+00 0. -1.
     999902    2    1    2    0    0  0.18676308382E-01 -0.23557802311E-02 -0.12957361131E-01  0.10210772671E+01  0.10208215015E+01 0.  0.
     999903    2    3    3    0    0  0.12765451792E+00  0.58476951706E-02  0.31590949165E-01  0.13319884120E+00  0.20348752871E-01 0.  0.
         14    1    1    2    0    0 -0.18676308382E-01  0.23557802311E-02  0.12957361131E-01  0.22852732938E-01  0.00000000000E+00 0. -1.
     999901    1    3    3    0    0 -0.10897820954E+00 -0.82034754017E-02 -0.44548310296E-01  0.88787842586E+00  0.88000000000E+00 0. -1.
        -11    1    4    4    0    0  0.10696594570E-01 -0.41638591193E-02 -0.51283720857E-03  0.11501259982E-01  0.51100000000E-03 0. -1.
         11    1    4    4    0    0  0.11695792335E+00  0.10011554290E-01  0.32103786373E-01  0.12169758122E+00  0.51100000000E-03 0.  1.
</event>
<event>
 7    1  0.1010879E+005  0.1043930E+01  0.7957747E-01            NaN
         13   -1    0    0    0    0  0.00000000000E+00  0.00000000000E+00  0.74505805969E-08  0.10566000000E+00  0.10566000000E+00 0. -1.
     999900   -1    0    0    0    0 -0.00000000000E+00 -0.00000000000E+00 -0.74505805969E-08  0.93827000000E+00  0.93827000000E+00 0. -1.
     999903    2    1    2    0    0  0.17021433648E-01  0.56322204414E-01  0.43986122413E-01  0.76134465698E-01  0.19993948801E-01 0.  0.
         14    1    1    2    0    0  0.41195302452E-01 -0.54719655689E-02 -0.72923368866E-01  0.83933384765E-01  0.00000000000E+00 0.  1.
     999901    1    1    2    0    0 -0.58216736100E-01 -0.50850238845E-01  0.28937246453E-01  0.88386214954E+00  0.88000000000E+00 0.  1.
        -11    1    3    3    0    0 -0.38786600510E-02  0.76194842030E-02  0.10030794829E-01  0.13190091327E-01  0.51100000000E-03 0.  1.
         11    1    3    3    0    0  0.20900093699E-01  0.48702720211E-01  0.33955327583E-01  0.62944374370E-01  0.51100000000E-03 0. -1.
</event>
<event>
 8    1  0.1010879E+005  0.1043930E+01  0.7957747E-01            NaN
         13   -1    0    0    0    0  0.00000000000E+00  0.00000000000E+00  0.74505805969E-08  0.10566000000E+00  0.10566000000E+00 0. -1.
     999900   -1    0    0    0    0 -0.00000000000E+00 -0.00000000000E+00 -0.74505805969E-08  0.93827000000E+00  0.93827000000E+00 0. -1.
     999902    2    1    2    0    0  0.30767297153E-03  0.60041643057E-02  0.23058852627E-01  0.10201002846E+01  0.10198219135E+01 0.  0.
     999903    2    3    3    0    0 -0.58175396303E-02  0.12532436885E+00 -0.30101220017E-01  0.13043696470E+00  0.19174908591E-01 0.  0.
         14    1    1    2    0    0 -0.30767297153E-03 -0.60041643057E-02 -0.23058852627E-01  0.23829715402E-01  0.00000000000E+00 0.  1.
     999901    1    3    3    0    0  0.61252126019E-02 -0.11932020454E+00  0.53160072644E-01  0.88966331989E+00  0.88000000000E+00 0.  1.
        -11    1    4    4    0    0 -0.57453606710E-02  0.23527397648E-01  0.19897582333E-03  0.24224952460E-01  0.51100000000E-03 0. -1.
         11    1    4    4    0    0 -0.72178959324E-04  0.10179697120E+00 -0.30300195841E-01  0.10621201224E+00  0.51100000000E-03 0.  1.
</event>
<event>
 8    1  0.1010879E+005  0.1043930E+01  0.7957747E-01            NaN
         13   -1    0    0    0    0  0.00000000000E+00  0.00000000000E+00  0.74505805969E-08  0.10566000000E+00  0.10566000000E+00 0.  1.
     999900   -1    0    0    0    0 -0.00000000000E+00 -0.00000000000E+00 -0.74505805969E-08  0.93827000000E+00  0.93827000000E+00 0. -1.
     999902    2    1    2    0    0  0.17114205753E-01 -0.10505911780E-01 -0.12660621637E-01  0.10201905484E+01  0.10199143070E+01 0.  0.
     999903    2    3    3    0    0  0.11522263353E+00  0.23600023528E-01 -0.58852495392E-01  0.13287878381E+00  0.18972047443E-01 0.  0.
         14    1    1    2    0    0 -0.17114205753E-01  0.10505911780E-01  0.12660621637E-01  0.23739451575E-01  0.00000000000E+00 0.  1.
     999901    1    3    3    0    0 -0.98108427779E-01 -0.34105935308E-01  0.46191873755E-01  0.88731176462E+00  0.88000000000E+00 0.  1.
        -11    1    4    4    0    0  0.38859398937E-01 -0.19725144155E-03 -0.23602068802E-01  0.45468786729E-01  0.51100000000E-03 0. -1.
         11    1    4    4    0    0  0.76363234595E-01  0.23797274969E-01 -0.35250426590E-01  0.87409997080E-01  0.51100000000E-03 0.  1.
</event>
<event>
 8    1  0.1010879E+005  0.1043930E+01  0.7957747E-01            NaN
         13   -1    0    0    0    0  0.00000000000E+00  0.00000000000E+00  0.74505805969E-08  0.10566000000E+00  0.10566000000E+00 0. -1.
     999900   -1    0    0    0    0 -0.00000000000E+00 -0.00000000000E+00 -0.74505805969E-08  0.93827000000E+00  0.93827000000E+00 0. -1.
     999902    2    1    2    0    0 -0.16671676965E-01 -0.10801292960E-01  0.10959477455E-01  0.10212424949E+01  0.10209904556E+01 0.  0.
     999903    2    3    3    0    0  0.15082769059E-01  0.81093293483E-01 -0.97491490137E-01  0.12927020146E+00  0.20064450296E-01 0.  0.
         14    1    1    2    0    0  0.16671676965E-01  0.10801292960E-01 -0.10959477455E-01  0.22687505119E-01  0.00000000000E+00 0.  1.
     999901    1    3    3    0    0 -0.31754446024E-01 -0.91894586443E-01  0.10845096759E+00  0.89197229342E+00  0.88000000000E+00 0.  1.
        -11    1    4    4    0    0  0.19298576118E-02  0.59230895736E-01 -0.65140781891E-01  0.88065918188E-01  0.51100000000E-03 0.  1.
         11    1    4    4    0    0  0.13152911447E-01  0.21862397748E-01 -0.32350708246E-01  0.41204283271E-01  0.51100000000E-03 0. -1.
</event>
<event>
 8    1  0.1010879E+005  0.1043930E+01  0.7957747E-01            NaN
         13   -1    0    0    0    0  0.00000000000E+00  0.00000000000E+00  0.74505805969E-08  0.10566000000E+00  0.10566000000E+00 0. -1.
     999900   -1    0    0    0    0 -0.00000000000E+00 -0.00000000000E+00 -0.74505805969E-08  0.93827000000E+00  0.93827000000E+00 0. -1.
     999902    2    1    2    0    0 -0.24837848352E-01 -0.84077923882E-02  0.10471074086E-01  0.10156943297E+01  0.10153017868E+01 0.  0.
     999903    2    3    3    0    0  0.60409536773E-01 -0.46221160651E-01 -0.96049222706E-01  0.12437870598E+00  0.21421986238E-01 0.  0.
         14    1    1    2    0    0  0.24837848352E-01  0.84077923882E-02 -0.10471074086E-01  0.28235670279E-01  0.00000000000E+00 0.  1.
     999901    1    3    3    0    0 -0.85247385125E-01  0.37813368263E-01  0.10652029679E+00  0.89131562374E+00  0.88000000000E+00 0.  1.
        -11    1    4    4    0    0  0.55626237899E-01 -0.43706523677E-01 -0.76971667109E-01  0.10454394872E+00  0.51100000000E-03 0.  1.
         11    1    4    4    0    0  0.47832988744E-02 -0.25146369738E-02 -0.19077555598E-01  0.19834757266E-01  0.51100000000E-03 0. -1.
</event>
<event>
 8    1  0.1010879E+005  0.1043930E+01  0.7957747E-01            NaN
         13   -1    0    0    0    0  0.00000000000E+00  0.00000000000E+00  0.74505805969E-08  0.10566000000E+00  0.10566000000E+00 0. -1.
     999900   -1    0    0    0    0 -0.00000000000E+00 -0.00000000000E+00 -0.74505805969E-08  0.93827000000E+00  0.93827000000E+00 0.  1.
     999902    2    1    2    0    0 -0.58616731061E-02 -0.13268360841E-01 -0.20167786839E-01  0.10190875316E+01  0.10187846921E+01 0.  0.
     999903    2    3    3    0    0 -0.10048636791E+00  0.74999950944E-01  0.20781909471E-01  0.12868200299E+00  0.20116345457E-01 0.  0.
         14    1    1    2    0    0  0.58616731061E-02  0.13268360841E-01  0.20167786839E-01  0.24842468416E-01  0.00000000000E+00 0.  1.
     999901    1    3    3    0    0  0.94624694800E-01 -0.88268311784E-01 -0.40949696310E-01  0.89040552860E+00  0.88000000000E+00 0.  1.
        -11    1    4    4    0    0 -0.73265040801E-01  0.51458982984E-01  0.58751746742E-02  0.89724979419E-01  0.51100000000E-03 0. -1.
         11    1    4    4    0    0 -0.27221327106E-01  0.23540967959E-01  0.14906734796E-01  0.38957023566E-01  0.51100000000E-03 0.  1.
</event>
<event>
 8    1  0.1010879E+005  0.1043930E+01  0.7957747E-01            NaN
         13   -1    0    0    0    0  0.00000000000E+00  0.00000000000E+00  0.74505805969E-08  0.10566000000E+00  0.10566000000E+00 0. -1.
     999900   -1    0    0    0    0 -0.00000000000E+00 -0.00000000000E+00 -0.74505805969E-08  0.93827000000E+00  0.93827000000E+00 0. -1.
     999902    2    1    2    0    0 -0.94425392496E-02  0.10440221243E-01 -0.25386504008E-01  0.10149018352E+01  0.10144866193E+01 0.  0.
     999903    2    3    3    0    0  0.25999338869E-01 -0.44149538466E-01  0.10963080948E+00  0.12222841028E+00  0.17196584613E-01 0.  0.
         14    1    1    2    0    0  0.94425392496E-02 -0.10440221243E-01  0.25386504008E-01  0.29028164820E-01  0.00000000000E+00 0. -1.
     999901    1    3    3    0    0 -0.35441878119E-01  0.54589759709E-01 -0.13501731349E+00  0.89267342490E+00  0.88000000000E+00 0. -1.
        -11    1    4    4    0    0  0.23540890562E-01 -0.41124208273E-01  0.85276448124E-01  0.97558740050E-01  0.51100000000E-03 0.  1.
         11    1    4    4    0    0  0.24584483071E-02 -0.30253301926E-02  0.24354361358E-01  0.24669670225E-01  0.51100000000E-03 0. -1.
</event>
<event>
 8    1  0.1010879E+005  0.1043930E+01  0.7957747E-01            NaN
         13   -1    0    0    0    0  0.00000000000E+00  0.00000000000E+00  0.74505805969E-08  0.10566000000E+00  0.10566000000E+00 0.  1.
     999900   -1    0    0    0    0 -0.00000000000E+00 -0.00000000000E+00 -0.74505805969E-08  0.93827000000E+00  0.93827000000E+00 0.  1.
     999902    2    1    2    0    0  0.45909772841E-02 -0.19466642402E-01  0.13654946529E-01  0.10197125517E+01  0.10194249375E+01 0.  0.
     999903    2    3    3    0    0  0.10829192413E+00  0.51075707199E-01  0.47746442150E-01  0.13016640923E+00  0.18102559378E-01 0.  0.
         14    1    1    2    0    0 -0.45909772841E-02  0.19466642402E-01 -0.13654946529E-01  0.24217448328E-01  0.00000000000E+00 0. -1.
     999901    1    3    3    0    0 -0.10370094684E+00 -0.70542349601E-01 -0.34091495621E-01  0.88954614244E+00  0.88000000000E+00 0.  1.
        -11    1    4    4    0    0  0.63637397577E-02 -0.11318635100E-02  0.37073712797E-02  0.74688701632E-02  0.51100000000E-03 0.  1.
         11    1    4    4    0    0  0.10192818437E+00  0.52207570709E-01  0.44039070870E-01  0.12269753906E+00  0.51100000000E-03 0. -1.
</event>
<event>
 8    1  0.1010879E+005  0.1043930E+01  0.7957747E-01            NaN
         13   -1    0    0    0    0  0.00000000000E+00  0.00000000000E+00  0.74505805969E-08  0.10566000000E+00  0.10566000000E+00 0. -1.
     999900   -1    0    0    0    0 -0.00000000000E+00 -0.00000000000E+00 -0.74505805969E-08  0.93827000000E+00  0.93827000000E+00 0. -1.
     999902    2    1    2    0    0  0.13224370653E-01 -0.53523179732E-02  0.19364369563E-01  0.10198777632E+01  0.10195941064E+01 0.  0.
     999903    2    3    3    0    0 -0.87993203023E-01  0.78901092207E-01 -0.44615052027E-01  0.12778079496E+00  0.19215685329E-01 0.  0.
         14    1    1    2    0    0 -0.13224370653E-01  0.53523179732E-02 -0.19364369563E-01  0.24052236808E-01  0.00000000000E+00 0. -1.
     999901    1    3    3    0    0  0.10121757368E+00 -0.84253410181E-01  0.63979421590E-01  0.89209696824E+00  0.88000000000E+00 0.  1.
        -11    1    4    4    0    0 -0.64837882282E-01  0.67575877093E-01 -0.31163104194E-01  0.98700812194E-01  0.51100000000E-03 0.  1.
         11    1    4    4    0    0 -0.23155320741E-01  0.11325215115E-01 -0.13451947833E-01  0.29079982763E-01  0.51100000000E-03 0. -1.
</event>
<event>
 8    1  0.1010879E+005  0.1043930E+01  0.7957747E-01            NaN
         13   -1    0    0    0    0  0.00000000000E+00  0.00000000000E+00  0.74505805969E-08  0.10566000000E+00  0.10566000000E+00 0. -1.
     999900   -1    0    0    0    0 -0.00000000000E+00 -0.00000000000E+00 -0.74505805969E-08  0.93827000000E+00  0.93827000000E+00 0. -1.
     999902    2    1    2    0    0 -0.16088069638E-01  0.10314822700E-01  0.11474292634E-01  0.10216391736E+01  0.10213959663E+01 0.  0.
     999903    2    3    3    0    0  0.22926556407E-01  0.93434508798E-01  0.90727446169E-01  0.13331936313E+00  0.16939559402E-01 0.  0.
         14    1    1    2    0    0  0.16088069638E-01 -0.10314822700E-01 -0.11474292634E-01  0.22290826442E-01  0.00000000000E+00 0. -1.
     999901    1    3    3    0    0 -0.39014626045E-01 -0.83119686097E-01 -0.79253153535E-01  0.88831981043E+00  0.88000000000E+00 0. -1.
        -11    1    4    4    0    0  0.66982390878E-02  0.30423837751E-01  0.40620716020E-01  0.51193554295E-01  0.51100000000E-03 0.  1.
         11    1    4    4    0    0  0.16228317319E-01  0.63010671047E-01  0.50106730150E-01  0.82125808831E-01  0.51100000000E-03 0. -1.
</event>
<event>
 8    1  0.1010879E+005  0.1043930E+01  0.7957747E-01            NaN
         13   -1    0    0    0    0  0.00000000000E+00  0.00000000000E+00  0.74505805969E-08  0.10566000000E+00  0.10566000000E+00 0.  1.
     999900   -1    0    0    0    0 -0.00000000000E+00 -0.00000000000E+00 -0.74505805969E-08  0.93827000000E+00  0.93827000000E+00 0.  1.
     999902    2    1    2    0    0  0.12822189886E-01  0.16189406978E-01 -0.13433977215E-01  0.10192930928E+01  0.10189953051E+01 0.  0.
     999903    2    3    3    0    0 -0.27914641949E-01 -0.22406337696E-01  0.12053509990E+00  0.12738680032E+00  0.20430746004E-01 0.  0.
         14    1    1    2    0    0 -0.12822189886E-01 -0.16189406978E-01  0.13433977215E-01  0.24636907183E-01  0.00000000000E+00 0.  1.
     999901    1    3    3    0    0  0.40736831835E-01  0.38595744674E-01 -0.13396907712E+00  0.89190629250E+00  0.88000000000E+00 0.  1.
        -11    1    4    4    0    0 -0.99921362667E-02 -0.82187511162E-03  0.57758079324E-01  0.58624014824E-01  0.51100000000E-03 0.  1.
         11    1    4    4    0    0 -0.17922505683E-01 -0.21584462585E-01  0.62777020580E-01  0.68762785494E-01  0.51100000000E-03 0. -1.
</event>
<event>
 8    1  0.1010879E+005  0.1043930E+01  0.7957747E-01            NaN
         13   -1    0    0    0    0  0.00000000000E+00  0.00000000000E+00  0.74505805969E-08  0.10566000000E+00  0.10566000000E+00 0.  1.
     999900   -1    0    0    0    0 -0.00000000000E+00 -0.00000000000E+00 -0.74505805969E-08  0.93827000000E+00  0.93827000000E+00 0.  1.
     999902    2    1    2    0    0  0.15601968654E-01  0.12291321380E-01  0.11687052211E-01  0.10208847142E+01  0.10206245708E+01 0.  0.
     999903    2    3    3    0    0 -0.12686389711E+00 -0.70055956926E-02 -0.88876699220E-02  0.12898101252E+00  0.20336768504E-01 0.  0.
         14    1    1    2    0    0 -0.15601968654E-01 -0.12291321380E-01 -0.11687052211E-01  0.23045285777E-01  0.00000000000E+00 0. -1.
     999901    1    3    3    0    0  0.14246586577E+00  0.19296917073E-01  0.20574722133E-01  0.89190370170E+00  0.88000000000E+00 0.  1.
        -11    1    4    4    0    0 -0.10463511703E+00 -0.92100046258E-02 -0.29292192905E-03  0.10504131961E+00  0.51100000000E-03 0.  1.
         11    1    4    4    0    0 -0.22228780080E-01  0.22044089332E-02 -0.85947479930E-02  0.23939692911E-01  0.51100000000E-03 0. -1.
</event>
<event>
 8    1  0.1010879E+005  0.1043930E+01  0.7957747E-01            NaN
         13   -1    0    0    0    0  0.00000000000E+00  0.00000000000E+00  0.74505805969E-08  0.10566000000E+00  0.10566000000E+00 0.  1.
     999900   -1    0    0    0    0 -0.00000000000E+00 -0.00000000000E+00 -0.74505805969E-08  0.93827000000E+00  0.93827000000E+00 0.  1.
     999902    2    1    2    0    0  0.23104827230E-01 -0.61166204864E-02 -0.27354103945E-02  0.10198732222E+01  0.10195894570E+01 0.  0.
     999903    2    3    3    0    0  0.58164427799E-01  0.10588322009E+00  0.38111030634E-01  0.13114290787E+00  0.33936037945E-01 0.  0.
         14    1    1    2    0    0 -0.23104827230E-01  0.61166204864E-02  0.27354103945E-02  0.24056777788E-01  0.00000000000E+00 0.  1.
     999901    1    3    3    0    0 -0.35059600569E-01 -0.11199984058E+00 -0.40846441029E-01  0.88873031434E+00  0.88000000000E+00 0.  1.
        -11    1    4    4    0    0  0.38276067195E-01  0.48890647050E-01  0.33619525954E-01  0.70610808912E-01  0.51100000000E-03 0.  1.
         11    1    4    4    0    0  0.19888360605E-01  0.56992573040E-01  0.44915046803E-02  0.60532098960E-01  0.51100000000E-03 0. -1.
</event>
<event>
 8    1  0.1010879E+005  0.1043930E+01  0.7957747E-01            NaN
         13   -1    0    0    0    0  0.00000000000E+00  0.00000000000E+00  0.74505805969E-08  0.10566000000E+00  0.10566000000E+00 0. -1.
     999900   -1    0    0    0    0 -0.00000000000E+00 -0.00000000000E+00 -0.74505805969E-08  0.93827000000E+00  0.93827000000E+00 0. -1.
     999902    2    1    2    0    0  0.15960328802E-01 -0.81235248184E-02  0.15299434025E-01  0.10203758829E+01  0.10201039878E+01 0.  0.
     999903    2    3    3    0    0 -0.11442116517E+00 -0.56016623127E-01 -0.94268950470E-02  0.12913827475E+00  0.18914612044E-01 0.  0.
         14    1    1    2    0    0 -0.15960328802E-01  0.81235248184E-02 -0.15299434025E-01  0.23554117101E-01  0.00000000000E+00 0.  1.
     999901    1    3    3    0    0  0.13038149397E+00  0.47893098308E-01  0.24726329072E-01  0.89123760815E+00  0.88000000000E+00 0. -1.
        -11    1    4    4    0    0 -0.66849888076E-01 -0.39331821283E-01 -0.12789531351E-01  0.78611277400E-01  0.51100000000E-03 0. -1.
         11    1    4    4    0    0 -0.47571277095E-01 -0.16684801843E-01  0.33626363045E-02  0.50526997347E-01  0.51100000000E-03 0.  1.
</event>
<event>
 8    1  0.1010879E+005  0.1043930E+01  0.7957747E-01            NaN
         13   -1    0    0    0    0  0.00000000000E+00  0.00000000000E+00  0.74505805969E-08  0.10566000000E+00  0.10566000000E+00 0.  1.
     999900   -1    0    0    0    0 -0.00000000000E+00 -0.00000000000E+00 -0.74505805969E-08  0.93827000000E+00  0.93827000000E+00 0.  1.
     999902    2    1    2    0    0  0.55905972928E-03 -0.11193060263E-01 -0.19724842848E-01  0.10212437361E+01  0.10209917247E+01 0.  0.
     999903    2    3    3    0    0 -0.11278688500E+00  0.15980653330E-01  0.59396694929E-01  0.13003897192E+00  0.20147062840E-01 0.  0.
         14    1    1    2    0    0 -0.55905972928E-03  0.11193060263E-01  0.19724842848E-01  0.22686263933E-01  0.00000000000E+00 0.  1.
     999901    1    3    3    0    0  0.11334594473E+00 -0.27173713593E-01 -0.79121537777E-01  0.89120476415E+00  0.88000000000E+00 0.  1.
        -11    1    4    4    0    0 -0.58676749488E-01  0.17860862380E-02  0.21738831734E-01  0.62601828732E-01  0.51100000000E-03 0.  1.
         11    1    4    4    0    0 -0.54110135512E-01  0.14194567092E-01  0.37657863195E-01  0.67437143189E-01  0.51100000000E-03 0. -1.
</event>
<event>
 8    1  0.1010879E+005  0.1043930E+01  0.7957747E-01            NaN
         13   -1    0    0    0    0  0.00000000000E+00  0.00000000000E+00  0.74505805969E-08  0.10566000000E+00  0.10566000000E+00 0. -1.
     999900   -1    0    0    0    0 -0.00000000000E+00 -0.00000000000E+00 -0.74505805969E-08  0.93827000000E+00  0.93827000000E+00 0.  1.
     999902    2    1    2    0    0 -0.21842701466E-01 -0.98333672676E-02  0.27598960572E-02  0.10198174359E+01  0.10195323374E+01 0.  0.
     999903    2    3    3    0    0  0.62592350946E-01 -0.74403909438E-01  0.83552995965E-01  0.12974656349E+00  0.19983079516E-01 0.  0.
         14    1    1    2    0    0  0.21842701466E-01  0.98333672676E-02 -0.27598960572E-02  0.24112564057E-01  0.00000000000E+00 0.  1.
     999901    1    3    3    0    0 -0.84435052412E-01  0.64570542170E-01 -0.80793099908E-01  0.89007087245E+00  0.88000000000E+00 0.  1.
        -11    1    4    4    0    0  0.99846852500E-02 -0.21082248929E-01  0.28232126515E-01  0.36626073336E-01  0.51100000000E-03 0. -1.
         11    1    4    4    0    0  0.52607665696E-01 -0.53321660509E-01  0.55320869450E-01  0.93120490157E-01  0.51100000000E-03 0.  1.
</event>
<event>
 7    1  0.1010879E+005  0.1043930E+01  0.7957747E-01            NaN
         13   -1    0    0    0    0  0.00000000000E+00  0.00000000000E+00  0.74505805969E-08  0.10566000000E+00  0.10566000000E+00 0.  1.
     999900   -1    0    0    0    0 -0.00000000000E+00 -0.00000000000E+00 -0.74505805969E-08  0.93827000000E+00  0.93827000000E+00 0. -1.
     999903    2    1    2    0    0 -0.15914071726E-01  0.56229177518E-01  0.88479432151E-01  0.10713620183E+00  0.15315931110E-01 0.  0.
         14    1    1    2    0    0 -0.45235121678E-01  0.19682350561E-03  0.12990610437E-01  0.47063902646E-01  0.00000000000E+00 0. -1.
     999901    1    1    2    0    0  0.61149193404E-01 -0.56426001024E-01 -0.10147004259E+00  0.88972989552E+00  0.88000000000E+00 0. -1.
        -11    1    3    3    0    0 -0.12077179055E-01  0.38915920907E-01  0.72944369558E-01  0.83555067621E-01  0.51100000000E-03 0. -1.
         11    1    3    3    0    0 -0.38368926713E-02  0.17313256612E-01  0.15535062593E-01  0.23581134210E-01  0.51100000000E-03 0.  1.
</event>
<event>
 8    1  0.1010879E+005  0.1043930E+01  0.7957747E-01            NaN
         13   -1    0    0    0    0  0.00000000000E+00  0.00000000000E+00  0.74505805969E-08  0.10566000000E+00  0.10566000000E+00 0. -1.
     999900   -1    0    0    0    0 -0.00000000000E+00 -0.00000000000E+00 -0.74505805969E-08  0.93827000000E+00  0.93827000000E+00 0. -1.
     999902    2    1    2    0    0 -0.17609833463E-01  0.15000239570E-01  0.19572444027E-02  0.10207148276E+01  0.10204507902E+01 0.  0.
     999903    2    3    3    0    0  0.99659682376E-01 -0.70829897125E-01  0.33388856933E-01  0.12824247627E+00  0.19554803346E-01 0.  0.
         14    1    1    2    0    0  0.17609833463E-01 -0.15000239570E-01 -0.19572444027E-02  0.23215172353E-01  0.00000000000E+00 0.  1.
     999901    1    3    3    0    0 -0.11726951584E+00  0.85830136695E-01 -0.31431612530E-01  0.89247235138E+00  0.88000000000E+00 0. -1.
        -11    1    4    4    0    0  0.55959119746E-01 -0.50923987460E-01  0.23313282281E-01  0.79173517247E-01  0.51100000000E-03 0.  1.
         11    1    4    4    0    0  0.43700562630E-01 -0.19905909665E-01  0.10075574652E-01  0.49068959020E-01  0.51100000000E-03 0. -1.
</event>
<event>
 8    1  0.1010879E+005  0.1043930E+01  0.7957747E-01            NaN
         13   -1    0    0    0    0  0.00000000000E+00  0.00000000000E+00  0.74505805969E-08  0.10566000000E+00  0.10566000000E+00 0. -1.
     999900   -1    0    0    0    0 -0.00000000000E+00 -0.00000000000E+00 -0.74505805969E-08  0.93827000000E+00  0.93827000000E+00 0.  1.
     999902    2    1    2    0    0  0.52484184968E-02  0.21964290033E-01 -0.91855370018E-02  0.10195507050E+01  0.10192591869E+01 0.  0.
     999903    2    3    3    0    0 -0.17355850222E-01 -0.42277131559E-01 -0.12010536999E+00  0.12997714283E+00  0.19498111879E-01 0.  0.
         14    1    1    2    0    0 -0.52484184968E-02 -0.21964290033E-01  0.91855370018E-02  0.24379294973E-01  0.00000000000E+00 0.  1.
     999901    1    3    3    0    0  0.22604268719E-01  0.64241421592E-01  0.11091983299E+00  0.88957356220E+00  0.88000000000E+00 0. -1.
        -11    1    4    4    0    0 -0.88700844062E-02 -0.28830601504E-01 -0.99330671065E-01  0.10381100768E+00  0.51100000000E-03 0. -1.
         11    1    4    4    0    0 -0.84857658162E-02 -0.13446530056E-01 -0.20774698928E-01  0.26166135148E-01  0.51100000000E-03 0.  1.
</event>
<event>
 8    1  0.1010879E+005  0.1043930E+01  0.7957747E-01            NaN
         13   -1    0    0    0    0  0.00000000000E+00  0.00000000000E+00  0.74505805969E-08  0.10566000000E+00  0.10566000000E+00 0. -1.
     999900   -1    0    0    0    0 -0.00000000000E+00 -0.00000000000E+00 -0.74505805969E-08  0.93827000000E+00  0.93827000000E+00 0.  1.
     999902    2    1    2    0    0  0.19408695831E-01 -0.26271274838E-02  0.24031110094E-01  0.10129284916E+01  0.10124539671E+01 0.  0.
     999903    2    3    3    0    0  0.34263388878E-01 -0.76437949895E-01 -0.87318931053E-01  0.12272203738E+00  0.20478348014E-01 0.  0.
         14    1    1    2    0    0 -0.19408695831E-01  0.26271274838E-02 -0.24031110094E-01  0.31001508432E-01  0.00000000000E+00 0.  1.
     999901    1    3    3    0    0 -0.14854693047E-01  0.73810822411E-01  0.11135004115E+00  0.89020645419E+00  0.88000000000E+00 0. -1.
        -11    1    4    4    0    0  0.35409247695E-01 -0.61093359824E-01 -0.74925011125E-01  0.10295742737E+00  0.51100000000E-03 0.  1.
         11    1    4    4    0    0 -0.11458588166E-02 -0.15344590071E-01 -0.12393919929E-01  0.19764610016E-01  0.51100000000E-03 0. -1.
</event>
<event>
 8    1  0.1010879E+005  0.1043930E+01  0.7957747E-01            NaN
         13   -1    0    0    0    0  0.00000000000E+00  0.00000000000E+00  0.74505805969E-08  0.10566000000E+00  0.10566000000E+00 0. -1.
     999900   -1    0    0    0    0 -0.00000000000E+00 -0.00000000000E+00 -0.74505805969E-08  0.93827000000E+00  0.93827000000E+00 0. -1.
     999902    2    1    2    0    0  0.71257697120E-02  0.22399897353E-01  0.21443829440E-02  0.10203263907E+01  0.10200533384E+01 0.  0.
     999903    2    3    3    0    0 -0.32113712244E-01 -0.67222455385E-01 -0.10288311854E+00  0.12869716328E+00  0.20685133174E-01 0.  0.
         14    1    1    2    0    0 -0.71257697120E-02 -0.22399897353E-01 -0.21443829440E-02  0.23603609334E-01  0.00000000000E+00 0.  1.
     999901    1    3    3    0    0  0.39239481956E-01  0.89622352738E-01  0.10502750148E+00  0.89162922738E+00  0.88000000000E+00 0.  1.
        -11    1    4    4    0    0 -0.13845452575E-01 -0.35695571763E-01 -0.69131513554E-01  0.79027195874E-01  0.51100000000E-03 0.  1.
         11    1    4    4    0    0 -0.18268259669E-01 -0.31526883622E-01 -0.33751604987E-01  0.49669967409E-01  0.51100000000E-03 0. -1.
</event>
<event>
 8    1  0.1010879E+005  0.1043930E+01  0.7957747E-01            NaN
         13   -1    0    0    0    0  0.00000000000E+00  0.00000000000E+00  0.74505805969E-08  0.10566000000E+00  0.10566000000E+00 0. -1.
     999900   -1    0    0    0    0 -0.00000000000E+00 -0.00000000000E+00 -0.74505805969E-08  0.93827000000E+00  0.93827000000E+00 0. -1.
     999902    2    1    2    0    0 -0.15865677923E-01  0.15568928449E-01 -0.92406076986E-02  0.10198571917E+01  0.10195730437E+01 0.  0.
     999903    2    3    3    0    0  0.82765161696E-01  0.17978530091E-01  0.94188449176E-01  0.12832400751E+00  0.20549632838E-01 0.  0.
         14    1    1    2    0    0  0.15865677923E-01 -0.15568928449E-01  0.92406076986E-02  0.24072808304E-01  0.00000000000E+00 0. -1.
     999901    1    3    3    0    0 -0.98630839619E-01 -0.24096016421E-02 -0.10342905687E+00  0.89153318419E+00  0.88000000000E+00 0. -1.
        -11    1    4    4    0    0  0.33981704183E-01  0.25685036261E-02  0.24973340644E-01  0.42252601032E-01  0.51100000000E-03 0. -1.
         11    1    4    4    0    0  0.48783457514E-01  0.15410026465E-01  0.69215108531E-01  0.86071406475E-01  0.51100000000E-03 0.  1.
</event>
<event>
 8    1  0.1010879E+005  0.1043930E+01  0.7957747E-01            NaN
         13   -1    0    0    0    0  0.00000000000E+00  0.00000000000E+00  0.74505805969E-08  0.10566000000E+00  0.10566000000E+00 0.  1.
     999900   -1    0    0    0    0 -0.00000000000E+00 -0.00000000000E+00 -0.74505805969E-08  0.93827000000E+00  0.93827000000E+00 0.  1.
     999902    2    1    2    0    0  0.52086584794E-02 -0.22477448408E-01  0.36367765081E-02  0.10205720901E+01  0.10203047580E+01 0.  0.
     999903    2    3    3    0    0  0.82405834117E-01 -0.18767871326E-01 -0.98468338592E-01  0.13130350336E+00  0.20041002938E-01 0.  0.
         14    1    1    2    0    0 -0.52086584794E-02  0.22477448408E-01 -0.36367765081E-02  0.23357909869E-01  0.00000000000E+00 0. -1.
     999901    1    3    3    0    0 -0.77197175638E-01 -0.37095770820E-02  0.10210511510E+00  0.88926858677E+00  0.88000000000E+00 0. -1.
        -11    1    4    4    0    0  0.39428604207E-01 -0.13531612666E-01 -0.61897893326E-01  0.74627941753E-01  0.51100000000E-03 0.  1.
         11    1    4    4    0    0  0.42977229909E-01 -0.52362586602E-02 -0.36570445266E-01  0.56675561606E-01  0.51100000000E-03 0. -1.
</event>
<event>
 8    1  0.1010879E+005  0.1043930E+01  0.7957747E-01            NaN
         13   -1    0    0    0    0  0.00000000000E+00  0.00000000000E+00  0.74505805969E-08  0.10566000000E+00  0.10566000000E+00 0.  1.
     999900   -1    0    0    0    0 -0.00000000000E+00 -0.00000000000E+00 -0.74505805969E-08  0.93827000000E+00  0.93827000000E+00 0. -1.
     999902    2    1    2    0    0 -0.16452216987E-01 -0.12003271801E-01 -0.12498240840E-01  0.10200352307E+01  0.10197553196E+01 0.  0.
     999903    2    3    3    0    0  0.11837523107E+00 -0.46236235668E-01 -0.10374658107E-01  0.12910602687E+00  0.20254575392E-01 0.  0.
         14    1    1    2    0    0  0.16452216987E-01  0.12003271801E-01  0.12498240840E-01  0.23894769340E-01  0.00000000000E+00 0.  1.
     999901    1    3    3    0    0 -0.13482744805E+00  0.34232963868E-01 -0.21235827332E-02  0.89092920379E+00  0.88000000000E+00 0. -1.
        -11    1    4    4    0    0  0.41432439205E-01 -0.16517490174E-01  0.60119817269E-02  0.45009771666E-01  0.51100000000E-03 0.  1.
         11    1    4    4    0    0  0.76942791862E-01 -0.29718745494E-01 -0.16386639834E-01  0.84096255204E-01  0.51100000000E-03 0. -1.
</event>
<event>
 8    1  0.1010879E+005  0.1043930E+01  0.7957747E-01            NaN
         13   -1    0    0    0    0  0.00000000000E+00  0.00000000000E+00  0.74505805969E-08  0.10566000000E+00  0.10566000000E+00 0. -1.
     999900   -1    0    0    0    0 -0.00000000000E+00 -0.00000000000E+00 -0.74505805969E-08  0.93827000000E+00  0.93827000000E+00 0. -1.
     999902    2    1    2    0    0 -0.20856155182E-02  0.14066304663E-01  0.18950557632E-01  0.10202375043E+01  0.10199623673E+01 0.  0.
     999903    2    3    3    0    0  0.15041927742E-01 -0.58663931714E-01  0.11478313979E+00  0.13188682812E+00  0.23478709037E-01 0.  0.
         14    1    1    2    0    0  0.20856155182E-02 -0.14066304663E-01 -0.18950557632E-01  0.23692495722E-01  0.00000000000E+00 0.  1.
     999901    1    3    3    0    0 -0.17127543260E-01  0.72730236378E-01 -0.95832582158E-01  0.88835067615E+00  0.88000000000E+00 0. -1.
        -11    1    4    4    0    0  0.14274014984E-01 -0.45759109318E-01  0.10575020624E+00  0.11610775525E+00  0.51100000000E-03 0.  1.
         11    1    4    4    0    0  0.76791275775E-03 -0.12904822397E-01  0.90329335495E-02  0.15779072869E-01  0.51100000000E-03 0. -1.
</event>
<event>
 8    1  0.1010879E+005  0.1043930E+01  0.7957747E-01            NaN
         13   -1    0    0    0    0  0.00000000000E+00  0.00000000000E+00  0.74505805969E-08  0.10566000000E+00  0.10566000000E+00 0. -1.
     999900   -1    0    0    0    0 -0.00000000000E+00 -0.00000000000E+00 -0.74505805969E-08  0.93827000000E+00  0.93827000000E+00 0.  1.
     999902    2    1    2    0    0  0.98106738004E-03 -0.18492747674E-01  0.18676778556E-01  0.10176285501E+01  0.10172886020E+01 0.  0.
     999903    2    3    3    0    0  0.72154220408E-01 -0.10621702343E+00 -0.40446844623E-02  0.13011661714E+00  0.20632183454E-01 0.  0.
         14    1    1    2    0    0 -0.98106738004E-03  0.18492747674E-01 -0.18676778556E-01  0.26301449902E-01  0.00000000000E+00 0.  1.
     999901    1    3    3    0    0 -0.71173153028E-01  0.87724275753E-01  0.22721463018E-01  0.88751193296E+00  0.88000000000E+00 0. -1.
        -11    1    4    4    0    0  0.64416103463E-01 -0.84859645062E-01  0.21623410961E-02  0.10656233193E+00  0.51100000000E-03 0. -1.
         11    1    4    4    0    0  0.77381169453E-02 -0.21357378365E-01 -0.62070255585E-02  0.23554285210E-01  0.51100000000E-03 0.  1.
</event>
<event>
 8    1  0.1010879E+005  0.1043930E+01  0.7957747E-01            NaN
         13   -1    0    0    0    0  0.00000000000E+00  0.00000000000E+00  0.74505805969E-08  0.10566000000E+00  0.10566000000E+00 0.  1.
     999900   -1    0    0    0    0 -0.00000000000E+00 -0.00000000000E+00 -0.74505805969E-08  0.93827000000E+00  0.93827000000E+00 0.  1.
     999902    2    1    2    0    0 -0.12027635634E-02 -0.34931698034E-02 -0.23282895228E-01  0.10203558174E+01  0.10200834534E+01 0.  0.
     999903    2    3    3    0    0  0.29411821439E-01 -0.80255063541E-01 -0.10011887559E+00  0.13315042459E+00  0.19982889051E-01 0.  0.
         14    1    1    2    0    0  0.12027635634E-02  0.34931698034E-02  0.23282895228E-01  0.23574182608E-01  0.00000000000E+00 0.  1.
     999901    1    3    3    0    0 -0.30614585003E-01  0.76761893738E-01  0.76835980358E-01  0.88720539281E+00  0.88000000000E+00 0. -1.
        -11    1    4    4    0    0  0.10293763069E-01 -0.32558015406E-01 -0.55135190830E-01  0.64854732396E-01  0.51100000000E-03 0.  1.
         11    1    4    4    0    0  0.19118058370E-01 -0.47697048135E-01 -0.44983684755E-01  0.68295692190E-01  0.51100000000E-03 0. -1.
</event>
<event>
 8    1  0.1010879E+005  0.1043930E+01  0.7957747E-01            NaN
         13   -1    0    0    0    0  0.00000000000E+00  0.00000000000E+00  0.74505805969E-08  0.10566000000E+00  0.10566000000E+00 0.  1.
     999900   -1    0    0    0    0 -0.00000000000E+00 -0.00000000000E+00 -0.74505805969E-08  0.93827000000E+00  0.93827000000E+00 0. -1.
     999902    2    1    2    0    0  0.92341627614E-02  0.20121557300E-01 -0.61302015477E-02  0.10209577080E+01  0.10206992286E+01 0.  0.
     999903    2    3    3    0    0  0.46596595659E-01  0.81733314753E-01  0.91467998223E-01  0.13263492393E+00  0.19340395011E-01 0.  0.
         14    1    1    2    0    0 -0.92341627614E-02 -0.20121557300E-01  0.61302015477E-02  0.22972292030E-01  0.00000000000E+00 0.  1.
     999901    1    3    3    0    0 -0.37362432897E-01 -0.61611757453E-01 -0.97598199771E-01  0.88832278404E+00  0.88000000000E+00 0. -1.
        -11    1    4    4    0    0  0.29115145599E-01  0.67201196243E-01  0.67570066508E-01  0.99647716926E-01  0.51100000000E-03 0.  1.
         11    1    4    4    0    0  0.17481450060E-01  0.14532118511E-01  0.23897931714E-01  0.32987207003E-01  0.51100000000E-03 0. -1.
</event>
<event>
 8    1  0.1010879E+005  0.1043930E+01  0.7957747E-01            NaN
         13   -1    0    0    0    0  0.00000000000E+00  0.00000000000E+00  0.74505805969E-08  0.10566000000E+00  0.10566000000E+00 0. -1.
     999900   -1    0    0    0    0 -0.00000000000E+00 -0.00000000000E+00 -0.74505805969E-08  0.93827000000E+00  0.93827000000E+00 0. -1.
     999902    2    1    2    0    0 -0.85680167134E-02 -0.14183125426E-01  0.14481515565E-01  0.10219234953E+01  0.10216865194E+01 0.  0.
     999903    2    3    3    0    0  0.10961507887E+00  0.64298698043E-01 -0.20090280149E-01  0.12989106887E+00  0.17840468866E-01 0.  0.
         14    1    1    2    0    0  0.85680167134E-02  0.14183125426E-01 -0.14481515565E-01  0.22006504727E-01  0.00000000000E+00 0. -1.
     999901    1    3    3    0    0 -0.11818309559E+00 -0.78481823469E-01  0.34571795714E-01  0.89203242640E+00  0.88000000000E+00 0.  1.
        -11    1    4    4    0    0  0.95702883317E-01  0.51715222205E-01 -0.11955968471E-01  0.10943816695E+00  0.51100000000E-03 0.  1.
         11    1    4    4    0    0  0.13912195555E-01  0.12583475838E-01 -0.81343116780E-02  0.20452901916E-01  0.51100000000E-03 0. -1.
</event>
<event>
 8    1  0.1010879E+005  0.1043930E+01  0.7957747E-01            NaN
         13   -1    0    0    0    0  0.00000000000E+00  0.00000000000E+00  0.74505805969E-08  0.10566000000E+00  0.10566000000E+00 0. -1.
     999900   -1    0    0    0    0 -0.00000000000E+00 -0.00000000000E+00 -0.74505805969E-08  0.93827000000E+00  0.93827000000E+00 0.  1.
     999902    2    1    2    0    0 -0.12656314826E-01 -0.11816735076E-01  0.16039521629E-01  0.10203273775E+01  0.10200543483E+01 0.  0.
     999903    2    3    3    0    0 -0.12500701156E+00  0.21581069848E-01  0.32284496225E-01  0.13240734081E+00  0.19922843382E-01 0.  0.
         14    1    1    2    0    0  0.12656314826E-01  0.11816735076E-01 -0.16039521629E-01  0.23602622459E-01  0.00000000000E+00 0.  1.
     999901    1    3    3    0    0  0.11235069673E+00 -0.33397804924E-01 -0.16244974596E-01  0.88792003673E+00  0.88000000000E+00 0.  1.
        -11    1    4    4    0    0 -0.23408292941E-01  0.11399585389E-01  0.32021590150E-02  0.26237638400E-01  0.51100000000E-03 0.  1.
         11    1    4    4    0    0 -0.10159871862E+00  0.10181484459E-01  0.29082337210E-01  0.10616970241E+00  0.51100000000E-03 0. -1.
</event>
<event>
 8    1  0.1010879E+005  0.1043930E+01  0.7957747E-01            NaN
         13   -1    0    0    0    0  0.00000000000E+00  0.00000000000E+00  0.74505805969E-08  0.10566000000E+00  0.10566000000E+00 0.  1.
     999900   -1    0    0    0    0 -0.00000000000E+00 -0.00000000000E+00 -0.74505805969E-08  0.93827000000E+00  0.93827000000E+00 0. -1.
     999902    2    1    2    0    0  0.97479769169E-03  0.99387697000E-02  0.21427509123E-01  0.10202896210E+01  0.10200157073E+01 0.  0.
     999903    2    3    3    0    0  0.81657621710E-01 -0.88544369516E-01  0.46814499652E-01  0.13076550882E+00  0.19998709026E-01 0.  0.
         14    1    1    2    0    0 -0.97479769169E-03 -0.99387697000E-02 -0.21427509123E-01  0.23640379035E-01  0.00000000000E+00 0. -1.
     999901    1    3    3    0    0 -0.80682824018E-01  0.98483139216E-01 -0.25386990529E-01  0.88952411215E+00  0.88000000000E+00 0.  1.
        -11    1    4    4    0    0  0.48733388821E-01 -0.38506754192E-01  0.26279278309E-01  0.67443123399E-01  0.51100000000E-03 0. -1.
         11    1    4    4    0    0  0.32924232889E-01 -0.50037615325E-01  0.20535221343E-01  0.63322385420E-01  0.51100000000E-03 0.  1.
</event>
<event>
 8    1  0.1010879E+005  0.1043930E+01  0.7957747E-01            NaN
         13   -1    0    0    0    0  0.00000000000E+00  0.00000000000E+00  0.74505805969E-08  0.10566000000E+00  0.10566000000E+00 0. -1.
     999900   -1    0    0    0    0 -0.00000000000E+00 -0.00000000000E+00 -0.74505805969E-08  0.93827000000E+00  0.93827000000E+00 0.  1.
     999902    2    1    2    0    0 -0.21998275706E-02  0.23543522459E-01 -0.46495814118E-02  0.10198311349E+01  0.10195463640E+01 0.  0.
     999903    2    3    3    0    0 -0.74352521274E-01 -0.99104163524E-01 -0.27852638150E-01  0.12809863695E+00  0.16839200948E-01 0.  0.
         14    1    1    2    0    0  0.21998275706E-02 -0.23543522459E-01  0.46495814118E-02  0.24098865086E-01  0.00000000000E+00 0.  1.
     999901    1    3    3    0    0  0.72152693703E-01  0.12264768598E+00  0.23203056739E-01  0.89173249797E+00  0.88000000000E+00 0.  1.
        -11    1    4    4    0    0 -0.53188841100E-02 -0.16584231637E-01 -0.46973892599E-02  0.18045881913E-01  0.51100000000E-03 0.  1.
         11    1    4    4    0    0 -0.69033637164E-01 -0.82519931887E-01 -0.23155248890E-01  0.11005275504E+00  0.51100000000E-03 0. -1.
</event>
<event>
 8    1  0.1010879E+005  0.1043930E+01  0.7957747E-01            NaN
         13   -1    0    0    0    0  0.00000000000E+00  0.00000000000E+00  0.74505805969E-08  0.10566000000E+00  0.10566000000E+00 0.  1.
     999900   -1    0    0    0    0 -0.00000000000E+00 -0.00000000000E+00 -0.74505805969E-08  0.93827000000E+00  0.93827000000E+00 0.  1.
     999902    2    1    2    0    0 -0.66121773239E-02 -0.15188196196E-01 -0.16408430406E-01  0.10206139373E+01  0.10203475732E+01 0.  0.
     999903    2    3    3    0    0  0.80962144464E-01 -0.40546190338E-01 -0.94635665603E-01  0.13245190812E+00  0.19716398595E-01 0.  0.
         14    1    1    2    0    0  0.66121773239E-02  0.15188196196E-01  0.16408430406E-01  0.23316062726E-01  0.00000000000E+00 0.  1.
     999901    1    3    3    0    0 -0.87574321788E-01  0.25357994142E-01  0.78227235197E-01  0.88816202915E+00  0.88000000000E+00 0.  1.
        -11    1    4    4    0    0  0.47390773110E-01 -0.32055567438E-01 -0.67277055115E-01  0.88317088073E-01  0.51100000000E-03 0. -1.
         11    1    4    4    0    0  0.33571371354E-01 -0.84906228996E-02 -0.27358610489E-01  0.44134820048E-01  0.51100000000E-03 0.  1.
</event>
<event>
 8    1  0.1010879E+005  0.1043930E+01  0.7957747E-01            NaN
         13   -1    0    0    0    0  0.00000000000E+00  0.00000000000E+00  0.74505805969E-08  0.10566000000E+00  0.10566000000E+00 0. -1.
     999900   -1    0    0    0    0 -0.00000000000E+00 -0.00000000000E+00 -0.74505805969E-08  0.93827000000E+00  0.93827000000E+00 0.  1.
     999902    2    1    2    0    0  0.11695777520E-01 -0.21175156838E-01  0.17180693281E-02  0.10196786033E+01  0.10193901725E+01 0.  0.
     999903    2    3    3    0    0 -0.78793657591E-01 -0.51076015361E-02  0.10087535814E+00  0.12935356597E+00  0.17943775506E-01 0.  0.
         14    1    1    2    0    0 -0.11695777520E-01  0.21175156838E-01 -0.17180693281E-02  0.24251396684E-01  0.00000000000E+00 0. -1.
     999901    1    3    3    0    0  0.90489435111E-01 -0.16067555302E-01 -0.99157288811E-01  0.89032503735E+00  0.88000000000E+00 0. -1.
        -11    1    4    4    0    0 -0.14779705394E-01 -0.59057630951E-02  0.12597076937E-01  0.20304314754E-01  0.51100000000E-03 0. -1.
         11    1    4    4    0    0 -0.64013952197E-01  0.79816155905E-03  0.88278281202E-01  0.10904925122E+00  0.51100000000E-03 0.  1.
</event>
<event>
 8    1  0.1010879E+005  0.1043930E+01  0.7957747E-01            NaN
         13   -1    0    0    0    0  0.00000000000E+00  0.00000000000E+00  0.74505805969E-08  0.10566000000E+00  0.10566000000E+00 0.  1.
     999900   -1    0    0    0    0 -0.00000000000E+00 -0.00000000000E+00 -0.74505805969E-08  0.93827000000E+00  0.93827000000E+00 0. -1.
     999902    2    1    2    0    0 -0.22808461401E-01  0.98777818954E-02 -0.12240735917E-01  0.10162238256E+01  0.10158460668E+01 0.  0.
     999903    2    3    3    0    0 -0.96862340230E-01 -0.81536393539E-01  0.42518398956E-02  0.12824154336E+00  0.19932859149E-01 0.  0.
         14    1    1    2    0    0  0.22808461401E-01 -0.98777818954E-02  0.12240735917E-01  0.27706174446E-01  0.00000000000E+00 0.  1.
     999901    1    3    3    0    0  0.74053878830E-01  0.91414175434E-01 -0.16492575812E-01  0.88798228220E+00  0.88000000000E+00 0. -1.
        -11    1    4    4    0    0 -0.55714656781E-01 -0.58207141967E-01  0.68503682372E-02  0.80866451772E-01  0.51100000000E-03 0. -1.
         11    1    4    4    0    0 -0.41147683449E-01 -0.23329251572E-01 -0.25985283416E-02  0.47375091585E-01  0.51100000000E-03 0.  1.
</event>
<event>
 8    1  0.1010879E+005  0.1043930E+01  0.7957747E-01            NaN
         13   -1    0    0    0    0  0.00000000000E+00  0.00000000000E+00  0.74505805969E-08  0.10566000000E+00  0.10566000000E+00 0.  1.
     999900   -1    0    0    0    0 -0.00000000000E+00 -0.00000000000E+00 -0.74505805969E-08  0.93827000000E+00  0.93827000000E+00 0. -1.
     999902    2    1    2    0    0 -0.13834486569E-03  0.21216584476E-01  0.94782725337E-02  0.10206920946E+01  0.10204275338E+01 0.  0.
     999903    2    3    3    0    0  0.11695135335E+00 -0.18919716072E-01  0.52172817768E-01  0.13100465274E+00  0.20115700811E-01 0.  0.
         14    1    1    2    0    0  0.13834486569E-03 -0.21216584476E-01 -0.94782725337E-02  0.23237905377E-01  0.00000000000E+00 0.  1.
     999901    1    3    3    0    0 -0.11708969822E+00  0.40136300548E-01 -0.42694545235E-01  0.88968744188E+00  0.88000000000E+00 0. -1.
        -11    1    4    4    0    0  0.72134252908E-01 -0.10424322549E-01  0.21344063886E-01  0.75946343739E-01  0.51100000000E-03 0.  1.
         11    1    4    4    0    0  0.44817100442E-01 -0.84953935226E-02  0.30828753882E-01  0.55058309001E-01  0.51100000000E-03 0. -1.
</event>
<event>
 8    1  0.1010879E+005  0.1043930E+01  0.7957747E-01            NaN
         13   -1    0    0    0    0  0.00000000000E+00  0.00000000000E+00  0.74505805969E-08  0.10566000000E+00  0.10566000000E+00 0.  1.
     999900   -1    0    0    0    0 -0.00000000000E+00 -0.00000000000E+00 -0.74505805969E-08  0.93827000000E+00  0.93827000000E+00 0. -1.
     999902    2    1    2    0    0 -0.90819169894E-02  0.18513038764E-01  0.11573512804E-01  0.10202834354E+01  0.10200093767E+01 0.  0.
     999903    2    3    3    0    0 -0.45342911417E-01  0.34110458588E-01 -0.11651147730E+00  0.13013518709E+00  0.11863371166E-01 0.  0.
         14    1    1    2    0    0  0.90819169894E-02 -0.18513038764E-01 -0.11573512804E-01  0.23646564636E-01  0.00000000000E+00 0. -1.
     999901    1    3    3    0    0  0.36260994428E-01 -0.15597419824E-01  0.12808499010E+00  0.89014824828E+00  0.88000000000E+00 0.  1.
        -11    1    4    4    0    0 -0.10651384062E-01  0.14503195020E-01 -0.32566144972E-01  0.37210342212E-01  0.51100000000E-03 0. -1.
         11    1    4    4    0    0 -0.34691527355E-01  0.19607263568E-01 -0.83945332325E-01  0.92924844875E-01  0.51100000000E-03 0.  1.
</event>
<event>
 8    1  0.1010879E+005  0.1043930E+01  0.7957747E-01            NaN
         13   -1    0    0    0    0  0.00000000000E+00  0.00000000000E+00  0.74505805969E-08  0.10566000000E+00  0.10566000000E+00 0. -1.
     999900   -1    0    0    0    0 -0.00000000000E+00 -0.00000000000E+00 -0.74505805969E-08  0.93827000000E+00  0.93827000000E+00 0.  1.
     999902    2    1    2    0    0  0.84917770602E-02  0.17263109914E-01  0.15061009870E-01  0.10194972503E+01  0.10192044368E+01 0.  0.
     999903    2    3    3    0    0  0.87991608780E-01  0.93210140866E-01 -0.23569465520E-01  0.13181459954E+00  0.19720937402E-01 0.  0.
         14    1    1    2    0    0 -0.84917770602E-02 -0.17263109914E-01 -0.15061009870E-01  0.24432749740E-01  0.00000000000E+00 0.  1.
     999901    1    3    3    0    0 -0.79499831720E-01 -0.75947030952E-01  0.38630475390E-01  0.88768265072E+00  0.88000000000E+00 0.  1.
        -11    1    4    4    0    0  0.38682931858E-01  0.54486880813E-01 -0.15508905311E-01  0.68600121449E-01  0.51100000000E-03 0. -1.
         11    1    4    4    0    0  0.49308676921E-01  0.38723260053E-01 -0.80605602088E-02  0.63214478095E-01  0.51100000000E-03 0.  1.
</event>
<event>
 8    1  0.1010879E+005  0.1043930E+01  0.7957747E-01            NaN
         13   -1    0    0    0    0  0.00000000000E+00  0.00000000000E+00  0.74505805969E-08  0.10566000000E+00  0.10566000000E+00 0. -1.
     999900   -1    0    0    0    0 -0.00000000000E+00 -0.00000000000E+00 -0.74505805969E-08  0.93827000000E+00  0.93827000000E+00 0. -1.
     999902    2    1    2    0    0 -0.22484474812E-01 -0.40739313512E-02  0.69915823075E-02  0.10200337503E+01  0.10197538042E+01 0.  0.
     999903    2    3    3    0    0 -0.57288606370E-01 -0.68436719387E-01 -0.94155005704E-01  0.13122301216E+00  0.19716613305E-01 0.  0.
         14    1    1    2    0    0  0.22484474812E-01  0.40739313512E-02 -0.69915823075E-02  0.23896249651E-01  0.00000000000E+00 0.  1.
     999901    1    3    3    0    0  0.34804131558E-01  0.64362788036E-01  0.10114658801E+00  0.88881073819E+00  0.88000000000E+00 0.  1.
        -11    1    4    4    0    0 -0.24877924407E-01 -0.43751031749E-01 -0.46496418022E-01  0.68521835292E-01  0.51100000000E-03 0.  1.
         11    1    4    4    0    0 -0.32410681963E-01 -0.24685687639E-01 -0.47658587683E-01  0.62701176866E-01  0.51100000000E-03 0. -1.
</event>
<event>
 8    1  0.1010879E+005  0.1043930E+01  0.7957747E-01            NaN
         13   -1    0    0    0    0  0.00000000000E+00  0.00000000000E+00  0.74505805969E-08  0.10566000000E+00  0.10566000000E+00 0.  1.
     999900   -1    0    0    0    0 -0.00000000000E+00 -0.00000000000E+00 -0.74505805969E-08  0.93827000000E+00  0.93827000000E+00 0. -1.
     999902    2    1    2    0    0 -0.86998049356E-02  0.10559708991E-01 -0.18227380585E-01  0.10211389609E+01  0.10208845900E+01 0.  0.
     999903    2    3    3    0    0 -0.95865781380E-01 -0.88306982560E-01  0.20859495332E-02  0.13109111864E+00  0.13862142410E-01 0.  0.
         14    1    1    2    0    0  0.86998049356E-02 -0.10559708991E-01  0.18227380585E-01  0.22791039092E-01  0.00000000000E+00 0.  1.
     999901    1    3    3    0    0  0.87165976444E-01  0.98866691550E-01 -0.20313330118E-01  0.89004784227E+00  0.88000000000E+00 0.  1.
        -11    1    4    4    0    0 -0.16197380088E-01 -0.10725002844E-01  0.41367729986E-02  0.19868437773E-01  0.51100000000E-03 0. -1.
         11    1    4    4    0    0 -0.79668401292E-01 -0.77581979716E-01 -0.20508234654E-02  0.11122268087E+00  0.51100000000E-03 0.  1.
</event>
<event>
 8    1  0.1010879E+005  0.1043930E+01  0.7957747E-01            NaN
         13   -1    0    0    0    0  0.00000000000E+00  0.00000000000E+00  0.74505805969E-08  0.10566000000E+00  0.10566000000E+00 0. -1.
     999900   -1    0    0    0    0 -0.00000000000E+00 -0.00000000000E+00 -0.74505805969E-08  0.93827000000E+00  0.93827000000E+00 0.  1.
     999902    2    1    2    0    0 -0.12316564034E-01 -0.69292476192E-02  0.20982578890E-01  0.10186321574E+01  0.10183179716E+01 0.  0.
     999903    2    3    3    0    0  0.12490232798E+00 -0.11301954319E-01 -0.10355759443E-01  0.12743619898E+00  0.20110130586E-01 0.  0.
         14    1    1    2    0    0  0.12316564034E-01  0.69292476192E-02 -0.20982578890E-01  0.25297842577E-01  0.00000000000E+00 0.  1.
     999901    1    3    3    0    0 -0.13721889201E+00  0.43727066996E-02  0.31338338332E-01  0.89119595844E+00  0.88000000000E+00 0.  1.
        -11    1    4    4    0    0  0.76790865893E-01 -0.92320998945E-02 -0.15889008020E-01  0.78960689269E-01  0.51100000000E-03 0. -1.
         11    1    4    4    0    0  0.48111462085E-01 -0.20698544244E-02  0.55332485773E-02  0.48475509715E-01  0.51100000000E-03 0.  1.
</event>
<event>
 8    1  0.1010879E+005  0.1043930E+01  0.7957747E-01            NaN
         13   -1    0    0    0    0  0.00000000000E+00  0.00000000000E+00  0.74505805969E-08  0.10566000000E+00  0.10566000000E+00 0. -1.
     999900   -1    0    0    0    0 -0.00000000000E+00 -0.00000000000E+00 -0.74505805969E-08  0.93827000000E+00  0.93827000000E+00 0. -1.
     999902    2    1    2    0    0  0.21791774123E-01 -0.49929803968E-02  0.81270674701E-02  0.10201421775E+01  0.10198647959E+01 0.  0.
     999903    2    3    3    0    0 -0.73960165418E-01  0.29063123998E-01 -0.98219944893E-01  0.12793259496E+00  0.20120139991E-01 0.  0.
         14    1    1    2    0    0 -0.21791774123E-01  0.49929803968E-02 -0.81270674701E-02  0.23787822480E-01  0.00000000000E+00 0.  1.
     999901    1    3    3    0    0  0.95751939541E-01 -0.34056104395E-01  0.10634701236E+00  0.89220958256E+00  0.88000000000E+00 0.  1.
        -11    1    4    4    0    0 -0.31448960439E-01  0.21374244536E-01 -0.37474309940E-01  0.53389891072E-01  0.51100000000E-03 0.  1.
         11    1    4    4    0    0 -0.42511204978E-01  0.76888794626E-02 -0.60745634953E-01  0.74542703888E-01  0.51100000000E-03 0. -1.
</event>
<event>
 8    1  0.1010879E+005  0.1043930E+01  0.7957747E-01            NaN
         13   -1    0    0    0    0  0.00000000000E+00  0.00000000000E+00  0.74505805969E-08  0.10566000000E+00  0.10566000000E+00 0.  1.
     999900   -1    0    0    0    0 -0.00000000000E+00 -0.00000000000E+00 -0.74505805969E-08  0.93827000000E+00  0.93827000000E+00 0. -1.
     999902    2    1    2    0    0 -0.18303038822E-01 -0.20229777619E-02 -0.15689491898E-01  0.10197379801E+01  0.10194509769E+01 0.  0.
     999903    2    3    3    0    0 -0.32084542804E-01 -0.25279336878E-01 -0.12450924352E+00  0.13262326014E+00  0.20442960863E-01 0.  0.
         14    1    1    2    0    0  0.18303038822E-01  0.20229777619E-02  0.15689491898E-01  0.24192019865E-01  0.00000000000E+00 0. -1.
     999901    1    3    3    0    0  0.13781503982E-01  0.23256359116E-01  0.10881975162E+00  0.88711472000E+00  0.88000000000E+00 0.  1.
        -11    1    4    4    0    0 -0.15143696590E-01 -0.83458492602E-04 -0.46795615953E-01  0.49187694652E-01  0.51100000000E-03 0. -1.
         11    1    4    4    0    0 -0.16940846214E-01 -0.25195878385E-01 -0.77713627563E-01  0.83435565487E-01  0.51100000000E-03 0.  1.
</event>
<event>
 8    1  0.1010879E+005  0.1043930E+01  0.7957747E-01            NaN
         13   -1    0    0    0    0  0.00000000000E+00  0.00000000000E+00  0.74505805969E-08  0.10566000000E+00  0.10566000000E+00 0. -1.
     999900   -1    0    0    0    0 -0.00000000000E+00 -0.00000000000E+00 -0.74505805969E-08  0.93827000000E+00  0.93827000000E+00 0.  1.
     999902    2    1    2    0    0  0.91344281576E-02 -0.20967777563E-01 -0.51816529705E-03  0.10210530691E+01  0.10207967554E+01 0.  0.
     999903    2    3    3    0    0  0.80770274492E-01  0.90311547840E-01 -0.43055225014E-01  0.13014107330E+00  0.20073207143E-01 0.  0.
         14    1    1    2    0    0 -0.91344281576E-02  0.20967777563E-01  0.51816529705E-03  0.22876930934E-01  0.00000000000E+00 0. -1.
     999901    1    3    3    0    0 -0.71635846334E-01 -0.11127932540E+00  0.42537059717E-01  0.89091199576E+00  0.88000000000E+00 0. -1.
        -11    1    4    4    0    0  0.10869358939E-01  0.23729578529E-01 -0.11996646340E-01  0.28730062744E-01  0.51100000000E-03 0.  1.
         11    1    4    4    0    0  0.69900915553E-01  0.66581969311E-01 -0.31058578674E-01  0.10141101056E+00  0.51100000000E-03 0. -1.
</event>
<event>
 8    1  0.1096837E+005  0.1043930E+01  0.7957747E-01            NaN
         13   -1    0    0    0    0  0.00000000000E+00  0.00000000000E+00  0.74505805969E-08  0.10566000000E+00  0.10566000000E+00 0. -1.
     999900   -1    0    0    0    0 -0.00000000000E+00 -0.00000000000E+00 -0.74505805969E-08  0.93827000000E+00  0.93827000000E+00 0.  1.
     999902    2    1    2    0    0 -0.93914634381E-03 -0.29108010517E-02 -0.24027665792E-01  0.10197084500E+01  0.10194207373E+01 0.  0.
     999903    2    3    3    0    0 -0.11218367771E+00  0.52032996355E-01 -0.38024578805E-01  0.13089458865E+00  0.19872455575E-01 0.  0.
         14    1    1    2    0    0  0.93914634381E-03  0.29108010517E-02  0.24027665792E-01  0.24221549951E-01  0.00000000000E+00 0. -1.
     999901    1    3    3    0    0  0.11124453137E+00 -0.54943797407E-01  0.13996913013E-01  0.88881386139E+00  0.88000000000E+00 0. -1.
        -11    1    4    4    0    0 -0.59824023457E-01  0.32523778619E-01 -0.11573796148E-01  0.69071874424E-01  0.51100000000E-03 0.  1.
         11    1    4    4    0    0 -0.52359654257E-01  0.19509217736E-01 -0.26450782658E-01  0.61822714230E-01  0.51100000000E-03 0. -1.
</event>
<event>
 8    1  0.1010879E+005  0.1043930E+01  0.7957747E-01            NaN
         13   -1    0    0    0    0  0.00000000000E+00  0.00000000000E+00  0.74505805969E-08  0.10566000000E+00  0.10566000000E+00 0. -1.
     999900   -1    0    0    0    0 -0.00000000000E+00 -0.00000000000E+00 -0.74505805969E-08  0.93827000000E+00  0.93827000000E+00 0. -1.
     999902    2    1    2    0    0 -0.20804664462E-01  0.26008431273E-02  0.10096575037E-01  0.10206590035E+01  0.10203936800E+01 0.  0.
     999903    2    3    3    0    0 -0.33859669870E-01  0.30780858717E-01  0.12277978357E+00  0.13293041218E+00  0.22398230331E-01 0.  0.
         14    1    1    2    0    0  0.20804664462E-01 -0.26008431273E-02 -0.10096575037E-01  0.23270996451E-01  0.00000000000E+00 0. -1.
     999901    1    3    3    0    0  0.13055005408E-01 -0.28180015590E-01 -0.11268320853E+00  0.88772859137E+00  0.88000000000E+00 0. -1.
        -11    1    4    4    0    0 -0.27093090301E-01  0.98595798166E-02  0.74077436686E-01  0.79491978232E-01  0.51100000000E-03 0. -1.
         11    1    4    4    0    0 -0.67665795688E-02  0.20921278901E-01  0.48702346885E-01  0.53438433950E-01  0.51100000000E-03 0.  1.
</event>
<event>
 8    1  0.1010879E+005  0.1043930E+01  0.7957747E-01            NaN
         13   -1    0    0    0    0  0.00000000000E+00  0.00000000000E+00  0.74505805969E-08  0.10566000000E+00  0.10566000000E+00 0. -1.
     999900   -1    0    0    0    0 -0.00000000000E+00 -0.00000000000E+00 -0.74505805969E-08  0.93827000000E+00  0.93827000000E+00 0.  1.
     999902    2    1    2    0    0 -0.20788264075E-01 -0.10975694706E-01 -0.47061790904E-02  0.10199557238E+01  0.10196739246E+01 0.  0.
     999903    2    3    3    0    0 -0.51621774953E-01  0.21107424429E-02 -0.12007718465E+00  0.13179333485E+00  0.16783621607E-01 0.  0.
         14    1    1    2    0    0  0.20788264075E-01  0.10975694706E-01  0.47061790904E-02  0.23974276197E-01  0.00000000000E+00 0. -1.
     999901    1    3    3    0    0  0.30833510877E-01 -0.13086437148E-01  0.11537100556E+00  0.88816238895E+00  0.88000000000E+00 0. -1.
        -11    1    4    4    0    0 -0.28999013266E-01 -0.93241125792E-03 -0.86088889093E-01  0.90848060559E-01  0.51100000000E-03 0.  1.
         11    1    4    4    0    0 -0.22622761687E-01  0.30431537008E-02 -0.33988295556E-01  0.40945274289E-01  0.51100000000E-03 0. -1.
</event>
<event>
 8    1  0.1010879E+005  0.1043930E+01  0.7957747E-01            NaN
         13   -1    0    0    0    0  0.00000000000E+00  0.00000000000E+00  0.74505805969E-08  0.10566000000E+00  0.10566000000E+00 0. -1.
     999900   -1    0    0    0    0 -0.00000000000E+00 -0.00000000000E+00 -0.74505805969E-08  0.93827000000E+00  0.93827000000E+00 0.  1.
     999902    2    1    2    0    0  0.20253315566E-01 -0.10365658550E-01 -0.49504051893E-02  0.10206458814E+01  0.10203802551E+01 0.  0.
     999903    2    3    3    0    0 -0.11154941451E+00  0.53122286801E-01  0.26753539738E-01  0.12800495750E+00  0.20106417457E-01 0.  0.
         14    1    1    2    0    0 -0.20253315566E-01  0.10365658550E-01  0.49504051893E-02  0.23284118625E-01  0.00000000000E+00 0. -1.
     999901    1    3    3    0    0  0.13180273007E+00 -0.63487945351E-01 -0.31703944928E-01  0.89264092388E+00  0.88000000000E+00 0. -1.
        -11    1    4    4    0    0 -0.34053775219E-01  0.65130904256E-02  0.55128801124E-02  0.35110296519E-01  0.51100000000E-03 0. -1.
         11    1    4    4    0    0 -0.77495639290E-01  0.46609196375E-01  0.21240659626E-01  0.92894660977E-01  0.51100000000E-03 0.  1.
</event>
<event>
 8    1  0.1010879E+005  0.1043930E+01  0.7957747E-01            NaN
         13   -1    0    0    0    0  0.00000000000E+00  0.00000000000E+00  0.74505805969E-08  0.10566000000E+00  0.10566000000E+00 0. -1.
     999900   -1    0    0    0    0 -0.00000000000E+00 -0.00000000000E+00 -0.74505805969E-08  0.93827000000E+00  0.93827000000E+00 0. -1.
     999902    2    1    2    0    0 -0.13115062803E-01  0.17223074758E-02  0.19672260142E-01  0.10202241139E+01  0.10199486622E+01 0.  0.
     999903    2    3    3    0    0 -0.14145142244E-02  0.12890225244E+00 -0.65771160383E-02  0.13061708215E+00  0.19994303210E-01 0.  0.
         14    1    1    2    0    0  0.13115062803E-01 -0.17223074758E-02 -0.19672260142E-01  0.23705886072E-01  0.00000000000E+00 0.  1.
     999901    1    3    3    0    0 -0.11700548578E-01 -0.12717994496E+00  0.26249376181E-01  0.88960703178E+00  0.88000000000E+00 0.  1.
        -11    1    4    4    0    0 -0.23912091031E-02  0.98876163141E-01  0.33792808191E-02  0.98964105504E-01  0.51100000000E-03 0.  1.
         11    1    4    4    0    0  0.97669487866E-03  0.30026089295E-01 -0.99563968574E-02  0.31652976647E-01  0.51100000000E-03 0. -1.
</event>
<event>
 8    1  0.1010879E+005  0.1043930E+01  0.7957747E-01            NaN
         13   -1    0    0    0    0  0.00000000000E+00  0.00000000000E+00  0.74505805969E-08  0.10566000000E+00  0.10566000000E+00 0.  1.
     999900   -1    0    0    0    0 -0.00000000000E+00 -0.00000000000E+00 -0.74505805969E-08  0.93827000000E+00  0.93827000000E+00 0.  1.
     999902    2    1    2    0    0 -0.96880347564E-03  0.30666453500E-01 -0.22995723413E-02  0.10131621924E+01  0.10126949048E+01 0.  0.
     999903    2    3    3    0    0  0.21250241860E-01  0.11012687482E+00  0.56989537813E-01  0.12731635757E+00  0.19548558753E-01 0.  0.
         14    1    1    2    0    0  0.96880347564E-03 -0.30666453500E-01  0.22995723413E-02  0.30767807582E-01  0.00000000000E+00 0. -1.
     999901    1    3    3    0    0 -0.22219045336E-01 -0.79460421316E-01 -0.59289110154E-01  0.88584583485E+00  0.88000000000E+00 0.  1.
        -11    1    4    4    0    0  0.83651415017E-02  0.14662225081E-01  0.39338807880E-02  0.17340501023E-01  0.51100000000E-03 0. -1.
         11    1    4    4    0    0  0.12885100359E-01  0.95464649735E-01  0.53055657025E-01  0.10997585655E+00  0.51100000000E-03 0.  1.
</event>
<event>
 8    1  0.1010879E+005  0.1043930E+01  0.7957747E-01            NaN
         13   -1    0    0    0    0  0.00000000000E+00  0.00000000000E+00  0.74505805969E-08  0.10566000000E+00  0.10566000000E+00 0.  1.
     999900   -1    0    0    0    0 -0.00000000000E+00 -0.00000000000E+00 -0.74505805969E-08  0.93827000000E+00  0.93827000000E+00 0.  1.
     999902    2    1    2    0    0 -0.12509242585E-01 -0.20194182245E-01 -0.24491747868E-02  0.10200493676E+01  0.10197697915E+01 0.  0.
     999903    2    3    3    0    0 -0.10265465278E+00 -0.55360551146E-01  0.59848849685E-01  0.13255631843E+00  0.19660223431E-01 0.  0.
         14    1    1    2    0    0  0.12509242585E-01  0.20194182245E-01  0.24491747868E-02  0.23880632398E-01  0.00000000000E+00 0.  1.
     999901    1    3    3    0    0  0.90145410197E-01  0.35166368902E-01 -0.62298024472E-01  0.88749304918E+00  0.88000000000E+00 0. -1.
        -11    1    4    4    0    0 -0.41979920990E-01 -0.17045144206E-01  0.14109253154E-01  0.47457168614E-01  0.51100000000E-03 0.  1.
         11    1    4    4    0    0 -0.60674731792E-01 -0.38315406940E-01  0.45739596531E-01  0.85099149813E-01  0.51100000000E-03 0. -1.
</event>
<event>
 8    1  0.1010879E+005  0.1043930E+01  0.7957747E-01            NaN
         13   -1    0    0    0    0  0.00000000000E+00  0.00000000000E+00  0.74505805969E-08  0.10566000000E+00  0.10566000000E+00 0. -1.
     999900   -1    0    0    0    0 -0.00000000000E+00 -0.00000000000E+00 -0.74505805969E-08  0.93827000000E+00  0.93827000000E+00 0.  1.
     999902    2    1    2    0    0  0.91459708965E-02 -0.20824605173E-01  0.59593855135E-02  0.10204177215E+01  0.10201468027E+01 0.  0.
     999903    2    3    3    0    0 -0.89718228606E-02  0.53875904432E-01  0.11660805157E+00  0.13016407906E+00  0.19030057890E-01 0.  0.
         14    1    1    2    0    0 -0.91459708965E-02  0.20824605173E-01 -0.59593855135E-02  0.23512278493E-01  0.00000000000E+00 0. -1.
     999901    1    3    3    0    0  0.18117793757E-01 -0.74700509605E-01 -0.11064866606E+00  0.89025364244E+00  0.88000000000E+00 0. -1.
        -11    1    4    4    0    0  0.40074817335E-02  0.20217212916E-01  0.55433004405E-01  0.59142833093E-01  0.51100000000E-03 0.  1.
         11    1    4    4    0    0 -0.12979304594E-01  0.33658691516E-01  0.61175047165E-01  0.71021245969E-01  0.51100000000E-03 0. -1.
</event>
<event>
 8    1  0.1010879E+005  0.1043930E+01  0.7957747E-01            NaN
         13   -1    0    0    0    0  0.00000000000E+00  0.00000000000E+00  0.74505805969E-08  0.10566000000E+00  0.10566000000E+00 0. -1.
     999900   -1    0    0    0    0 -0.00000000000E+00 -0.00000000000E+00 -0.74505805969E-08  0.93827000000E+00  0.93827000000E+00 0.  1.
     999902    2    1    2    0    0 -0.41482980411E-02  0.10232089068E-01  0.21900679725E-02  0.10326738718E+01  0.10326125242E+01 0.  0.
     999903    2    3    3    0    0  0.97676633224E-01  0.10061932632E+00 -0.10698852039E-01  0.14210984071E+00  0.20390387078E-01 0.  0.
         14    1    1    2    0    0  0.41482980411E-02 -0.10232089068E-01 -0.21900679725E-02  0.11256128156E-01  0.00000000000E+00 0. -1.
     999901    1    3    3    0    0 -0.10182493126E+00 -0.90387237254E-01  0.12888920011E-01  0.89056403113E+00  0.88000000000E+00 0.  1.
        -11    1    4    4    0    0  0.85246908915E-01  0.95999474044E-01 -0.10786304676E-01  0.12883920205E+00  0.51100000000E-03 0.  1.
         11    1    4    4    0    0  0.12429724309E-01  0.46198522775E-02  0.87452637315E-04  0.13270638659E-01  0.51100000000E-03 0. -1.
</event>
<event>
 8    1  0.1010879E+005  0.1043930E+01  0.7957747E-01            NaN
         13   -1    0    0    0    0  0.00000000000E+00  0.00000000000E+00  0.74505805969E-08  0.10566000000E+00  0.10566000000E+00 0. -1.
     999900   -1    0    0    0    0 -0.00000000000E+00 -0.00000000000E+00 -0.74505805969E-08  0.93827000000E+00  0.93827000000E+00 0.  1.
     999902    2    1    2    0    0 -0.66668158976E-04 -0.16845562084E-01  0.16459621954E-01  0.10203780030E+01  0.10201061575E+01 0.  0.
     999903    2    3    3    0    0  0.72767398852E-01  0.13327851781E-02 -0.10447142675E+00  0.12894120091E+00  0.20363782379E-01 0.  0.
         14    1    1    2    0    0  0.66668158976E-04  0.16845562084E-01 -0.16459621954E-01  0.23551996973E-01  0.00000000000E+00 0.  1.
     999901    1    3    3    0    0 -0.72834067011E-01 -0.18178347262E-01  0.12093104871E+00  0.89143680212E+00  0.88000000000E+00 0. -1.
        -11    1    4    4    0    0  0.55974606766E-01 -0.61160173029E-02 -0.86663948146E-01  0.10335116496E+00  0.51100000000E-03 0. -1.
         11    1    4    4    0    0  0.16792792085E-01  0.74488024810E-02 -0.17807478605E-01  0.25590035946E-01  0.51100000000E-03 0.  1.
</event>
<event>
 8    1  0.1010879E+005  0.1043930E+01  0.7957747E-01            NaN
         13   -1    0    0    0    0  0.00000000000E+00  0.00000000000E+00  0.74505805969E-08  0.10566000000E+00  0.10566000000E+00 0. -1.
     999900   -1    0    0    0    0 -0.00000000000E+00 -0.00000000000E+00 -0.74505805969E-08  0.93827000000E+00  0.93827000000E+00 0.  1.
     999902    2    1    2    0    0  0.19663809080E-01 -0.12304263086E-01  0.56928321008E-02  0.10200455152E+01  0.10197658478E+01 0.  0.
     999903    2    3    3    0    0 -0.79589697335E-01 -0.87937883578E-01 -0.48722044244E-01  0.12957783927E+00  0.18681208303E-01 0.  0.
         14    1    1    2    0    0 -0.19663809080E-01  0.12304263086E-01 -0.56928321008E-02  0.23884484817E-01  0.00000000000E+00 0.  1.
     999901    1    3    3    0    0  0.99253506415E-01  0.75633620491E-01  0.54414876345E-01  0.89046767592E+00  0.88000000000E+00 0. -1.
        -11    1    4    4    0    0 -0.36453917706E-01 -0.37765482737E-01 -0.31451339132E-01  0.61192872598E-01  0.51100000000E-03 0.  1.
         11    1    4    4    0    0 -0.43135779629E-01 -0.50172400840E-01 -0.17270705112E-01  0.68384966669E-01  0.51100000000E-03 0. -1.
</event>
<event>
 8    1  0.1010879E+005  0.1043930E+01  0.7957747E-01            NaN
         13   -1    0    0    0    0  0.00000000000E+00  0.00000000000E+00  0.74505805969E-08  0.10566000000E+00  0.10566000000E+00 0.  1.
     999900   -1    0    0    0    0 -0.00000000000E+00 -0.00000000000E+00 -0.74505805969E-08  0.93827000000E+00  0.93827000000E+00 0.  1.
     999902    2    1    2    0    0 -0.16430649293E-01  0.22075702532E-02  0.16919350803E-01  0.10202423654E+01  0.10199673426E+01 0.  0.
     999903    2    3    3    0    0  0.62399990381E-01 -0.10642423611E+00  0.35403330568E-01  0.12987345497E+00  0.19845444271E-01 0.  0.
         14    1    1    2    0    0  0.16430649293E-01 -0.22075702532E-02 -0.16919350803E-01  0.23687634627E-01  0.00000000000E+00 0. -1.
     999901    1    3    3    0    0 -0.78830639674E-01  0.10863180637E+00 -0.18483979765E-01  0.89036891040E+00  0.88000000000E+00 0.  1.
        -11    1    4    4    0    0  0.79855189280E-02 -0.80529355786E-02  0.87617452339E-02  0.14340417864E-01  0.51100000000E-03 0. -1.
         11    1    4    4    0    0  0.54414471453E-01 -0.98371300535E-01  0.26641585334E-01  0.11553303710E+00  0.51100000000E-03 0.  1.
</event>
<event>
 8    1  0.1010879E+005  0.1043930E+01  0.7957747E-01            NaN
         13   -1    0    0    0    0  0.00000000000E+00  0.00000000000E+00  0.74505805969E-08  0.10566000000E+00  0.10566000000E+00 0.  1.
     999900   -1    0    0    0    0 -0.00000000000E+00 -0.00000000000E+00 -0.74505805969E-08  0.93827000000E+00  0.93827000000E+00 0.  1.
     999902    2    1    2    0    0  0.52499526257E-02 -0.86759524970E-03 -0.23154511621E-01  0.10201719249E+01  0.10198952447E+01 0.  0.
     999903    2    3    3    0    0  0.32155818109E-01 -0.12264693776E+00 -0.28289568352E-01  0.13136345134E+00  0.19488167955E-01 0.  0.
         14    1    1    2    0    0 -0.52499526257E-02  0.86759524970E-03  0.23154511621E-01  0.23758075101E-01  0.00000000000E+00 0.  1.
     999901    1    3    3    0    0 -0.26905865483E-01  0.12177934251E+00  0.51350567305E-02  0.88880847356E+00  0.88000000000E+00 0.  1.
        -11    1    4    4    0    0  0.11618831627E-01 -0.56093995134E-01 -0.33613246871E-02  0.57385478678E-01  0.51100000000E-03 0. -1.
         11    1    4    4    0    0  0.20536986481E-01 -0.66552942628E-01 -0.24928243665E-01  0.73977972663E-01  0.51100000000E-03 0.  1.
</event>
<event>
 8    1  0.1010879E+005  0.1043930E+01  0.7957747E-01            NaN
         13   -1    0    0    0    0  0.00000000000E+00  0.00000000000E+00  0.74505805969E-08  0.10566000000E+00  0.10566000000E+00 0.  1.
     999900   -1    0    0    0    0 -0.00000000000E+00 -0.00000000000E+00 -0.74505805969E-08  0.93827000000E+00  0.93827000000E+00 0.  1.
     999902    2    1    2    0    0  0.24852241633E-01  0.12140420731E-02 -0.50520451161E-02  0.10185404161E+01  0.10182239185E+01 0.  0.
     999903    2    3    3    0    0  0.68477229080E-01  0.38264725183E-01 -0.10325539176E+00  0.13122999128E+00  0.20157246518E-01 0.  0.
         14    1    1    2    0    0 -0.24852241633E-01 -0.12140420731E-02  0.50520451161E-02  0.25389583931E-01  0.00000000000E+00 0.  1.
     999901    1    3    3    0    0 -0.43624987446E-01 -0.37050683110E-01  0.98203346646E-01  0.88731042479E+00  0.88000000000E+00 0. -1.
        -11    1    4    4    0    0  0.33088563537E-01  0.71301405355E-02 -0.42733511341E-01  0.54517025355E-01  0.51100000000E-03 0.  1.
         11    1    4    4    0    0  0.35388665543E-01  0.31134584648E-01 -0.60521880421E-01  0.76712965924E-01  0.51100000000E-03 0. -1.
</event>
<event>
 8    1  0.1010879E+005  0.1043930E+01  0.7957747E-01            NaN
         13   -1    0    0    0    0  0.00000000000E+00  0.00000000000E+00  0.74505805969E-08  0.10566000000E+00  0.10566000000E+00 0.  1.
     999900   -1    0    0    0    0 -0.00000000000E+00 -0.00000000000E+00 -0.74505805969E-08  0.93827000000E+00  0.93827000000E+00 0. -1.
     999902    2    1    2    0    0 -0.74610342172E-02 -0.16963938566E-01  0.16111406694E-01  0.10193735412E+01  0.10190777187E+01 0.  0.
     999903    2    3    3    0    0 -0.12092369903E+00  0.14843304465E-01 -0.39801880241E-01  0.12976026979E+00  0.20265075092E-01 0.  0.
         14    1    1    2    0    0  0.74610342172E-02  0.16963938566E-01 -0.16111406694E-01  0.24556458803E-01  0.00000000000E+00 0. -1.
     999901    1    3    3    0    0  0.11346266482E+00 -0.31807243030E-01  0.55913286936E-01  0.88961327141E+00  0.88000000000E+00 0. -1.
        -11    1    4    4    0    0 -0.28839229237E-01  0.15173089329E-02 -0.18523695535E-01  0.34313143059E-01  0.51100000000E-03 0. -1.
         11    1    4    4    0    0 -0.92084469798E-01  0.13325995532E-01 -0.21278184707E-01  0.95447126726E-01  0.51100000000E-03 0.  1.
</event>
<event>
 8    1  0.1010879E+005  0.1043930E+01  0.7957747E-01            NaN
         13   -1    0    0    0    0  0.00000000000E+00  0.00000000000E+00  0.74505805969E-08  0.10566000000E+00  0.10566000000E+00 0. -1.
     999900   -1    0    0    0    0 -0.00000000000E+00 -0.00000000000E+00 -0.74505805969E-08  0.93827000000E+00  0.93827000000E+00 0. -1.
     999902    2    1    2    0    0 -0.20792540754E-01  0.19694857757E-02  0.27093212565E-02  0.10228693959E+01  0.10226525568E+01 0.  0.
     999903    2    3    3    0    0  0.41731125549E-01  0.64129472794E-01  0.10640033551E+00  0.13240608989E+00  0.18874986726E-01 0.  0.
         14    1    1    2    0    0  0.20792540754E-01 -0.19694857757E-02 -0.27093212565E-02  0.21060604144E-01  0.00000000000E+00 0. -1.
     999901    1    3    3    0    0 -0.62523666302E-01 -0.62159987019E-01 -0.10369101425E+00  0.89046330597E+00  0.88000000000E+00 0. -1.
        -11    1    4    4    0    0  0.32371433343E-01  0.60617991075E-01  0.90885633958E-01  0.11394257378E+00  0.51100000000E-03 0.  1.
         11    1    4    4    0    0  0.93596922050E-02  0.35114817193E-02  0.15514701549E-01  0.18463516111E-01  0.51100000000E-03 0. -1.
</event>
<event>
 8    1  0.1010879E+005  0.1043930E+01  0.7957747E-01            NaN
         13   -1    0    0    0    0  0.00000000000E+00  0.00000000000E+00  0.74505805969E-08  0.10566000000E+00  0.10566000000E+00 0. -1.
     999900   -1    0    0    0    0 -0.00000000000E+00 -0.00000000000E+00 -0.74505805969E-08  0.93827000000E+00  0.93827000000E+00 0.  1.
     999902    2    1    2    0    0 -0.11861108005E-01 -0.96271158644E-02 -0.18230006460E-01  0.10201455433E+01  0.10198682411E+01 0.  0.
     999903    2    3    3    0    0  0.12467367417E+00  0.23435517239E-01  0.94125222487E-02  0.12857446157E+00  0.18709572286E-01 0.  0.
         14    1    1    2    0    0  0.11861108005E-01  0.96271158644E-02  0.18230006460E-01  0.23784456658E-01  0.00000000000E+00 0. -1.
     999901    1    3    3    0    0 -0.13653478217E+00 -0.33062633103E-01 -0.27642528709E-01  0.89157108177E+00  0.88000000000E+00 0.  1.
        -11    1    4    4    0    0  0.30778668831E-01  0.96354778317E-02 -0.48006607470E-02  0.32610985153E-01  0.51100000000E-03 0. -1.
         11    1    4    4    0    0  0.93895005338E-01  0.13800039407E-01  0.14213182996E-01  0.95963476421E-01  0.51100000000E-03 0.  1.
</event>
<event>
 8    1  0.1010879E+005  0.1043930E+01  0.7957747E-01            NaN
         13   -1    0    0    0    0  0.00000000000E+00  0.00000000000E+00  0.74505805969E-08  0.10566000000E+00  0.10566000000E+00 0. -1.
     999900   -1    0    0    0    0 -0.00000000000E+00 -0.00000000000E+00 -0.74505805969E-08  0.93827000000E+00  0.93827000000E+00 0. -1.
     999902    2    1    2    0    0  0.17652998446E-01 -0.68938718092E-02  0.14855191553E-01  0.10198503293E+01  0.10195660173E+01 0.  0.
     999903    2    3    3    0    0 -0.47610034476E-01  0.91264901114E-01  0.77257373577E-01  0.12980064507E+00  0.16837699645E-01 0.  0.
         14    1    1    2    0    0 -0.17652998446E-01  0.68938718092E-02 -0.14855191553E-01  0.24079670653E-01  0.00000000000E+00 0. -1.
     999901    1    3    3    0    0  0.65263032922E-01 -0.98158772923E-01 -0.62402182024E-01  0.89004968428E+00  0.88000000000E+00 0.  1.
        -11    1    4    4    0    0 -0.14711607443E-01  0.41335833825E-01  0.39813216959E-01  0.59248931781E-01  0.51100000000E-03 0.  1.
         11    1    4    4    0    0 -0.32898427032E-01  0.49929067289E-01  0.37444156618E-01  0.70551713284E-01  0.51100000000E-03 0. -1.
</event>
<event>
 8    1  0.1010879E+005  0.1043930E+01  0.7957747E-01            NaN
         13   -1    0    0    0    0  0.00000000000E+00  0.00000000000E+00  0.74505805969E-08  0.10566000000E+00  0.10566000000E+00 0.  1.
     999900   -1    0    0    0    0 -0.00000000000E+00 -0.00000000000E+00 -0.74505805969E-08  0.93827000000E+00  0.93827000000E+00 0. -1.
     999902    2    1    2    0    0  0.10313536759E-01  0.20777023559E-01  0.83909770483E-02  0.10192629725E+01  0.10189644473E+01 0.  0.
     999903    2    3    3    0    0  0.35769278324E-01  0.12106350415E+00 -0.33111058381E-01  0.13222983227E+00  0.21273764256E-01 0.  0.
         14    1    1    2    0    0 -0.10313536759E-01 -0.20777023559E-01 -0.83909770483E-02  0.24667027471E-01  0.00000000000E+00 0. -1.
     999901    1    3    3    0    0 -0.25455741565E-01 -0.10028648060E+00  0.41502035429E-01  0.88703314026E+00  0.88000000000E+00 0.  1.
        -11    1    4    4    0    0  0.15568717068E-01  0.43514139905E-01 -0.19921841819E-02  0.46261163428E-01  0.51100000000E-03 0.  1.
         11    1    4    4    0    0  0.20200561256E-01  0.77549364249E-01 -0.31118874199E-01  0.85968668845E-01  0.51100000000E-03 0. -1.
</event>
<event>
 8    1  0.1010879E+005  0.1043930E+01  0.7957747E-01            NaN
         13   -1    0    0    0    0  0.00000000000E+00  0.00000000000E+00  0.74505805969E-08  0.10566000000E+00  0.10566000000E+00 0. -1.
     999900   -1    0    0    0    0 -0.00000000000E+00 -0.00000000000E+00 -0.74505805969E-08  0.93827000000E+00  0.93827000000E+00 0. -1.
     999902    2    1    2    0    0  0.27257635598E-02  0.55001961171E-02  0.22548692459E-01  0.10205606723E+01  0.10202930758E+01 0.  0.
     999903    2    3    3    0    0  0.16055830992E-01 -0.18195482842E-01 -0.12406066575E+00  0.12801740737E+00  0.20212434301E-01 0.  0.
         14    1    1    2    0    0 -0.27257635598E-02 -0.55001961171E-02 -0.22548692459E-01  0.23369327674E-01  0.00000000000E+00 0.  1.
     999901    1    3    3    0    0 -0.13330067433E-01  0.23695678959E-01  0.14660935821E+00  0.89254326495E+00  0.88000000000E+00 0.  1.
        -11    1    4    4    0    0  0.19729312362E-01 -0.15081596903E-01 -0.11586843852E+00  0.11850087129E+00  0.51100000000E-03 0.  1.
         11    1    4    4    0    0 -0.36734813695E-02 -0.31138859391E-02 -0.81922272269E-02  0.95165360794E-02  0.51100000000E-03 0. -1.
</event>
<event>
 8    1  0.1010879E+005  0.1043930E+01  0.7957747E-01            NaN
         13   -1    0    0    0    0  0.00000000000E+00  0.00000000000E+00  0.74505805969E-08  0.10566000000E+00  0.10566000000E+00 0.  1.
     999900   -1    0    0    0    0 -0.00000000000E+00 -0.00000000000E+00 -0.74505805969E-08  0.93827000000E+00  0.93827000000E+00 0.  1.
     999902    2    1    2    0    0 -0.59261790203E-02  0.25096856579E-01  0.28215527780E-02  0.10179890484E+01  0.10176584740E+01 0.  0.
     999903    2    3    3    0    0 -0.84679156302E-01 -0.68075576515E-01  0.63739503890E-01  0.12748686961E+00  0.19629924554E-01 0.  0.
         14    1    1    2    0    0  0.59261790203E-02 -0.25096856579E-01 -0.28215527780E-02  0.25940951564E-01  0.00000000000E+00 0. -1.
     999901    1    3    3    0    0  0.78752977282E-01  0.93172433095E-01 -0.60917951112E-01  0.89050217882E+00  0.88000000000E+00 0. -1.
        -11    1    4    4    0    0 -0.46503251041E-01 -0.48610754519E-01  0.43325460996E-01  0.80018213576E-01  0.51100000000E-03 0.  1.
         11    1    4    4    0    0 -0.38175905261E-01 -0.19464821996E-01  0.20414042894E-01  0.47468656038E-01  0.51100000000E-03 0. -1.
</event>
<event>
 8    1  0.1010879E+005  0.1043930E+01  0.7957747E-01            NaN
         13   -1    0    0    0    0  0.00000000000E+00  0.00000000000E+00  0.74505805969E-08  0.10566000000E+00  0.10566000000E+00 0.  1.
     999900   -1    0    0    0    0 -0.00000000000E+00 -0.00000000000E+00 -0.74505805969E-08  0.93827000000E+00  0.93827000000E+00 0. -1.
     999902    2    1    2    0    0  0.20642188513E-01 -0.12434956072E-01  0.54052011345E-03  0.10198256385E+01  0.10195407362E+01 0.  0.
     999903    2    3    3    0    0 -0.24549163246E-01 -0.95507195101E-01  0.83626188721E-01  0.13086754983E+00  0.20216093233E-01 0.  0.
         14    1    1    2    0    0 -0.20642188513E-01  0.12434956072E-01 -0.54052011345E-03  0.24104361454E-01  0.00000000000E+00 0. -1.
     999901    1    3    3    0    0  0.45191351758E-01  0.83072239029E-01 -0.83085668607E-01  0.88895808872E+00  0.88000000000E+00 0. -1.
        -11    1    4    4    0    0 -0.13332070532E-01 -0.70051276138E-01  0.69851505922E-01  0.99821938440E-01  0.51100000000E-03 0.  1.
         11    1    4    4    0    0 -0.11217092714E-01 -0.25455918963E-01  0.13774682798E-01  0.31045611388E-01  0.51100000000E-03 0. -1.
</event>
<event>
 8    1  0.1010879E+005  0.1043930E+01  0.7957747E-01            NaN
         13   -1    0    0    0    0  0.00000000000E+00  0.00000000000E+00  0.74505805969E-08  0.10566000000E+00  0.10566000000E+00 0. -1.
     999900   -1    0    0    0    0 -0.00000000000E+00 -0.00000000000E+00 -0.74505805969E-08  0.93827000000E+00  0.93827000000E+00 0.  1.
     999902    2    1    2    0    0 -0.18931768622E-01 -0.94813525806E-03 -0.14253751413E-01  0.10202133339E+01  0.10199376286E+01 0.  0.
     999903    2    3    3    0    0  0.10878484202E+00  0.45997235093E-01  0.44576172983E-01  0.12781411801E+00  0.19988148426E-01 0.  0.
         14    1    1    2    0    0  0.18931768622E-01  0.94813525806E-03  0.14253751413E-01  0.23716666144E-01  0.00000000000E+00 0.  1.
     999901    1    3    3    0    0 -0.12771661064E+00 -0.46945370351E-01 -0.58829924397E-01  0.89239921584E+00  0.88000000000E+00 0.  1.
        -11    1    4    4    0    0  0.46040802761E-01  0.20562261692E-01  0.86347565345E-02  0.51160358346E-01  0.51100000000E-03 0.  1.
         11    1    4    4    0    0  0.62744039254E-01  0.25434973402E-01  0.35941416449E-01  0.76653759668E-01  0.51100000000E-03 0. -1.
</event>
<event>
 8    1  0.1010879E+005  0.1043930E+01  0.7957747E-01            NaN
         13   -1    0    0    0    0  0.00000000000E+00  0.00000000000E+00  0.74505805969E-08  0.10566000000E+00  0.10566000000E+00 0.  1.
     999900   -1    0    0    0    0 -0.00000000000E+00 -0.00000000000E+00 -0.74505805969E-08  0.93827000000E+00  0.93827000000E+00 0.  1.
     999902    2    1    2    0    0 -0.50047582114E-02  0.23770864631E-01  0.11538701304E-02  0.10196106039E+01  0.10193205338E+01 0.  0.
     999903    2    3    3    0    0  0.44376591281E-01  0.10567621089E+00 -0.62875097912E-01  0.13211597735E+00  0.19094767137E-01 0.  0.
         14    1    1    2    0    0  0.50047582114E-02 -0.23770864631E-01 -0.11538701304E-02  0.24319396093E-01  0.00000000000E+00 0. -1.
     999901    1    3    3    0    0 -0.49381349492E-01 -0.81905346256E-01  0.64028968043E-01  0.88749462656E+00  0.88000000000E+00 0. -1.
        -11    1    4    4    0    0  0.44374946868E-01  0.88825274392E-01 -0.54991994110E-01  0.11350526780E+00  0.51100000000E-03 0.  1.
         11    1    4    4    0    0  0.16444132784E-05  0.16850936495E-01 -0.78831038018E-02  0.18610709551E-01  0.51100000000E-03 0. -1.
</event>
<event>
 8    1  0.1010879E+005  0.1043930E+01  0.7957747E-01            NaN
         13   -1    0    0    0    0  0.00000000000E+00  0.00000000000E+00  0.74505805969E-08  0.10566000000E+00  0.10566000000E+00 0.  1.
     999900   -1    0    0    0    0 -0.00000000000E+00 -0.00000000000E+00 -0.74505805969E-08  0.93827000000E+00  0.93827000000E+00 0. -1.
     999902    2    1    2    0    0 -0.21004199775E-01 -0.26363758878E-02  0.12670735560E-01  0.10192586720E+01  0.10189600414E+01 0.  0.
     999903    2    3    3    0    0 -0.56605984846E-01 -0.27613689297E-01  0.11468144234E+00  0.13229895612E+00  0.19606815566E-01 0.  0.
         14    1    1    2    0    0  0.21004199775E-01  0.26363758878E-02 -0.12670735560E-01  0.24671328007E-01  0.00000000000E+00 0.  1.
     999901    1    3    3    0    0  0.35601785071E-01  0.24977313409E-01 -0.10201070678E+00  0.88695971587E+00  0.88000000000E+00 0. -1.
        -11    1    4    4    0    0 -0.49696051539E-01 -0.25166583103E-01  0.84315141583E-01  0.10105621537E+00  0.51100000000E-03 0. -1.
         11    1    4    4    0    0 -0.69099333061E-02 -0.24471061941E-02  0.30366300754E-01  0.31242740749E-01  0.51100000000E-03 0.  1.
</event>
<event>
 8    1  0.1010879E+005  0.1043930E+01  0.7957747E-01            NaN
         13   -1    0    0    0    0  0.00000000000E+00  0.00000000000E+00  0.74505805969E-08  0.10566000000E+00  0.10566000000E+00 0. -1.
     999900   -1    0    0    0    0 -0.00000000000E+00 -0.00000000000E+00 -0.74505805969E-08  0.93827000000E+00  0.93827000000E+00 0.  1.
     999902    2    1    2    0    0 -0.17796908464E-01  0.14310083308E-01 -0.45794514809E-02  0.10206388040E+01  0.10203730144E+01 0.  0.
     999903    2    3    3    0    0 -0.41988310161E-01 -0.40061655362E-01 -0.11635889323E+00  0.13157404062E+00  0.20109244413E-01 0.  0.
         14    1    1    2    0    0  0.17796908464E-01 -0.14310083308E-01  0.45794514809E-02  0.23291195998E-01  0.00000000000E+00 0. -1.
     999901    1    3    3    0    0  0.24191401697E-01  0.54371738670E-01  0.11177944175E+00  0.88906476338E+00  0.88000000000E+00 0. -1.
        -11    1    4    4    0    0 -0.40769327722E-01 -0.38751577490E-01 -0.97029637385E-01  0.11215540332E+00  0.51100000000E-03 0. -1.
         11    1    4    4    0    0 -0.12189824391E-02 -0.13100778718E-02 -0.19329255849E-01  0.19418637308E-01  0.51100000000E-03 0.  1.
</event>
<event>
 8    1  0.1010879E+005  0.1043930E+01  0.7957747E-01            NaN
         13   -1    0    0    0    0  0.00000000000E+00  0.00000000000E+00  0.74505805969E-08  0.10566000000E+00  0.10566000000E+00 0.  1.
     999900   -1    0    0    0    0 -0.00000000000E+00 -0.00000000000E+00 -0.74505805969E-08  0.93827000000E+00  0.93827000000E+00 0.  1.
     999902    2    1    2    0    0  0.22318611758E-01 -0.77312215253E-02 -0.30139963185E-02  0.10201187340E+01  0.10198407988E+01 0.  0.
     999903    2    3    3    0    0  0.10034318007E+00  0.83300392417E-01  0.27213748681E-04  0.13198370089E+00  0.20297472618E-01 0.  0.
         14    1    1    2    0    0 -0.22318611758E-01  0.77312215253E-02  0.30139963185E-02  0.23811266050E-01  0.00000000000E+00 0.  1.
     999901    1    3    3    0    0 -0.78024568316E-01 -0.91031613942E-01 -0.30412100672E-02  0.88813503306E+00  0.88000000000E+00 0. -1.
        -11    1    4    4    0    0  0.34214626440E-01  0.21135015875E-01  0.75066686207E-02  0.40913821054E-01  0.51100000000E-03 0.  1.
         11    1    4    4    0    0  0.66128553634E-01  0.62165376542E-01 -0.74794548720E-02  0.91069879831E-01  0.51100000000E-03 0. -1.
</event>
<event>
 8    1  0.1010879E+005  0.1043930E+01  0.7957747E-01            NaN
         13   -1    0    0    0    0  0.00000000000E+00  0.00000000000E+00  0.74505805969E-08  0.10566000000E+00  0.10566000000E+00 0. -1.
     999900   -1    0    0    0    0 -0.00000000000E+00 -0.00000000000E+00 -0.74505805969E-08  0.93827000000E+00  0.93827000000E+00 0.  1.
     999902    2    1    2    0    0  0.20166013826E-01  0.50090946245E-02  0.11513786973E-01  0.10201744442E+01  0.10198978234E+01 0.  0.
     999903    2    3    3    0    0  0.10217133357E+00  0.30414029960E-01  0.77745591215E-01  0.13351953097E+00  0.20471775072E-01 0.  0.
         14    1    1    2    0    0 -0.20166013826E-01 -0.50090946245E-02 -0.11513786973E-01  0.23755555836E-01  0.00000000000E+00 0. -1.
     999901    1    3    3    0    0 -0.82005319742E-01 -0.25404935335E-01 -0.66231804242E-01  0.88665491320E+00  0.88000000000E+00 0.  1.
        -11    1    4    4    0    0  0.24162672974E-01  0.15942447361E-02  0.97977548325E-02  0.26127255927E-01  0.51100000000E-03 0. -1.
         11    1    4    4    0    0  0.78008660595E-01  0.28819785223E-01  0.67947836383E-01  0.10739227504E+00  0.51100000000E-03 0.  1.
</event>
<event>
 8    1  0.1038742E+005  0.1043930E+01  0.7957747E-01            NaN
         13   -1    0    0    0    0  0.00000000000E+00  0.00000000000E+00  0.74505805969E-08  0.10566000000E+00  0.10566000000E+00 0.  1.
     999900   -1    0    0    0    0 -0.00000000000E+00 -0.00000000000E+00 -0.74505805969E-08  0.93827000000E+00  0.93827000000E+00 0. -1.
     999902    2    1    2    0    0 -0.13014811183E-01  0.18737828186E-01  0.52468002132E-02  0.10205201639E+01  0.10202516280E+01 0.  0.
     999903    2    3    3    0    0 -0.12959113639E+00  0.11865430282E-01 -0.15439775967E-01  0.13256453216E+00  0.20007934347E-01 0.  0.
         14    1    1    2    0    0  0.13014811183E-01 -0.18737828186E-01 -0.52468002132E-02  0.23409836132E-01  0.00000000000E+00 0.  1.
     999901    1    3    3    0    0  0.11657632521E+00  0.68723979046E-02  0.20686576180E-01  0.88795563171E+00  0.88000000000E+00 0. -1.
        -11    1    4    4    0    0 -0.58312960917E-01  0.46341667644E-03  0.18130829539E-02  0.58345218800E-01  0.51100000000E-03 0.  1.
         11    1    4    4    0    0 -0.71278175475E-01  0.11402013605E-01 -0.17252858921E-01  0.74219313357E-01  0.51100000000E-03 0. -1.
</event>
<event>
 8    1  0.1010879E+005  0.1043930E+01  0.7957747E-01            NaN
         13   -1    0    0    0    0  0.00000000000E+00  0.00000000000E+00  0.74505805969E-08  0.10566000000E+00  0.10566000000E+00 0. -1.
     999900   -1    0    0    0    0 -0.00000000000E+00 -0.00000000000E+00 -0.74505805969E-08  0.93827000000E+00  0.93827000000E+00 0.  1.
     999902    2    1    2    0    0 -0.11764261277E-01  0.16415935807E-01 -0.11934896317E-01  0.10204710456E+01  0.10202013685E+01 0.  0.
     999903    2    3    3    0    0  0.48744669723E-01  0.11119413262E+00 -0.49599269369E-01  0.13251674366E+00  0.18984780043E-01 0.  0.
         14    1    1    2    0    0  0.11764261277E-01 -0.16415935807E-01  0.11934896317E-01  0.23458954408E-01  0.00000000000E+00 0.  1.
     999901    1    3    3    0    0 -0.60508931001E-01 -0.94778196811E-01  0.37664373052E-01  0.88795430193E+00  0.88000000000E+00 0. -1.
        -11    1    4    4    0    0  0.16058822407E-01  0.40412939705E-01 -0.27594979592E-01  0.51505684078E-01  0.51100000000E-03 0. -1.
         11    1    4    4    0    0  0.32685847316E-01  0.70781192914E-01 -0.22004289776E-01  0.81011059582E-01  0.51100000000E-03 0.  1.
</event>
<event>
 8    1  0.1010879E+005  0.1043930E+01  0.7957747E-01            NaN
         13   -1    0    0    0    0  0.00000000000E+00  0.00000000000E+00  0.74505805969E-08  0.10566000000E+00  0.10566000000E+00 0.  1.
     999900   -1    0    0    0    0 -0.00000000000E+00 -0.00000000000E+00 -0.74505805969E-08  0.93827000000E+00  0.93827000000E+00 0. -1.
     999902    2    1    2    0    0  0.29271809700E-02 -0.17602433900E-01  0.16971661512E-01  0.10193037668E+01  0.10190062402E+01 0.  0.
     999903    2    3    3    0    0 -0.75226116846E-01 -0.10255600714E+00  0.27479416767E-01  0.13170280888E+00  0.20342277761E-01 0.  0.
         14    1    1    2    0    0 -0.29271809700E-02  0.17602433900E-01 -0.16971661512E-01  0.24626233210E-01  0.00000000000E+00 0.  1.
     999901    1    3    3    0    0  0.78153297816E-01  0.84953573239E-01 -0.10507755255E-01  0.88760095791E+00  0.88000000000E+00 0. -1.
        -11    1    4    4    0    0 -0.61537654710E-01 -0.81919397221E-01  0.13735072404E-01  0.10337593493E+00  0.51100000000E-03 0.  1.
         11    1    4    4    0    0 -0.13688462136E-01 -0.20636609917E-01  0.13744344362E-01  0.28326873945E-01  0.51100000000E-03 0. -1.
</event>
<event>
 8    1  0.1010879E+005  0.1043930E+01  0.7957747E-01            NaN
         13   -1    0    0    0    0  0.00000000000E+00  0.00000000000E+00  0.74505805969E-08  0.10566000000E+00  0.10566000000E+00 0. -1.
     999900   -1    0    0    0    0 -0.00000000000E+00 -0.00000000000E+00 -0.74505805969E-08  0.93827000000E+00  0.93827000000E+00 0.  1.
     999902    2    1    2    0    0  0.85216467163E-02 -0.21672232188E-01 -0.14701576845E-02  0.10205962160E+01  0.10203294422E+01 0.  0.
     999903    2    3    3    0    0  0.34255923578E-01 -0.12728655085E+00 -0.11820216736E-01  0.13384723180E+00  0.20000740209E-01 0.  0.
         14    1    1    2    0    0 -0.85216467163E-02  0.21672232188E-01  0.14701576845E-02  0.23333783971E-01  0.00000000000E+00 0.  1.
     999901    1    3    3    0    0 -0.25734276862E-01  0.10561431866E+00  0.10350059051E-01  0.88674898423E+00  0.88000000000E+00 0. -1.
        -11    1    4    4    0    0  0.14008012580E-01 -0.22090075555E-01 -0.11291311173E-02  0.26186483394E-01  0.51100000000E-03 0. -1.
         11    1    4    4    0    0  0.20247910998E-01 -0.10519647530E+00 -0.10691085618E-01  0.10766074840E+00  0.51100000000E-03 0.  1.
</event>
<event>
 8    1  0.1010879E+005  0.1043930E+01  0.7957747E-01            NaN
         13   -1    0    0    0    0  0.00000000000E+00  0.00000000000E+00  0.74505805969E-08  0.10566000000E+00  0.10566000000E+00 0.  1.
     999900   -1    0    0    0    0 -0.00000000000E+00 -0.00000000000E+00 -0.74505805969E-08  0.93827000000E+00  0.93827000000E+00 0. -1.
     999902    2    1    2    0    0 -0.16125962466E-01  0.15723821766E-03  0.17375935044E-01  0.10202235767E+01  0.10199481123E+01 0.  0.
     999903    2    3    3    0    0  0.65709351883E-02 -0.12553982883E+00  0.30597087826E-01  0.13090378000E+00  0.19904572971E-01 0.  0.
         14    1    1    2    0    0  0.16125962466E-01 -0.15723821766E-03 -0.17375935044E-01  0.23706423349E-01  0.00000000000E+00 0. -1.
     999901    1    3    3    0    0 -0.22696897655E-01  0.12569706704E+00 -0.13221152782E-01  0.88931979665E+00  0.88000000000E+00 0. -1.
        -11    1    4    4    0    0 -0.97029827854E-03 -0.30339207486E-01  0.15927509008E-01  0.34283460354E-01  0.51100000000E-03 0.  1.
         11    1    4    4    0    0  0.75412334668E-02 -0.95200621340E-01  0.14669578818E-01  0.96620319651E-01  0.51100000000E-03 0. -1.
</event>
<event>
 8    1  0.1010879E+005  0.1043930E+01  0.7957747E-01            NaN
         13   -1    0    0    0    0  0.00000000000E+00  0.00000000000E+00  0.74505805969E-08  0.10566000000E+00  0.10566000000E+00 0. -1.
     999900   -1    0    0    0    0 -0.00000000000E+00 -0.00000000000E+00 -0.74505805969E-08  0.93827000000E+00  0.93827000000E+00 0.  1.
     999902    2    1    2    0    0 -0.10718938150E-01  0.26204426237E-02  0.18968410748E-01  0.10219854571E+01  0.10217498283E+01 0.  0.
     999903    2    3    3    0    0 -0.51081789612E-01 -0.31335884192E-01 -0.11404764921E+00  0.13042757113E+00  0.20327276119E-01 0.  0.
         14    1    1    2    0    0  0.10718938150E-01 -0.26204426237E-02 -0.18968410748E-01  0.21944542851E-01  0.00000000000E+00 0.  1.
     999901    1    3    3    0    0  0.40362851461E-01  0.33956326816E-01  0.13301605996E+00  0.89155788601E+00  0.88000000000E+00 0. -1.
        -11    1    4    4    0    0 -0.19450367064E-01 -0.17464604193E-01 -0.68077955894E-01  0.72925978761E-01  0.51100000000E-03 0.  1.
         11    1    4    4    0    0 -0.31631422548E-01 -0.13871279999E-01 -0.45969693312E-01  0.57501592373E-01  0.51100000000E-03 0. -1.
</event>
<event>
 8    1  0.1010879E+005  0.1043930E+01  0.7957747E-01            NaN
         13   -1    0    0    0    0  0.00000000000E+00  0.00000000000E+00  0.74505805969E-08  0.10566000000E+00  0.10566000000E+00 0. -1.
     999900   -1    0    0    0    0 -0.00000000000E+00 -0.00000000000E+00 -0.74505805969E-08  0.93827000000E+00  0.93827000000E+00 0.  1.
     999902    2    1    2    0    0 -0.15755359028E-01  0.48074349966E-02 -0.17008150774E-01  0.10202525854E+01  0.10199778027E+01 0.  0.
     999903    2    3    3    0    0 -0.89642100892E-01  0.93055666695E-01 -0.22923359773E-01  0.13273808371E+00  0.19971356646E-01 0.  0.
         14    1    1    2    0    0  0.15755359028E-01 -0.48074349966E-02  0.17008150774E-01  0.23677414599E-01  0.00000000000E+00 0. -1.
     999901    1    3    3    0    0  0.73886741864E-01 -0.88248231699E-01  0.59152089986E-02  0.88751450169E+00  0.88000000000E+00 0.  1.
        -11    1    4    4    0    0 -0.26104910359E-01  0.28647534856E-01 -0.16212726879E-01  0.42015011984E-01  0.51100000000E-03 0.  1.
         11    1    4    4    0    0 -0.63537190533E-01  0.64408131839E-01 -0.67106328940E-02  0.90723071722E-01  0.51100000000E-03 0. -1.
</event>
<event>
 8    1  0.1010879E+005  0.1043930E+01  0.7957747E-01            NaN
         13   -1    0    0    0    0  0.00000000000E+00  0.00000000000E+00  0.74505805969E-08  0.10566000000E+00  0.10566000000E+00 0.  1.
     999900   -1    0    0    0    0 -0.00000000000E+00 -0.00000000000E+00 -0.74505805969E-08  0.93827000000E+00  0.93827000000E+00 0. -1.
     999902    2    1    2    0    0 -0.11288429035E-01  0.17071785269E-01 -0.10731211506E-01  0.10208208377E+01  0.10205592336E+01 0.  0.
     999903    2    3    3    0    0 -0.90049311102E-02 -0.10122609372E+00 -0.79086814317E-01  0.13027488662E+00  0.19723363029E-01 0.  0.
         14    1    1    2    0    0  0.11288429035E-01 -0.17071785269E-01  0.10731211506E-01  0.23109162312E-01  0.00000000000E+00 0.  1.
     999901    1    3    3    0    0 -0.22834979250E-02  0.11829787899E+00  0.68355602811E-01  0.89054595107E+00  0.88000000000E+00 0.  1.
        -11    1    4    4    0    0 -0.23368673456E-02 -0.39027533703E-01 -0.42730893132E-01  0.57920632634E-01  0.51100000000E-03 0. -1.
         11    1    4    4    0    0 -0.66680637647E-02 -0.62198560020E-01 -0.36355921185E-01  0.72354253981E-01  0.51100000000E-03 0.  1.
</event>
<event>
 8    1  0.1010879E+005  0.1043930E+01  0.7957747E-01            NaN
         13   -1    0    0    0    0  0.00000000000E+00  0.00000000000E+00  0.74505805969E-08  0.10566000000E+00  0.10566000000E+00 0.  1.
     999900   -1    0    0    0    0 -0.00000000000E+00 -0.00000000000E+00 -0.74505805969E-08  0.93827000000E+00  0.93827000000E+00 0.  1.
     999902    2    1    2    0    0  0.60779694950E-02 -0.13471235289E-01 -0.18323803447E-01  0.10203890216E+01  0.10201174333E+01 0.  0.
     999903    2    3    3    0    0  0.23579640666E-01 -0.63810591993E-01  0.10865598778E+00  0.12967906500E+00  0.19563872710E-01 0.  0.
         14    1    1    2    0    0 -0.60779694950E-02  0.13471235289E-01  0.18323803447E-01  0.23540978445E-01  0.00000000000E+00 0.  1.
     999901    1    3    3    0    0 -0.17501671171E-01  0.50339356704E-01 -0.12697979122E+00  0.89070995655E+00  0.88000000000E+00 0. -1.
        -11    1    4    4    0    0  0.16639987308E-01 -0.18761165457E-01  0.35022938943E-01  0.43078276197E-01  0.51100000000E-03 0.  1.
         11    1    4    4    0    0  0.69396533585E-02 -0.45049426536E-01  0.73633048832E-01  0.86600788803E-01  0.51100000000E-03 0. -1.
</event>
<event>
 8    1  0.1010879E+005  0.1043930E+01  0.7957747E-01            NaN
         13   -1    0    0    0    0  0.00000000000E+00  0.00000000000E+00  0.74505805969E-08  0.10566000000E+00  0.10566000000E+00 0. -1.
     999900   -1    0    0    0    0 -0.00000000000E+00 -0.00000000000E+00 -0.74505805969E-08  0.93827000000E+00  0.93827000000E+00 0.  1.
     999902    2    1    2    0    0 -0.48300022396E-02  0.25681580604E-03 -0.23729840334E-01  0.10197122338E+01  0.10194246120E+01 0.  0.
     999903    2    3    3    0    0 -0.10960303951E-01  0.94489071492E-01 -0.89525402425E-01  0.13221780872E+00  0.20455766156E-01 0.  0.
         14    1    1    2    0    0  0.48300022396E-02 -0.25681580604E-03  0.23729840334E-01  0.24217766171E-01  0.00000000000E+00 0. -1.
     999901    1    3    3    0    0  0.61303017117E-02 -0.94232255686E-01  0.65795562090E-01  0.88749442511E+00  0.88000000000E+00 0. -1.
        -11    1    4    4    0    0  0.53255732539E-02  0.21847832918E-01 -0.16160779239E-01  0.27696957239E-01  0.51100000000E-03 0.  1.
         11    1    4    4    0    0 -0.16285877205E-01  0.72641238575E-01 -0.73364623185E-01  0.10452085148E+00  0.51100000000E-03 0. -1.
</event>
<event>
 8    1  0.1010879E+005  0.1043930E+01  0.7957747E-01            NaN
         13   -1    0    0    0    0  0.00000000000E+00  0.00000000000E+00  0.74505805969E-08  0.10566000000E+00  0.10566000000E+00 0. -1.
     999900   -1    0    0    0    0 -0.00000000000E+00 -0.00000000000E+00 -0.74505805969E-08  0.93827000000E+00  0.93827000000E+00 0.  1.
     999902    2    1    2    0    0 -0.43548677704E-02 -0.12402075795E-01  0.20169468096E-01  0.10198554533E+01  0.10195712637E+01 0.  0.
     999903    2    3    3    0    0 -0.10732568482E+00  0.62996138421E-01  0.32570106768E-01  0.13056266924E+00  0.22326725389E-01 0.  0.
         14    1    1    2    0    0  0.43548677704E-02  0.12402075795E-01 -0.20169468096E-01  0.24074546737E-01  0.00000000000E+00 0.  1.
     999901    1    3    3    0    0  0.10297081705E+00 -0.75398214216E-01 -0.12400638672E-01  0.88929278402E+00  0.88000000000E+00 0. -1.
        -11    1    4    4    0    0 -0.36990546762E-01  0.18819950431E-01  0.44811748620E-03  0.41508469187E-01  0.51100000000E-03 0. -1.
         11    1    4    4    0    0 -0.70335138060E-01  0.44176187989E-01  0.32121989282E-01  0.89054200056E-01  0.51100000000E-03 0.  1.
</event>
<event>
 8    1  0.1010879E+005  0.1043930E+01  0.7957747E-01            NaN
         13   -1    0    0    0    0  0.00000000000E+00  0.00000000000E+00  0.74505805969E-08  0.10566000000E+00  0.10566000000E+00 0.  1.
     999900   -1    0    0    0    0 -0.00000000000E+00 -0.00000000000E+00 -0.74505805969E-08  0.93827000000E+00  0.93827000000E+00 0. -1.
     999902    2    1    2    0    0 -0.18217776796E-01  0.55399744066E-02  0.13532082770E-01  0.10205698636E+01  0.10203024799E+01 0.  0.
     999903    2    3    3    0    0  0.11367229303E+00  0.54639291662E-01  0.19329090123E-01  0.12936879833E+00  0.21350172394E-01 0.  0.
         14    1    1    2    0    0  0.18217776796E-01 -0.55399744066E-02 -0.13532082770E-01  0.23360136385E-01  0.00000000000E+00 0.  1.
     999901    1    3    3    0    0 -0.13189006982E+00 -0.49099317256E-01 -0.57970073528E-02  0.89120106529E+00  0.88000000000E+00 0. -1.
        -11    1    4    4    0    0  0.76557421312E-01  0.30753933679E-01  0.38535757858E-02  0.82595123113E-01  0.51100000000E-03 0.  1.
         11    1    4    4    0    0  0.37114871713E-01  0.23885357983E-01  0.15475514338E-01  0.46773675216E-01  0.51100000000E-03 0. -1.
</event>
<event>
 8    1  0.1010879E+005  0.1043930E+01  0.7957747E-01            NaN
         13   -1    0    0    0    0  0.00000000000E+00  0.00000000000E+00  0.74505805969E-08  0.10566000000E+00  0.10566000000E+00 0. -1.
     999900   -1    0    0    0    0 -0.00000000000E+00 -0.00000000000E+00 -0.74505805969E-08  0.93827000000E+00  0.93827000000E+00 0. -1.
     999902    2    1    2    0    0 -0.45068256976E-02 -0.15588607640E-02 -0.23764956828E-01  0.10196912975E+01  0.10194031722E+01 0.  0.
     999903    2    3    3    0    0  0.12592005848E+00  0.41733186189E-02  0.19372490268E-01  0.12901466185E+00  0.19905071658E-01 0.  0.
         14    1    1    2    0    0  0.45068256976E-02  0.15588607640E-02  0.23764956828E-01  0.24238702478E-01  0.00000000000E+00 0. -1.
     999901    1    3    3    0    0 -0.13042688417E+00 -0.57321793829E-02 -0.43137447096E-01  0.89067663568E+00  0.88000000000E+00 0. -1.
        -11    1    4    4    0    0  0.45438615874E-01 -0.77373755968E-02  0.94247835731E-02  0.47049149409E-01  0.51100000000E-03 0. -1.
         11    1    4    4    0    0  0.80481442601E-01  0.11910694216E-01  0.99477066944E-02  0.81965512439E-01  0.51100000000E-03 0.  1.
</event>
<event>
 8    1  0.1010879E+005  0.1043930E+01  0.7957747E-01            NaN
         13   -1    0    0    0    0  0.00000000000E+00  0.00000000000E+00  0.74505805969E-08  0.10566000000E+00  0.10566000000E+00 0.  1.
     999900   -1    0    0    0    0 -0.00000000000E+00 -0.00000000000E+00 -0.74505805969E-08  0.93827000000E+00  0.93827000000E+00 0. -1.
     999902    2    1    2    0    0  0.49299810711E-02 -0.19792016077E-01 -0.76335258994E-02  0.10221515857E+01  0.10219195490E+01 0.  0.
     999903    2    3    3    0    0  0.63165900455E-01  0.81392109100E-01 -0.79383927951E-01  0.13154630289E+00  0.19698106075E-01 0.  0.
         14    1    1    2    0    0 -0.49299810711E-02  0.19792016077E-01  0.76335258994E-02  0.21778414345E-01  0.00000000000E+00 0.  1.
     999901    1    3    3    0    0 -0.58235919384E-01 -0.10118412518E+00  0.71750402052E-01  0.89060528276E+00  0.88000000000E+00 0.  1.
        -11    1    4    4    0    0  0.10204386517E-01  0.45364137580E-02 -0.12175327082E-01  0.16529012812E-01  0.51100000000E-03 0. -1.
         11    1    4    4    0    0  0.52961513939E-01  0.76855695342E-01 -0.67208600869E-01  0.11501729008E+00  0.51100000000E-03 0.  1.
</event>
<event>
 8    1  0.1010879E+005  0.1043930E+01  0.7957747E-01            NaN
         13   -1    0    0    0    0  0.00000000000E+00  0.00000000000E+00  0.74505805969E-08  0.10566000000E+00  0.10566000000E+00 0.  1.
     999900   -1    0    0    0    0 -0.00000000000E+00 -0.00000000000E+00 -0.74505805969E-08  0.93827000000E+00  0.93827000000E+00 0.  1.
     999902    2    1    2    0    0 -0.21955611461E-02 -0.23737010727E-01 -0.24912596468E-02  0.10199618432E+01  0.10196801896E+01 0.  0.
     999903    2    3    3    0    0  0.58123299411E-01  0.52713309655E-01 -0.10123404431E+00  0.12910093711E+00  0.16177431435E-01 0.  0.
         14    1    1    2    0    0  0.21955611461E-02  0.23737010727E-01  0.24912596468E-02  0.23968156826E-01  0.00000000000E+00 0. -1.
     999901    1    3    3    0    0 -0.60318860557E-01 -0.76450320381E-01  0.98742784659E-01  0.89086090606E+00  0.88000000000E+00 0. -1.
        -11    1    4    4    0    0  0.36661845355E-01  0.40210875059E-01 -0.60353211257E-01  0.81263624137E-01  0.51100000000E-03 0.  1.
         11    1    4    4    0    0  0.21461454057E-01  0.12502434595E-01 -0.40880833049E-01  0.47837312977E-01  0.51100000000E-03 0. -1.
</event>
<event>
 8    1  0.1010879E+005  0.1043930E+01  0.7957747E-01            NaN
         13   -1    0    0    0    0  0.00000000000E+00  0.00000000000E+00  0.74505805969E-08  0.10566000000E+00  0.10566000000E+00 0.  1.
     999900   -1    0    0    0    0 -0.00000000000E+00 -0.00000000000E+00 -0.74505805969E-08  0.93827000000E+00  0.93827000000E+00 0. -1.
     999902    2    1    2    0    0  0.19848166173E-01  0.15270867323E-02  0.12529352453E-01  0.10204083851E+01  0.10201372486E+01 0.  0.
     999903    2    3    3    0    0 -0.65371328456E-01  0.10686615924E+00 -0.24868465356E-01  0.12925335974E+00  0.19854567747E-01 0.  0.
         14    1    1    2    0    0 -0.19848166173E-01 -0.15270867323E-02 -0.12529352453E-01  0.23521614894E-01  0.00000000000E+00 0. -1.
     999901    1    3    3    0    0  0.85219494629E-01 -0.10533907250E+00  0.37397817809E-01  0.89115502537E+00  0.88000000000E+00 0.  1.
        -11    1    4    4    0    0 -0.31516506747E-01  0.70073521965E-01 -0.15295713332E-01  0.78344167909E-01  0.51100000000E-03 0. -1.
         11    1    4    4    0    0 -0.33854821709E-01  0.36792637272E-01 -0.95727520239E-02  0.50909191830E-01  0.51100000000E-03 0.  1.
</event>
<event>
 8    1  0.1010879E+005  0.1043930E+01  0.7957747E-01            NaN
         13   -1    0    0    0    0  0.00000000000E+00  0.00000000000E+00  0.74505805969E-08  0.10566000000E+00  0.10566000000E+00 0. -1.
     999900   -1    0    0    0    0 -0.00000000000E+00 -0.00000000000E+00 -0.74505805969E-08  0.93827000000E+00  0.93827000000E+00 0. -1.
     999902    2    1    2    0    0  0.23523350715E-01 -0.13616703732E-03  0.63517498319E-03  0.10203976814E+01  0.10201262952E+01 0.  0.
     999903    2    3    3    0    0  0.88581817844E-01 -0.89709197681E-01  0.36344921022E-01  0.13274283976E+00  0.20130316011E-01 0.  0.
         14    1    1    2    0    0 -0.23523350715E-01  0.13616703732E-03 -0.63517498319E-03  0.23532318577E-01  0.00000000000E+00 0. -1.
     999901    1    3    3    0    0 -0.65058467129E-01  0.89573030644E-01 -0.35709746039E-01  0.88765484166E+00  0.88000000000E+00 0. -1.
        -11    1    4    4    0    0  0.82251002260E-01 -0.84260677285E-01  0.28233835494E-01  0.12108880913E+00  0.51100000000E-03 0. -1.
         11    1    4    4    0    0  0.63308155842E-02 -0.54485203962E-02  0.81110855287E-02  0.11654030630E-01  0.51100000000E-03 0.  1.
</event>
<event>
 8    1  0.1010879E+005  0.1043930E+01  0.7957747E-01            NaN
         13   -1    0    0    0    0  0.00000000000E+00  0.00000000000E+00  0.74505805969E-08  0.10566000000E+00  0.10566000000E+00 0. -1.
     999900   -1    0    0    0    0 -0.00000000000E+00 -0.00000000000E+00 -0.74505805969E-08  0.93827000000E+00  0.93827000000E+00 0. -1.
     999902    2    1    2    0    0  0.23383488609E-02 -0.19975875684E-01 -0.12474778477E-01  0.10202630698E+01  0.10199885333E+01 0.  0.
     999903    2    3    3    0    0  0.90479602896E-02 -0.95823356821E-01 -0.90267327966E-01  0.13355593667E+00  0.20615926434E-01 0.  0.
         14    1    1    2    0    0 -0.23383488609E-02  0.19975875684E-01  0.12474778477E-01  0.23666930152E-01  0.00000000000E+00 0. -1.
     999901    1    3    3    0    0 -0.67096114287E-02  0.75847481137E-01  0.77792549489E-01  0.88670713318E+00  0.88000000000E+00 0.  1.
        -11    1    4    4    0    0  0.10867629615E-01 -0.87585117249E-01 -0.73806175049E-01  0.11505160031E+00  0.51100000000E-03 0.  1.
         11    1    4    4    0    0 -0.18196693258E-02 -0.82382395720E-02 -0.16461152917E-01  0.18504336358E-01  0.51100000000E-03 0. -1.
</event>
<event>
 8    1  0.1010879E+005  0.1043930E+01  0.7957747E-01            NaN
         13   -1    0    0    0    0  0.00000000000E+00  0.00000000000E+00  0.74505805969E-08  0.10566000000E+00  0.10566000000E+00 0. -1.
     999900   -1    0    0    0    0 -0.00000000000E+00 -0.00000000000E+00 -0.74505805969E-08  0.93827000000E+00  0.93827000000E+00 0. -1.
     999902    2    1    2    0    0  0.91668475511E-02 -0.77638253216E-02  0.22939899521E-01  0.10180350764E+01  0.10177056892E+01 0.  0.
     999903    2    3    3    0    0 -0.31143050049E-01 -0.11365250519E+00  0.51827970330E-01  0.13030098278E+00  0.20135195608E-01 0.  0.
         14    1    1    2    0    0 -0.91668475511E-02  0.77638253216E-02 -0.22939899521E-01  0.25894923589E-01  0.00000000000E+00 0.  1.
     999901    1    3    3    0    0  0.40309897601E-01  0.10588867986E+00 -0.28888070809E-01  0.88773409364E+00  0.88000000000E+00 0.  1.
        -11    1    4    4    0    0 -0.62764710115E-02 -0.30325372140E-01  0.23380389252E-01  0.38806262463E-01  0.51100000000E-03 0.  1.
         11    1    4    4    0    0 -0.24866579038E-01 -0.83327133046E-01  0.28447581077E-01  0.91494720312E-01  0.51100000000E-03 0. -1.
</event>
<event>
 8    1  0.1010879E+005  0.1043930E+01  0.7957747E-01            NaN
         13   -1    0    0    0    0  0.00000000000E+00  0.00000000000E+00  0.74505805969E-08  0.10566000000E+00  0.10566000000E+00 0. -1.
     999900   -1    0    0    0    0 -0.00000000000E+00 -0.00000000000E+00 -0.74505805969E-08  0.93827000000E+00  0.93827000000E+00 0. -1.
     999902    2    1    2    0    0 -0.14147257118E-01 -0.10097827453E-02  0.17504306773E-01  0.10214007901E+01  0.10211522945E+01 0.  0.
     999903    2    3    3    0    0 -0.49743554455E-01 -0.98580204779E-01 -0.67940956071E-01  0.13118285237E+00  0.20012227737E-01 0.  0.
         14    1    1    2    0    0  0.14147257118E-01  0.10097827453E-02 -0.17504306773E-01  0.22529209945E-01  0.00000000000E+00 0.  1.
     999901    1    3    3    0    0  0.35596297338E-01  0.97570422034E-01  0.85445262844E-01  0.89021793769E+00  0.88000000000E+00 0. -1.
        -11    1    4    4    0    0 -0.27233599472E-03 -0.13425395481E-01 -0.11405100092E-01  0.17625346517E-01  0.51100000000E-03 0. -1.
         11    1    4    4    0    0 -0.49471218461E-01 -0.85154809298E-01 -0.56535855979E-01  0.11355750585E+00  0.51100000000E-03 0.  1.
</event>
<event>
 8    1  0.1010879E+005  0.1043930E+01  0.7957747E-01            NaN
         13   -1    0    0    0    0  0.00000000000E+00  0.00000000000E+00  0.74505805969E-08  0.10566000000E+00  0.10566000000E+00 0.  1.
     999900   -1    0    0    0    0 -0.00000000000E+00 -0.00000000000E+00 -0.74505805969E-08  0.93827000000E+00  0.93827000000E+00 0.  1.
     999902    2    1    2    0    0  0.20124229010E-01  0.84852098578E-02  0.85836041514E-02  0.10204638192E+01  0.10201939741E+01 0.  0.
     999903    2    3    3    0    0 -0.10754628227E+00  0.62371160969E-01 -0.25645578811E-01  0.12896222521E+00  0.22741927505E-01 0.  0.
         14    1    1    2    0    0 -0.20124229010E-01 -0.84852098578E-02 -0.85836041514E-02  0.23466180768E-01  0.00000000000E+00 0. -1.
     999901    1    3    3    0    0  0.12767051129E+00 -0.53885951111E-01  0.34229182962E-01  0.89150159402E+00  0.88000000000E+00 0.  1.
        -11    1    4    4    0    0 -0.43334704232E-01  0.20910154691E-01  0.67068148046E-03  0.48123197055E-01  0.51100000000E-03 0.  1.
         11    1    4    4    0    0 -0.64211578042E-01  0.41461006278E-01 -0.26316260291E-01  0.80839028155E-01  0.51100000000E-03 0. -1.
</event>
<event>
 8    1  0.1010879E+005  0.1043930E+01  0.7957747E-01            NaN
         13   -1    0    0    0    0  0.00000000000E+00  0.00000000000E+00  0.74505805969E-08  0.10566000000E+00  0.10566000000E+00 0.  1.
     999900   -1    0    0    0    0 -0.00000000000E+00 -0.00000000000E+00 -0.74505805969E-08  0.93827000000E+00  0.93827000000E+00 0.  1.
     999902    2    1    2    0    0 -0.17296585929E-01  0.88182011464E-02  0.13041335532E-01  0.10205417767E+01  0.10202737422E+01 0.  0.
     999903    2    3    3    0    0 -0.30919959034E-01  0.25671109393E-02 -0.12421010688E+00  0.12977658270E+00  0.21240923724E-01 0.  0.
         14    1    1    2    0    0  0.17296585929E-01 -0.88182011464E-02 -0.13041335532E-01  0.23388223291E-01  0.00000000000E+00 0. -1.
     999901    1    3    3    0    0  0.13623373105E-01  0.62510902071E-02  0.13725144241E+00  0.89076519401E+00  0.88000000000E+00 0. -1.
        -11    1    4    4    0    0 -0.78584926754E-02  0.92757826652E-02 -0.26553776020E-01  0.29208906058E-01  0.51100000000E-03 0.  1.
         11    1    4    4    0    0 -0.23061466359E-01 -0.67086717258E-02 -0.97656330857E-01  0.10056767664E+00  0.51100000000E-03 0. -1.
</event>
<event>
 8    1  0.1010879E+005  0.1043930E+01  0.7957747E-01            NaN
         13   -1    0    0    0    0  0.00000000000E+00  0.00000000000E+00  0.74505805969E-08  0.10566000000E+00  0.10566000000E+00 0. -1.
     999900   -1    0    0    0    0 -0.00000000000E+00 -0.00000000000E+00 -0.74505805969E-08  0.93827000000E+00  0.93827000000E+00 0.  1.
     999902    2    1    2    0    0  0.87979078349E-02 -0.21795083356E-01  0.62570670568E-02  0.10196075879E+01  0.10193174450E+01 0.  0.
     999903    2    3    3    0    0  0.50664753175E-01  0.57569044180E-01 -0.10126338899E+00  0.12853399616E+00  0.19636755279E-01 0.  0.
         14    1    1    2    0    0 -0.87979078349E-02  0.21795083356E-01 -0.62570670568E-02  0.24322412070E-01  0.00000000000E+00 0. -1.
     999901    1    3    3    0    0 -0.41866845340E-01 -0.79364127536E-01  0.10752045604E+00  0.89107359177E+00  0.88000000000E+00 0.  1.
        -11    1    4    4    0    0  0.26547441970E-02 -0.56249693470E-03 -0.88261429972E-02  0.92480263170E-02  0.51100000000E-03 0. -1.
         11    1    4    4    0    0  0.48010008978E-01  0.58131541115E-01 -0.92437245991E-01  0.11928596984E+00  0.51100000000E-03 0.  1.
</event>
<event>
 8    1  0.1010879E+005  0.1043930E+01  0.7957747E-01            NaN
         13   -1    0    0    0    0  0.00000000000E+00  0.00000000000E+00  0.74505805969E-08  0.10566000000E+00  0.10566000000E+00 0.  1.
     999900   -1    0    0    0    0 -0.00000000000E+00 -0.00000000000E+00 -0.74505805969E-08  0.93827000000E+00  0.93827000000E+00 0.  1.
     999902    2    1    2    0    0  0.84542549104E-02  0.21812982326E-01  0.29569474494E-03  0.10205341017E+01  0.10202658892E+01 0.  0.
     999903    2    3    3    0    0  0.10277534395E+00 -0.53732119434E-01 -0.56098874917E-01  0.13048698058E+00  0.20732977409E-01 0.  0.
         14    1    1    2    0    0 -0.84542549104E-02 -0.21812982326E-01 -0.29569474494E-03  0.23395898346E-01  0.00000000000E+00 0.  1.
     999901    1    3    3    0    0 -0.94321089039E-01  0.75545101760E-01  0.56394569662E-01  0.89004712107E+00  0.88000000000E+00 0. -1.
        -11    1    4    4    0    0  0.95367599268E-01 -0.43135840753E-01 -0.52253093066E-01  0.11698857467E+00  0.51100000000E-03 0.  1.
         11    1    4    4    0    0  0.74077446805E-02 -0.10596278681E-01 -0.38457818509E-02  0.13498405912E-01  0.51100000000E-03 0. -1.
</event>
<event>
 8    1  0.1010879E+005  0.1043930E+01  0.7957747E-01            NaN
         13   -1    0    0    0    0  0.00000000000E+00  0.00000000000E+00  0.74505805969E-08  0.10566000000E+00  0.10566000000E+00 0. -1.
     999900   -1    0    0    0    0 -0.00000000000E+00 -0.00000000000E+00 -0.74505805969E-08  0.93827000000E+00  0.93827000000E+00 0. -1.
     999902    2    1    2    0    0  0.18474662877E-01 -0.41426864655E-02  0.14518681388E-01  0.10200706805E+01  0.10197916091E+01 0.  0.
     999903    2    3    3    0    0 -0.56701337603E-01  0.53182920048E-01  0.10296459928E+00  0.13059873790E+00  0.20269606928E-01 0.  0.
         14    1    1    2    0    0 -0.18474662877E-01  0.41426864655E-02 -0.14518681388E-01  0.23859319538E-01  0.00000000000E+00 0.  1.
     999901    1    3    3    0    0  0.75176000480E-01 -0.57325606513E-01 -0.88445917896E-01  0.88947194256E+00  0.88000000000E+00 0. -1.
        -11    1    4    4    0    0 -0.42092127022E-01  0.30096170352E-01  0.55885833575E-01  0.76164388939E-01  0.51100000000E-03 0. -1.
         11    1    4    4    0    0 -0.14609210581E-01  0.23086749695E-01  0.47078765708E-01  0.54434348962E-01  0.51100000000E-03 0.  1.
</event>
<event>
 8    1  0.1101225E+005  0.1043930E+01  0.7957747E-01            NaN
         13   -1    0    0    0    0  0.00000000000E+00  0.00000000000E+00  0.74505805969E-08  0.10566000000E+00  0.10566000000E+00 0. -1.
     999900   -1    0    0    0    0 -0.00000000000E+00 -0.00000000000E+00 -0.74505805969E-08  0.93827000000E+00  0.93827000000E+00 0.  1.
     999902    2    1    2    0    0  0.32760535957E-01 -0.63535677057E-02  0.40639145885E-03  0.10105565721E+01  0.10100053463E+01 0.  0.
     999903    2    3    3    0    0  0.70056774441E-01  0.86265324162E-01  0.50222053019E-01  0.12351042406E+00  0.19568148718E-01 0.  0.
         14    1    1    2    0    0 -0.32760535957E-01  0.63535677057E-02 -0.40639145885E-03  0.33373427945E-01  0.00000000000E+00 0. -1.
     999901    1    3    3    0    0 -0.37296238484E-01 -0.92618891867E-01 -0.49815661560E-01  0.88704614799E+00  0.88000000000E+00 0.  1.
        -11    1    4    4    0    0  0.38235990039E-01  0.50969253943E-01  0.38901949869E-01  0.74655733915E-01  0.51100000000E-03 0.  1.
         11    1    4    4    0    0  0.31820784402E-01  0.35296070219E-01  0.11320103149E-01  0.48854690145E-01  0.51100000000E-03 0. -1.
</event>
<event>
 8    1  0.1010879E+005  0.1043930E+01  0.7957747E-01            NaN
         13   -1    0    0    0    0  0.00000000000E+00  0.00000000000E+00  0.74505805969E-08  0.10566000000E+00  0.10566000000E+00 0.  1.
     999900   -1    0    0    0    0 -0.00000000000E+00 -0.00000000000E+00 -0.74505805969E-08  0.93827000000E+00  0.93827000000E+00 0. -1.
     999902    2    1    2    0    0  0.99593620834E-02 -0.16824185415E-01  0.13368607856E-01  0.10202453682E+01  0.10199704160E+01 0.  0.
     999903    2    3    3    0    0 -0.96240138152E-01 -0.44408186516E-01 -0.71432987987E-01  0.12938593953E+00  0.20094734515E-01 0.  0.
         14    1    1    2    0    0 -0.99593620834E-02  0.16824185415E-01 -0.13368607856E-01  0.23684631811E-01  0.00000000000E+00 0. -1.
     999901    1    3    3    0    0  0.10619950024E+00  0.27584001101E-01  0.84801595843E-01  0.89085942866E+00  0.88000000000E+00 0.  1.
        -11    1    4    4    0    0 -0.73496528814E-01 -0.42553079191E-01 -0.58818518455E-01  0.10330722884E+00  0.51100000000E-03 0.  1.
         11    1    4    4    0    0 -0.22743609338E-01 -0.18551073256E-02 -0.12614469532E-01  0.26078710694E-01  0.51100000000E-03 0. -1.
</event>
<event>
 8    1  0.1010879E+005  0.1043930E+01  0.7957747E-01            NaN
         13   -1    0    0    0    0  0.00000000000E+00  0.00000000000E+00  0.74505805969E-08  0.10566000000E+00  0.10566000000E+00 0.  1.
     999900   -1    0    0    0    0 -0.00000000000E+00 -0.00000000000E+00 -0.74505805969E-08  0.93827000000E+00  0.93827000000E+00 0.  1.
     999902    2    1    2    0    0  0.34695431479E-02 -0.23205572343E-01 -0.74191293000E-04  0.10204663724E+01  0.10201965866E+01 0.  0.
     999903    2    3    3    0    0 -0.66859789671E-01 -0.89686009105E-02 -0.11014066825E+00  0.13071161078E+00  0.20097042419E-01 0.  0.
         14    1    1    2    0    0 -0.34695431479E-02  0.23205572343E-01  0.74191293000E-04  0.23463627635E-01  0.00000000000E+00 0. -1.
     999901    1    3    3    0    0  0.70329332819E-01 -0.14236971433E-01  0.11006647695E+00  0.88975476158E+00  0.88000000000E+00 0. -1.
        -11    1    4    4    0    0 -0.86141439828E-02  0.55479349445E-02 -0.18651725229E-01  0.21286874682E-01  0.51100000000E-03 0. -1.
         11    1    4    4    0    0 -0.58245645689E-01 -0.14516535855E-01 -0.91488943019E-01  0.10942473610E+00  0.51100000000E-03 0.  1.
</event>
<event>
 8    1  0.1010879E+005  0.1043930E+01  0.7957747E-01            NaN
         13   -1    0    0    0    0  0.00000000000E+00  0.00000000000E+00  0.74505805969E-08  0.10566000000E+00  0.10566000000E+00 0.  1.
     999900   -1    0    0    0    0 -0.00000000000E+00 -0.00000000000E+00 -0.74505805969E-08  0.93827000000E+00  0.93827000000E+00 0.  1.
     999902    2    1    2    0    0 -0.22696701302E-01 -0.54638430872E-02  0.57395503414E-02  0.10198896949E+01  0.10196063228E+01 0.  0.
     999903    2    3    3    0    0  0.44029720380E-01  0.91042709485E-01 -0.76397981129E-01  0.12831103650E+00  0.19991981871E-01 0.  0.
         14    1    1    2    0    0  0.22696701302E-01  0.54638430872E-02 -0.57395503414E-02  0.24040305102E-01  0.00000000000E+00 0. -1.
     999901    1    3    3    0    0 -0.66726421682E-01 -0.96506552573E-01  0.82137531471E-01  0.89157865840E+00  0.88000000000E+00 0. -1.
        -11    1    4    4    0    0  0.88722739648E-02  0.28953512858E-01 -0.33020440154E-01  0.44806626085E-01  0.51100000000E-03 0. -1.
         11    1    4    4    0    0  0.35157446415E-01  0.62089196627E-01 -0.43377540976E-01  0.83504410412E-01  0.51100000000E-03 0.  1.
</event>
<event>
 8    1  0.1010879E+005  0.1043930E+01  0.7957747E-01            NaN
         13   -1    0    0    0    0  0.00000000000E+00  0.00000000000E+00  0.74505805969E-08  0.10566000000E+00  0.10566000000E+00 0. -1.
     999900   -1    0    0    0    0 -0.00000000000E+00 -0.00000000000E+00 -0.74505805969E-08  0.93827000000E+00  0.93827000000E+00 0.  1.
     999902    2    1    2    0    0  0.92806166064E-02  0.28663709386E-02 -0.21178589071E-01  0.10206302455E+01  0.10203642582E+01 0.  0.
     999903    2    3    3    0    0 -0.41430593546E-01 -0.70636083594E-02 -0.12482898578E+00  0.13304158168E+00  0.18745616007E-01 0.  0.
         14    1    1    2    0    0 -0.92806166064E-02 -0.28663709386E-02  0.21178589071E-01  0.23299754548E-01  0.00000000000E+00 0.  1.
     999901    1    3    3    0    0  0.50711210152E-01  0.99299792980E-02  0.10365039671E+00  0.88758866378E+00  0.88000000000E+00 0. -1.
        -11    1    4    4    0    0 -0.36174406054E-01 -0.12637678166E-01 -0.10252578614E+00  0.10945362720E+00  0.51100000000E-03 0. -1.
         11    1    4    4    0    0 -0.52561874917E-02  0.55740698068E-02 -0.22303199645E-01  0.23587954480E-01  0.51100000000E-03 0.  1.
</event>
<event>
 8    1  0.1010879E+005  0.1043930E+01  0.7957747E-01            NaN
         13   -1    0    0    0    0  0.00000000000E+00  0.00000000000E+00  0.74505805969E-08  0.10566000000E+00  0.10566000000E+00 0.  1.
     999900   -1    0    0    0    0 -0.00000000000E+00 -0.00000000000E+00 -0.74505805969E-08  0.93827000000E+00  0.93827000000E+00 0. -1.
     999902    2    1    2    0    0  0.17894598336E-01  0.99940206315E-02  0.12012216169E-01  0.10201730971E+01  0.10198964446E+01 0.  0.
     999903    2    3    3    0    0  0.12610680201E-01 -0.42527313108E-01 -0.11926212234E+00  0.12887103706E+00  0.20412955492E-01 0.  0.
         14    1    1    2    0    0 -0.17894598336E-01 -0.99940206315E-02 -0.12012216169E-01  0.23756902898E-01  0.00000000000E+00 0. -1.
     999901    1    3    3    0    0  0.52839181349E-02  0.52521333740E-01  0.13127433851E+00  0.89130206004E+00  0.88000000000E+00 0.  1.
        -11    1    4    4    0    0 -0.32472073977E-02 -0.26911761580E-02 -0.24410490396E-01  0.24777408004E-01  0.51100000000E-03 0. -1.
         11    1    4    4    0    0  0.15857887599E-01 -0.39836136950E-01 -0.94851631944E-01  0.10409362905E+00  0.51100000000E-03 0.  1.
</event>
<event>
 8    1  0.1010879E+005  0.1043930E+01  0.7957747E-01            NaN
         13   -1    0    0    0    0  0.00000000000E+00  0.00000000000E+00  0.74505805969E-08  0.10566000000E+00  0.10566000000E+00 0. -1.
     999900   -1    0    0    0    0 -0.00000000000E+00 -0.00000000000E+00 -0.74505805969E-08  0.93827000000E+00  0.93827000000E+00 0.  1.
     999902    2    1    2    0    0  0.20000460216E-01 -0.79074978780E-02  0.89261909237E-02  0.10206443002E+01  0.10203786374E+01 0.  0.
     999903    2    3    3    0    0 -0.67811474169E-01  0.72105049036E-01  0.81344640213E-01  0.12971367702E+00  0.20276917675E-01 0.  0.
         14    1    1    2    0    0 -0.20000460216E-01  0.79074978780E-02 -0.89261909237E-02  0.23285699817E-01  0.00000000000E+00 0.  1.
     999901    1    3    3    0    0  0.87811934385E-01 -0.80012546914E-01 -0.72418449289E-01  0.89093062316E+00  0.88000000000E+00 0.  1.
        -11    1    4    4    0    0 -0.82486203416E-02  0.19590733256E-01  0.21865818655E-01  0.30499372346E-01  0.51100000000E-03 0.  1.
         11    1    4    4    0    0 -0.59562853827E-01  0.52514315780E-01  0.59478821558E-01  0.99214304678E-01  0.51100000000E-03 0. -1.
</event>
<event>
 8    1  0.1010879E+005  0.1043930E+01  0.7957747E-01            NaN
         13   -1    0    0    0    0  0.00000000000E+00  0.00000000000E+00  0.74505805969E-08  0.10566000000E+00  0.10566000000E+00 0.  1.
     999900   -1    0    0    0    0 -0.00000000000E+00 -0.00000000000E+00 -0.74505805969E-08  0.93827000000E+00  0.93827000000E+00 0. -1.
     999902    2    1    2    0    0  0.10114287316E-01 -0.18570524581E-01  0.11963740260E-01  0.10196340277E+01  0.10193445228E+01 0.  0.
     999903    2    3    3    0    0  0.61122842678E-01 -0.10400868214E+00  0.52497268350E-01  0.13309890800E+00  0.20138229041E-01 0.  0.
         14    1    1    2    0    0 -0.10114287316E-01  0.18570524581E-01 -0.11963740260E-01  0.24295972344E-01  0.00000000000E+00 0.  1.
     999901    1    3    3    0    0 -0.51008555362E-01  0.85438157558E-01 -0.40533528090E-01  0.88653511966E+00  0.88000000000E+00 0.  1.
        -11    1    4    4    0    0  0.19531838492E-01 -0.36947621630E-01  0.81646376822E-02  0.42585700516E-01  0.51100000000E-03 0.  1.
         11    1    4    4    0    0  0.41591004186E-01 -0.67061060509E-01  0.44332630668E-01  0.90513207482E-01  0.51100000000E-03 0. -1.
</event>
<event>
 8    1  0.1010879E+005  0.1043930E+01  0.7957747E-01            NaN
         13   -1    0    0    0    0  0.00000000000E+00  0.00000000000E+00  0.74505805969E-08  0.10566000000E+00  0.10566000000E+00 0. -1.
     999900   -1    0    0    0    0 -0.00000000000E+00 -0.00000000000E+00 -0.74505805969E-08  0.93827000000E+00  0.93827000000E+00 0.  1.
     999902    2    1    2    0    0 -0.22144243212E-01  0.20619678299E-02  0.10032285965E-01  0.10195319267E+01  0.10192399539E+01 0.  0.
     999903    2    3    3    0    0 -0.52288607221E-01 -0.11772985394E+00  0.12636867419E-01  0.13090064935E+00  0.19515958319E-01 0.  0.
         14    1    1    2    0    0  0.22144243212E-01 -0.20619678299E-02 -0.10032285965E-01  0.24398073294E-01  0.00000000000E+00 0. -1.
     999901    1    3    3    0    0  0.30144364009E-01  0.11979182177E+00 -0.26045814535E-02  0.88863127735E+00  0.88000000000E+00 0.  1.
        -11    1    4    4    0    0 -0.28103011512E-01 -0.78987094766E-01  0.13422248785E-02  0.83849884223E-01  0.51100000000E-03 0. -1.
         11    1    4    4    0    0 -0.24185595709E-01 -0.38742759174E-01  0.11294642540E-01  0.47050765130E-01  0.51100000000E-03 0.  1.
</event>
<event>
 8    1  0.1010879E+005  0.1043930E+01  0.7957747E-01            NaN
         13   -1    0    0    0    0  0.00000000000E+00  0.00000000000E+00  0.74505805969E-08  0.10566000000E+00  0.10566000000E+00 0. -1.
     999900   -1    0    0    0    0 -0.00000000000E+00 -0.00000000000E+00 -0.74505805969E-08  0.93827000000E+00  0.93827000000E+00 0.  1.
     999902    2    1    2    0    0  0.12637020781E-02  0.15808634579E-01  0.16942106223E-01  0.10207234312E+01  0.10204595917E+01 0.  0.
     999903    2    3    3    0    0 -0.50136845309E-01 -0.62524491146E-01 -0.98147087227E-01  0.12829773837E+00  0.20110785375E-01 0.  0.
         14    1    1    2    0    0 -0.12637020781E-02 -0.15808634579E-01 -0.16942106223E-01  0.23206568756E-01  0.00000000000E+00 0.  1.
     999901    1    3    3    0    0  0.51400547387E-01  0.78333125724E-01  0.11508919345E+00  0.89242569288E+00  0.88000000000E+00 0. -1.
        -11    1    4    4    0    0 -0.29058910649E-01 -0.47271874883E-01 -0.56530757990E-01  0.79215138471E-01  0.51100000000E-03 0. -1.
         11    1    4    4    0    0 -0.21077934660E-01 -0.15252616262E-01 -0.41616329237E-01  0.49082599896E-01  0.51100000000E-03 0.  1.
</event>
<event>
 8    1  0.1010879E+005  0.1043930E+01  0.7957747E-01            NaN
         13   -1    0    0    0    0  0.00000000000E+00  0.00000000000E+00  0.74505805969E-08  0.10566000000E+00  0.10566000000E+00 0.  1.
     999900   -1    0    0    0    0 -0.00000000000E+00 -0.00000000000E+00 -0.74505805969E-08  0.93827000000E+00  0.93827000000E+00 0.  1.
     999902    2    1    2    0    0  0.80543393792E-02 -0.14850086560E-01  0.17139451840E-01  0.10198642928E+01  0.10195803144E+01 0.  0.
     999903    2    3    3    0    0  0.10684993680E-01 -0.30495004883E-01 -0.12293357696E+00  0.12864482645E+00  0.19816977932E-01 0.  0.
         14    1    1    2    0    0 -0.80543393792E-02  0.14850086560E-01 -0.17139451840E-01  0.24065707200E-01  0.00000000000E+00 0. -1.
     999901    1    3    3    0    0 -0.26306543008E-02  0.15644918323E-01  0.14007302880E+00  0.89121946635E+00  0.88000000000E+00 0. -1.
        -11    1    4    4    0    0  0.15951061946E-01 -0.27441970992E-01 -0.10050611588E+00  0.10540037286E+00  0.51100000000E-03 0.  1.
         11    1    4    4    0    0 -0.52660682660E-02 -0.30530338911E-02 -0.22427461081E-01  0.23244453585E-01  0.51100000000E-03 0. -1.
</event>
<event>
 8    1  0.1010879E+005  0.1043930E+01  0.7957747E-01            NaN
         13   -1    0    0    0    0  0.00000000000E+00  0.00000000000E+00  0.74505805969E-08  0.10566000000E+00  0.10566000000E+00 0. -1.
     999900   -1    0    0    0    0 -0.00000000000E+00 -0.00000000000E+00 -0.74505805969E-08  0.93827000000E+00  0.93827000000E+00 0. -1.
     999902    2    1    2    0    0  0.26084707067E-02 -0.17991301102E-01  0.15727937176E-01  0.10198913011E+01  0.10196079674E+01 0.  0.
     999903    2    3    3    0    0  0.45887872761E-01  0.38235583615E-01  0.11532959518E+00  0.13143474088E+00  0.20162312967E-01 0.  0.
         14    1    1    2    0    0 -0.26084707067E-02  0.17991301102E-01 -0.15727937176E-01  0.24038698853E-01  0.00000000000E+00 0.  1.
     999901    1    3    3    0    0 -0.43279402054E-01 -0.56226884717E-01 -0.99601658004E-01  0.88845656027E+00  0.88000000000E+00 0. -1.
        -11    1    4    4    0    0  0.28900032143E-01  0.35126666998E-01  0.77892552756E-01  0.90203134580E-01  0.51100000000E-03 0. -1.
         11    1    4    4    0    0  0.16987840618E-01  0.31089166177E-02  0.37437042425E-01  0.41231606298E-01  0.51100000000E-03 0.  1.
</event>
<event>
 8    1  0.1010879E+005  0.1043930E+01  0.7957747E-01            NaN
         13   -1    0    0    0    0  0.00000000000E+00  0.00000000000E+00  0.74505805969E-08  0.10566000000E+00  0.10566000000E+00 0. -1.
     999900   -1    0    0    0    0 -0.00000000000E+00 -0.00000000000E+00 -0.74505805969E-08  0.93827000000E+00  0.93827000000E+00 0. -1.
     999902    2    1    2    0    0  0.17992697907E-01 -0.73652437178E-02  0.13764036799E-01  0.10201091540E+01  0.10198309926E+01 0.  0.
     999903    2    3    3    0    0 -0.51999143491E-01  0.94643442186E-01  0.69649850422E-01  0.12970034118E+00  0.17600703561E-01 0.  0.
         14    1    1    2    0    0 -0.17992697907E-01  0.73652437178E-02 -0.13764036799E-01  0.23820845955E-01  0.00000000000E+00 0.  1.
     999901    1    3    3    0    0  0.69991841399E-01 -0.10200868590E+00 -0.55885813623E-01  0.89040881286E+00  0.88000000000E+00 0. -1.
        -11    1    4    4    0    0 -0.11203589192E-01  0.12351122335E-01  0.17051008227E-01  0.23855159531E-01  0.51100000000E-03 0. -1.
         11    1    4    4    0    0 -0.40795554300E-01  0.82292319851E-01  0.52598842195E-01  0.10584518165E+00  0.51100000000E-03 0.  1.
</event>
<event>
 8    1  0.1010879E+005  0.1043930E+01  0.7957747E-01            NaN
         13   -1    0    0    0    0  0.00000000000E+00  0.00000000000E+00  0.74505805969E-08  0.10566000000E+00  0.10566000000E+00 0. -1.
     999900   -1    0    0    0    0 -0.00000000000E+00 -0.00000000000E+00 -0.74505805969E-08  0.93827000000E+00  0.93827000000E+00 0. -1.
     999902    2    1    2    0    0 -0.18307515617E-01 -0.67211558848E-02  0.13729428820E-01  0.10200797111E+01  0.10198008535E+01 0.  0.
     999903    2    3    3    0    0  0.36519900267E-01  0.89384970998E-01 -0.81720875474E-01  0.12802971601E+00  0.19746658923E-01 0.  0.
         14    1    1    2    0    0  0.18307515617E-01  0.67211558848E-02 -0.13729428820E-01  0.23850288892E-01  0.00000000000E+00 0. -1.
     999901    1    3    3    0    0 -0.54827415884E-01 -0.96106126883E-01  0.95450304294E-01  0.89204999509E+00  0.88000000000E+00 0. -1.
        -11    1    4    4    0    0  0.28350163530E-01  0.45774009357E-01 -0.39494675720E-01  0.66776359859E-01  0.51100000000E-03 0.  1.
         11    1    4    4    0    0  0.81697367369E-02  0.43610961640E-01 -0.42226199755E-01  0.61253356155E-01  0.51100000000E-03 0. -1.
</event>
<event>
 7    1  0.1010879E+005  0.1043930E+01  0.7957747E-01            NaN
         13   -1    0    0    0    0  0.00000000000E+00  0.00000000000E+00  0.74505805969E-08  0.10566000000E+00  0.10566000000E+00 0.  1.
     999900   -1    0    0    0    0 -0.00000000000E+00 -0.00000000000E+00 -0.74505805969E-08  0.93827000000E+00  0.93827000000E+00 0. -1.
     999903    2    1    2    0    0 -0.26424944239E-01  0.15085051043E-01  0.96774343451E-01  0.10285108295E+00  0.16948016696E-01 0.  0.
         14    1    1    2    0    0 -0.31786308731E-01  0.37983222337E-01  0.11797880670E-01  0.50914483108E-01  0.00000000000E+00 0.  1.
     999901    1    1    2    0    0  0.58211252969E-01 -0.53068273380E-01 -0.10857222412E+00  0.89016443395E+00  0.88000000000E+00 0. -1.
        -11    1    3    3    0    0 -0.20230156763E-01  0.37833169304E-02  0.72454256052E-01  0.75322327837E-01  0.51100000000E-03 0. -1.
         11    1    3    3    0    0 -0.61947874761E-02  0.11301734113E-01  0.24320087399E-01  0.27528755110E-01  0.51100000000E-03 0.  1.
</event>
<event>
 8    1  0.1010879E+005  0.1043930E+01  0.7957747E-01            NaN
         13   -1    0    0    0    0  0.00000000000E+00  0.00000000000E+00  0.74505805969E-08  0.10566000000E+00  0.10566000000E+00 0.  1.
     999900   -1    0    0    0    0 -0.00000000000E+00 -0.00000000000E+00 -0.74505805969E-08  0.93827000000E+00  0.93827000000E+00 0. -1.
     999902    2    1    2    0    0 -0.16169357687E-01 -0.53110186765E-02 -0.81116969513E-02  0.10250764944E+01  0.10249031001E+01 0.  0.
     999903    2    3    3    0    0  0.36846022148E-01  0.38633257127E-01 -0.12241580180E+00  0.13501629513E+00  0.19839695436E-01 0.  0.
         14    1    1    2    0    0  0.16169357687E-01  0.53110186765E-02  0.81116969513E-02  0.18853505637E-01  0.00000000000E+00 0. -1.
     999901    1    3    3    0    0 -0.53015379835E-01 -0.43944275804E-01  0.11430410485E+00  0.89006019923E+00  0.88000000000E+00 0.  1.
        -11    1    4    4    0    0  0.28514357159E-01  0.16678671975E-01 -0.79540014483E-01  0.86128518436E-01  0.51100000000E-03 0. -1.
         11    1    4    4    0    0  0.83316649896E-02  0.21954585152E-01 -0.42875787319E-01  0.48887776693E-01  0.51100000000E-03 0.  1.
</event>
<event>
 8    1  0.1010879E+005  0.1043930E+01  0.7957747E-01            NaN
         13   -1    0    0    0    0  0.00000000000E+00  0.00000000000E+00  0.74505805969E-08  0.10566000000E+00  0.10566000000E+00 0.  1.
     999900   -1    0    0    0    0 -0.00000000000E+00 -0.00000000000E+00 -0.74505805969E-08  0.93827000000E+00  0.93827000000E+00 0. -1.
     999902    2    1    2    0    0  0.54859550022E-02  0.97809212624E-02 -0.16327342242E-01  0.10241223190E+01  0.10239307496E+01 0.  0.
     999903    2    3    3    0    0 -0.46435651559E-01  0.50320626117E-01  0.11162077900E+00  0.13243288726E+00  0.19769577031E-01 0.  0.
         14    1    1    2    0    0 -0.54859550022E-02 -0.97809212624E-02  0.16327342242E-01  0.19807681028E-01  0.00000000000E+00 0.  1.
     999901    1    3    3    0    0  0.51921606561E-01 -0.40539704855E-01 -0.12794812124E+00  0.89168943171E+00  0.88000000000E+00 0. -1.
        -11    1    4    4    0    0  0.11153277184E-02  0.37921146541E-02  0.11953038902E-01  0.12600013868E-01  0.51100000000E-03 0.  1.
         11    1    4    4    0    0 -0.47550979278E-01  0.46528511463E-01  0.99667740093E-01  0.11983287339E+00  0.51100000000E-03 0. -1.
</event>
<event>
 8    1  0.1010879E+005  0.1043930E+01  0.7957747E-01            NaN
         13   -1    0    0    0    0  0.00000000000E+00  0.00000000000E+00  0.74505805969E-08  0.10566000000E+00  0.10566000000E+00 0. -1.
     999900   -1    0    0    0    0 -0.00000000000E+00 -0.00000000000E+00 -0.74505805969E-08  0.93827000000E+00  0.93827000000E+00 0.  1.
     999902    2    1    2    0    0 -0.21126379252E-01 -0.93968675669E-02  0.33939555422E-02  0.10205602770E+01  0.10202926712E+01 0.  0.
     999903    2    3    3    0    0  0.11482818222E+00 -0.17155480247E-01  0.52136287884E-01  0.12875331702E+00  0.19478249243E-01 0.  0.
         14    1    1    2    0    0  0.21126379252E-01  0.93968675669E-02 -0.33939555422E-02  0.23369723032E-01  0.00000000000E+00 0. -1.
     999901    1    3    3    0    0 -0.13595456147E+00  0.77586126796E-02 -0.48742332342E-01  0.89180695995E+00  0.88000000000E+00 0. -1.
        -11    1    4    4    0    0  0.24962227744E-01  0.82620910527E-03  0.42220457320E-02  0.25335394739E-01  0.51100000000E-03 0. -1.
         11    1    4    4    0    0  0.89865954478E-01 -0.17981689352E-01  0.47914242152E-01  0.10341792228E+00  0.51100000000E-03 0.  1.
</event>
<event>
 8    1  0.1010879E+005  0.1043930E+01  0.7957747E-01            NaN
         13   -1    0    0    0    0  0.00000000000E+00  0.00000000000E+00  0.74505805969E-08  0.10566000000E+00  0.10566000000E+00 0.  1.
     999900   -1    0    0    0    0 -0.00000000000E+00 -0.00000000000E+00 -0.74505805969E-08  0.93827000000E+00  0.93827000000E+00 0.  1.
     999902    2    1    2    0    0  0.22817977202E-01 -0.37143928911E-02  0.70183966295E-02  0.10197698119E+01  0.10194835725E+01 0.  0.
     999903    2    3    3    0    0 -0.46326310199E-01 -0.21955476362E-01 -0.11597827834E+00  0.12834294913E+00  0.19818718082E-01 0.  0.
         14    1    1    2    0    0 -0.22817977202E-01  0.37143928911E-02 -0.70183966295E-02  0.24160188107E-01  0.00000000000E+00 0. -1.
     999901    1    3    3    0    0  0.69144287400E-01  0.18241083471E-01  0.12299667496E+00  0.89142686276E+00  0.88000000000E+00 0. -1.
        -11    1    4    4    0    0 -0.77714223078E-02 -0.11617886280E-01 -0.20114696797E-01  0.24499641518E-01  0.51100000000E-03 0. -1.
         11    1    4    4    0    0 -0.38554887891E-01 -0.10337590083E-01 -0.95863581538E-01  0.10384330761E+00  0.51100000000E-03 0.  1.
</event>
<event>
 8    1  0.1010879E+005  0.1043930E+01  0.7957747E-01            NaN
         13   -1    0    0    0    0  0.00000000000E+00  0.00000000000E+00  0.74505805969E-08  0.10566000000E+00  0.10566000000E+00 0.  1.
     999900   -1    0    0    0    0 -0.00000000000E+00 -0.00000000000E+00 -0.74505805969E-08  0.93827000000E+00  0.93827000000E+00 0. -1.
     999902    2    1    2    0    0 -0.71287381261E-02 -0.62912954773E-02  0.22698113473E-01  0.10193209841E+01  0.10190238786E+01 0.  0.
     999903    2    3    3    0    0  0.56625425552E-01 -0.18769957288E-01  0.11601988106E+00  0.13200522147E+00  0.20149828262E-01 0.  0.
         14    1    1    2    0    0  0.71287381261E-02  0.62912954773E-02 -0.22698113473E-01  0.24609015854E-01  0.00000000000E+00 0. -1.
     999901    1    3    3    0    0 -0.63754163678E-01  0.12478661811E-01 -0.93321767586E-01  0.88731576268E+00  0.88000000000E+00 0. -1.
        -11    1    4    4    0    0  0.16422727916E-01 -0.12034323058E-01  0.24803609932E-01  0.32093786164E-01  0.51100000000E-03 0. -1.
         11    1    4    4    0    0  0.40202697636E-01 -0.67356342299E-02  0.91216271128E-01  0.99911435307E-01  0.51100000000E-03 0.  1.
</event>
<event>
 8    1  0.1010879E+005  0.1043930E+01  0.7957747E-01            NaN
         13   -1    0    0    0    0  0.00000000000E+00  0.00000000000E+00  0.74505805969E-08  0.10566000000E+00  0.10566000000E+00 0. -1.
     999900   -1    0    0    0    0 -0.00000000000E+00 -0.00000000000E+00 -0.74505805969E-08  0.93827000000E+00  0.93827000000E+00 0.  1.
     999902    2    1    2    0    0 -0.88332726309E-02  0.11660963262E-01 -0.18930322426E-01  0.10200059143E+01  0.10197253078E+01 0.  0.
     999903    2    3    3    0    0 -0.33913157146E-02  0.13019880001E+00  0.26545585283E-02  0.13177917482E+00  0.19886570604E-01 0.  0.
         14    1    1    2    0    0  0.88332726309E-02 -0.11660963262E-01  0.18930322426E-01  0.23924085703E-01  0.00000000000E+00 0. -1.
     999901    1    3    3    0    0 -0.54419569162E-02 -0.11853783674E+00 -0.21584880954E-01  0.88822673948E+00  0.88000000000E+00 0.  1.
        -11    1    4    4    0    0 -0.15214227442E-02  0.11891387500E+00 -0.30982228256E-02  0.11896505580E+00  0.51100000000E-03 0.  1.
         11    1    4    4    0    0 -0.18698929704E-02  0.11284925004E-01  0.57527813539E-02  0.12814119025E-01  0.51100000000E-03 0. -1.
</event>
<event>
 8    1  0.1040310E+005  0.1043930E+01  0.7957747E-01            NaN
         13   -1    0    0    0    0  0.00000000000E+00  0.00000000000E+00  0.74505805969E-08  0.10566000000E+00  0.10566000000E+00 0.  1.
     999900   -1    0    0    0    0 -0.00000000000E+00 -0.00000000000E+00 -0.74505805969E-08  0.93827000000E+00  0.93827000000E+00 0.  1.
     999902    2    1    2    0    0  0.13821078542E-01 -0.97926079674E-02 -0.12970715924E-01  0.10225955946E+01  0.10223730206E+01 0.  0.
     999903    2    3    3    0    0  0.13092724240E+00  0.10673131343E-01  0.17655588040E-01  0.13407397380E+00  0.20205250009E-01 0.  0.
         14    1    1    2    0    0 -0.13821078542E-01  0.97926079674E-02  0.12970715924E-01  0.21334405416E-01  0.00000000000E+00 0.  1.
     999901    1    3    3    0    0 -0.11710616386E+00 -0.20465739311E-01 -0.30626303964E-01  0.88852162078E+00  0.88000000000E+00 0.  1.
        -11    1    4    4    0    0  0.53105896005E-01  0.14137262991E-01  0.90884664442E-02  0.55704216525E-01  0.51100000000E-03 0. -1.
         11    1    4    4    0    0  0.77821346393E-01 -0.34641316478E-02  0.85671215953E-02  0.78369757279E-01  0.51100000000E-03 0.  1.
</event>
<event>
 8    1  0.1010879E+005  0.1043930E+01  0.7957747E-01            NaN
         13   -1    0    0    0    0  0.00000000000E+00  0.00000000000E+00  0.74505805969E-08  0.10566000000E+00  0.10566000000E+00 0.  1.
     999900   -1    0    0    0    0 -0.00000000000E+00 -0.00000000000E+00 -0.74505805969E-08  0.93827000000E+00  0.93827000000E+00 0. -1.
     999902    2    1    2    0    0  0.13969623418E-01 -0.11908032414E-01 -0.15604219281E-01  0.10198376096E+01  0.10195529936E+01 0.  0.
     999903    2    3    3    0    0  0.37547435548E-01 -0.20540391570E-01  0.12021460664E+00  0.12906424658E+00  0.19347105529E-01 0.  0.
         14    1    1    2    0    0 -0.13969623418E-01  0.11908032414E-01  0.15604219281E-01  0.24092390371E-01  0.00000000000E+00 0.  1.
     999901    1    3    3    0    0 -0.23577812130E-01  0.86323591564E-02 -0.13581882592E+00  0.89077336305E+00  0.88000000000E+00 0.  1.
        -11    1    4    4    0    0  0.17718232995E-02 -0.91060375692E-02  0.27629186479E-01  0.29149482748E-01  0.51100000000E-03 0.  1.
         11    1    4    4    0    0  0.35775612249E-01 -0.11434354001E-01  0.92585420163E-01  0.99914763828E-01  0.51100000000E-03 0. -1.
</event>
<event>
 8    1  0.1010879E+005  0.1043930E+01  0.7957747E-01            NaN
         13   -1    0    0    0    0  0.00000000000E+00  0.00000000000E+00  0.74505805969E-08  0.10566000000E+00  0.10566000000E+00 0. -1.
     999900   -1    0    0    0    0 -0.00000000000E+00 -0.00000000000E+00 -0.74505805969E-08  0.93827000000E+00  0.93827000000E+00 0.  1.
     999902    2    1    2    0    0  0.18295411256E-01  0.13812340633E-01  0.12470127202E-02  0.10209722591E+01  0.10207141108E+01 0.  0.
     999903    2    3    3    0    0  0.77589108660E-01 -0.22596343362E-01 -0.10214679304E+00  0.13219128839E+00  0.22581073535E-01 0.  0.
         14    1    1    2    0    0 -0.18295411256E-01 -0.13812340633E-01 -0.12470127202E-02  0.22957740906E-01  0.00000000000E+00 0.  1.
     999901    1    3    3    0    0 -0.59293697404E-01  0.36408683995E-01  0.10339380576E+00  0.88878097071E+00  0.88000000000E+00 0. -1.
        -11    1    4    4    0    0  0.24022639377E-01 -0.13560308008E-01 -0.48756924997E-01  0.56022031488E-01  0.51100000000E-03 0. -1.
         11    1    4    4    0    0  0.53566469282E-01 -0.90360353542E-02 -0.53389868039E-01  0.76169256899E-01  0.51100000000E-03 0.  1.
</event>
<event>
 8    1  0.1010879E+005  0.1043930E+01  0.7957747E-01            NaN
         13   -1    0    0    0    0  0.00000000000E+00  0.00000000000E+00  0.74505805969E-08  0.10566000000E+00  0.10566000000E+00 0. -1.
     999900   -1    0    0    0    0 -0.00000000000E+00 -0.00000000000E+00 -0.74505805969E-08  0.93827000000E+00  0.93827000000E+00 0. -1.
     999902    2    1    2    0    0  0.18478857766E-01 -0.10878486717E-01  0.10155626544E-01  0.10202035083E+01  0.10199275719E+01 0.  0.
     999903    2    3    3    0    0  0.12317535172E+00  0.42869790457E-01 -0.88849104187E-02  0.13216478438E+00  0.19457707799E-01 0.  0.
         14    1    1    2    0    0 -0.18478857766E-01  0.10878486717E-01 -0.10155626544E-01  0.23726491693E-01  0.00000000000E+00 0. -1.
     999901    1    3    3    0    0 -0.10469649395E+00 -0.53748277174E-01  0.19040536963E-01  0.88803872393E+00  0.88000000000E+00 0. -1.
        -11    1    4    4    0    0  0.78816554971E-01  0.19553477583E-01 -0.11304010345E-01  0.81990423794E-01  0.51100000000E-03 0. -1.
         11    1    4    4    0    0  0.44358796746E-01  0.23316312875E-01  0.24190999260E-02  0.50174360586E-01  0.51100000000E-03 0.  1.
</event>
<event>
 8    1  0.1010879E+005  0.1043930E+01  0.7957747E-01            NaN
         13   -1    0    0    0    0  0.00000000000E+00  0.00000000000E+00  0.74505805969E-08  0.10566000000E+00  0.10566000000E+00 0.  1.
     999900   -1    0    0    0    0 -0.00000000000E+00 -0.00000000000E+00 -0.74505805969E-08  0.93827000000E+00  0.93827000000E+00 0.  1.
     999902    2    1    2    0    0  0.22138237530E-01  0.83138513706E-02  0.19463088592E-02  0.10202021724E+01  0.10199262045E+01 0.  0.
     999903    2    3    3    0    0 -0.10899337920E+00 -0.14924053808E-01  0.62748597336E-01  0.12810777186E+00  0.19285503696E-01 0.  0.
         14    1    1    2    0    0 -0.22138237530E-01 -0.83138513706E-02 -0.19463088592E-02  0.23727827623E-01  0.00000000000E+00 0.  1.
     999901    1    3    3    0    0  0.13113161673E+00  0.23237905178E-01 -0.60802288477E-01  0.89209440051E+00  0.88000000000E+00 0.  1.
        -11    1    4    4    0    0 -0.12027326523E-01  0.42853615736E-02  0.85236522998E-02  0.15360165254E-01  0.51100000000E-03 0. -1.
         11    1    4    4    0    0 -0.96966052677E-01 -0.19209415381E-01  0.54224945036E-01  0.11274760661E+00  0.51100000000E-03 0.  1.
</event>
<event>
 8    1  0.1010879E+005  0.1043930E+01  0.7957747E-01            NaN
         13   -1    0    0    0    0  0.00000000000E+00  0.00000000000E+00  0.74505805969E-08  0.10566000000E+00  0.10566000000E+00 0.  1.
     999900   -1    0    0    0    0 -0.00000000000E+00 -0.00000000000E+00 -0.74505805969E-08  0.93827000000E+00  0.93827000000E+00 0.  1.
     999902    2    1    2    0    0 -0.32609448604E-02  0.27356049741E-02 -0.23231698439E-01  0.10203115939E+01  0.10200381951E+01 0.  0.
     999903    2    3    3    0    0 -0.84969395661E-01 -0.17848393573E-01 -0.98933528442E-01  0.13305135076E+00  0.19402462147E-01 0.  0.
         14    1    1    2    0    0  0.32609448604E-02 -0.27356049741E-02  0.23231698439E-01  0.23618406134E-01  0.00000000000E+00 0.  1.
     999901    1    3    3    0    0  0.81708450800E-01  0.20583998547E-01  0.75701830003E-01  0.88726024310E+00  0.88000000000E+00 0. -1.
        -11    1    4    4    0    0 -0.72610766414E-01 -0.78235907478E-02 -0.82018960765E-01  0.10982214265E+00  0.51100000000E-03 0. -1.
         11    1    4    4    0    0 -0.12358629247E-01 -0.10024802825E-01 -0.16914567677E-01  0.23229208106E-01  0.51100000000E-03 0.  1.
</event>
<event>
 8    1  0.1010879E+005  0.1043930E+01  0.7957747E-01            NaN
         13   -1    0    0    0    0  0.00000000000E+00  0.00000000000E+00  0.74505805969E-08  0.10566000000E+00  0.10566000000E+00 0.  1.
     999900   -1    0    0    0    0 -0.00000000000E+00 -0.00000000000E+00 -0.74505805969E-08  0.93827000000E+00  0.93827000000E+00 0. -1.
     999902    2    1    2    0    0  0.96950315997E-02 -0.17639312115E-01 -0.13722766025E-01  0.10195691035E+01  0.10192780306E+01 0.  0.
     999903    2    3    3    0    0 -0.96392249089E-01  0.75922049819E-01 -0.30800452047E-01  0.12810968946E+00  0.20194092047E-01 0.  0.
         14    1    1    2    0    0 -0.96950315997E-02  0.17639312115E-01  0.13722766025E-01  0.24360896473E-01  0.00000000000E+00 0.  1.
     999901    1    3    3    0    0  0.10608728069E+00 -0.93561361934E-01  0.17077686023E-01  0.89145941407E+00  0.88000000000E+00 0.  1.
        -11    1    4    4    0    0 -0.59019928942E-01  0.44962032816E-01 -0.28626433423E-01  0.79527795259E-01  0.51100000000E-03 0.  1.
         11    1    4    4    0    0 -0.37372320148E-01  0.30960017003E-01 -0.21740186247E-02  0.48581894199E-01  0.51100000000E-03 0. -1.
</event>
<event>
 8    1  0.1010879E+005  0.1043930E+01  0.7957747E-01            NaN
         13   -1    0    0    0    0  0.00000000000E+00  0.00000000000E+00  0.74505805969E-08  0.10566000000E+00  0.10566000000E+00 0. -1.
     999900   -1    0    0    0    0 -0.00000000000E+00 -0.00000000000E+00 -0.74505805969E-08  0.93827000000E+00  0.93827000000E+00 0.  1.
     999902    2    1    2    0    0 -0.86509413728E-02 -0.18736266720E-01 -0.11153424509E-01  0.10204718382E+01  0.10202021796E+01 0.  0.
     999903    2    3    3    0    0 -0.16232185777E-01 -0.12992096970E+00  0.14329762016E-01  0.13307739025E+00  0.19008090162E-01 0.  0.
         14    1    1    2    0    0  0.86509413728E-02  0.18736266720E-01  0.11153424509E-01  0.23458161810E-01  0.00000000000E+00 0. -1.
     999901    1    3    3    0    0  0.75812444043E-02  0.11118470298E+00 -0.25483186525E-01  0.88739444794E+00  0.88000000000E+00 0. -1.
        -11    1    4    4    0    0 -0.13270917894E-02 -0.54093182633E-01 -0.17567311182E-02  0.54140380542E-01  0.51100000000E-03 0. -1.
         11    1    4    4    0    0 -0.14905093988E-01 -0.75827787071E-01  0.16086493134E-01  0.78937009705E-01  0.51100000000E-03 0.  1.
</event>
<event>
 8    1  0.1010879E+005  0.1043930E+01  0.7957747E-01            NaN
         13   -1    0    0    0    0  0.00000000000E+00  0.00000000000E+00  0.74505805969E-08  0.10566000000E+00  0.10566000000E+00 0. -1.
     999900   -1    0    0    0    0 -0.00000000000E+00 -0.00000000000E+00 -0.74505805969E-08  0.93827000000E+00  0.93827000000E+00 0. -1.
     999902    2    1    2    0    0  0.33444095892E-02  0.76878167822E-02 -0.20841795919E-01  0.10214651817E+01  0.10212181204E+01 0.  0.
     999903    2    3    3    0    0 -0.12739719139E+00  0.12028029500E-01 -0.23992935860E-01  0.13178988515E+00  0.20449816389E-01 0.  0.
         14    1    1    2    0    0 -0.33444095892E-02 -0.76878167822E-02  0.20841795919E-01  0.22464818261E-01  0.00000000000E+00 0. -1.
     999901    1    3    3    0    0  0.13074160098E+00 -0.43402127178E-02  0.31511399416E-02  0.88967529659E+00  0.88000000000E+00 0. -1.
        -11    1    4    4    0    0 -0.51960240570E-01  0.47647659892E-02 -0.20048855903E-01  0.55899797308E-01  0.51100000000E-03 0.  1.
         11    1    4    4    0    0 -0.75436950817E-01  0.72632635108E-02 -0.39440799577E-02  0.75890087845E-01  0.51100000000E-03 0. -1.
</event>
<event>
 8    1  0.1010879E+005  0.1043930E+01  0.7957747E-01            NaN
         13   -1    0    0    0    0  0.00000000000E+00  0.00000000000E+00  0.74505805969E-08  0.10566000000E+00  0.10566000000E+00 0.  1.
     999900   -1    0    0    0    0 -0.00000000000E+00 -0.00000000000E+00 -0.74505805969E-08  0.93827000000E+00  0.93827000000E+00 0. -1.
     999902    2    1    2    0    0  0.40580607746E-02  0.21828537833E-01  0.59215075414E-02  0.10209513757E+01  0.10206927522E+01 0.  0.
     999903    2    3    3    0    0 -0.11415103925E+00  0.60238579624E-01  0.19022084162E-01  0.13212048758E+00  0.20852753237E-01 0.  0.
         14    1    1    2    0    0 -0.40580607746E-02 -0.21828537833E-01 -0.59215075414E-02  0.22978624257E-01  0.00000000000E+00 0.  1.
     999901    1    3    3    0    0  0.11820910002E+00 -0.38410041791E-01 -0.13100576621E-01  0.88883088816E+00  0.88000000000E+00 0.  1.
        -11    1    4    4    0    0 -0.54714700638E-01  0.23463321752E-01 -0.54437461413E-03  0.59538083596E-01  0.51100000000E-03 0.  1.
         11    1    4    4    0    0 -0.59436338607E-01  0.36775257873E-01  0.19566458776E-01  0.72582403988E-01  0.51100000000E-03 0. -1.
</event>
<event>
 8    1  0.1563822E+005  0.1043930E+01  0.7957747E-01            NaN
         13   -1    0    0    0    0  0.00000000000E+00  0.00000000000E+00  0.74505805969E-08  0.10566000000E+00  0.10566000000E+00 0. -1.
     999900   -1    0    0    0    0 -0.00000000000E+00 -0.00000000000E+00 -0.74505805969E-08  0.93827000000E+00  0.93827000000E+00 0.  1.
     999902    2    1    2    0    0 -0.79692354696E-02 -0.89028878275E-02 -0.19980081706E-01  0.10206496694E+01  0.10203841306E+01 0.  0.
     999903    2    3    3    0    0  0.17652456029E-01  0.10002978032E+00 -0.80924159443E-01  0.13147197187E+00  0.20459561345E-01 0.  0.
         14    1    1    2    0    0  0.79692354696E-02  0.89028878275E-02  0.19980081706E-01  0.23280330552E-01  0.00000000000E+00 0. -1.
     999901    1    3    3    0    0 -0.25621691498E-01 -0.10893266815E+00  0.60944077737E-01  0.88917769758E+00  0.88000000000E+00 0. -1.
        -11    1    4    4    0    0  0.16944319680E-01  0.40768380487E-01 -0.38560926314E-01  0.58620619036E-01  0.51100000000E-03 0.  1.
         11    1    4    4    0    0  0.70813634837E-03  0.59261399832E-01 -0.42363233129E-01  0.72851352831E-01  0.51100000000E-03 0. -1.
</event>
<event>
 8    1  0.1010879E+005  0.1043930E+01  0.7957747E-01            NaN
         13   -1    0    0    0    0  0.00000000000E+00  0.00000000000E+00  0.74505805969E-08  0.10566000000E+00  0.10566000000E+00 0.  1.
     999900   -1    0    0    0    0 -0.00000000000E+00 -0.00000000000E+00 -0.74505805969E-08  0.93827000000E+00  0.93827000000E+00 0. -1.
     999902    2    1    2    0    0  0.16541694082E-02  0.28303171026E-02 -0.21833049097E-01  0.10218522056E+01  0.10216136751E+01 0.  0.
     999903    2    3    3    0    0 -0.12019297576E+00  0.25218471475E-01  0.41016892712E-01  0.13095486507E+00  0.19607867572E-01 0.  0.
         14    1    1    2    0    0 -0.16541694082E-02 -0.28303171026E-02  0.21833049097E-01  0.22077794369E-01  0.00000000000E+00 0.  1.
     999901    1    3    3    0    0  0.12184714517E+00 -0.22388154372E-01 -0.62849941809E-01  0.89089734057E+00  0.88000000000E+00 0. -1.
        -11    1    4    4    0    0 -0.29737311285E-03  0.16013076706E-02  0.21016337216E-02  0.27075085086E-02  0.51100000000E-03 0. -1.
         11    1    4    4    0    0 -0.11989560265E+00  0.23617163804E-01  0.38915258991E-01  0.12824735656E+00  0.51100000000E-03 0.  1.
</event>
<event>
 8    1  0.1010879E+005  0.1043930E+01  0.7957747E-01            NaN
         13   -1    0    0    0    0  0.00000000000E+00  0.00000000000E+00  0.74505805969E-08  0.10566000000E+00  0.10566000000E+00 0. -1.
     999900   -1    0    0    0    0 -0.00000000000E+00 -0.00000000000E+00 -0.74505805969E-08  0.93827000000E+00  0.93827000000E+00 0. -1.
     999902    2    1    2    0    0  0.42958799741E-02 -0.81241104230E-02  0.20343406561E-01  0.10216071430E+01  0.10213632286E+01 0.  0.
     999903    2    3    3    0    0  0.12825030790E+00  0.13597024152E-01 -0.16836260064E-01  0.13187750118E+00  0.21798970661E-01 0.  0.
         14    1    1    2    0    0 -0.42958799741E-02  0.81241104230E-02 -0.20343406561E-01  0.22322857018E-01  0.00000000000E+00 0.  1.
     999901    1    3    3    0    0 -0.12395442793E+00 -0.21721134575E-01  0.37179666626E-01  0.88972964180E+00  0.88000000000E+00 0.  1.
        -11    1    4    4    0    0  0.41992362944E-01 -0.16191155958E-02 -0.13797347534E-01  0.44233561929E-01  0.51100000000E-03 0.  1.
         11    1    4    4    0    0  0.86257944958E-01  0.15216139748E-01 -0.30389125308E-02  0.87643939252E-01  0.51100000000E-03 0. -1.
</event>
<event>
 8    1  0.1010879E+005  0.1043930E+01  0.7957747E-01            NaN
         13   -1    0    0    0    0  0.00000000000E+00  0.00000000000E+00  0.74505805969E-08  0.10566000000E+00  0.10566000000E+00 0.  1.
     999900   -1    0    0    0    0 -0.00000000000E+00 -0.00000000000E+00 -0.74505805969E-08  0.93827000000E+00  0.93827000000E+00 0. -1.
     999902    2    1    2    0    0 -0.17542497012E-01 -0.14738930679E-01 -0.11587404543E-01  0.10182542678E+01  0.10179305039E+01 0.  0.
     999903    2    3    3    0    0  0.13849660376E-01 -0.23007982364E-01  0.12295300887E+00  0.12743724530E+00  0.20040677544E-01 0.  0.
         14    1    1    2    0    0  0.17542497012E-01  0.14738930679E-01  0.11587404543E-01  0.25675732181E-01  0.00000000000E+00 0.  1.
     999901    1    3    3    0    0 -0.31392157388E-01  0.82690516851E-02 -0.13454041341E+00  0.89081702251E+00  0.88000000000E+00 0. -1.
        -11    1    4    4    0    0  0.10995868572E-01 -0.22968799047E-01  0.71474333613E-01  0.75876981633E-01  0.51100000000E-03 0. -1.
         11    1    4    4    0    0  0.28537918037E-02 -0.39183317284E-04  0.51478675253E-01  0.51560263671E-01  0.51100000000E-03 0.  1.
</event>
<event>
 8    1  0.1010879E+005  0.1043930E+01  0.7957747E-01            NaN
         13   -1    0    0    0    0  0.00000000000E+00  0.00000000000E+00  0.74505805969E-08  0.10566000000E+00  0.10566000000E+00 0. -1.
     999900   -1    0    0    0    0 -0.00000000000E+00 -0.00000000000E+00 -0.74505805969E-08  0.93827000000E+00  0.93827000000E+00 0. -1.
     999902    2    1    2    0    0  0.18558844476E-01  0.14636615750E-01 -0.69046929284E-02  0.10193061089E+01  0.10190086396E+01 0.  0.
     999903    2    3    3    0    0 -0.30331549551E-01 -0.92589955566E-01  0.79591043687E-01  0.12724707459E+00  0.19083526580E-01 0.  0.
         14    1    1    2    0    0 -0.18558844476E-01 -0.14636615750E-01  0.69046929284E-02  0.24623891109E-01  0.00000000000E+00 0.  1.
     999901    1    3    3    0    0  0.48890394028E-01  0.10722657132E+00 -0.86495736615E-01  0.89205903430E+00  0.88000000000E+00 0.  1.
        -11    1    4    4    0    0 -0.96266087710E-02 -0.33295013734E-01  0.17115336643E-01  0.38657798765E-01  0.51100000000E-03 0. -1.
         11    1    4    4    0    0 -0.20704940780E-01 -0.59294941833E-01  0.62475707044E-01  0.88589275825E-01  0.51100000000E-03 0.  1.
</event>
<event>
 8    1  0.1010879E+005  0.1043930E+01  0.7957747E-01            NaN
         13   -1    0    0    0    0  0.00000000000E+00  0.00000000000E+00  0.74505805969E-08  0.10566000000E+00  0.10566000000E+00 0. -1.
     999900   -1    0    0    0    0 -0.00000000000E+00 -0.00000000000E+00 -0.74505805969E-08  0.93827000000E+00  0.93827000000E+00 0. -1.
     999902    2    1    2    0    0 -0.50414456831E-02 -0.20889909265E-01 -0.94426225146E-02  0.10204573009E+01  0.10201873040E+01 0.  0.
     999903    2    3    3    0    0 -0.93801257946E-01 -0.77543933052E-02 -0.90716619063E-01  0.13216888569E+00  0.19501352863E-01 0.  0.
         14    1    1    2    0    0  0.50414456831E-02  0.20889909265E-01  0.94426225146E-02  0.23472699112E-01  0.00000000000E+00 0.  1.
     999901    1    3    3    0    0  0.88759812263E-01 -0.13135515960E-01  0.81273996549E-01  0.88828841519E+00  0.88000000000E+00 0.  1.
        -11    1    4    4    0    0 -0.84710572690E-01 -0.10823349716E-01 -0.74548490071E-01  0.11336121258E+00  0.51100000000E-03 0. -1.
         11    1    4    4    0    0 -0.90906852566E-02  0.30689564112E-02 -0.16168128992E-01  0.18807673115E-01  0.51100000000E-03 0.  1.
</event>
<event>
 8    1  0.1010879E+005  0.1043930E+01  0.7957747E-01            NaN
         13   -1    0    0    0    0  0.00000000000E+00  0.00000000000E+00  0.74505805969E-08  0.10566000000E+00  0.10566000000E+00 0. -1.
     999900   -1    0    0    0    0 -0.00000000000E+00 -0.00000000000E+00 -0.74505805969E-08  0.93827000000E+00  0.93827000000E+00 0.  1.
     999902    2    1    2    0    0 -0.14725037666E-02 -0.14798137308E-01 -0.17931116475E-01  0.10206345482E+01  0.10203686603E+01 0.  0.
     999903    2    3    3    0    0 -0.71049659742E-01 -0.15830837874E-01 -0.10984583259E+00  0.13311533033E+00  0.18839178690E-01 0.  0.
         14    1    1    2    0    0  0.14725037666E-02  0.14798137308E-01  0.17931116475E-01  0.23295451771E-01  0.00000000000E+00 0. -1.
     999901    1    3    3    0    0  0.69577155976E-01  0.10327005654E-02  0.91914716115E-01  0.88751921790E+00  0.88000000000E+00 0. -1.
        -11    1    4    4    0    0 -0.59145413661E-01 -0.16362158399E-01 -0.78943478133E-01  0.99991169837E-01  0.51100000000E-03 0.  1.
         11    1    4    4    0    0 -0.11904246081E-01  0.53132052544E-03 -0.30902354458E-01  0.33124160492E-01  0.51100000000E-03 0. -1.
</event>
<event>
 8    1  0.1010879E+005  0.1043930E+01  0.7957747E-01            NaN
         13   -1    0    0    0    0  0.00000000000E+00  0.00000000000E+00  0.74505805969E-08  0.10566000000E+00  0.10566000000E+00 0.  1.
     999900   -1    0    0    0    0 -0.00000000000E+00 -0.00000000000E+00 -0.74505805969E-08  0.93827000000E+00  0.93827000000E+00 0.  1.
     999902    2    1    2    0    0 -0.33513712080E-02 -0.44569658207E-02  0.23149572024E-01  0.10201182609E+01  0.10198403146E+01 0.  0.
     999903    2    3    3    0    0 -0.76065976102E-01 -0.54683132170E-02  0.10726316367E+00  0.13312134272E+00  0.19999260898E-01 0.  0.
         14    1    1    2    0    0  0.33513712080E-02  0.44569658207E-02 -0.23149572024E-01  0.23811739084E-01  0.00000000000E+00 0. -1.
     999901    1    3    3    0    0  0.72714604895E-01  0.10113473963E-02 -0.84113591649E-01  0.88699691820E+00  0.88000000000E+00 0. -1.
        -11    1    4    4    0    0 -0.33165875359E-01 -0.44629380646E-02  0.63775859482E-01  0.72024401963E-01  0.51100000000E-03 0. -1.
         11    1    4    4    0    0 -0.42900100743E-01 -0.10053751525E-02  0.43487304192E-01  0.61096940757E-01  0.51100000000E-03 0.  1.
</event>
<event>
 8    1  0.1010879E+005  0.1043930E+01  0.7957747E-01            NaN
         13   -1    0    0    0    0  0.00000000000E+00  0.00000000000E+00  0.74505805969E-08  0.10566000000E+00  0.10566000000E+00 0. -1.
     999900   -1    0    0    0    0 -0.00000000000E+00 -0.00000000000E+00 -0.74505805969E-08  0.93827000000E+00  0.93827000000E+00 0. -1.
     999902    2    1    2    0    0 -0.61200238009E-02  0.21839377675E-01 -0.68951150039E-02  0.10202243948E+01  0.10199489497E+01 0.  0.
     999903    2    3    3    0    0 -0.33952713219E-01 -0.12185763123E+00 -0.75491566023E-02  0.12813475984E+00  0.18959374750E-01 0.  0.
         14    1    1    2    0    0  0.61200238009E-02 -0.21839377675E-01  0.68951150039E-02  0.23705605233E-01  0.00000000000E+00 0. -1.
     999901    1    3    3    0    0  0.27832689418E-01  0.14369700890E+00  0.65404159839E-03  0.89208963492E+00  0.88000000000E+00 0.  1.
        -11    1    4    4    0    0 -0.40761689513E-02 -0.35698617509E-01 -0.85435673555E-02  0.36935891887E-01  0.51100000000E-03 0.  1.
         11    1    4    4    0    0 -0.29876544267E-01 -0.86159013720E-01  0.99441075325E-03  0.91198867955E-01  0.51100000000E-03 0. -1.
</event>
<event>
 7    1  0.1010879E+005  0.1043930E+01  0.7957747E-01            NaN
         13   -1    0    0    0    0  0.00000000000E+00  0.00000000000E+00  0.74505805969E-08  0.10566000000E+00  0.10566000000E+00 0. -1.
     999900   -1    0    0    0    0 -0.00000000000E+00 -0.00000000000E+00 -0.74505805969E-08  0.93827000000E+00  0.93827000000E+00 0.  1.
     999903    2    1    2    0    0  0.10876995922E+00 -0.24237028111E-01 -0.12785951498E-01  0.11387927213E+00  0.19663939177E-01 0.  0.
         14    1    1    2    0    0  0.24427683996E-01  0.30809678592E-01 -0.61787041700E-02  0.39801060608E-01  0.00000000000E+00 0. -1.
     999901    1    1    2    0    0 -0.13319764322E+00 -0.65726504810E-02  0.18964655667E-01  0.89024966726E+00  0.88000000000E+00 0. -1.
        -11    1    3    3    0    0  0.29044694884E-01 -0.45269990985E-02 -0.11983358592E-01  0.31748228705E-01  0.51100000000E-03 0.  1.
         11    1    3    3    0    0  0.79725264341E-01 -0.19710029012E-01 -0.80259290515E-03  0.82131043426E-01  0.51100000000E-03 0. -1.
</event>
<event>
 8    1  0.1010879E+005  0.1043930E+01  0.7957747E-01            NaN
         13   -1    0    0    0    0  0.00000000000E+00  0.00000000000E+00  0.74505805969E-08  0.10566000000E+00  0.10566000000E+00 0. -1.
     999900   -1    0    0    0    0 -0.00000000000E+00 -0.00000000000E+00 -0.74505805969E-08  0.93827000000E+00  0.93827000000E+00 0. -1.
     999902    2    1    2    0    0  0.20281110995E-01 -0.93362090726E-02 -0.75332049962E-02  0.10203665232E+01  0.10200944094E+01 0.  0.
     999903    2    3    3    0    0 -0.18638583604E-01 -0.12096373844E+00 -0.44539882562E-01  0.13169057428E+00  0.19467496005E-01 0.  0.
         14    1    1    2    0    0 -0.20281110995E-01  0.93362090726E-02  0.75332049962E-02  0.23563476835E-01  0.00000000000E+00 0.  1.
     999901    1    3    3    0    0  0.38919694598E-01  0.11162752936E+00  0.37006677566E-01  0.88867594888E+00  0.88000000000E+00 0.  1.
        -11    1    4    4    0    0 -0.12434001938E-01 -0.50276526030E-01 -0.99206224488E-02  0.52735314019E-01  0.51100000000E-03 0. -1.
         11    1    4    4    0    0 -0.62045816655E-02 -0.70687212406E-01 -0.34619260113E-01  0.78955260263E-01  0.51100000000E-03 0.  1.
</event>
<event>
 8    1  0.1010879E+005  0.1043930E+01  0.7957747E-01            NaN
         13   -1    0    0    0    0  0.00000000000E+00  0.00000000000E+00  0.74505805969E-08  0.10566000000E+00  0.10566000000E+00 0. -1.
     999900   -1    0    0    0    0 -0.00000000000E+00 -0.00000000000E+00 -0.74505805969E-08  0.93827000000E+00  0.93827000000E+00 0. -1.
     999902    2    1    2    0    0  0.19639634636E-01 -0.74086114463E-02 -0.10279015103E-01  0.10205577745E+01  0.10202901108E+01 0.  0.
     999903    2    3    3    0    0 -0.10554059993E+00 -0.12158120867E-02  0.69704951596E-01  0.12808599524E+00  0.20172889391E-01 0.  0.
         14    1    1    2    0    0 -0.19639634636E-01  0.74086114463E-02  0.10279015103E-01  0.23372225476E-01  0.00000000000E+00 0.  1.
     999901    1    3    3    0    0  0.12518023457E+00 -0.61927993596E-02 -0.79983966699E-01  0.89247177928E+00  0.88000000000E+00 0.  1.
        -11    1    4    4    0    0 -0.34666052043E-01 -0.10598589586E-02  0.34597901962E-01  0.48991166616E-01  0.51100000000E-03 0. -1.
         11    1    4    4    0    0 -0.70874547890E-01 -0.15595312810E-03  0.35107049634E-01  0.79094828623E-01  0.51100000000E-03 0.  1.
</event>
<event>
 8    1  0.1010879E+005  0.1043930E+01  0.7957747E-01            NaN
         13   -1    0    0    0    0  0.00000000000E+00  0.00000000000E+00  0.74505805969E-08  0.10566000000E+00  0.10566000000E+00 0. -1.
     999900   -1    0    0    0    0 -0.00000000000E+00 -0.00000000000E+00 -0.74505805969E-08  0.93827000000E+00  0.93827000000E+00 0.  1.
     999902    2    1    2    0    0  0.73352557399E-02 -0.22231316959E-01 -0.35967104840E-02  0.10202451154E+01  0.10199701573E+01 0.  0.
     999903    2    3    3    0    0 -0.14322924459E-01  0.12566437148E+00 -0.97774545209E-03  0.12763709934E+00  0.17134547483E-01 0.  0.
         14    1    1    2    0    0 -0.73352557399E-02  0.22231316959E-01  0.35967104840E-02  0.23684884564E-01  0.00000000000E+00 0.  1.
     999901    1    3    3    0    0  0.21658180199E-01 -0.14789568843E+00 -0.26189650320E-02  0.89260801610E+00  0.88000000000E+00 0. -1.
        -11    1    4    4    0    0 -0.78318665660E-02  0.83079670769E-01 -0.85885629681E-02  0.83890371103E-01  0.51100000000E-03 0. -1.
         11    1    4    4    0    0 -0.64910578932E-02  0.42584700707E-01  0.76108175160E-02  0.43746728233E-01  0.51100000000E-03 0.  1.
</event>
<event>
 8    1  0.1010879E+005  0.1043930E+01  0.7957747E-01            NaN
         13   -1    0    0    0    0  0.00000000000E+00  0.00000000000E+00  0.74505805969E-08  0.10566000000E+00  0.10566000000E+00 0. -1.
     999900   -1    0    0    0    0 -0.00000000000E+00 -0.00000000000E+00 -0.74505805969E-08  0.93827000000E+00  0.93827000000E+00 0.  1.
     999902    2    1    2    0    0  0.17618563715E-01 -0.16313446570E-01 -0.22862175524E-02  0.10198101095E+01  0.10195248356E+01 0.  0.
     999903    2    3    3    0    0 -0.99122835199E-01 -0.78900260948E-01  0.17843865457E-01  0.12966917472E+00  0.21097480952E-01 0.  0.
         14    1    1    2    0    0 -0.17618563715E-01  0.16313446570E-01  0.22862175524E-02  0.24119890486E-01  0.00000000000E+00 0. -1.
     999901    1    3    3    0    0  0.11674139891E+00  0.62586814378E-01 -0.20130083010E-01  0.89014093479E+00  0.88000000000E+00 0.  1.
        -11    1    4    4    0    0 -0.19421707241E-01 -0.24301297595E-01  0.10262141500E-01  0.32761691747E-01  0.51100000000E-03 0.  1.
         11    1    4    4    0    0 -0.79701127957E-01 -0.54598963353E-01  0.75817239571E-02  0.96907482973E-01  0.51100000000E-03 0. -1.
</event>
<event>
 8    1  0.1010879E+005  0.1043930E+01  0.7957747E-01            NaN
         13   -1    0    0    0    0  0.00000000000E+00  0.00000000000E+00  0.74505805969E-08  0.10566000000E+00  0.10566000000E+00 0.  1.
     999900   -1    0    0    0    0 -0.00000000000E+00 -0.00000000000E+00 -0.74505805969E-08  0.93827000000E+00  0.93827000000E+00 0.  1.
     999902    2    1    2    0    0  0.10676439962E-01  0.24011538861E-02  0.20935868775E-01  0.10203066533E+01  0.10200331388E+01 0.  0.
     999903    2    3    3    0    0 -0.54846609712E-01 -0.64324856991E-01  0.99389738962E-01  0.13188071919E+00  0.19192864804E-01 0.  0.
         14    1    1    2    0    0 -0.10676439962E-01 -0.24011538861E-02 -0.20935868775E-01  0.23623346748E-01  0.00000000000E+00 0. -1.
     999901    1    3    3    0    0  0.65523049674E-01  0.66726010877E-01 -0.78453870187E-01  0.88842593406E+00  0.88000000000E+00 0.  1.
        -11    1    4    4    0    0 -0.64849445167E-02 -0.85344990984E-02  0.24334744548E-01  0.26595734498E-01  0.51100000000E-03 0. -1.
         11    1    4    4    0    0 -0.48361665195E-01 -0.55790357892E-01  0.75054994414E-01  0.10528498469E+00  0.51100000000E-03 0.  1.
</event>
<event>
 8    1  0.1010879E+005  0.1043930E+01  0.7957747E-01            NaN
         13   -1    0    0    0    0  0.00000000000E+00  0.00000000000E+00  0.74505805969E-08  0.10566000000E+00  0.10566000000E+00 0.  1.
     999900   -1    0    0    0    0 -0.00000000000E+00 -0.00000000000E+00 -0.74505805969E-08  0.93827000000E+00  0.93827000000E+00 0.  1.
     999902    2    1    2    0    0 -0.16556033467E-01 -0.14838763252E-01  0.12416709774E-01  0.10184650079E+01  0.10181466037E+01 0.  0.
     999903    2    3    3    0    0 -0.84327611639E-01  0.50780108677E-01  0.83398559975E-01  0.13058143099E+00  0.20159979942E-01 0.  0.
         14    1    1    2    0    0  0.16556033467E-01  0.14838763252E-01 -0.12416709774E-01  0.25464992060E-01  0.00000000000E+00 0. -1.
     999901    1    3    3    0    0  0.67771578172E-01 -0.65618871929E-01 -0.70981850201E-01  0.88788357695E+00  0.88000000000E+00 0.  1.
        -11    1    4    4    0    0 -0.38397547327E-01  0.12553209169E-01  0.38801828223E-01  0.56016048554E-01  0.51100000000E-03 0.  1.
         11    1    4    4    0    0 -0.45930064312E-01  0.38226899509E-01  0.44596731752E-01  0.74565382435E-01  0.51100000000E-03 0. -1.
</event>
<event>
 8    1  0.1010879E+005  0.1043930E+01  0.7957747E-01            NaN
         13   -1    0    0    0    0  0.00000000000E+00  0.00000000000E+00  0.74505805969E-08  0.10566000000E+00  0.10566000000E+00 0.  1.
     999900   -1    0    0    0    0 -0.00000000000E+00 -0.00000000000E+00 -0.74505805969E-08  0.93827000000E+00  0.93827000000E+00 0. -1.
     999902    2    1    2    0    0  0.65955660393E-02  0.19243568248E-01 -0.10991097243E-01  0.10208081353E+01  0.10205462402E+01 0.  0.
     999903    2    3    3    0    0  0.65339707050E-01 -0.31525179368E-01 -0.10838602572E+00  0.13203701066E+00  0.20570059813E-01 0.  0.
         14    1    1    2    0    0 -0.65955660393E-02 -0.19243568248E-01  0.10991097243E-01  0.23121864736E-01  0.00000000000E+00 0.  1.
     999901    1    3    3    0    0 -0.58744141011E-01  0.50768747616E-01  0.97394928478E-01  0.88877112460E+00  0.88000000000E+00 0.  1.
        -11    1    4    4    0    0  0.55254540367E-01 -0.17623698379E-01 -0.79146680113E-01  0.98122969124E-01  0.51100000000E-03 0.  1.
         11    1    4    4    0    0  0.10085166683E-01 -0.13901480989E-01 -0.29239345607E-01  0.33914041535E-01  0.51100000000E-03 0. -1.
</event>
<event>
 8    1  0.1010879E+005  0.1043930E+01  0.7957747E-01            NaN
         13   -1    0    0    0    0  0.00000000000E+00  0.00000000000E+00  0.74505805969E-08  0.10566000000E+00  0.10566000000E+00 0.  1.
     999900   -1    0    0    0    0 -0.00000000000E+00 -0.00000000000E+00 -0.74505805969E-08  0.93827000000E+00  0.93827000000E+00 0.  1.
     999902    2    1    2    0    0 -0.10005279025E-02  0.18505290769E-01  0.15629590043E-01  0.10196868375E+01  0.10193986049E+01 0.  0.
     999903    2    3    3    0    0  0.25030119519E-01 -0.10461252521E+00 -0.64651618512E-01  0.12711714070E+00  0.20215053040E-01 0.  0.
         14    1    1    2    0    0  0.10005279025E-02 -0.18505290769E-01 -0.15629590043E-01  0.24243162489E-01  0.00000000000E+00 0. -1.
     999901    1    3    3    0    0 -0.26030647422E-01  0.12311781598E+00  0.80281208555E-01  0.89256969681E+00  0.88000000000E+00 0.  1.
        -11    1    4    4    0    0  0.67260719813E-02 -0.57004721357E-02 -0.59560797180E-02  0.10652297099E-01  0.51100000000E-03 0.  1.
         11    1    4    4    0    0  0.18304047538E-01 -0.98912053077E-01 -0.58695538794E-01  0.11646484360E+00  0.51100000000E-03 0. -1.
</event>
<event>
 8    1  0.1010879E+005  0.1043930E+01  0.7957747E-01            NaN
         13   -1    0    0    0    0  0.00000000000E+00  0.00000000000E+00  0.74505805969E-08  0.10566000000E+00  0.10566000000E+00 0. -1.
     999900   -1    0    0    0    0 -0.00000000000E+00 -0.00000000000E+00 -0.74505805969E-08  0.93827000000E+00  0.93827000000E+00 0.  1.
     999902    2    1    2    0    0  0.20860087014E-01  0.63448508208E-02 -0.38701965643E-02  0.10217855022E+01  0.10215455123E+01 0.  0.
     999903    2    3    3    0    0 -0.74885321563E-01 -0.63047235934E-01  0.83036992720E-01  0.12963343862E+00  0.18080954179E-01 0.  0.
         14    1    1    2    0    0 -0.20860087014E-01 -0.63448508208E-02  0.38701965643E-02  0.22144497818E-01  0.00000000000E+00 0. -1.
     999901    1    3    3    0    0  0.95745408577E-01  0.69392086755E-01 -0.86907189284E-01  0.89215206356E+00  0.88000000000E+00 0.  1.
        -11    1    4    4    0    0 -0.44674318576E-01 -0.30605828960E-01  0.54956327268E-01  0.77155495815E-01  0.51100000000E-03 0. -1.
         11    1    4    4    0    0 -0.30211002987E-01 -0.32441406974E-01  0.28080665452E-01  0.52477942806E-01  0.51100000000E-03 0.  1.
</event>
<event>
 8    1  0.1010879E+005  0.1043930E+01  0.7957747E-01            NaN
         13   -1    0    0    0    0  0.00000000000E+00  0.00000000000E+00  0.74505805969E-08  0.10566000000E+00  0.10566000000E+00 0. -1.
     999900   -1    0    0    0    0 -0.00000000000E+00 -0.00000000000E+00 -0.74505805969E-08  0.93827000000E+00  0.93827000000E+00 0.  1.
     999902    2    1    2    0    0 -0.18090944040E-01 -0.13857727181E-01  0.64427973609E-02  0.10202481821E+01  0.10199732961E+01 0.  0.
     999903    2    3    3    0    0  0.11167925516E+00  0.24376061580E-02 -0.59417879031E-01  0.12814758738E+00  0.20325399019E-01 0.  0.
         14    1    1    2    0    0  0.18090944040E-01  0.13857727181E-01 -0.64427973609E-02  0.23681817851E-01  0.00000000000E+00 0.  1.
     999901    1    3    3    0    0 -0.12977019920E+00 -0.16295333339E-01  0.65860676392E-01  0.89210059477E+00  0.88000000000E+00 0.  1.
        -11    1    4    4    0    0  0.99988787725E-01  0.62143822853E-02 -0.46958133648E-01  0.11064223269E+00  0.51100000000E-03 0.  1.
         11    1    4    4    0    0  0.11690467439E-01 -0.37767761273E-02 -0.12459745383E-01  0.17505354691E-01  0.51100000000E-03 0. -1.
</event>
<event>
 8    1  0.1010879E+005  0.1043930E+01  0.7957747E-01            NaN
         13   -1    0    0    0    0  0.00000000000E+00  0.00000000000E+00  0.74505805969E-08  0.10566000000E+00  0.10566000000E+00 0. -1.
     999900   -1    0    0    0    0 -0.00000000000E+00 -0.00000000000E+00 -0.74505805969E-08  0.93827000000E+00  0.93827000000E+00 0.  1.
     999902    2    1    2    0    0 -0.22204427091E-02 -0.21560551724E-01 -0.99053792415E-02  0.10200992574E+01  0.10198208620E+01 0.  0.
     999903    2    3    3    0    0 -0.81476882327E-01  0.35093807523E-01  0.91368367118E-01  0.12894962271E+00  0.20242751990E-01 0.  0.
         14    1    1    2    0    0  0.22204427091E-02  0.21560551724E-01  0.99053792415E-02  0.23830742632E-01  0.00000000000E+00 0.  1.
     999901    1    3    3    0    0  0.79256439618E-01 -0.56654359247E-01 -0.10127374636E+00  0.89114963465E+00  0.88000000000E+00 0.  1.
        -11    1    4    4    0    0 -0.58906498265E-01  0.20341390909E-01  0.51661428650E-01  0.80950059006E-01  0.51100000000E-03 0. -1.
         11    1    4    4    0    0 -0.22570384062E-01  0.14752416614E-01  0.39706938468E-01  0.47999563708E-01  0.51100000000E-03 0.  1.
</event>
<event>
 8    1  0.1010879E+005  0.1043930E+01  0.7957747E-01            NaN
         13   -1    0    0    0    0  0.00000000000E+00  0.00000000000E+00  0.74505805969E-08  0.10566000000E+00  0.10566000000E+00 0. -1.
     999900   -1    0    0    0    0 -0.00000000000E+00 -0.00000000000E+00 -0.74505805969E-08  0.93827000000E+00  0.93827000000E+00 0. -1.
     999902    2    1    2    0    0  0.23220848186E-01 -0.25368581620E-03  0.29316871734E-02  0.10205234424E+01  0.10202549827E+01 0.  0.
     999903    2    3    3    0    0  0.66061206849E-01 -0.59500746097E-01  0.96305606216E-01  0.13256837644E+00  0.19879205396E-01 0.  0.
         14    1    1    2    0    0 -0.23220848186E-01  0.25368581620E-03 -0.29316871734E-02  0.23406557556E-01  0.00000000000E+00 0. -1.
     999901    1    3    3    0    0 -0.42840358663E-01  0.59247060281E-01 -0.93373919042E-01  0.88795506600E+00  0.88000000000E+00 0. -1.
        -11    1    4    4    0    0  0.62846780240E-02 -0.11302453141E-01  0.23085003735E-01  0.26465470775E-01  0.51100000000E-03 0. -1.
         11    1    4    4    0    0  0.59776528825E-01 -0.48198292956E-01  0.73220602480E-01  0.10610290567E+00  0.51100000000E-03 0.  1.
</event>
<event>
 8    1  0.1010879E+005  0.1043930E+01  0.7957747E-01            NaN
         13   -1    0    0    0    0  0.00000000000E+00  0.00000000000E+00  0.74505805969E-08  0.10566000000E+00  0.10566000000E+00 0.  1.
     999900   -1    0    0    0    0 -0.00000000000E+00 -0.00000000000E+00 -0.74505805969E-08  0.93827000000E+00  0.93827000000E+00 0. -1.
     999902    2    1    2    0    0  0.14538962963E-01 -0.14870318528E-01 -0.11612205094E-01  0.10201108664E+01  0.10198327454E+01 0.  0.
     999903    2    3    3    0    0  0.81886252421E-01 -0.10359000486E+00 -0.10399982363E-01  0.13308870795E+00  0.12969082795E-01 0.  0.
         14    1    1    2    0    0 -0.14538962963E-01  0.14870318528E-01  0.11612205094E-01  0.23819133576E-01  0.00000000000E+00 0.  1.
     999901    1    3    3    0    0 -0.67347289458E-01  0.88719686331E-01 -0.12122227306E-02  0.88702215847E+00  0.88000000000E+00 0. -1.
        -11    1    4    4    0    0  0.25400857510E-01 -0.37208013638E-01  0.17178795321E-02  0.45087160836E-01  0.51100000000E-03 0.  1.
         11    1    4    4    0    0  0.56485394910E-01 -0.66381991221E-01 -0.12117861895E-01  0.88001547114E-01  0.51100000000E-03 0. -1.
</event>
<event>
 8    1  0.1010879E+005  0.1043930E+01  0.7957747E-01            NaN
         13   -1    0    0    0    0  0.00000000000E+00  0.00000000000E+00  0.74505805969E-08  0.10566000000E+00  0.10566000000E+00 0. -1.
     999900   -1    0    0    0    0 -0.00000000000E+00 -0.00000000000E+00 -0.74505805969E-08  0.93827000000E+00  0.93827000000E+00 0. -1.
     999902    2    1    2    0    0  0.66328777229E-02 -0.84608066829E-02  0.19366122547E-01  0.10217798980E+01  0.10215397853E+01 0.  0.
     999903    2    3    3    0    0 -0.81127326612E-01 -0.64944851645E-01 -0.76279782416E-01  0.13046601392E+00  0.20082298273E-01 0.  0.
         14    1    1    2    0    0 -0.66328777229E-02  0.84608066829E-02 -0.19366122547E-01  0.22150102011E-01  0.00000000000E+00 0.  1.
     999901    1    3    3    0    0  0.87760204335E-01  0.56484044962E-01  0.95645904963E-01  0.89131388407E+00  0.88000000000E+00 0.  1.
        -11    1    4    4    0    0 -0.38869077499E-01 -0.30001673048E-01 -0.48407398718E-01  0.68952468722E-01  0.51100000000E-03 0. -1.
         11    1    4    4    0    0 -0.42258249113E-01 -0.34943178597E-01 -0.27872383699E-01  0.61513545196E-01  0.51100000000E-03 0.  1.
</event>
<event>
 8    1  0.1010879E+005  0.1043930E+01  0.7957747E-01            NaN
         13   -1    0    0    0    0  0.00000000000E+00  0.00000000000E+00  0.74505805969E-08  0.10566000000E+00  0.10566000000E+00 0. -1.
     999900   -1    0    0    0    0 -0.00000000000E+00 -0.00000000000E+00 -0.74505805969E-08  0.93827000000E+00  0.93827000000E+00 0.  1.
     999902    2    1    2    0    0  0.45529727531E-02 -0.23079102117E-01  0.43056282723E-02  0.10200152984E+01  0.10197349146E+01 0.  0.
     999903    2    3    3    0    0 -0.10378811833E+00 -0.73981924476E-01 -0.25375959665E-01  0.13141534009E+00  0.19512909170E-01 0.  0.
         14    1    1    2    0    0 -0.45529727531E-02  0.23079102117E-01 -0.43056282723E-02  0.23914701550E-01  0.00000000000E+00 0.  1.
     999901    1    3    3    0    0  0.10834109109E+00  0.50902822358E-01  0.29681587937E-01  0.88859995836E+00  0.88000000000E+00 0. -1.
        -11    1    4    4    0    0 -0.25973349047E-01 -0.19737951874E-01  0.19994797309E-02  0.32687316272E-01  0.51100000000E-03 0. -1.
         11    1    4    4    0    0 -0.77814769288E-01 -0.54243972602E-01 -0.27375439396E-01  0.98728023814E-01  0.51100000000E-03 0.  1.
</event>
<event>
 8    1  0.1010879E+005  0.1043930E+01  0.7957747E-01            NaN
         13   -1    0    0    0    0  0.00000000000E+00  0.00000000000E+00  0.74505805969E-08  0.10566000000E+00  0.10566000000E+00 0.  1.
     999900   -1    0    0    0    0 -0.00000000000E+00 -0.00000000000E+00 -0.74505805969E-08  0.93827000000E+00  0.93827000000E+00 0. -1.
     999902    2    1    2    0    0  0.97035163325E-02  0.23693352471E-01 -0.80887913621E-02  0.10170792695E+01  0.10167247803E+01 0.  0.
     999903    2    3    3    0    0  0.11349743766E+00 -0.46285493926E-01 -0.31188873941E-01  0.12792021129E+00  0.19152527117E-01 0.  0.
         14    1    1    2    0    0 -0.97035163325E-02 -0.23693352471E-01  0.80887913621E-02  0.26850730460E-01  0.00000000000E+00 0.  1.
     999901    1    3    3    0    0 -0.10379392133E+00  0.69978846397E-01  0.23100082579E-01  0.88915905825E+00  0.88000000000E+00 0.  1.
        -11    1    4    4    0    0  0.72328277274E-01 -0.38878294658E-01 -0.23197187943E-01  0.85330370551E-01  0.51100000000E-03 0.  1.
         11    1    4    4    0    0  0.41169160391E-01 -0.74071992681E-02 -0.79916859985E-02  0.42589840742E-01  0.51100000000E-03 0. -1.
</event>
<event>
 8    1  0.1010879E+005  0.1043930E+01  0.7957747E-01            NaN
         13   -1    0    0    0    0  0.00000000000E+00  0.00000000000E+00  0.74505805969E-08  0.10566000000E+00  0.10566000000E+00 0. -1.
     999900   -1    0    0    0    0 -0.00000000000E+00 -0.00000000000E+00 -0.74505805969E-08  0.93827000000E+00  0.93827000000E+00 0. -1.
     999902    2    1    2    0    0 -0.10543427726E-01 -0.22460068428E-02 -0.21142679500E-01  0.10201977158E+01  0.10199216431E+01 0.  0.
     999903    2    3    3    0    0  0.10896475137E+00  0.36090261173E-01 -0.58950790462E-01  0.13048915256E+00  0.19401011538E-01 0.  0.
         14    1    1    2    0    0  0.10543427726E-01  0.22460068428E-02  0.21142679500E-01  0.23732284159E-01  0.00000000000E+00 0. -1.
     999901    1    3    3    0    0 -0.11950817909E+00 -0.38336268015E-01  0.37808110962E-01  0.88970856328E+00  0.88000000000E+00 0. -1.
        -11    1    4    4    0    0  0.50848720566E-01  0.80684857667E-02 -0.31594550316E-01  0.60408356843E-01  0.51100000000E-03 0. -1.
         11    1    4    4    0    0  0.58116030800E-01  0.28021775406E-01 -0.27356240147E-01  0.70080795720E-01  0.51100000000E-03 0.  1.
</event>
<event>
 8    1  0.1010879E+005  0.1043930E+01  0.7957747E-01            NaN
         13   -1    0    0    0    0  0.00000000000E+00  0.00000000000E+00  0.74505805969E-08  0.10566000000E+00  0.10566000000E+00 0. -1.
     999900   -1    0    0    0    0 -0.00000000000E+00 -0.00000000000E+00 -0.74505805969E-08  0.93827000000E+00  0.93827000000E+00 0. -1.
     999902    2    1    2    0    0 -0.21230854076E-01 -0.76958263711E-02 -0.54337831142E-02  0.10207028412E+01  0.10204385278E+01 0.  0.
     999903    2    3    3    0    0 -0.30563214397E-01  0.12529806915E+00 -0.68198950758E-02  0.13065992619E+00  0.19793664048E-01 0.  0.
         14    1    1    2    0    0  0.21230854076E-01  0.76958263711E-02  0.54337831142E-02  0.23227158829E-01  0.00000000000E+00 0. -1.
     999901    1    3    3    0    0  0.93323603206E-02 -0.13299389552E+00  0.13861119616E-02  0.89004291498E+00  0.88000000000E+00 0. -1.
        -11    1    4    4    0    0 -0.85399455901E-02  0.66193576699E-01  0.30611941610E-02  0.66814312072E-01  0.51100000000E-03 0.  1.
         11    1    4    4    0    0 -0.22023268807E-01  0.59104492453E-01 -0.98810892368E-02  0.63845614122E-01  0.51100000000E-03 0. -1.
</event>
<event>
 8    1  0.1010879E+005  0.1043930E+01  0.7957747E-01            NaN
         13   -1    0    0    0    0  0.00000000000E+00  0.00000000000E+00  0.74505805969E-08  0.10566000000E+00  0.10566000000E+00 0.  1.
     999900   -1    0    0    0    0 -0.00000000000E+00 -0.00000000000E+00 -0.74505805969E-08  0.93827000000E+00  0.93827000000E+00 0. -1.
     999902    2    1    2    0    0 -0.19237847907E-02 -0.18689416295E-01 -0.14474054668E-01  0.10202130548E+01  0.10199373431E+01 0.  0.
     999903    2    3    3    0    0  0.50857690511E-01  0.99018976399E-01  0.59639257364E-01  0.12772555752E+00  0.19123667369E-01 0.  0.
         14    1    1    2    0    0  0.19237847907E-02  0.18689416295E-01  0.14474054668E-01  0.23716945163E-01  0.00000000000E+00 0.  1.
     999901    1    3    3    0    0 -0.52781475302E-01 -0.11770839269E+00 -0.74113312032E-01  0.89248749732E+00  0.88000000000E+00 0.  1.
        -11    1    4    4    0    0  0.15486302673E-01  0.27147719846E-01  0.74972367127E-02  0.32144889837E-01  0.51100000000E-03 0.  1.
         11    1    4    4    0    0  0.35371387838E-01  0.71871256553E-01  0.52142020652E-01  0.95580667683E-01  0.51100000000E-03 0. -1.
</event>
<event>
 8    1  0.1010879E+005  0.1043930E+01  0.7957747E-01            NaN
         13   -1    0    0    0    0  0.00000000000E+00  0.00000000000E+00  0.74505805969E-08  0.10566000000E+00  0.10566000000E+00 0. -1.
     999900   -1    0    0    0    0 -0.00000000000E+00 -0.00000000000E+00 -0.74505805969E-08  0.93827000000E+00  0.93827000000E+00 0.  1.
     999902    2    1    2    0    0 -0.29584892897E-03 -0.51690183608E-02  0.22286144506E-01  0.10210503472E+01  0.10207939718E+01 0.  0.
     999903    2    3    3    0    0 -0.43952173164E-01 -0.42999129452E-01 -0.11166671344E+00  0.12904117674E+00  0.20036260731E-01 0.  0.
         14    1    1    2    0    0  0.29584892897E-03  0.51690183608E-02 -0.22286144506E-01  0.22879652845E-01  0.00000000000E+00 0.  1.
     999901    1    3    3    0    0  0.43656324235E-01  0.37830111091E-01  0.13395285795E+00  0.89200917041E+00  0.88000000000E+00 0. -1.
        -11    1    4    4    0    0 -0.30118059425E-01 -0.19971650004E-01 -0.49261120993E-01  0.61097327846E-01  0.51100000000E-03 0. -1.
         11    1    4    4    0    0 -0.13834113739E-01 -0.23027479448E-01 -0.62405592449E-01  0.67943848894E-01  0.51100000000E-03 0.  1.
</event>
<event>
 8    1  0.1010879E+005  0.1043930E+01  0.7957747E-01            NaN
         13   -1    0    0    0    0  0.00000000000E+00  0.00000000000E+00  0.74505805969E-08  0.10566000000E+00  0.10566000000E+00 0.  1.
     999900   -1    0    0    0    0 -0.00000000000E+00 -0.00000000000E+00 -0.74505805969E-08  0.93827000000E+00  0.93827000000E+00 0.  1.
     999902    2    1    2    0    0 -0.66137891517E-02  0.21904271396E-01 -0.56715866480E-02  0.10203565784E+01  0.10200842322E+01 0.  0.
     999903    2    3    3    0    0  0.11928583075E-01  0.26307179473E-01  0.12562274043E+00  0.13041197027E+00  0.19795208725E-01 0.  0.
         14    1    1    2    0    0  0.66137891517E-02 -0.21904271396E-01  0.56715866480E-02  0.23573421632E-01  0.00000000000E+00 0. -1.
     999901    1    3    3    0    0 -0.18542372226E-01 -0.44029080769E-02 -0.13129432708E+00  0.88994460810E+00  0.88000000000E+00 0.  1.
        -11    1    4    4    0    0  0.35231257943E-02  0.99386497054E-02  0.15452052249E-01  0.18714064578E-01  0.51100000000E-03 0. -1.
         11    1    4    4    0    0  0.84054572803E-02  0.16368529767E-01  0.11017068818E+00  0.11169790569E+00  0.51100000000E-03 0.  1.
</event>
<event>
 8    1  0.1010879E+005  0.1043930E+01  0.7957747E-01            NaN
         13   -1    0    0    0    0  0.00000000000E+00  0.00000000000E+00  0.74505805969E-08  0.10566000000E+00  0.10566000000E+00 0. -1.
     999900   -1    0    0    0    0 -0.00000000000E+00 -0.00000000000E+00 -0.74505805969E-08  0.93827000000E+00  0.93827000000E+00 0.  1.
     999902    2    1    2    0    0  0.19560904814E-01 -0.36868653636E-02  0.13066274270E-01  0.10201192987E+01  0.10198413769E+01 0.  0.
     999903    2    3    3    0    0  0.43881946621E-01 -0.83696914197E-01 -0.87698739726E-01  0.13043019061E+00  0.19752645113E-01 0.  0.
         14    1    1    2    0    0 -0.19560904814E-01  0.36868653636E-02 -0.13066274270E-01  0.23810701306E-01  0.00000000000E+00 0. -1.
     999901    1    3    3    0    0 -0.24321041807E-01  0.80010048834E-01  0.10076501400E+00  0.88968910808E+00  0.88000000000E+00 0. -1.
        -11    1    4    4    0    0  0.36675655926E-01 -0.49883102682E-01 -0.54219302076E-01  0.82300798959E-01  0.51100000000E-03 0. -1.
         11    1    4    4    0    0  0.72062906952E-02 -0.33813811515E-01 -0.33479437650E-01  0.48129391655E-01  0.51100000000E-03 0.  1.
</event>
<event>
 8    1  0.1010879E+005  0.1043930E+01  0.7957747E-01            NaN
         13   -1    0    0    0    0  0.00000000000E+00  0.00000000000E+00  0.74505805969E-08  0.10566000000E+00  0.10566000000E+00 0. -1.
     999900   -1    0    0    0    0 -0.00000000000E+00 -0.00000000000E+00 -0.74505805969E-08  0.93827000000E+00  0.93827000000E+00 0.  1.
     999902    2    1    2    0    0  0.24712280423E-02 -0.17319487426E-01  0.13334423128E-01  0.10219327626E+01  0.10216959885E+01 0.  0.
     999903    2    3    3    0    0  0.80718383354E-01  0.51295406713E-01  0.89561120321E-01  0.13252783212E+00  0.19893613348E-01 0.  0.
         14    1    1    2    0    0 -0.24712280423E-02  0.17319487426E-01 -0.13334423128E-01  0.21997237392E-01  0.00000000000E+00 0.  1.
     999901    1    3    3    0    0 -0.78247155312E-01 -0.68614894139E-01 -0.76226697193E-01  0.88940493049E+00  0.88000000000E+00 0.  1.
        -11    1    4    4    0    0  0.39014042452E-01  0.19118267468E-01  0.52355271870E-01  0.68036308491E-01  0.51100000000E-03 0. -1.
         11    1    4    4    0    0  0.41704340902E-01  0.32177139245E-01  0.37205848451E-01  0.64491523629E-01  0.51100000000E-03 0.  1.
</event>
<event>
 8    1  0.1010879E+005  0.1043930E+01  0.7957747E-01            NaN
         13   -1    0    0    0    0  0.00000000000E+00  0.00000000000E+00  0.74505805969E-08  0.10566000000E+00  0.10566000000E+00 0.  1.
     999900   -1    0    0    0    0 -0.00000000000E+00 -0.00000000000E+00 -0.74505805969E-08  0.93827000000E+00  0.93827000000E+00 0.  1.
     999902    2    1    2    0    0  0.92896189042E-02 -0.38058384977E-02  0.23787757287E-01  0.10181106502E+01  0.10177832074E+01 0.  0.
     999903    2    3    3    0    0 -0.69749096776E-01  0.10401886603E+00 -0.11269429000E-01  0.12732319421E+00  0.19983362152E-01 0.  0.
         14    1    1    2    0    0 -0.92896189042E-02  0.38058384977E-02 -0.23787757287E-01  0.25819349774E-01  0.00000000000E+00 0. -1.
     999901    1    3    3    0    0  0.79038715680E-01 -0.10782470453E+00  0.35057186286E-01  0.89078745601E+00  0.88000000000E+00 0. -1.
        -11    1    4    4    0    0 -0.50817614504E-01  0.82451741841E-01 -0.10653793331E-02  0.96861322677E-01  0.51100000000E-03 0.  1.
         11    1    4    4    0    0 -0.18931482272E-01  0.21567124188E-01 -0.10204049666E-01  0.30461871534E-01  0.51100000000E-03 0. -1.
</event>
<event>
 8    1  0.1010879E+005  0.1043930E+01  0.7957747E-01            NaN
         13   -1    0    0    0    0  0.00000000000E+00  0.00000000000E+00  0.74505805969E-08  0.10566000000E+00  0.10566000000E+00 0. -1.
     999900   -1    0    0    0    0 -0.00000000000E+00 -0.00000000000E+00 -0.74505805969E-08  0.93827000000E+00  0.93827000000E+00 0. -1.
     999902    2    1    2    0    0 -0.14075490155E-01  0.62750781817E-02 -0.18288565618E-01  0.10200141546E+01  0.10197337436E+01 0.  0.
     999903    2    3    3    0    0 -0.42300945492E-01  0.81809541969E-01 -0.93997793592E-01  0.13309024650E+00  0.19881080600E-01 0.  0.
         14    1    1    2    0    0  0.14075490155E-01 -0.62750781817E-02  0.18288565618E-01  0.23915845409E-01  0.00000000000E+00 0. -1.
     999901    1    3    3    0    0  0.28225455337E-01 -0.75534463787E-01  0.75709227974E-01  0.88692390809E+00  0.88000000000E+00 0.  1.
        -11    1    4    4    0    0 -0.33577718248E-01  0.56718210176E-01 -0.54707749955E-01  0.85659894668E-01  0.51100000000E-03 0. -1.
         11    1    4    4    0    0 -0.87232272438E-02  0.25091331793E-01 -0.39290043637E-01  0.47430351829E-01  0.51100000000E-03 0.  1.
</event>
<event>
 8    1  0.1010879E+005  0.1043930E+01  0.7957747E-01            NaN
         13   -1    0    0    0    0  0.00000000000E+00  0.00000000000E+00  0.74505805969E-08  0.10566000000E+00  0.10566000000E+00 0. -1.
     999900   -1    0    0    0    0 -0.00000000000E+00 -0.00000000000E+00 -0.74505805969E-08  0.93827000000E+00  0.93827000000E+00 0.  1.
     999902    2    1    2    0    0  0.31035219814E-02  0.20209872163E-01  0.11843580939E-01  0.10203007556E+01  0.10200271029E+01 0.  0.
     999903    2    3    3    0    0 -0.84562206514E-01  0.76805701212E-01  0.64255472138E-01  0.13258719022E+00  0.20017862063E-01 0.  0.
         14    1    1    2    0    0 -0.31035219814E-02 -0.20209872163E-01 -0.11843580939E-01  0.23629244402E-01  0.00000000000E+00 0. -1.
     999901    1    3    3    0    0  0.87665728495E-01 -0.56595829048E-01 -0.52411891199E-01  0.88771356538E+00  0.88000000000E+00 0.  1.
        -11    1    4    4    0    0 -0.28382076116E-01  0.14617807381E-01  0.21592274216E-01  0.38544908407E-01  0.51100000000E-03 0. -1.
         11    1    4    4    0    0 -0.56180130397E-01  0.62187893830E-01  0.42663197922E-01  0.94042281812E-01  0.51100000000E-03 0.  1.
</event>
<event>
 8    1  0.1010879E+005  0.1043930E+01  0.7957747E-01            NaN
         13   -1    0    0    0    0  0.00000000000E+00  0.00000000000E+00  0.74505805969E-08  0.10566000000E+00  0.10566000000E+00 0. -1.
     999900   -1    0    0    0    0 -0.00000000000E+00 -0.00000000000E+00 -0.74505805969E-08  0.93827000000E+00  0.93827000000E+00 0.  1.
     999902    2    1    2    0    0 -0.14324178206E-01 -0.22679689359E-02 -0.21705388520E-01  0.10178254093E+01  0.10174905966E+01 0.  0.
     999903    2    3    3    0    0 -0.10581561297E+00  0.72141816746E-01  0.26429684320E-02  0.12962478933E+00  0.19854849652E-01 0.  0.
         14    1    1    2    0    0  0.14324178206E-01  0.22679689359E-02  0.21705388520E-01  0.26104590691E-01  0.00000000000E+00 0. -1.
     999901    1    3    3    0    0  0.91491434768E-01 -0.74409785682E-01 -0.24348356952E-01  0.88820061998E+00  0.88000000000E+00 0. -1.
        -11    1    4    4    0    0 -0.61715957610E-01  0.52822349728E-01  0.52503489032E-02  0.81405695987E-01  0.51100000000E-03 0.  1.
         11    1    4    4    0    0 -0.44099655364E-01  0.19319467018E-01 -0.26073804712E-02  0.48219093345E-01  0.51100000000E-03 0. -1.
</event>
<event>
 8    1  0.1010879E+005  0.1043930E+01  0.7957747E-01            NaN
         13   -1    0    0    0    0  0.00000000000E+00  0.00000000000E+00  0.74505805969E-08  0.10566000000E+00  0.10566000000E+00 0. -1.
     999900   -1    0    0    0    0 -0.00000000000E+00 -0.00000000000E+00 -0.74505805969E-08  0.93827000000E+00  0.93827000000E+00 0.  1.
     999902    2    1    2    0    0 -0.89298571614E-02  0.10262478094E-01  0.17671045710E-01  0.10216291780E+01  0.10213857502E+01 0.  0.
     999903    2    3    3    0    0  0.95545775786E-01  0.44123909455E-01  0.78259219379E-01  0.13273510039E+00  0.20449616180E-01 0.  0.
         14    1    1    2    0    0  0.89298571614E-02 -0.10262478094E-01 -0.17671045710E-01  0.22300822004E-01  0.00000000000E+00 0.  1.
     999901    1    3    3    0    0 -0.10447563295E+00 -0.33861431361E-01 -0.60588173669E-01  0.88889407761E+00  0.88000000000E+00 0.  1.
        -11    1    4    4    0    0  0.45927238505E-01  0.10074232981E-01  0.35158914210E-01  0.58712960889E-01  0.51100000000E-03 0. -1.
         11    1    4    4    0    0  0.49618537280E-01  0.34049676474E-01  0.43100305169E-01  0.74022139502E-01  0.51100000000E-03 0.  1.
</event>
<event>
 8    1  0.1010879E+005  0.1043930E+01  0.7957747E-01            NaN
         13   -1    0    0    0    0  0.00000000000E+00  0.00000000000E+00  0.74505805969E-08  0.10566000000E+00  0.10566000000E+00 0. -1.
     999900   -1    0    0    0    0 -0.00000000000E+00 -0.00000000000E+00 -0.74505805969E-08  0.93827000000E+00  0.93827000000E+00 0. -1.
     999902    2    1    2    0    0  0.19757176175E-01  0.14198875917E-01 -0.38551017449E-02  0.10192963665E+01  0.10189986590E+01 0.  0.
     999903    2    3    3    0    0  0.40887258748E-02  0.11600334953E+00 -0.59191760164E-01  0.13156228646E+00  0.18206481403E-01 0.  0.
         14    1    1    2    0    0 -0.19757176175E-01 -0.14198875917E-01  0.38551017449E-02  0.24633633455E-01  0.00000000000E+00 0.  1.
     999901    1    3    3    0    0  0.15668450300E-01 -0.10180447361E+00  0.55336658419E-01  0.88773408009E+00  0.88000000000E+00 0. -1.
        -11    1    4    4    0    0  0.73435495942E-02  0.33869751070E-01 -0.11442885779E-01  0.36500527587E-01  0.51100000000E-03 0.  1.
         11    1    4    4    0    0 -0.32548237194E-02  0.82133598462E-01 -0.47748874385E-01  0.95061758871E-01  0.51100000000E-03 0. -1.
</event>
<event>
 8    1  0.1010879E+005  0.1043930E+01  0.7957747E-01            NaN
         13   -1    0    0    0    0  0.00000000000E+00  0.00000000000E+00  0.74505805969E-08  0.10566000000E+00  0.10566000000E+00 0.  1.
     999900   -1    0    0    0    0 -0.00000000000E+00 -0.00000000000E+00 -0.74505805969E-08  0.93827000000E+00  0.93827000000E+00 0.  1.
     999902    2    1    2    0    0 -0.44159086804E-02  0.19050830758E-01 -0.22697908083E-01  0.10139695355E+01  0.10135268075E+01 0.  0.
     999903    2    3    3    0    0 -0.62389967240E-01 -0.10175191981E+00  0.20330256090E-01  0.12278733251E+00  0.20431556801E-01 0.  0.
         14    1    1    2    0    0  0.44159086804E-02 -0.19050830758E-01  0.22697908083E-01  0.29960464506E-01  0.00000000000E+00 0. -1.
     999901    1    3    3    0    0  0.57974058559E-01  0.12080275057E+00 -0.43028164174E-01  0.89118220299E+00  0.88000000000E+00 0. -1.
        -11    1    4    4    0    0 -0.23367902016E-01 -0.48883320886E-01  0.17777360415E-01  0.57025727262E-01  0.51100000000E-03 0. -1.
         11    1    4    4    0    0 -0.39022065224E-01 -0.52868598927E-01  0.25528956752E-02  0.65761605243E-01  0.51100000000E-03 0.  1.
</event>
<event>
 8    1  0.1010879E+005  0.1043930E+01  0.7957747E-01            NaN
         13   -1    0    0    0    0  0.00000000000E+00  0.00000000000E+00  0.74505805969E-08  0.10566000000E+00  0.10566000000E+00 0.  1.
     999900   -1    0    0    0    0 -0.00000000000E+00 -0.00000000000E+00 -0.74505805969E-08  0.93827000000E+00  0.93827000000E+00 0. -1.
     999902    2    1    2    0    0 -0.10426156301E-01  0.18724762692E-03  0.21998999459E-01  0.10195846560E+01  0.10192939591E+01 0.  0.
     999903    2    3    3    0    0  0.50707139660E-01  0.10199637831E-01  0.11881363946E+00  0.13211037337E+00  0.25714260719E-01 0.  0.
         14    1    1    2    0    0  0.10426156301E-01 -0.18724762692E-03 -0.21998999459E-01  0.24345343992E-01  0.00000000000E+00 0. -1.
     999901    1    3    3    0    0 -0.61133295961E-01 -0.10012390204E-01 -0.96814640003E-01  0.88747428264E+00  0.88000000000E+00 0. -1.
        -11    1    4    4    0    0  0.25500625988E-01  0.63152979561E-02  0.30854155723E-01  0.40526595718E-01  0.51100000000E-03 0.  1.
         11    1    4    4    0    0  0.25206513672E-01  0.38843398753E-02  0.87959483739E-01  0.91583777648E-01  0.51100000000E-03 0. -1.
</event>
<event>
 8    1  0.1010879E+005  0.1043930E+01  0.7957747E-01            NaN
         13   -1    0    0    0    0  0.00000000000E+00  0.00000000000E+00  0.74505805969E-08  0.10566000000E+00  0.10566000000E+00 0. -1.
     999900   -1    0    0    0    0 -0.00000000000E+00 -0.00000000000E+00 -0.74505805969E-08  0.93827000000E+00  0.93827000000E+00 0. -1.
     999902    2    1    2    0    0  0.65603444591E-03  0.17133303997E-01  0.16002959910E-01  0.10204763177E+01  0.10202067633E+01 0.  0.
     999903    2    3    3    0    0 -0.10122962926E+00  0.71871616668E-01  0.41813662187E-01  0.13253309672E+00  0.20091596718E-01 0.  0.
         14    1    1    2    0    0 -0.65603444591E-03 -0.17133303997E-01 -0.16002959910E-01  0.23453682289E-01  0.00000000000E+00 0.  1.
     999901    1    3    3    0    0  0.10188566371E+00 -0.54738312670E-01 -0.25810702277E-01  0.88794322099E+00  0.88000000000E+00 0. -1.
        -11    1    4    4    0    0 -0.17755761478E-01  0.22826019302E-01  0.10700754701E-01  0.30839284930E-01  0.51100000000E-03 0.  1.
         11    1    4    4    0    0 -0.83473867786E-01  0.49045597366E-01  0.31112907485E-01  0.10169381179E+00  0.51100000000E-03 0. -1.
</event>
<event>
 8    1  0.1010879E+005  0.1043930E+01  0.7957747E-01            NaN
         13   -1    0    0    0    0  0.00000000000E+00  0.00000000000E+00  0.74505805969E-08  0.10566000000E+00  0.10566000000E+00 0.  1.
     999900   -1    0    0    0    0 -0.00000000000E+00 -0.00000000000E+00 -0.74505805969E-08  0.93827000000E+00  0.93827000000E+00 0.  1.
     999902    2    1    2    0    0 -0.73722466125E-02  0.18440337720E-01 -0.13641339249E-01  0.10198368015E+01  0.10195521662E+01 0.  0.
     999903    2    3    3    0    0  0.88520047516E-01  0.95053594338E-01  0.34950385850E-02  0.13115318033E+00  0.17831343419E-01 0.  0.
         14    1    1    2    0    0  0.73722466125E-02 -0.18440337720E-01  0.13641339249E-01  0.24093198456E-01  0.00000000000E+00 0. -1.
     999901    1    3    3    0    0 -0.95892294128E-01 -0.76613256618E-01 -0.17136377834E-01  0.88868362121E+00  0.88000000000E+00 0. -1.
        -11    1    4    4    0    0  0.47786416996E-01  0.61168516475E-01 -0.35203163383E-02  0.77703171140E-01  0.51100000000E-03 0. -1.
         11    1    4    4    0    0  0.40733630520E-01  0.33885077863E-01  0.70153549234E-02  0.53450009194E-01  0.51100000000E-03 0.  1.
</event>
<event>
 8    1  0.1010879E+005  0.1043930E+01  0.7957747E-01            NaN
         13   -1    0    0    0    0  0.00000000000E+00  0.00000000000E+00  0.74505805969E-08  0.10566000000E+00  0.10566000000E+00 0. -1.
     999900   -1    0    0    0    0 -0.00000000000E+00 -0.00000000000E+00 -0.74505805969E-08  0.93827000000E+00  0.93827000000E+00 0. -1.
     999902    2    1    2    0    0  0.13111866706E-01  0.19666880355E-01  0.42461930730E-02  0.10199146427E+01  0.10196318654E+01 0.  0.
     999903    2    3    3    0    0  0.14863781078E-01  0.85842202913E-01 -0.96431749600E-01  0.13170391844E+00  0.21378119956E-01 0.  0.
         14    1    1    2    0    0 -0.13111866706E-01 -0.19666880355E-01 -0.42461930730E-02  0.24015357317E-01  0.00000000000E+00 0. -1.
     999901    1    3    3    0    0 -0.17519143720E-02 -0.66175322557E-01  0.10067794267E+00  0.88821072424E+00  0.88000000000E+00 0.  1.
        -11    1    4    4    0    0 -0.31252883994E-02  0.44084424806E-01 -0.45679550718E-01  0.63561674088E-01  0.51100000000E-03 0. -1.
         11    1    4    4    0    0  0.17989069477E-01  0.41757778107E-01 -0.50752198882E-01  0.68142244353E-01  0.51100000000E-03 0.  1.
</event>
<event>
 8    1  0.1010879E+005  0.1043930E+01  0.7957747E-01            NaN
         13   -1    0    0    0    0  0.00000000000E+00  0.00000000000E+00  0.74505805969E-08  0.10566000000E+00  0.10566000000E+00 0.  1.
     999900   -1    0    0    0    0 -0.00000000000E+00 -0.00000000000E+00 -0.74505805969E-08  0.93827000000E+00  0.93827000000E+00 0.  1.
     999902    2    1    2    0    0  0.22052132084E-01  0.67120379009E-02 -0.67349641761E-02  0.10199152603E+01  0.10196324977E+01 0.  0.
     999903    2    3    3    0    0 -0.29065996375E-02 -0.12696184899E+00 -0.16229399692E-01  0.12942001006E+00  0.18931089981E-01 0.  0.
         14    1    1    2    0    0 -0.22052132084E-01 -0.67120379009E-02  0.67349641761E-02  0.24014739738E-01  0.00000000000E+00 0.  1.
     999901    1    3    3    0    0  0.24958731722E-01  0.13367388690E+00  0.94944355161E-02  0.89049525020E+00  0.88000000000E+00 0.  1.
        -11    1    4    4    0    0  0.65465325772E-02 -0.67258532757E-01 -0.36569048338E-02  0.67677185161E-01  0.51100000000E-03 0.  1.
         11    1    4    4    0    0 -0.94531322147E-02 -0.59703316237E-01 -0.12572494858E-01  0.61742824898E-01  0.51100000000E-03 0. -1.
</event>
<event>
 8    1  0.1010879E+005  0.1043930E+01  0.7957747E-01            NaN
         13   -1    0    0    0    0  0.00000000000E+00  0.00000000000E+00  0.74505805969E-08  0.10566000000E+00  0.10566000000E+00 0. -1.
     999900   -1    0    0    0    0 -0.00000000000E+00 -0.00000000000E+00 -0.74505805969E-08  0.93827000000E+00  0.93827000000E+00 0.  1.
     999902    2    1    2    0    0  0.20002384647E-01 -0.86376070822E-02 -0.99303825898E-02  0.10199859789E+01  0.10197048990E+01 0.  0.
     999903    2    3    3    0    0 -0.11634248868E+00  0.15448238217E-01  0.45559953774E-01  0.12743389087E+00  0.19734852893E-01 0.  0.
         14    1    1    2    0    0 -0.20002384647E-01  0.86376070822E-02  0.99303825898E-02  0.23944021092E-01  0.00000000000E+00 0. -1.
     999901    1    3    3    0    0  0.13634487333E+00 -0.24085845299E-01 -0.55490336364E-01  0.89255208804E+00  0.88000000000E+00 0.  1.
        -11    1    4    4    0    0 -0.85281325404E-01  0.38402263549E-02  0.27601808739E-01  0.89720525900E-01  0.51100000000E-03 0.  1.
         11    1    4    4    0    0 -0.31061163277E-01  0.11608011862E-01  0.17958145035E-01  0.37713364973E-01  0.51100000000E-03 0. -1.
</event>
<event>
 8    1  0.1010879E+005  0.1043930E+01  0.7957747E-01            NaN
         13   -1    0    0    0    0  0.00000000000E+00  0.00000000000E+00  0.74505805969E-08  0.10566000000E+00  0.10566000000E+00 0. -1.
     999900   -1    0    0    0    0 -0.00000000000E+00 -0.00000000000E+00 -0.74505805969E-08  0.93827000000E+00  0.93827000000E+00 0. -1.
     999902    2    1    2    0    0  0.21006282925E-01 -0.10096978374E-01 -0.12138803047E-02  0.10205914825E+01  0.10203245992E+01 0.  0.
     999903    2    3    3    0    0  0.78599073337E-01 -0.60486638559E-01 -0.86595899870E-01  0.13315352035E+00  0.19863593186E-01 0.  0.
         14    1    1    2    0    0 -0.21006282925E-01  0.10096978374E-01  0.12138803047E-02  0.23338517520E-01  0.00000000000E+00 0. -1.
     999901    1    3    3    0    0 -0.57592790412E-01  0.50389660184E-01  0.85382019566E-01  0.88743796213E+00  0.88000000000E+00 0.  1.
        -11    1    4    4    0    0  0.67519505770E-01 -0.53156802293E-01 -0.64820557156E-01  0.10764058268E+00  0.51100000000E-03 0.  1.
         11    1    4    4    0    0  0.11079567567E-01 -0.73298362654E-02 -0.21775342714E-01  0.25512937668E-01  0.51100000000E-03 0. -1.
</event>
<event>
 8    1  0.1010879E+005  0.1043930E+01  0.7957747E-01            NaN
         13   -1    0    0    0    0  0.00000000000E+00  0.00000000000E+00  0.74505805969E-08  0.10566000000E+00  0.10566000000E+00 0.  1.
     999900   -1    0    0    0    0 -0.00000000000E+00 -0.00000000000E+00 -0.74505805969E-08  0.93827000000E+00  0.93827000000E+00 0. -1.
     999902    2    1    2    0    0  0.13390317451E-01 -0.79180463256E-02 -0.17345703735E-01  0.10206304400E+01  0.10203644572E+01 0.  0.
     999903    2    3    3    0    0  0.60409545768E-01 -0.10617990042E+00 -0.49596265645E-01  0.13332761763E+00  0.19823712662E-01 0.  0.
         14    1    1    2    0    0 -0.13390317451E-01  0.79180463256E-02  0.17345703735E-01  0.23299560020E-01  0.00000000000E+00 0.  1.
     999901    1    3    3    0    0 -0.47019228316E-01  0.98261854099E-01  0.32250561910E-01  0.88730282235E+00  0.88000000000E+00 0.  1.
        -11    1    4    4    0    0  0.34103467360E-01 -0.75110955724E-01 -0.27198744332E-01  0.86860433858E-01  0.51100000000E-03 0.  1.
         11    1    4    4    0    0  0.26306078408E-01 -0.31068944700E-01 -0.22397521313E-01  0.46467183774E-01  0.51100000000E-03 0. -1.
</event>
<event>
 8    1  0.1010879E+005  0.1043930E+01  0.7957747E-01            NaN
         13   -1    0    0    0    0  0.00000000000E+00  0.00000000000E+00  0.74505805969E-08  0.10566000000E+00  0.10566000000E+00 0. -1.
     999900   -1    0    0    0    0 -0.00000000000E+00 -0.00000000000E+00 -0.74505805969E-08  0.93827000000E+00  0.93827000000E+00 0.  1.
     999902    2    1    2    0    0 -0.16554503061E-01 -0.13523109357E-01  0.98527018343E-02  0.10203927573E+01  0.10201212563E+01 0.  0.
     999903    2    3    3    0    0  0.39707937218E-01 -0.50348119662E-01 -0.11033348394E+00  0.12968165782E+00  0.23069487773E-01 0.  0.
         14    1    1    2    0    0  0.16554503061E-01  0.13523109357E-01 -0.98527018343E-02  0.23537242653E-01  0.00000000000E+00 0.  1.
     999901    1    3    3    0    0 -0.56262440279E-01  0.36825010305E-01  0.12018618577E+00  0.89071109953E+00  0.88000000000E+00 0. -1.
        -11    1    4    4    0    0  0.15532778955E-01 -0.33083016021E-01 -0.45491493947E-01  0.58356579009E-01  0.51100000000E-03 0. -1.
         11    1    4    4    0    0  0.24175158263E-01 -0.17265103641E-01 -0.64841989988E-01  0.71325078811E-01  0.51100000000E-03 0.  1.
</event>
<event>
 8    1  0.1010879E+005  0.1043930E+01  0.7957747E-01            NaN
         13   -1    0    0    0    0  0.00000000000E+00  0.00000000000E+00  0.74505805969E-08  0.10566000000E+00  0.10566000000E+00 0. -1.
     999900   -1    0    0    0    0 -0.00000000000E+00 -0.00000000000E+00 -0.74505805969E-08  0.93827000000E+00  0.93827000000E+00 0.  1.
     999902    2    1    2    0    0 -0.15462172458E-01  0.16853540915E-01 -0.70018462177E-02  0.10200104166E+01  0.10197299170E+01 0.  0.
     999903    2    3    3    0    0 -0.95322436100E-01  0.72204216842E-01  0.53548636492E-01  0.13259409945E+00  0.20345097295E-01 0.  0.
         14    1    1    2    0    0  0.15462172458E-01 -0.16853540915E-01  0.70018462177E-02  0.23919583378E-01  0.00000000000E+00 0.  1.
     999901    1    3    3    0    0  0.79860263642E-01 -0.55350675927E-01 -0.60550482710E-01  0.88741631718E+00  0.88000000000E+00 0.  1.
        -11    1    4    4    0    0 -0.47892230094E-01  0.34310809966E-01  0.15412291670E-01  0.60899074208E-01  0.51100000000E-03 0.  1.
         11    1    4    4    0    0 -0.47430206005E-01  0.37893406876E-01  0.38136344822E-01  0.71695025238E-01  0.51100000000E-03 0. -1.
</event>
<event>
 8    1  0.1010879E+005  0.1043930E+01  0.7957747E-01            NaN
         13   -1    0    0    0    0  0.00000000000E+00  0.00000000000E+00  0.74505805969E-08  0.10566000000E+00  0.10566000000E+00 0. -1.
     999900   -1    0    0    0    0 -0.00000000000E+00 -0.00000000000E+00 -0.74505805969E-08  0.93827000000E+00  0.93827000000E+00 0. -1.
     999902    2    1    2    0    0  0.72144250739E-03  0.15296147100E-01 -0.17770944307E-01  0.10204715462E+01  0.10202018807E+01 0.  0.
     999903    2    3    3    0    0 -0.44700979904E-01 -0.11259107218E+00  0.37488390466E-01  0.12835500029E+00  0.19867046651E-01 0.  0.
         14    1    1    2    0    0 -0.72144250739E-03 -0.15296147100E-01  0.17770944307E-01  0.23458453848E-01  0.00000000000E+00 0. -1.
     999901    1    3    3    0    0  0.45422422412E-01  0.12788721928E+00 -0.55259334772E-01  0.89211654586E+00  0.88000000000E+00 0. -1.
        -11    1    4    4    0    0 -0.11732880748E-01 -0.18737071503E-01  0.18699745355E-03  0.22114122822E-01  0.51100000000E-03 0.  1.
         11    1    4    4    0    0 -0.32968099157E-01 -0.93854000674E-01  0.37301393012E-01  0.10624087747E+00  0.51100000000E-03 0. -1.
</event>
<event>
 8    1  0.1010879E+005  0.1043930E+01  0.7957747E-01            NaN
         13   -1    0    0    0    0  0.00000000000E+00  0.00000000000E+00  0.74505805969E-08  0.10566000000E+00  0.10566000000E+00 0.  1.
     999900   -1    0    0    0    0 -0.00000000000E+00 -0.00000000000E+00 -0.74505805969E-08  0.93827000000E+00  0.93827000000E+00 0. -1.
     999902    2    1    2    0    0  0.20711757921E-01 -0.99592288744E-02 -0.13165679626E-01  0.10174441873E+01  0.10170993933E+01 0.  0.
     999903    2    3    3    0    0  0.12380081522E+00 -0.31961550558E-01 -0.21298482424E-01  0.13111603225E+00  0.19738439587E-01 0.  0.
         14    1    1    2    0    0 -0.20711757921E-01  0.99592288744E-02  0.13165679626E-01  0.26485812730E-01  0.00000000000E+00 0.  1.
     999901    1    3    3    0    0 -0.10308905730E+00  0.22002321683E-01  0.81328027977E-02  0.88632815502E+00  0.88000000000E+00 0.  1.
        -11    1    4    4    0    0  0.67792619898E-01 -0.11966101283E-01 -0.19764941048E-01  0.71623605803E-01  0.51100000000E-03 0. -1.
         11    1    4    4    0    0  0.56008195321E-01 -0.19995449275E-01 -0.15335413754E-02  0.59492426451E-01  0.51100000000E-03 0.  1.
</event>
<event>
 8    1  0.1010879E+005  0.1043930E+01  0.7957747E-01            NaN
         13   -1    0    0    0    0  0.00000000000E+00  0.00000000000E+00  0.74505805969E-08  0.10566000000E+00  0.10566000000E+00 0.  1.
     999900   -1    0    0    0    0 -0.00000000000E+00 -0.00000000000E+00 -0.74505805969E-08  0.93827000000E+00  0.93827000000E+00 0. -1.
     999902    2    1    2    0    0 -0.13561396960E-01  0.17672823759E-01 -0.62386887319E-02  0.10207964438E+01  0.10205342807E+01 0.  0.
     999903    2    3    3    0    0 -0.10709023443E+00  0.41190936260E-01  0.63315907309E-01  0.13279949169E+00  0.21489284169E-01 0.  0.
         14    1    1    2    0    0  0.13561396960E-01 -0.17672823759E-01  0.62386887319E-02  0.23133556238E-01  0.00000000000E+00 0.  1.
     999901    1    3    3    0    0  0.93528837475E-01 -0.23518112501E-01 -0.69554596041E-01  0.88799695207E+00  0.88000000000E+00 0. -1.
        -11    1    4    4    0    0 -0.51531490629E-01  0.26474008614E-01  0.21822754889E-01  0.61910107499E-01  0.51100000000E-03 0. -1.
         11    1    4    4    0    0 -0.55558743806E-01  0.14716927646E-01  0.41493152420E-01  0.70889384194E-01  0.51100000000E-03 0.  1.
</event>
<event>
 8    1  0.1010879E+005  0.1043930E+01  0.7957747E-01            NaN
         13   -1    0    0    0    0  0.00000000000E+00  0.00000000000E+00  0.74505805969E-08  0.10566000000E+00  0.10566000000E+00 0.  1.
     999900   -1    0    0    0    0 -0.00000000000E+00 -0.00000000000E+00 -0.74505805969E-08  0.93827000000E+00  0.93827000000E+00 0.  1.
     999902    2    1    2    0    0  0.99771724358E-02  0.12607118356E-01 -0.17211378332E-01  0.10203776127E+01  0.10201057580E+01 0.  0.
     999903    2    3    3    0    0 -0.70525157694E-01  0.95250517144E-01 -0.54123900167E-01  0.13207975118E+00  0.21661145391E-01 0.  0.
         14    1    1    2    0    0 -0.99771724358E-02 -0.12607118356E-01  0.17211378332E-01  0.23552387292E-01  0.00000000000E+00 0.  1.
     999901    1    3    3    0    0  0.80502330129E-01 -0.82643398788E-01  0.36912521835E-01  0.88829786152E+00  0.88000000000E+00 0.  1.
        -11    1    4    4    0    0 -0.42119362813E-01  0.72109017979E-01 -0.33075617862E-01  0.89822095365E-01  0.51100000000E-03 0. -1.
         11    1    4    4    0    0 -0.28405794880E-01  0.23141499165E-01 -0.21048282305E-01  0.42257655819E-01  0.51100000000E-03 0.  1.
</event>
<event>
 8    1  0.1158977E+005  0.1043930E+01  0.7957747E-01            NaN
         13   -1    0    0    0    0  0.00000000000E+00  0.00000000000E+00  0.74505805969E-08  0.10566000000E+00  0.10566000000E+00 0. -1.
     999900   -1    0    0    0    0 -0.00000000000E+00 -0.00000000000E+00 -0.74505805969E-08  0.93827000000E+00  0.93827000000E+00 0.  1.
     999902    2    1    2    0    0  0.21334475975E-01 -0.99513156139E-02  0.69362305187E-02  0.10193882022E+01  0.10190927371E+01 0.  0.
     999903    2    3    3    0    0 -0.39115907492E-01  0.23047994653E-01 -0.11786069199E+00  0.12791892326E+00  0.20269285538E-01 0.  0.
         14    1    1    2    0    0 -0.21334475975E-01  0.99513156139E-02 -0.69362305187E-02  0.24541797844E-01  0.00000000000E+00 0.  1.
     999901    1    3    3    0    0  0.60450383467E-01 -0.32999310267E-01  0.12479692251E+00  0.89146927889E+00  0.88000000000E+00 0.  1.
        -11    1    4    4    0    0 -0.35702216062E-01  0.12099416829E-01 -0.81680456337E-01  0.89961114865E-01  0.51100000000E-03 0.  1.
         11    1    4    4    0    0 -0.34136914299E-02  0.10948577824E-01 -0.36180235654E-01  0.37957808400E-01  0.51100000000E-03 0. -1.
</event>
<event>
 8    1  0.1010879E+005  0.1043930E+01  0.7957747E-01            NaN
         13   -1    0    0    0    0  0.00000000000E+00  0.00000000000E+00  0.74505805969E-08  0.10566000000E+00  0.10566000000E+00 0. -1.
     999900   -1    0    0    0    0 -0.00000000000E+00 -0.00000000000E+00 -0.74505805969E-08  0.93827000000E+00  0.93827000000E+00 0. -1.
     999902    2    1    2    0    0  0.17936488871E-01  0.10226623933E-01  0.17458707202E-01  0.10168909925E+01  0.10165314470E+01 0.  0.
     999903    2    3    3    0    0 -0.10125525357E-02  0.10498062631E+00  0.73740420150E-01  0.12981432255E+00  0.19802818292E-01 0.  0.
         14    1    1    2    0    0 -0.17936488871E-01 -0.10226623933E-01 -0.17458707202E-01  0.27039007512E-01  0.00000000000E+00 0. -1.
     999901    1    3    3    0    0  0.18949041407E-01 -0.94754002376E-01 -0.56281712948E-01  0.88707666994E+00  0.88000000000E+00 0. -1.
        -11    1    4    4    0    0 -0.45904868300E-02  0.77756020219E-01  0.63525086889E-01  0.10051253173E+00  0.51100000000E-03 0.  1.
         11    1    4    4    0    0  0.35779342944E-02  0.27224606090E-01  0.10215333260E-01  0.29301790819E-01  0.51100000000E-03 0. -1.
</event>
<event>
 8    1  0.1010879E+005  0.1043930E+01  0.7957747E-01            NaN
         13   -1    0    0    0    0  0.00000000000E+00  0.00000000000E+00  0.74505805969E-08  0.10566000000E+00  0.10566000000E+00 0.  1.
     999900   -1    0    0    0    0 -0.00000000000E+00 -0.00000000000E+00 -0.74505805969E-08  0.93827000000E+00  0.93827000000E+00 0.  1.
     999902    2    1    2    0    0  0.14964464117E-01 -0.16387835153E-01 -0.85378007052E-02  0.10201520613E+01  0.10198749128E+01 0.  0.
     999903    2    3    3    0    0  0.53148418396E-01  0.10736551437E+00  0.43916420008E-01  0.12912773440E+00  0.19829568575E-01 0.  0.
         14    1    1    2    0    0 -0.14964464117E-01  0.16387835153E-01  0.85378007052E-02  0.23777938686E-01  0.00000000000E+00 0.  1.
     999901    1    3    3    0    0 -0.38183954279E-01 -0.12375334953E+00 -0.52454220713E-01  0.89102432691E+00  0.88000000000E+00 0. -1.
        -11    1    4    4    0    0  0.15016671163E-01  0.47852644412E-01  0.24536514940E-01  0.55836168175E-01  0.51100000000E-03 0. -1.
         11    1    4    4    0    0  0.38131747232E-01  0.59512869962E-01  0.19379905068E-01  0.73291566224E-01  0.51100000000E-03 0.  1.
</event>
<event>
 8    1  0.1010879E+005  0.1043930E+01  0.7957747E-01            NaN
         13   -1    0    0    0    0  0.00000000000E+00  0.00000000000E+00  0.74505805969E-08  0.10566000000E+00  0.10566000000E+00 0. -1.
     999900   -1    0    0    0    0 -0.00000000000E+00 -0.00000000000E+00 -0.74505805969E-08  0.93827000000E+00  0.93827000000E+00 0. -1.
     999902    2    1    2    0    0  0.25479373140E-01 -0.17136696736E-03  0.51715477461E-02  0.10179305245E+01  0.10175984374E+01 0.  0.
     999903    2    3    3    0    0 -0.36004942471E-01 -0.12162500765E-01  0.12065578453E+00  0.12817734672E+00  0.20671999489E-01 0.  0.
         14    1    1    2    0    0 -0.25479373140E-01  0.17136696736E-03 -0.51715477461E-02  0.25999475540E-01  0.00000000000E+00 0. -1.
     999901    1    3    3    0    0  0.61484315611E-01  0.11991133798E-01 -0.11548423679E+00  0.88975317774E+00  0.88000000000E+00 0. -1.
        -11    1    4    4    0    0 -0.19488015013E-02 -0.42508573961E-02  0.39900265207E-01  0.40176608872E-01  0.51100000000E-03 0.  1.
         11    1    4    4    0    0 -0.34056140970E-01 -0.79116433692E-02  0.80755519328E-01  0.88000737846E-01  0.51100000000E-03 0. -1.
</event>
<event>
 8    1  0.1010879E+005  0.1043930E+01  0.7957747E-01            NaN
         13   -1    0    0    0    0  0.00000000000E+00  0.00000000000E+00  0.74505805969E-08  0.10566000000E+00  0.10566000000E+00 0. -1.
     999900   -1    0    0    0    0 -0.00000000000E+00 -0.00000000000E+00 -0.74505805969E-08  0.93827000000E+00  0.93827000000E+00 0. -1.
     999902    2    1    2    0    0  0.16622667912E-01 -0.14650225764E-01 -0.13663414263E-02  0.10217306961E+01  0.10214895038E+01 0.  0.
     999903    2    3    3    0    0 -0.49122320394E-01 -0.23591435934E-01 -0.11801037983E+00  0.13155757790E+00  0.20282710471E-01 0.  0.
         14    1    1    2    0    0 -0.16622667912E-01  0.14650225764E-01  0.13663414263E-02  0.22199303871E-01  0.00000000000E+00 0.  1.
     999901    1    3    3    0    0  0.65744988306E-01  0.89412101702E-02  0.11664403841E+00  0.89017311823E+00  0.88000000000E+00 0.  1.
        -11    1    4    4    0    0 -0.56060859656E-02 -0.62130224984E-02 -0.37291347872E-01  0.38222187215E-01  0.51100000000E-03 0.  1.
         11    1    4    4    0    0 -0.43516234428E-01 -0.17378413435E-01 -0.80719031960E-01  0.93335390683E-01  0.51100000000E-03 0. -1.
</event>
<event>
 8    1  0.1010879E+005  0.1043930E+01  0.7957747E-01            NaN
         13   -1    0    0    0    0  0.00000000000E+00  0.00000000000E+00  0.74505805969E-08  0.10566000000E+00  0.10566000000E+00 0. -1.
     999900   -1    0    0    0    0 -0.00000000000E+00 -0.00000000000E+00 -0.74505805969E-08  0.93827000000E+00  0.93827000000E+00 0. -1.
     999902    2    1    2    0    0 -0.97604263802E-02  0.21471329137E-01  0.11888091683E-02  0.10203143873E+01  0.10200410539E+01 0.  0.
     999903    2    3    3    0    0  0.87982046975E-01 -0.62786366001E-01 -0.64771130386E-01  0.12846032749E+00  0.24975749494E-01 0.  0.
         14    1    1    2    0    0  0.97604263802E-02 -0.21471329137E-01 -0.11888091683E-02  0.23615612744E-01  0.00000000000E+00 0.  1.
     999901    1    3    3    0    0 -0.97742473355E-01  0.84257695139E-01  0.65959939554E-01  0.89185405976E+00  0.88000000000E+00 0. -1.
        -11    1    4    4    0    0  0.70778328440E-01 -0.48046730995E-01 -0.61955638376E-01  0.10562586039E+00  0.51100000000E-03 0. -1.
         11    1    4    4    0    0  0.17203718535E-01 -0.14739635006E-01 -0.28154920101E-02  0.22834467101E-01  0.51100000000E-03 0.  1.
</event>
<event>
 8    1  0.1141887E+005  0.1043930E+01  0.7957747E-01            NaN
         13   -1    0    0    0    0  0.00000000000E+00  0.00000000000E+00  0.74505805969E-08  0.10566000000E+00  0.10566000000E+00 0.  1.
     999900   -1    0    0    0    0 -0.00000000000E+00 -0.00000000000E+00 -0.74505805969E-08  0.93827000000E+00  0.93827000000E+00 0. -1.
     999902    2    1    2    0    0  0.23456028748E-01 -0.13753961121E-02 -0.23823952418E-02  0.10203132092E+01  0.10200398483E+01 0.  0.
     999903    2    3    3    0    0 -0.10397145070E-01  0.94026566539E-01  0.86444716018E-01  0.13006727268E+00  0.22264560494E-01 0.  0.
         14    1    1    2    0    0 -0.23456028748E-01  0.13753961121E-02  0.23823952418E-02  0.23616790768E-01  0.00000000000E+00 0.  1.
     999901    1    3    3    0    0  0.33853173818E-01 -0.95401962651E-01 -0.88827111260E-01  0.89024593655E+00  0.88000000000E+00 0. -1.
        -11    1    4    4    0    0  0.27237789498E-02  0.44596712115E-01  0.51196465373E-01  0.67953108030E-01  0.51100000000E-03 0. -1.
         11    1    4    4    0    0 -0.13120924020E-01  0.49429854424E-01  0.35248250645E-01  0.62114164649E-01  0.51100000000E-03 0.  1.
</event>
<event>
 8    1  0.1010879E+005  0.1043930E+01  0.7957747E-01            NaN
         13   -1    0    0    0    0  0.00000000000E+00  0.00000000000E+00  0.74505805969E-08  0.10566000000E+00  0.10566000000E+00 0. -1.
     999900   -1    0    0    0    0 -0.00000000000E+00 -0.00000000000E+00 -0.74505805969E-08  0.93827000000E+00  0.93827000000E+00 0.  1.
     999902    2    1    2    0    0  0.16866148322E-01 -0.86130049578E-02  0.14342959008E-01  0.10201735001E+01  0.10198968571E+01 0.  0.
     999903    2    3    3    0    0  0.10544661103E+00  0.74183854687E-01  0.17143733028E-01  0.13185505346E+00  0.21670612986E-01 0.  0.
         14    1    1    2    0    0 -0.16866148322E-01  0.86130049578E-02 -0.14342959008E-01  0.23756499883E-01  0.00000000000E+00 0.  1.
     999901    1    3    3    0    0 -0.88580462704E-01 -0.82796859645E-01 -0.28007740208E-02  0.88831844666E+00  0.88000000000E+00 0.  1.
        -11    1    4    4    0    0  0.38213262918E-01  0.14753590094E-01  0.39757333888E-02  0.41158103218E-01  0.51100000000E-03 0.  1.
         11    1    4    4    0    0  0.67233348108E-01  0.59430264593E-01  0.13167999640E-01  0.90696950240E-01  0.51100000000E-03 0. -1.
</event>
<event>
 8    1  0.1010879E+005  0.1043930E+01  0.7957747E-01            NaN
         13   -1    0    0    0    0  0.00000000000E+00  0.00000000000E+00  0.74505805969E-08  0.10566000000E+00  0.10566000000E+00 0. -1.
     999900   -1    0    0    0    0 -0.00000000000E+00 -0.00000000000E+00 -0.74505805969E-08  0.93827000000E+00  0.93827000000E+00 0. -1.
     999902    2    1    2    0    0  0.14638558641E-02  0.21810045300E-01 -0.81633231725E-02  0.10205963163E+01  0.10203295448E+01 0.  0.
     999903    2    3    3    0    0 -0.50348095021E-01  0.26117360929E-01  0.11580816270E+00  0.13038737423E+00  0.19294807484E-01 0.  0.
         14    1    1    2    0    0 -0.14638558641E-02 -0.21810045300E-01  0.81633231725E-02  0.23333683704E-01  0.00000000000E+00 0. -1.
     999901    1    3    3    0    0  0.51811950885E-01 -0.43073156287E-02 -0.12397148588E+00  0.89020894207E+00  0.88000000000E+00 0. -1.
        -11    1    4    4    0    0 -0.34580521830E-01  0.21199181076E-01  0.61933341769E-01  0.74035246417E-01  0.51100000000E-03 0. -1.
         11    1    4    4    0    0 -0.15767573191E-01  0.49181798526E-02  0.53874820934E-01  0.56352127813E-01  0.51100000000E-03 0.  1.
</event>
<event>
 8    1  0.1010879E+005  0.1043930E+01  0.7957747E-01            NaN
         13   -1    0    0    0    0  0.00000000000E+00  0.00000000000E+00  0.74505805969E-08  0.10566000000E+00  0.10566000000E+00 0.  1.
     999900   -1    0    0    0    0 -0.00000000000E+00 -0.00000000000E+00 -0.74505805969E-08  0.93827000000E+00  0.93827000000E+00 0. -1.
     999902    2    1    2    0    0  0.18409665272E-01 -0.66792038540E-02 -0.12988228952E-01  0.10204306036E+01  0.10201599851E+01 0.  0.
     999903    2    3    3    0    0  0.17724146746E-01 -0.37188097916E-01  0.12162064019E+00  0.12967204473E+00  0.18059874356E-01 0.  0.
         14    1    1    2    0    0 -0.18409665272E-01  0.66792038540E-02  0.12988228952E-01  0.23499396393E-01  0.00000000000E+00 0. -1.
     999901    1    3    3    0    0  0.68551852644E-03  0.30508894062E-01 -0.13460886914E+00  0.89075855887E+00  0.88000000000E+00 0. -1.
        -11    1    4    4    0    0  0.20129816609E-01 -0.23180139113E-01  0.86010230748E-01  0.91326607734E-01  0.51100000000E-03 0. -1.
         11    1    4    4    0    0 -0.24056698636E-02 -0.14007958803E-01  0.35610409440E-01  0.38345437001E-01  0.51100000000E-03 0.  1.
</event>
<event>
 8    1  0.1010879E+005  0.1043930E+01  0.7957747E-01            NaN
         13   -1    0    0    0    0  0.00000000000E+00  0.00000000000E+00  0.74505805969E-08  0.10566000000E+00  0.10566000000E+00 0.  1.
     999900   -1    0    0    0    0 -0.00000000000E+00 -0.00000000000E+00 -0.74505805969E-08  0.93827000000E+00  0.93827000000E+00 0.  1.
     999902    2    1    2    0    0 -0.21375217713E-01  0.11557659044E-01  0.64303818512E-02  0.10187937866E+01  0.10184836525E+01 0.  0.
     999903    2    3    3    0    0 -0.48753564513E-01 -0.10379358639E+00 -0.55242057449E-01  0.12870448011E+00  0.19056223696E-01 0.  0.
         14    1    1    2    0    0  0.21375217713E-01 -0.11557659044E-01 -0.64303818512E-02  0.25136213430E-01  0.00000000000E+00 0. -1.
     999901    1    3    3    0    0  0.27378346800E-01  0.11535124544E+00  0.61672439300E-01  0.89008930646E+00  0.88000000000E+00 0. -1.
        -11    1    4    4    0    0 -0.23662123212E-01 -0.63181740084E-01 -0.40716319373E-01  0.78802970370E-01  0.51100000000E-03 0. -1.
         11    1    4    4    0    0 -0.25091441300E-01 -0.40611846308E-01 -0.14525738076E-01  0.49901509744E-01  0.51100000000E-03 0.  1.
</event>
<event>
 8    1  0.1010879E+005  0.1043930E+01  0.7957747E-01            NaN
         13   -1    0    0    0    0  0.00000000000E+00  0.00000000000E+00  0.74505805969E-08  0.10566000000E+00  0.10566000000E+00 0. -1.
     999900   -1    0    0    0    0 -0.00000000000E+00 -0.00000000000E+00 -0.74505805969E-08  0.93827000000E+00  0.93827000000E+00 0. -1.
     999902    2    1    2    0    0  0.16458891395E-01 -0.16157509417E-01 -0.61649051169E-02  0.10200560336E+01  0.10197766154E+01 0.  0.
     999903    2    3    3    0    0 -0.89278512725E-01  0.78131509167E-01 -0.44316865613E-01  0.12790896627E+00  0.17931355656E-01 0.  0.
         14    1    1    2    0    0 -0.16458891395E-01  0.16157509417E-01  0.61649051169E-02  0.23873966399E-01  0.00000000000E+00 0. -1.
     999901    1    3    3    0    0  0.10573740412E+00 -0.94289018584E-01  0.38151960496E-01  0.89214706733E+00  0.88000000000E+00 0.  1.
        -11    1    4    4    0    0 -0.89469075234E-01  0.75986003726E-01 -0.41914552967E-01  0.12464220416E+00  0.51100000000E-03 0. -1.
         11    1    4    4    0    0  0.19056250911E-03  0.21455054414E-02 -0.24023126454E-02  0.32667621148E-02  0.51100000000E-03 0.  1.
</event>
<event>
 8    1  0.1056732E+005  0.1043930E+01  0.7957747E-01            NaN
         13   -1    0    0    0    0  0.00000000000E+00  0.00000000000E+00  0.74505805969E-08  0.10566000000E+00  0.10566000000E+00 0. -1.
     999900   -1    0    0    0    0 -0.00000000000E+00 -0.00000000000E+00 -0.74505805969E-08  0.93827000000E+00  0.93827000000E+00 0.  1.
     999902    2    1    2    0    0  0.19365928386E-01  0.17319290187E-01  0.34317467986E-02  0.10177236290E+01  0.10173861662E+01 0.  0.
     999903    2    3    3    0    0 -0.10289290563E-01  0.98832720255E-01 -0.80497525352E-01  0.12948492571E+00  0.20315469630E-01 0.  0.
         14    1    1    2    0    0 -0.19365928386E-01 -0.17319290187E-01 -0.34317467986E-02  0.26206370998E-01  0.00000000000E+00 0. -1.
     999901    1    3    3    0    0  0.29655218949E-01 -0.81513430068E-01  0.83929272151E-01  0.88823870329E+00  0.88000000000E+00 0.  1.
        -11    1    4    4    0    0 -0.12423682156E-01  0.35781949675E-01 -0.24372055190E-01  0.45043911864E-01  0.51100000000E-03 0. -1.
         11    1    4    4    0    0  0.21343915926E-02  0.63050770580E-01 -0.56125470162E-01  0.84441013851E-01  0.51100000000E-03 0.  1.
</event>
<event>
 8    1  0.1010879E+005  0.1043930E+01  0.7957747E-01            NaN
         13   -1    0    0    0    0  0.00000000000E+00  0.00000000000E+00  0.74505805969E-08  0.10566000000E+00  0.10566000000E+00 0.  1.
     999900   -1    0    0    0    0 -0.00000000000E+00 -0.00000000000E+00 -0.74505805969E-08  0.93827000000E+00  0.93827000000E+00 0. -1.
     999902    2    1    2    0    0 -0.20574539915E-01  0.11820057519E-01 -0.32036394895E-02  0.10199865508E+01  0.10197054845E+01 0.  0.
     999903    2    3    3    0    0  0.54691053414E-01 -0.56676696072E-01 -0.10018783888E+00  0.12882851225E+00  0.18863279314E-01 0.  0.
         14    1    1    2    0    0  0.20574539915E-01 -0.11820057519E-01  0.32036394895E-02  0.23943449176E-01  0.00000000000E+00 0.  1.
     999901    1    3    3    0    0 -0.75265593329E-01  0.68496753591E-01  0.96984199392E-01  0.89115803858E+00  0.88000000000E+00 0. -1.
        -11    1    4    4    0    0  0.24760211944E-01 -0.17282560308E-01 -0.49577693077E-01  0.58051388942E-01  0.51100000000E-03 0. -1.
         11    1    4    4    0    0  0.29930841470E-01 -0.39394135764E-01 -0.50610145805E-01  0.70777123303E-01  0.51100000000E-03 0.  1.
</event>
<event>
 8    1  0.1010879E+005  0.1043930E+01  0.7957747E-01            NaN
         13   -1    0    0    0    0  0.00000000000E+00  0.00000000000E+00  0.74505805969E-08  0.10566000000E+00  0.10566000000E+00 0. -1.
     999900   -1    0    0    0    0 -0.00000000000E+00 -0.00000000000E+00 -0.74505805969E-08  0.93827000000E+00  0.93827000000E+00 0.  1.
     999902    2    1    2    0    0 -0.63666895769E-02 -0.13986209584E-01 -0.17552221250E-01  0.10206012781E+01  0.10203346214E+01 0.  0.
     999903    2    3    3    0    0  0.92259682021E-01 -0.71674366507E-01 -0.58176587660E-01  0.13228521736E+00  0.21582391878E-01 0.  0.
         14    1    1    2    0    0  0.63666895769E-02  0.13986209584E-01  0.17552221250E-01  0.23328721900E-01  0.00000000000E+00 0. -1.
     999901    1    3    3    0    0 -0.98626371598E-01  0.57688156923E-01  0.40624366410E-01  0.88831606074E+00  0.88000000000E+00 0.  1.
        -11    1    4    4    0    0  0.49192194414E-01 -0.32372249200E-01 -0.18382977597E-01  0.61693026315E-01  0.51100000000E-03 0. -1.
         11    1    4    4    0    0  0.43067487607E-01 -0.39302117307E-01 -0.39793610063E-01  0.70592191044E-01  0.51100000000E-03 0.  1.
</event>
<event>
 8    1  0.1010879E+005  0.1043930E+01  0.7957747E-01            NaN
         13   -1    0    0    0    0  0.00000000000E+00  0.00000000000E+00  0.74505805969E-08  0.10566000000E+00  0.10566000000E+00 0. -1.
     999900   -1    0    0    0    0 -0.00000000000E+00 -0.00000000000E+00 -0.74505805969E-08  0.93827000000E+00  0.93827000000E+00 0. -1.
     999902    2    1    2    0    0 -0.17904809991E-01  0.14522189649E-02  0.14751426943E-01  0.10206857371E+01  0.10204210299E+01 0.  0.
     999903    2    3    3    0    0  0.16716846502E-02  0.32366935497E-01  0.12706103224E+00  0.13279362300E+00  0.20957751623E-01 0.  0.
         14    1    1    2    0    0  0.17904809991E-01 -0.14522189649E-02 -0.14751426943E-01  0.23244262896E-01  0.00000000000E+00 0.  1.
     999901    1    3    3    0    0 -0.19576494641E-01 -0.30914716532E-01 -0.11230960530E+00  0.88789211410E+00  0.88000000000E+00 0. -1.
        -11    1    4    4    0    0  0.77591899067E-02  0.22211699676E-01  0.55888389005E-01  0.60641056860E-01  0.51100000000E-03 0. -1.
         11    1    4    4    0    0 -0.60875052565E-02  0.10155235820E-01  0.71172643235E-01  0.72152566142E-01  0.51100000000E-03 0.  1.
</event>
<event>
 8    1  0.1010879E+005  0.1043930E+01  0.7957747E-01            NaN
         13   -1    0    0    0    0  0.00000000000E+00  0.00000000000E+00  0.74505805969E-08  0.10566000000E+00  0.10566000000E+00 0. -1.
     999900   -1    0    0    0    0 -0.00000000000E+00 -0.00000000000E+00 -0.74505805969E-08  0.93827000000E+00  0.93827000000E+00 0.  1.
     999902    2    1    2    0    0  0.21221368751E-01  0.64657413406E-02  0.39100356658E-02  0.10214035559E+01  0.10211551221E+01 0.  0.
     999903    2    3    3    0    0 -0.96292785059E-01  0.47406822664E-01 -0.69881342194E-01  0.12959028181E+00  0.19761879023E-01 0.  0.
         14    1    1    2    0    0 -0.21221368751E-01 -0.64657413406E-02 -0.39100356658E-02  0.22526444053E-01  0.00000000000E+00 0.  1.
     999901    1    3    3    0    0  0.11751415381E+00 -0.40941081323E-01  0.73791377859E-01  0.89181327414E+00  0.88000000000E+00 0. -1.
        -11    1    4    4    0    0 -0.72594410664E-01  0.26426591019E-01 -0.45754447613E-01  0.89788884446E-01  0.51100000000E-03 0.  1.
         11    1    4    4    0    0 -0.23698374395E-01  0.20980231645E-01 -0.24126894581E-01  0.39801397362E-01  0.51100000000E-03 0. -1.
</event>
<event>
 8    1  0.1010879E+005  0.1043930E+01  0.7957747E-01            NaN
         13   -1    0    0    0    0  0.00000000000E+00  0.00000000000E+00  0.74505805969E-08  0.10566000000E+00  0.10566000000E+00 0. -1.
     999900   -1    0    0    0    0 -0.00000000000E+00 -0.00000000000E+00 -0.74505805969E-08  0.93827000000E+00  0.93827000000E+00 0.  1.
     999902    2    1    2    0    0 -0.10487477888E-02 -0.11193901239E-01  0.20276782668E-01  0.10207448493E+01  0.10204815021E+01 0.  0.
     999903    2    3    3    0    0 -0.26164745563E-01  0.40456834874E-02 -0.12445779263E+00  0.12843820047E+00  0.17483355721E-01 0.  0.
         14    1    1    2    0    0  0.10487477888E-02  0.11193901239E-01 -0.20276782668E-01  0.23185150684E-01  0.00000000000E+00 0.  1.
     999901    1    3    3    0    0  0.25115997774E-01 -0.15239584726E-01  0.14473457530E+00  0.89230664885E+00  0.88000000000E+00 0. -1.
        -11    1    4    4    0    0  0.48948655335E-03  0.44931856856E-02 -0.11289128469E-01  0.12171025318E-01  0.51100000000E-03 0.  1.
         11    1    4    4    0    0 -0.26654232116E-01 -0.44750219825E-03 -0.11316866417E+00  0.11626717515E+00  0.51100000000E-03 0. -1.
</event>
<event>
 8    1  0.1010879E+005  0.1043930E+01  0.7957747E-01            NaN
         13   -1    0    0    0    0  0.00000000000E+00  0.00000000000E+00  0.74505805969E-08  0.10566000000E+00  0.10566000000E+00 0. -1.
     999900   -1    0    0    0    0 -0.00000000000E+00 -0.00000000000E+00 -0.74505805969E-08  0.93827000000E+00  0.93827000000E+00 0.  1.
     999902    2    1    2    0    0  0.23367451963E-01  0.19348578150E-02 -0.55438312420E-02  0.10198361097E+01  0.10195514578E+01 0.  0.
     999903    2    3    3    0    0 -0.43004700109E-01 -0.10772401415E+00  0.52339229032E-01  0.12866789916E+00  0.19030657439E-01 0.  0.
         14    1    1    2    0    0 -0.23367451963E-01 -0.19348578150E-02  0.55438312420E-02  0.24093890322E-01  0.00000000000E+00 0. -1.
     999901    1    3    3    0    0  0.66372152072E-01  0.10965887196E+00 -0.57883060274E-01  0.89116821052E+00  0.88000000000E+00 0. -1.
        -11    1    4    4    0    0 -0.37996205095E-01 -0.71792197708E-01  0.37520868178E-01  0.89475739300E-01  0.51100000000E-03 0. -1.
         11    1    4    4    0    0 -0.50084950135E-02 -0.35931816442E-01  0.14818360854E-01  0.39192159860E-01  0.51100000000E-03 0.  1.
</event>
<event>
 8    1  0.1010879E+005  0.1043930E+01  0.7957747E-01            NaN
         13   -1    0    0    0    0  0.00000000000E+00  0.00000000000E+00  0.74505805969E-08  0.10566000000E+00  0.10566000000E+00 0. -1.
     999900   -1    0    0    0    0 -0.00000000000E+00 -0.00000000000E+00 -0.74505805969E-08  0.93827000000E+00  0.93827000000E+00 0.  1.
     999902    2    1    2    0    0 -0.16713336951E-01 -0.45373565284E-02  0.12851592616E-01  0.10223641319E+01  0.10221366501E+01 0.  0.
     999903    2    3    3    0    0  0.22699108097E-01 -0.65356728951E-01  0.11278217780E+00  0.13374809624E+00  0.19544362138E-01 0.  0.
         14    1    1    2    0    0  0.16713336951E-01  0.45373565284E-02 -0.12851592616E-01  0.21565868150E-01  0.00000000000E+00 0. -1.
     999901    1    3    3    0    0 -0.39412445047E-01  0.60819372423E-01 -0.99930585183E-01  0.88861603561E+00  0.88000000000E+00 0. -1.
        -11    1    4    4    0    0  0.21760460687E-01 -0.61728946312E-01  0.93717397200E-01  0.11431181969E+00  0.51100000000E-03 0.  1.
         11    1    4    4    0    0  0.93864740930E-03 -0.36277826393E-02  0.19064780599E-01  0.19436276550E-01  0.51100000000E-03 0. -1.
</event>
<event>
 8    1  0.1010879E+005  0.1043930E+01  0.7957747E-01            NaN
         13   -1    0    0    0    0  0.00000000000E+00  0.00000000000E+00  0.74505805969E-08  0.10566000000E+00  0.10566000000E+00 0. -1.
     999900   -1    0    0    0    0 -0.00000000000E+00 -0.00000000000E+00 -0.74505805969E-08  0.93827000000E+00  0.93827000000E+00 0. -1.
     999902    2    1    2    0    0  0.12842196505E-01 -0.18615881787E-01 -0.99223072302E-02  0.10192333353E+01  0.10189340835E+01 0.  0.
     999903    2    3    3    0    0 -0.46231211537E-01  0.53665967977E-01  0.10358250895E+00  0.12704631645E+00  0.19851179395E-01 0.  0.
         14    1    1    2    0    0 -0.12842196505E-01  0.18615881787E-01  0.99223072302E-02  0.24696664685E-01  0.00000000000E+00 0. -1.
     999901    1    3    3    0    0  0.59073408041E-01 -0.72281849764E-01 -0.11350481618E+00  0.89218701887E+00  0.88000000000E+00 0. -1.
        -11    1    4    4    0    0 -0.13396167431E-01  0.61679234690E-02  0.13239434200E-01  0.19825345412E-01  0.51100000000E-03 0.  1.
         11    1    4    4    0    0 -0.32835044105E-01  0.47498044508E-01  0.90343074748E-01  0.10722097103E+00  0.51100000000E-03 0. -1.
</event>
<event>
 8    1  0.1010879E+005  0.1043930E+01  0.7957747E-01            NaN
         13   -1    0    0    0    0  0.00000000000E+00  0.00000000000E+00  0.74505805969E-08  0.10566000000E+00  0.10566000000E+00 0. -1.
     999900   -1    0    0    0    0 -0.00000000000E+00 -0.00000000000E+00 -0.74505805969E-08  0.93827000000E+00  0.93827000000E+00 0.  1.
     999902    2    1    2    0    0  0.17773278785E-01  0.92994118911E-02  0.12246682405E-01  0.10204278782E+01  0.10201571961E+01 0.  0.
     999903    2    3    3    0    0 -0.52768333769E-01 -0.11526871105E+00 -0.53712524280E-02  0.12868591551E+00  0.21443919920E-01 0.  0.
         14    1    1    2    0    0 -0.17773278785E-01 -0.92994118911E-02 -0.12246682405E-01  0.23502121824E-01  0.00000000000E+00 0.  1.
     999901    1    3    3    0    0  0.70541612554E-01  0.12456812294E+00  0.17617934833E-01  0.89174196267E+00  0.88000000000E+00 0. -1.
        -11    1    4    4    0    0 -0.25434755754E-01 -0.74438516078E-01 -0.10145058789E-01  0.79317102916E-01  0.51100000000E-03 0.  1.
         11    1    4    4    0    0 -0.27333578014E-01 -0.40830194973E-01  0.47738063611E-02  0.49368812592E-01  0.51100000000E-03 0. -1.
</event>
<event>
 8    1  0.1010879E+005  0.1043930E+01  0.7957747E-01            NaN
         13   -1    0    0    0    0  0.00000000000E+00  0.00000000000E+00  0.74505805969E-08  0.10566000000E+00  0.10566000000E+00 0. -1.
     999900   -1    0    0    0    0 -0.00000000000E+00 -0.00000000000E+00 -0.74505805969E-08  0.93827000000E+00  0.93827000000E+00 0. -1.
     999902    2    1    2    0    0 -0.19781989718E-01 -0.12671506445E-01 -0.39241545255E-02  0.10201120828E+01  0.10198339905E+01 0.  0.
     999903    2    3    3    0    0 -0.50376627584E-01 -0.82571319755E-01  0.87690733776E-01  0.13207193529E+00  0.19937498535E-01 0.  0.
         14    1    1    2    0    0  0.19781989718E-01  0.12671506445E-01  0.39241545255E-02  0.23817917238E-01  0.00000000000E+00 0. -1.
     999901    1    3    3    0    0  0.30594637866E-01  0.69899813310E-01 -0.91614888302E-01  0.88804014747E+00  0.88000000000E+00 0. -1.
        -11    1    4    4    0    0 -0.18531001612E-01 -0.49161579153E-01  0.48968233901E-01  0.71822057461E-01  0.51100000000E-03 0. -1.
         11    1    4    4    0    0 -0.31845625972E-01 -0.33409740602E-01  0.38722499875E-01  0.60249877828E-01  0.51100000000E-03 0.  1.
</event>
<event>
 8    1  0.1010879E+005  0.1043930E+01  0.7957747E-01            NaN
         13   -1    0    0    0    0  0.00000000000E+00  0.00000000000E+00  0.74505805969E-08  0.10566000000E+00  0.10566000000E+00 0. -1.
     999900   -1    0    0    0    0 -0.00000000000E+00 -0.00000000000E+00 -0.74505805969E-08  0.93827000000E+00  0.93827000000E+00 0. -1.
     999902    2    1    2    0    0  0.21344156201E-01  0.75799577284E-02 -0.44228785137E-02  0.10208520751E+01  0.10205911858E+01 0.  0.
     999903    2    3    3    0    0 -0.55790438580E-01  0.96288630288E-01 -0.66244032007E-01  0.13088531768E+00  0.18937297816E-01 0.  0.
         14    1    1    2    0    0 -0.21344156201E-01 -0.75799577284E-02  0.44228785137E-02  0.23077924894E-01  0.00000000000E+00 0. -1.
     999901    1    3    3    0    0  0.77134594781E-01 -0.88708672560E-01  0.61821153493E-01  0.88996675742E+00  0.88000000000E+00 0.  1.
        -11    1    4    4    0    0 -0.37793758564E-01  0.62116976789E-01 -0.53278236387E-01  0.90142767792E-01  0.51100000000E-03 0. -1.
         11    1    4    4    0    0 -0.17996680017E-01  0.34171653499E-01 -0.12965795620E-01  0.40742549890E-01  0.51100000000E-03 0.  1.
</event>
<event>
 8    1  0.1010879E+005  0.1043930E+01  0.7957747E-01            NaN
         13   -1    0    0    0    0  0.00000000000E+00  0.00000000000E+00  0.74505805969E-08  0.10566000000E+00  0.10566000000E+00 0. -1.
     999900   -1    0    0    0    0 -0.00000000000E+00 -0.00000000000E+00 -0.74505805969E-08  0.93827000000E+00  0.93827000000E+00 0.  1.
     999902    2    1    2    0    0  0.69424705169E-02  0.21631805773E-01  0.29264309618E-02  0.10210237363E+01  0.10207667575E+01 0.  0.
     999903    2    3    3    0    0  0.59259153712E-01 -0.72528875975E-01 -0.87677973558E-01  0.12983776950E+00  0.19958311370E-01 0.  0.
         14    1    1    2    0    0 -0.69424705169E-02 -0.21631805773E-01 -0.29264309618E-02  0.22906263686E-01  0.00000000000E+00 0.  1.
     999901    1    3    3    0    0 -0.52316683195E-01  0.94160681747E-01  0.90604404520E-01  0.89118596681E+00  0.88000000000E+00 0. -1.
        -11    1    4    4    0    0  0.23067957569E-01 -0.16108383621E-01 -0.19570552710E-01  0.34276498416E-01  0.51100000000E-03 0. -1.
         11    1    4    4    0    0  0.36191196143E-01 -0.56420492354E-01 -0.68107420847E-01  0.95561271084E-01  0.51100000000E-03 0.  1.
</event>
<event>
 8    1  0.1010879E+005  0.1043930E+01  0.7957747E-01            NaN
         13   -1    0    0    0    0  0.00000000000E+00  0.00000000000E+00  0.74505805969E-08  0.10566000000E+00  0.10566000000E+00 0. -1.
     999900   -1    0    0    0    0 -0.00000000000E+00 -0.00000000000E+00 -0.74505805969E-08  0.93827000000E+00  0.93827000000E+00 0. -1.
     999902    2    1    2    0    0  0.16978183835E-02 -0.88601521520E-03 -0.22231295416E-01  0.10216163695E+01  0.10213726589E+01 0.  0.
     999903    2    3    3    0    0  0.34489245834E-01  0.77413572473E-01  0.96033186791E-01  0.12965639792E+00  0.20150416265E-01 0.  0.
         14    1    1    2    0    0 -0.16978183835E-02  0.88601521520E-03  0.22231295416E-01  0.22313630500E-01  0.00000000000E+00 0. -1.
     999901    1    3    3    0    0 -0.32791427450E-01 -0.78299587688E-01 -0.11826448221E+00  0.89195997158E+00  0.88000000000E+00 0. -1.
        -11    1    4    4    0    0  0.11643055637E-01  0.18736516244E-01  0.38428959508E-01  0.44313246726E-01  0.51100000000E-03 0.  1.
         11    1    4    4    0    0  0.22846190197E-01  0.58677056228E-01  0.57604227283E-01  0.85343151195E-01  0.51100000000E-03 0. -1.
</event>
<event>
 8    1  0.1010879E+005  0.1043930E+01  0.7957747E-01            NaN
         13   -1    0    0    0    0  0.00000000000E+00  0.00000000000E+00  0.74505805969E-08  0.10566000000E+00  0.10566000000E+00 0.  1.
     999900   -1    0    0    0    0 -0.00000000000E+00 -0.00000000000E+00 -0.74505805969E-08  0.93827000000E+00  0.93827000000E+00 0. -1.
     999902    2    1    2    0    0 -0.19443219488E-01  0.61847406046E-02  0.98155679232E-02  0.10212885519E+01  0.10210375463E+01 0.  0.
     999903    2    3    3    0    0 -0.33386453446E-01  0.14386061259E-01  0.12674341037E+00  0.13340691798E+00  0.20295311311E-01 0.  0.
         14    1    1    2    0    0  0.19443219488E-01 -0.61847406046E-02 -0.98155679232E-02  0.22641448144E-01  0.00000000000E+00 0. -1.
     999901    1    3    3    0    0  0.13943233959E-01 -0.82013206539E-02 -0.11692784244E+00  0.88788163387E+00  0.88000000000E+00 0. -1.
        -11    1    4    4    0    0 -0.35526125714E-01  0.15650158384E-01  0.11448918893E+00  0.12089279783E+00  0.51100000000E-03 0. -1.
         11    1    4    4    0    0  0.21396722678E-02 -0.12640971251E-02  0.12254221442E-01  0.12514120149E-01  0.51100000000E-03 0.  1.
</event>
<event>
 8    1  0.1010879E+005  0.1043930E+01  0.7957747E-01            NaN
         13   -1    0    0    0    0  0.00000000000E+00  0.00000000000E+00  0.74505805969E-08  0.10566000000E+00  0.10566000000E+00 0. -1.
     999900   -1    0    0    0    0 -0.00000000000E+00 -0.00000000000E+00 -0.74505805969E-08  0.93827000000E+00  0.93827000000E+00 0. -1.
     999902    2    1    2    0    0 -0.12998478499E-01  0.56935921554E-02  0.15773510728E-01  0.10227125290E+01  0.10224924136E+01 0.  0.
     999903    2    3    3    0    0 -0.68069629281E-01  0.47069747370E-01  0.10536082720E+00  0.13548611757E+00  0.20163050334E-01 0.  0.
         14    1    1    2    0    0  0.12998478499E-01 -0.56935921554E-02 -0.15773510728E-01  0.21217470999E-01  0.00000000000E+00 0.  1.
     999901    1    3    3    0    0  0.55071150782E-01 -0.41376155215E-01 -0.89587316468E-01  0.88722641143E+00  0.88000000000E+00 0. -1.
        -11    1    4    4    0    0 -0.27383478539E-01  0.74404945890E-02  0.35076930790E-01  0.45120594536E-01  0.51100000000E-03 0. -1.
         11    1    4    4    0    0 -0.40686150743E-01  0.39629252781E-01  0.70283896405E-01  0.90365523034E-01  0.51100000000E-03 0.  1.
</event>
<event>
 8    1  0.1010879E+005  0.1043930E+01  0.7957747E-01            NaN
         13   -1    0    0    0    0  0.00000000000E+00  0.00000000000E+00  0.74505805969E-08  0.10566000000E+00  0.10566000000E+00 0. -1.
     999900   -1    0    0    0    0 -0.00000000000E+00 -0.00000000000E+00 -0.74505805969E-08  0.93827000000E+00  0.93827000000E+00 0.  1.
     999902    2    1    2    0    0  0.15794928438E-02 -0.12450540091E-01  0.20190994427E-01  0.10201563381E+01  0.10198792904E+01 0.  0.
     999903    2    3    3    0    0  0.77916369291E-01  0.32821073185E-01  0.99572989923E-01  0.13213700331E+00  0.19930475994E-01 0.  0.
         14    1    1    2    0    0 -0.15794928438E-02  0.12450540091E-01 -0.20190994427E-01  0.23773661942E-01  0.00000000000E+00 0.  1.
     999901    1    3    3    0    0 -0.76336876447E-01 -0.45271613276E-01 -0.79381995496E-01  0.88801933475E+00  0.88000000000E+00 0.  1.
        -11    1    4    4    0    0  0.57865833504E-01  0.25577221887E-01  0.60056027870E-01  0.87233230887E-01  0.51100000000E-03 0. -1.
         11    1    4    4    0    0  0.20050535787E-01  0.72438512983E-02  0.39516962053E-01  0.44903772424E-01  0.51100000000E-03 0.  1.
</event>
<event>
 8    1  0.1010879E+005  0.1043930E+01  0.7957747E-01            NaN
         13   -1    0    0    0    0  0.00000000000E+00  0.00000000000E+00  0.74505805969E-08  0.10566000000E+00  0.10566000000E+00 0. -1.
     999900   -1    0    0    0    0 -0.00000000000E+00 -0.00000000000E+00 -0.74505805969E-08  0.93827000000E+00  0.93827000000E+00 0.  1.
     999902    2    1    2    0    0  0.21603065004E-01  0.64500988329E-02 -0.82331949661E-02  0.10199282981E+01  0.10196458462E+01 0.  0.
     999903    2    3    3    0    0  0.13130502633E+00 -0.55569578636E-02  0.80984803578E-02  0.13288522515E+00  0.17916694995E-01 0.  0.
         14    1    1    2    0    0 -0.21603065004E-01 -0.64500988329E-02  0.82331949661E-02  0.24001701854E-01  0.00000000000E+00 0. -1.
     999901    1    3    3    0    0 -0.10970196133E+00  0.12007056696E-01 -0.16331675324E-01  0.88704307299E+00  0.88000000000E+00 0.  1.
        -11    1    4    4    0    0  0.11672135277E+00 -0.81821420788E-02  0.24970313995E-02  0.11703554131E+00  0.51100000000E-03 0.  1.
         11    1    4    4    0    0  0.14583673557E-01  0.26251842153E-02  0.56014489583E-02  0.15849683846E-01  0.51100000000E-03 0. -1.
</event>
<event>
 8    1  0.1010879E+005  0.1043930E+01  0.7957747E-01            NaN
         13   -1    0    0    0    0  0.00000000000E+00  0.00000000000E+00  0.74505805969E-08  0.10566000000E+00  0.10566000000E+00 0. -1.
     999900   -1    0    0    0    0 -0.00000000000E+00 -0.00000000000E+00 -0.74505805969E-08  0.93827000000E+00  0.93827000000E+00 0. -1.
     999902    2    1    2    0    0 -0.23053777422E-01  0.20708369309E-03  0.12459837067E-01  0.10177237588E+01  0.10173862994E+01 0.  0.
     999903    2    3    3    0    0  0.10544215552E+00  0.42833788424E-01  0.51382721869E-01  0.12652050944E+00  0.20358625013E-01 0.  0.
         14    1    1    2    0    0  0.23053777422E-01 -0.20708369309E-03 -0.12459837067E-01  0.26206241181E-01  0.00000000000E+00 0.  1.
     999901    1    3    3    0    0 -0.12849593294E+00 -0.42626704731E-01 -0.38922884802E-01  0.89120324938E+00  0.88000000000E+00 0.  1.
        -11    1    4    4    0    0  0.84553643592E-01  0.28051312153E-01  0.32976227139E-01  0.94994144217E-01  0.51100000000E-03 0.  1.
         11    1    4    4    0    0  0.20888511923E-01  0.14782476271E-01  0.18406494731E-01  0.31526365226E-01  0.51100000000E-03 0. -1.
</event>
<event>
 8    1  0.1010879E+005  0.1043930E+01  0.7957747E-01            NaN
         13   -1    0    0    0    0  0.00000000000E+00  0.00000000000E+00  0.74505805969E-08  0.10566000000E+00  0.10566000000E+00 0.  1.
     999900   -1    0    0    0    0 -0.00000000000E+00 -0.00000000000E+00 -0.74505805969E-08  0.93827000000E+00  0.93827000000E+00 0.  1.
     999902    2    1    2    0    0 -0.11440258129E-01  0.19544287863E-01 -0.59581052063E-02  0.10205129611E+01  0.10202442580E+01 0.  0.
     999903    2    3    3    0    0 -0.12566079486E+00  0.23204662991E-01  0.28513545250E-01  0.13245439092E+00  0.20051225905E-01 0.  0.
         14    1    1    2    0    0  0.11440258129E-01 -0.19544287863E-01  0.59581052063E-02  0.23417038920E-01  0.00000000000E+00 0.  1.
     999901    1    3    3    0    0  0.11422053673E+00 -0.36603751285E-02 -0.34471650456E-01  0.88805857016E+00  0.88000000000E+00 0.  1.
        -11    1    4    4    0    0 -0.64977696167E-01  0.22006485993E-01  0.13349410828E-01  0.69891732811E-01  0.51100000000E-03 0. -1.
         11    1    4    4    0    0 -0.60683098695E-01  0.11981769986E-02  0.15164134422E-01  0.62562658105E-01  0.51100000000E-03 0.  1.
</event>
<event>
 8    1  0.1010879E+005  0.1043930E+01  0.7957747E-01            NaN
         13   -1    0    0    0    0  0.00000000000E+00  0.00000000000E+00  0.74505805969E-08  0.10566000000E+00  0.10566000000E+00 0. -1.
     999900   -1    0    0    0    0 -0.00000000000E+00 -0.00000000000E+00 -0.74505805969E-08  0.93827000000E+00  0.93827000000E+00 0. -1.
     999902    2    1    2    0    0 -0.20068713855E-01 -0.11923386831E-01  0.55060549797E-02  0.10199458996E+01  0.10196638667E+01 0.  0.
     999903    2    3    3    0    0  0.12799138401E-01  0.10870733553E+00 -0.64055129596E-01  0.12839061514E+00  0.19999692150E-01 0.  0.
         14    1    1    2    0    0  0.20068713855E-01  0.11923386831E-01 -0.55060549797E-02  0.23984100374E-01  0.00000000000E+00 0.  1.
     999901    1    3    3    0    0 -0.32867852257E-01 -0.12063072237E+00  0.69561184576E-01  0.89155528448E+00  0.88000000000E+00 0.  1.
        -11    1    4    4    0    0  0.72427206595E-02  0.99876093673E-01 -0.53478673640E-01  0.11352497851E+00  0.51100000000E-03 0. -1.
         11    1    4    4    0    0  0.55564177418E-02  0.88312418619E-02 -0.10576455957E-01  0.14865636635E-01  0.51100000000E-03 0.  1.
</event>
<event>
 8    1  0.1010879E+005  0.1043930E+01  0.7957747E-01            NaN
         13   -1    0    0    0    0  0.00000000000E+00  0.00000000000E+00  0.74505805969E-08  0.10566000000E+00  0.10566000000E+00 0. -1.
     999900   -1    0    0    0    0 -0.00000000000E+00 -0.00000000000E+00 -0.74505805969E-08  0.93827000000E+00  0.93827000000E+00 0.  1.
     999902    2    1    2    0    0  0.10348043042E-01 -0.21069899114E-01  0.37274847311E-02  0.10201620218E+01  0.10198851082E+01 0.  0.
     999903    2    3    3    0    0  0.16584328474E-01  0.12442860735E+00  0.15189313215E-01  0.12811937703E+00  0.20648032781E-01 0.  0.
         14    1    1    2    0    0 -0.10348043042E-01  0.21069899114E-01 -0.37274847311E-02  0.23767978162E-01  0.00000000000E+00 0.  1.
     999901    1    3    3    0    0 -0.62362854320E-02 -0.14549850646E+00 -0.11461828484E-01  0.89204264481E+00  0.88000000000E+00 0. -1.
        -11    1    4    4    0    0  0.71180374891E-02  0.79171164514E-01  0.13979581942E-03  0.79492266367E-01  0.51100000000E-03 0.  1.
         11    1    4    4    0    0  0.94662909848E-02  0.45257442834E-01  0.15049517395E-01  0.48627110666E-01  0.51100000000E-03 0. -1.
</event>
<event>
 8    1  0.1010879E+005  0.1043930E+01  0.7957747E-01            NaN
         13   -1    0    0    0    0  0.00000000000E+00  0.00000000000E+00  0.74505805969E-08  0.10566000000E+00  0.10566000000E+00 0.  1.
     999900   -1    0    0    0    0 -0.00000000000E+00 -0.00000000000E+00 -0.74505805969E-08  0.93827000000E+00  0.93827000000E+00 0.  1.
     999902    2    1    2    0    0 -0.13656709024E-01  0.18422657606E-01  0.47269217117E-02  0.10205153934E+01  0.10202467468E+01 0.  0.
     999903    2    3    3    0    0 -0.77002277751E-01 -0.93075790669E-01 -0.43916093805E-01  0.12989161871E+00  0.18728473700E-01 0.  0.
         14    1    1    2    0    0  0.13656709024E-01 -0.18422657606E-01 -0.47269217117E-02  0.23414606627E-01  0.00000000000E+00 0.  1.
     999901    1    3    3    0    0  0.63345568728E-01  0.11149844828E+00  0.48643015517E-01  0.89062377467E+00  0.88000000000E+00 0.  1.
        -11    1    4    4    0    0 -0.58507229812E-01 -0.78885712651E-01 -0.29810959259E-01  0.10264017739E+00  0.51100000000E-03 0. -1.
         11    1    4    4    0    0 -0.18495047939E-01 -0.14190078018E-01 -0.14105134547E-01  0.27251441320E-01  0.51100000000E-03 0.  1.
</event>
<event>
 8    1  0.1010879E+005  0.1043930E+01  0.7957747E-01            NaN
         13   -1    0    0    0    0  0.00000000000E+00  0.00000000000E+00  0.74505805969E-08  0.10566000000E+00  0.10566000000E+00 0. -1.
     999900   -1    0    0    0    0 -0.00000000000E+00 -0.00000000000E+00 -0.74505805969E-08  0.93827000000E+00  0.93827000000E+00 0.  1.
     999902    2    1    2    0    0 -0.12873359703E-01  0.18153458205E-01 -0.79437448955E-02  0.10203000504E+01  0.10200263812E+01 0.  0.
     999903    2    3    3    0    0  0.10516224016E+00 -0.33633760280E-02  0.71150731972E-01  0.12864355082E+00  0.20404103818E-01 0.  0.
         14    1    1    2    0    0  0.12873359703E-01 -0.18153458205E-01  0.79437448955E-02  0.23629949594E-01  0.00000000000E+00 0.  1.
     999901    1    3    3    0    0 -0.11803559986E+00  0.21516834233E-01 -0.79094476868E-01  0.89165649959E+00  0.88000000000E+00 0.  1.
        -11    1    4    4    0    0  0.78805940147E-01 -0.11355916783E-01  0.53561990288E-01  0.95960830410E-01  0.51100000000E-03 0. -1.
         11    1    4    4    0    0  0.26356300013E-01  0.79925407545E-02  0.17588741684E-01  0.32682720405E-01  0.51100000000E-03 0.  1.
</event>
<event>
 8    1  0.1010879E+005  0.1043930E+01  0.7957747E-01            NaN
         13   -1    0    0    0    0  0.00000000000E+00  0.00000000000E+00  0.74505805969E-08  0.10566000000E+00  0.10566000000E+00 0.  1.
     999900   -1    0    0    0    0 -0.00000000000E+00 -0.00000000000E+00 -0.74505805969E-08  0.93827000000E+00  0.93827000000E+00 0. -1.
     999902    2    1    2    0    0 -0.13726611755E-01  0.92171713158E-03 -0.19792694449E-01  0.10198256397E+01  0.10195407374E+01 0.  0.
     999903    2    3    3    0    0  0.10875859259E+00  0.59602873397E-01 -0.34067753417E-01  0.12929215873E+00  0.13225600491E-01 0.  0.
         14    1    1    2    0    0  0.13726611755E-01 -0.92171713158E-03  0.19792694449E-01  0.24104360317E-01  0.00000000000E+00 0. -1.
     999901    1    3    3    0    0 -0.12248520434E+00 -0.58681156266E-01  0.14275058968E-01  0.89053348095E+00  0.88000000000E+00 0.  1.
        -11    1    4    4    0    0  0.29876468369E-01  0.10199126313E-01 -0.10553590631E-01  0.33290613331E-01  0.51100000000E-03 0. -1.
         11    1    4    4    0    0  0.78882124218E-01  0.49403747084E-01 -0.23514162786E-01  0.96001545402E-01  0.51100000000E-03 0.  1.
</event>
<event>
 8    1  0.1010879E+005  0.1043930E+01  0.7957747E-01            NaN
         13   -1    0    0    0    0  0.00000000000E+00  0.00000000000E+00  0.74505805969E-08  0.10566000000E+00  0.10566000000E+00 0.  1.
     999900   -1    0    0    0    0 -0.00000000000E+00 -0.00000000000E+00 -0.74505805969E-08  0.93827000000E+00  0.93827000000E+00 0.  1.
     999902    2    1    2    0    0 -0.15812832715E-02  0.16122373666E-01 -0.17526892544E-01  0.10200632166E+01  0.10197839685E+01 0.  0.
     999903    2    3    3    0    0  0.56980342202E-01 -0.42650776222E-01 -0.10850706761E+00  0.13149068751E+00  0.21217188094E-01 0.  0.
         14    1    1    2    0    0  0.15812832715E-02 -0.16122373666E-01  0.17526892544E-01  0.23866783438E-01  0.00000000000E+00 0.  1.
     999901    1    3    3    0    0 -0.58561625474E-01  0.58773149888E-01  0.90980175070E-01  0.88857252905E+00  0.88000000000E+00 0. -1.
        -11    1    4    4    0    0  0.54575583148E-01 -0.43192741360E-01 -0.95098031192E-01  0.11784737519E+00  0.51100000000E-03 0. -1.
         11    1    4    4    0    0  0.24047590543E-02  0.54196513750E-03 -0.13409036421E-01  0.13643312320E-01  0.51100000000E-03 0.  1.
</event>
<event>
 8    1  0.1010879E+005  0.1043930E+01  0.7957747E-01            NaN
         13   -1    0    0    0    0  0.00000000000E+00  0.00000000000E+00  0.74505805969E-08  0.10566000000E+00  0.10566000000E+00 0. -1.
     999900   -1    0    0    0    0 -0.00000000000E+00 -0.00000000000E+00 -0.74505805969E-08  0.93827000000E+00  0.93827000000E+00 0. -1.
     999902    2    1    2    0    0 -0.25218466743E-02  0.18611081394E-01  0.14165353929E-01  0.10204057718E+01  0.10201345743E+01 0.  0.
     999903    2    3    3    0    0 -0.11825340154E+00 -0.12543001127E-02  0.55637697511E-01  0.13163787100E+00  0.15733259498E-01 0.  0.
         14    1    1    2    0    0  0.25218466743E-02 -0.18611081394E-01 -0.14165353929E-01  0.23524228218E-01  0.00000000000E+00 0.  1.
     999901    1    3    3    0    0  0.11573155486E+00  0.19865381507E-01 -0.41472343581E-01  0.88876790078E+00  0.88000000000E+00 0.  1.
        -11    1    4    4    0    0 -0.97773661270E-01 -0.27513787456E-02  0.52002065521E-01  0.11077786269E+00  0.51100000000E-03 0.  1.
         11    1    4    4    0    0 -0.20479740265E-01  0.14970786329E-02  0.36356319895E-02  0.20860008311E-01  0.51100000000E-03 0. -1.
</event>
<event>
 8    1  0.1010879E+005  0.1043930E+01  0.7957747E-01            NaN
         13   -1    0    0    0    0  0.00000000000E+00  0.00000000000E+00  0.74505805969E-08  0.10566000000E+00  0.10566000000E+00 0.  1.
     999900   -1    0    0    0    0 -0.00000000000E+00 -0.00000000000E+00 -0.74505805969E-08  0.93827000000E+00  0.93827000000E+00 0. -1.
     999902    2    1    2    0    0  0.65099878075E-02 -0.22154480026E-01 -0.21826589159E-02  0.10207359291E+01  0.10204723769E+01 0.  0.
     999903    2    3    3    0    0 -0.70538022579E-01  0.10406803461E+00 -0.15809438203E-01  0.12829309716E+00  0.20085118516E-01 0.  0.
         14    1    1    2    0    0 -0.65099878075E-02  0.22154480026E-01  0.21826589159E-02  0.23194070933E-01  0.00000000000E+00 0. -1.
     999901    1    3    3    0    0  0.77048010387E-01 -0.12622251464E+00  0.13626779287E-01  0.89244283191E+00  0.88000000000E+00 0.  1.
        -11    1    4    4    0    0 -0.21767131303E-01  0.47063340427E-01 -0.11691763705E-01  0.53157543932E-01  0.51100000000E-03 0. -1.
         11    1    4    4    0    0 -0.48770891276E-01  0.57004694184E-01 -0.41176744982E-02  0.75135553230E-01  0.51100000000E-03 0.  1.
</event>
<event>
 8    1  0.1010879E+005  0.1043930E+01  0.7957747E-01            NaN
         13   -1    0    0    0    0  0.00000000000E+00  0.00000000000E+00  0.74505805969E-08  0.10566000000E+00  0.10566000000E+00 0. -1.
     999900   -1    0    0    0    0 -0.00000000000E+00 -0.00000000000E+00 -0.74505805969E-08  0.93827000000E+00  0.93827000000E+00 0.  1.
     999902    2    1    2    0    0 -0.15285932060E-01  0.89176274580E-02 -0.14704980720E-01  0.10209208658E+01  0.10206615472E+01 0.  0.
     999903    2    3    3    0    0 -0.82862045755E-01 -0.68528250554E-01  0.71405189370E-01  0.13076393775E+00  0.20934817828E-01 0.  0.
         14    1    1    2    0    0  0.15285932060E-01 -0.89176274580E-02  0.14704980720E-01  0.23009134195E-01  0.00000000000E+00 0. -1.
     999901    1    3    3    0    0  0.67576113695E-01  0.77445878012E-01 -0.86110170090E-01  0.89015692805E+00  0.88000000000E+00 0. -1.
        -11    1    4    4    0    0 -0.53779659794E-01 -0.31045903882E-01  0.40942081841E-01  0.74381551085E-01  0.51100000000E-03 0. -1.
         11    1    4    4    0    0 -0.29082385961E-01 -0.37482346671E-01  0.30463107529E-01  0.56382386669E-01  0.51100000000E-03 0.  1.
</event>
<event>
 8    1  0.1010879E+005  0.1043930E+01  0.7957747E-01            NaN
         13   -1    0    0    0    0  0.00000000000E+00  0.00000000000E+00  0.74505805969E-08  0.10566000000E+00  0.10566000000E+00 0. -1.
     999900   -1    0    0    0    0 -0.00000000000E+00 -0.00000000000E+00 -0.74505805969E-08  0.93827000000E+00  0.93827000000E+00 0. -1.
     999902    2    1    2    0    0 -0.14815881886E-02 -0.14676486082E-02  0.23589445454E-01  0.10202485509E+01  0.10199736734E+01 0.  0.
     999903    2    3    3    0    0  0.98961112337E-01  0.78619722774E-01  0.31897513587E-01  0.13088262666E+00  0.11766393909E-01 0.  0.
         14    1    1    2    0    0  0.14815881886E-02  0.14676486082E-02 -0.23589445454E-01  0.23681449129E-01  0.00000000000E+00 0.  1.
     999901    1    3    3    0    0 -0.10044270053E+00 -0.80087371382E-01 -0.83080681328E-02  0.88936592421E+00  0.88000000000E+00 0.  1.
        -11    1    4    4    0    0  0.34929621810E-01  0.20925177080E-01  0.90528005260E-02  0.41715175104E-01  0.51100000000E-03 0.  1.
         11    1    4    4    0    0  0.64031490527E-01  0.57694545694E-01  0.22844713061E-01  0.89167451561E-01  0.51100000000E-03 0. -1.
</event>
<event>
 8    1  0.1010879E+005  0.1043930E+01  0.7957747E-01            NaN
         13   -1    0    0    0    0  0.00000000000E+00  0.00000000000E+00  0.74505805969E-08  0.10566000000E+00  0.10566000000E+00 0.  1.
     999900   -1    0    0    0    0 -0.00000000000E+00 -0.00000000000E+00 -0.74505805969E-08  0.93827000000E+00  0.93827000000E+00 0. -1.
     999902    2    1    2    0    0 -0.87713219221E-02 -0.16153121193E-01  0.18935460659E-01  0.10175403982E+01  0.10171981375E+01 0.  0.
     999903    2    3    3    0    0  0.40413035395E-01 -0.10992055122E+00 -0.49713837601E-01  0.12853862200E+00  0.18302204414E-01 0.  0.
         14    1    1    2    0    0  0.87713219221E-02  0.16153121193E-01 -0.18935460659E-01  0.26389601795E-01  0.00000000000E+00 0.  1.
     999901    1    3    3    0    0 -0.49184357317E-01  0.93767430029E-01  0.68649298260E-01  0.88900177620E+00  0.88000000000E+00 0.  1.
        -11    1    4    4    0    0  0.11001375132E-01 -0.13913247161E-01 -0.11254337442E-01  0.21012613679E-01  0.51100000000E-03 0. -1.
         11    1    4    4    0    0  0.29411660263E-01 -0.96007304061E-01 -0.38459500159E-01  0.10752600832E+00  0.51100000000E-03 0.  1.
</event>
<event>
 8    1  0.1010879E+005  0.1043930E+01  0.7957747E-01            NaN
         13   -1    0    0    0    0  0.00000000000E+00  0.00000000000E+00  0.74505805969E-08  0.10566000000E+00  0.10566000000E+00 0. -1.
     999900   -1    0    0    0    0 -0.00000000000E+00 -0.00000000000E+00 -0.74505805969E-08  0.93827000000E+00  0.93827000000E+00 0.  1.
     999902    2    1    2    0    0  0.21545622403E-01 -0.50408731020E-02  0.84368659823E-02  0.10202486792E+01  0.10199738048E+01 0.  0.
     999903    2    3    3    0    0  0.88800072336E-01 -0.74704676885E-01 -0.60124882464E-01  0.13228645032E+00  0.20456340157E-01 0.  0.
         14    1    1    2    0    0 -0.21545622403E-01  0.50408731020E-02 -0.84368659823E-02  0.23681320782E-01  0.00000000000E+00 0.  1.
     999901    1    3    3    0    0 -0.67254449932E-01  0.69663803783E-01  0.68561748446E-01  0.88796222889E+00  0.88000000000E+00 0. -1.
        -11    1    4    4    0    0  0.59104467263E-01 -0.52161732496E-01 -0.51029929922E-01  0.93906864798E-01  0.51100000000E-03 0.  1.
         11    1    4    4    0    0  0.29695605073E-01 -0.22542944389E-01 -0.90949525425E-02  0.38379585525E-01  0.51100000000E-03 0. -1.
</event>
<event>
 8    1  0.1010879E+005  0.1043930E+01  0.7957747E-01            NaN
         13   -1    0    0    0    0  0.00000000000E+00  0.00000000000E+00  0.74505805969E-08  0.10566000000E+00  0.10566000000E+00 0.  1.
     999900   -1    0    0    0    0 -0.00000000000E+00 -0.00000000000E+00 -0.74505805969E-08  0.93827000000E+00  0.93827000000E+00 0. -1.
     999902    2    1    2    0    0 -0.23115414421E-01  0.35693840859E-02  0.68140657419E-02  0.10195682599E+01  0.10192771666E+01 0.  0.
     999903    2    3    3    0    0 -0.72363531713E-01  0.71109696308E-01 -0.81930792518E-01  0.13116366704E+00  0.14077753966E-01 0.  0.
         14    1    1    2    0    0  0.23115414421E-01 -0.35693840859E-02 -0.68140657419E-02  0.24361740056E-01  0.00000000000E+00 0.  1.
     999901    1    3    3    0    0  0.49248117292E-01 -0.67540312222E-01  0.88744858260E-01  0.88840459291E+00  0.88000000000E+00 0.  1.
        -11    1    4    4    0    0 -0.45431100927E-01  0.42328338683E-01 -0.58460257650E-01  0.85285028185E-01  0.51100000000E-03 0.  1.
         11    1    4    4    0    0 -0.26932430787E-01  0.28781357626E-01 -0.23470534868E-01  0.45878638851E-01  0.51100000000E-03 0. -1.
</event>
<event>
 8    1  0.1010879E+005  0.1043930E+01  0.7957747E-01            NaN
         13   -1    0    0    0    0  0.00000000000E+00  0.00000000000E+00  0.74505805969E-08  0.10566000000E+00  0.10566000000E+00 0. -1.
     999900   -1    0    0    0    0 -0.00000000000E+00 -0.00000000000E+00 -0.74505805969E-08  0.93827000000E+00  0.93827000000E+00 0.  1.
     999902    2    1    2    0    0  0.18205836285E-01 -0.76193039842E-02  0.12427230675E-01  0.10206074287E+01  0.10203409142E+01 0.  0.
     999903    2    3    3    0    0  0.84548746715E-02  0.10247050857E-01 -0.12700492023E+00  0.12939723322E+00  0.20902326331E-01 0.  0.
         14    1    1    2    0    0 -0.18205836285E-01  0.76193039842E-02 -0.12427230675E-01  0.23322571262E-01  0.00000000000E+00 0.  1.
     999901    1    3    3    0    0  0.97509616133E-02 -0.17866354841E-01  0.13943215090E+00  0.89121019552E+00  0.88000000000E+00 0. -1.
        -11    1    4    4    0    0 -0.50959822370E-02  0.98074105025E-02 -0.50406271360E-01  0.51606275288E-01  0.51100000000E-03 0. -1.
         11    1    4    4    0    0  0.13550856908E-01  0.43964035440E-03 -0.76598648868E-01  0.77790957933E-01  0.51100000000E-03 0.  1.
</event>
<event>
 8    1  0.1010879E+005  0.1043930E+01  0.7957747E-01            NaN
         13   -1    0    0    0    0  0.00000000000E+00  0.00000000000E+00  0.74505805969E-08  0.10566000000E+00  0.10566000000E+00 0. -1.
     999900   -1    0    0    0    0 -0.00000000000E+00 -0.00000000000E+00 -0.74505805969E-08  0.93827000000E+00  0.93827000000E+00 0.  1.
     999902    2    1    2    0    0  0.53685876646E-02 -0.22074615465E-01  0.39263025094E-02  0.10208751473E+01  0.10206147854E+01 0.  0.
     999903    2    3    3    0    0 -0.12236837912E+00 -0.43533326714E-01  0.87342357583E-03  0.13138848128E+00  0.19824212470E-01 0.  0.
         14    1    1    2    0    0 -0.53685876646E-02  0.22074615465E-01 -0.39263025094E-02  0.23054852696E-01  0.00000000000E+00 0.  1.
     999901    1    3    3    0    0  0.12773696678E+00  0.21458711249E-01  0.30528789336E-02  0.88948666603E+00  0.88000000000E+00 0. -1.
        -11    1    4    4    0    0 -0.79369084715E-01 -0.21707278367E-01  0.78626866865E-02  0.82660392605E-01  0.51100000000E-03 0.  1.
         11    1    4    4    0    0 -0.42999294405E-01 -0.21826048346E-01 -0.69892631107E-02  0.48728088672E-01  0.51100000000E-03 0. -1.
</event>
<event>
 8    1  0.1010879E+005  0.1043930E+01  0.7957747E-01            NaN
         13   -1    0    0    0    0  0.00000000000E+00  0.00000000000E+00  0.74505805969E-08  0.10566000000E+00  0.10566000000E+00 0.  1.
     999900   -1    0    0    0    0 -0.00000000000E+00 -0.00000000000E+00 -0.74505805969E-08  0.93827000000E+00  0.93827000000E+00 0.  1.
     999902    2    1    2    0    0 -0.12006196493E-01 -0.18247729018E-01  0.94158081780E-02  0.10201437474E+01  0.10198664028E+01 0.  0.
     999903    2    3    3    0    0  0.59118965072E-03 -0.11108138505E+00 -0.68048335153E-01  0.13178713246E+00  0.19946146330E-01 0.  0.
         14    1    1    2    0    0  0.12006196493E-01  0.18247729018E-01 -0.94158081780E-02  0.23786252589E-01  0.00000000000E+00 0.  1.
     999901    1    3    3    0    0 -0.12597386144E-01  0.92833656036E-01  0.77464143331E-01  0.88835661495E+00  0.88000000000E+00 0. -1.
        -11    1    4    4    0    0  0.96000208816E-02 -0.72332535612E-01 -0.41298294988E-01  0.83844894889E-01  0.51100000000E-03 0. -1.
         11    1    4    4    0    0 -0.90088312308E-02 -0.38748849442E-01 -0.26750040164E-01  0.47942237568E-01  0.51100000000E-03 0.  1.
</event>
<event>
 8    1  0.1010879E+005  0.1043930E+01  0.7957747E-01            NaN
         13   -1    0    0    0    0  0.00000000000E+00  0.00000000000E+00  0.74505805969E-08  0.10566000000E+00  0.10566000000E+00 0.  1.
     999900   -1    0    0    0    0 -0.00000000000E+00 -0.00000000000E+00 -0.74505805969E-08  0.93827000000E+00  0.93827000000E+00 0.  1.
     999902    2    1    2    0    0 -0.68362547137E-02 -0.16645019187E-01 -0.15758944275E-01  0.10200106487E+01  0.10197301545E+01 0.  0.
     999903    2    3    3    0    0  0.77266065800E-02  0.10065100905E+00 -0.79148161676E-01  0.12984851287E+00  0.20146432101E-01 0.  0.
         14    1    1    2    0    0  0.68362547137E-02  0.16645019187E-01  0.15758944275E-01  0.23919351306E-01  0.00000000000E+00 0.  1.
     999901    1    3    3    0    0 -0.14562861294E-01 -0.11729602824E+00  0.63389217401E-01  0.89016213582E+00  0.88000000000E+00 0. -1.
        -11    1    4    4    0    0  0.11153696943E-02  0.47634681052E-01 -0.49652831630E-01  0.68818396511E-01  0.51100000000E-03 0. -1.
         11    1    4    4    0    0  0.66112368857E-02  0.53016327997E-01 -0.29495330046E-01  0.61030116361E-01  0.51100000000E-03 0.  1.
</event>
<event>
 8    1  0.1010879E+005  0.1043930E+01  0.7957747E-01            NaN
         13   -1    0    0    0    0  0.00000000000E+00  0.00000000000E+00  0.74505805969E-08  0.10566000000E+00  0.10566000000E+00 0.  1.
     999900   -1    0    0    0    0 -0.00000000000E+00 -0.00000000000E+00 -0.74505805969E-08  0.93827000000E+00  0.93827000000E+00 0.  1.
     999902    2    1    2    0    0 -0.22410143293E-01 -0.70490484558E-02 -0.54243892442E-02  0.10198192637E+01  0.10195342088E+01 0.  0.
     999903    2    3    3    0    0 -0.11849554154E+00 -0.54047416630E-01 -0.19254929554E-01  0.13323450508E+00  0.20453958595E-01 0.  0.
         14    1    1    2    0    0  0.22410143293E-01  0.70490484558E-02  0.54243892442E-02  0.24110736306E-01  0.00000000000E+00 0.  1.
     999901    1    3    3    0    0  0.96085398244E-01  0.46998368174E-01  0.13830540310E-01  0.88658475862E+00  0.88000000000E+00 0.  1.
        -11    1    4    4    0    0 -0.31593082991E-01 -0.24464856399E-01 -0.38003113081E-02  0.40141693768E-01  0.51100000000E-03 0.  1.
         11    1    4    4    0    0 -0.86902458546E-01 -0.29582560231E-01 -0.15454618246E-01  0.93092811308E-01  0.51100000000E-03 0. -1.
</event>
<event>
 8    1  0.1010879E+005  0.1043930E+01  0.7957747E-01            NaN
         13   -1    0    0    0    0  0.00000000000E+00  0.00000000000E+00  0.74505805969E-08  0.10566000000E+00  0.10566000000E+00 0.  1.
     999900   -1    0    0    0    0 -0.00000000000E+00 -0.00000000000E+00 -0.74505805969E-08  0.93827000000E+00  0.93827000000E+00 0. -1.
     999902    2    1    2    0    0  0.21979753613E-01 -0.68737247166E-02 -0.88252556897E-02  0.10192674211E+01  0.10189690049E+01 0.  0.
     999903    2    3    3    0    0  0.35877284099E-01 -0.22786605475E-01  0.12068745661E+00  0.12953717896E+00  0.20199248649E-01 0.  0.
         14    1    1    2    0    0 -0.21979753613E-01  0.68737247166E-02  0.88252556897E-02  0.24662578907E-01  0.00000000000E+00 0.  1.
     999901    1    3    3    0    0 -0.13897530486E-01  0.15912880759E-01 -0.12951271230E+00  0.88973024214E+00  0.88000000000E+00 0. -1.
        -11    1    4    4    0    0  0.12237035426E-01 -0.95405479567E-03  0.17030244750E-01  0.20998705051E-01  0.51100000000E-03 0.  1.
         11    1    4    4    0    0  0.23640248673E-01 -0.21832550679E-01  0.10365721186E+00  0.10853847390E+00  0.51100000000E-03 0. -1.
</event>
<event>
 8    1  0.1010879E+005  0.1043930E+01  0.7957747E-01            NaN
         13   -1    0    0    0    0  0.00000000000E+00  0.00000000000E+00  0.74505805969E-08  0.10566000000E+00  0.10566000000E+00 0.  1.
     999900   -1    0    0    0    0 -0.00000000000E+00 -0.00000000000E+00 -0.74505805969E-08  0.93827000000E+00  0.93827000000E+00 0. -1.
     999902    2    1    2    0    0 -0.11736629561E-01 -0.58372516261E-02 -0.19214233695E-01  0.10206704051E+01  0.10204053445E+01 0.  0.
     999903    2    3    3    0    0  0.27864173558E-01  0.10332906547E+00 -0.73504602949E-01  0.13138251434E+00  0.20127853372E-01 0.  0.
         14    1    1    2    0    0  0.11736629561E-01  0.58372516261E-02  0.19214233695E-01  0.23259594934E-01  0.00000000000E+00 0.  1.
     999901    1    3    3    0    0 -0.39600803120E-01 -0.10916631709E+00  0.54290369254E-01  0.88928789072E+00  0.88000000000E+00 0.  1.
        -11    1    4    4    0    0  0.26420956163E-01  0.92958936797E-01 -0.72575295110E-01  0.12085886577E+00  0.51100000000E-03 0. -1.
         11    1    4    4    0    0  0.14432173952E-02  0.10370128671E-01 -0.92930783964E-03  0.10523648567E-01  0.51100000000E-03 0.  1.
</event>
<event>
 7    1  0.1010879E+005  0.1043930E+01  0.7957747E-01            NaN
         13   -1    0    0    0    0  0.00000000000E+00  0.00000000000E+00  0.74505805969E-08  0.10566000000E+00  0.10566000000E+00 0. -1.
     999900   -1    0    0    0    0 -0.00000000000E+00 -0.00000000000E+00 -0.74505805969E-08  0.93827000000E+00  0.93827000000E+00 0.  1.
     999903    2    1    2    0    0  0.86621354004E-01 -0.54923707069E-01 -0.28789267969E-01  0.10843699986E+00  0.20245701270E-01 0.  0.
         14    1    1    2    0    0  0.39151452090E-01  0.20213174652E-01  0.12196662283E-01  0.45718346439E-01  0.00000000000E+00 0. -1.
     999901    1    1    2    0    0 -0.12577280609E+00  0.34710532418E-01  0.16592605686E-01  0.88977465371E+00  0.88000000000E+00 0. -1.
        -11    1    3    3    0    0  0.27021490610E-01 -0.26035207751E-01 -0.16847382946E-01  0.41135002499E-01  0.51100000000E-03 0.  1.
         11    1    3    3    0    0  0.59599863393E-01 -0.28888499318E-01 -0.11941885023E-01  0.67301997357E-01  0.51100000000E-03 0. -1.
</event>
<event>
 8    1  0.1010879E+005  0.1043930E+01  0.7957747E-01            NaN
         13   -1    0    0    0    0  0.00000000000E+00  0.00000000000E+00  0.74505805969E-08  0.10566000000E+00  0.10566000000E+00 0.  1.
     999900   -1    0    0    0    0 -0.00000000000E+00 -0.00000000000E+00 -0.74505805969E-08  0.93827000000E+00  0.93827000000E+00 0. -1.
     999902    2    1    2    0    0  0.63021180428E-02 -0.15030079496E-01 -0.14547556310E-01  0.10220839162E+01  0.10218504198E+01 0.  0.
     999903    2    3    3    0    0  0.10548059497E+00 -0.56040319761E-01 -0.61089075014E-01  0.13434278107E+00  0.70309591382E-02 0.  0.
         14    1    1    2    0    0 -0.63021180428E-02  0.15030079496E-01  0.14547556310E-01  0.21846083770E-01  0.00000000000E+00 0.  1.
     999901    1    3    3    0    0 -0.99178476923E-01  0.41010240265E-01  0.46541518704E-01  0.88774113516E+00  0.88000000000E+00 0. -1.
        -11    1    4    4    0    0  0.80296252319E-01 -0.41412057610E-01 -0.43045409947E-01  0.10007804500E+00  0.51100000000E-03 0. -1.
         11    1    4    4    0    0  0.25184342647E-01 -0.14628262151E-01 -0.18043665067E-01  0.34264736073E-01  0.51100000000E-03 0.  1.
</event>
<event>
 8    1  0.1010879E+005  0.1043930E+01  0.7957747E-01            NaN
         13   -1    0    0    0    0  0.00000000000E+00  0.00000000000E+00  0.74505805969E-08  0.10566000000E+00  0.10566000000E+00 0. -1.
     999900   -1    0    0    0    0 -0.00000000000E+00 -0.00000000000E+00 -0.74505805969E-08  0.93827000000E+00  0.93827000000E+00 0. -1.
     999902    2    1    2    0    0 -0.30323953294E-01 -0.19772587625E-01  0.11391964521E-01  0.10059790551E+01  0.10052629432E+01 0.  0.
     999903    2    3    3    0    0 -0.92844138726E-01  0.56698724034E-01 -0.42892327514E-01  0.11879056358E+00  0.20896574655E-01 0.  0.
         14    1    1    2    0    0  0.30323953294E-01  0.19772587625E-01 -0.11391964521E-01  0.37950944921E-01  0.00000000000E+00 0. -1.
     999901    1    3    3    0    0  0.62520185432E-01 -0.76471311659E-01  0.54284292035E-01  0.88718849150E+00  0.88000000000E+00 0. -1.
        -11    1    4    4    0    0 -0.23810798883E-01  0.15984862228E-01 -0.21474977911E-01  0.35831630735E-01  0.51100000000E-03 0.  1.
         11    1    4    4    0    0 -0.69033339843E-01  0.40713861806E-01 -0.21417349604E-01  0.82958932841E-01  0.51100000000E-03 0. -1.
</event>
<event>
 8    1  0.1010879E+005  0.1043930E+01  0.7957747E-01            NaN
         13   -1    0    0    0    0  0.00000000000E+00  0.00000000000E+00  0.74505805969E-08  0.10566000000E+00  0.10566000000E+00 0. -1.
     999900   -1    0    0    0    0 -0.00000000000E+00 -0.00000000000E+00 -0.74505805969E-08  0.93827000000E+00  0.93827000000E+00 0. -1.
     999902    2    1    2    0    0  0.15740858471E-01 -0.13652103547E-01  0.62220004682E-02  0.10221844753E+01  0.10219531465E+01 0.  0.
     999903    2    3    3    0    0  0.42021640872E-01  0.40445821009E-01 -0.11644412247E+00  0.13164293064E+00  0.19207935621E-01 0.  0.
         14    1    1    2    0    0 -0.15740858471E-01  0.13652103547E-01 -0.62220004682E-02  0.21745524747E-01  0.00000000000E+00 0.  1.
     999901    1    3    3    0    0 -0.26280782401E-01 -0.54097924556E-01  0.12266612294E+00  0.89054154461E+00  0.88000000000E+00 0.  1.
        -11    1    4    4    0    0  0.36209911300E-01  0.24890928983E-01 -0.74005855105E-01  0.86068831367E-01  0.51100000000E-03 0.  1.
         11    1    4    4    0    0  0.58117295718E-02  0.15554892026E-01 -0.42438267366E-01  0.45574099273E-01  0.51100000000E-03 0. -1.
</event>
<event>
 8    1  0.1010879E+005  0.1043930E+01  0.7957747E-01            NaN
         13   -1    0    0    0    0  0.00000000000E+00  0.00000000000E+00  0.74505805969E-08  0.10566000000E+00  0.10566000000E+00 0.  1.
     999900   -1    0    0    0    0 -0.00000000000E+00 -0.00000000000E+00 -0.74505805969E-08  0.93827000000E+00  0.93827000000E+00 0. -1.
     999902    2    1    2    0    0 -0.14257646229E-01 -0.17670350445E-01  0.61136686641E-02  0.10204162018E+01  0.10201452476E+01 0.  0.
     999903    2    3    3    0    0 -0.62253361162E-01 -0.91178183740E-01 -0.70776927499E-01  0.13271177240E+00  0.20349420193E-01 0.  0.
         14    1    1    2    0    0  0.14257646229E-01  0.17670350445E-01 -0.61136686641E-02  0.23513798191E-01  0.00000000000E+00 0.  1.
     999901    1    3    3    0    0  0.47995714933E-01  0.73507833295E-01  0.76890596163E-01  0.88770442941E+00  0.88000000000E+00 0. -1.
        -11    1    4    4    0    0 -0.45273283951E-01 -0.70739988468E-01 -0.43331531098E-01  0.94507665913E-01  0.51100000000E-03 0.  1.
         11    1    4    4    0    0 -0.16980077212E-01 -0.20438195272E-01 -0.27445396402E-01  0.38204106490E-01  0.51100000000E-03 0. -1.
</event>
<event>
 8    1  0.1010879E+005  0.1043930E+01  0.7957747E-01            NaN
         13   -1    0    0    0    0  0.00000000000E+00  0.00000000000E+00  0.74505805969E-08  0.10566000000E+00  0.10566000000E+00 0.  1.
     999900   -1    0    0    0    0 -0.00000000000E+00 -0.00000000000E+00 -0.74505805969E-08  0.93827000000E+00  0.93827000000E+00 0.  1.
     999902    2    1    2    0    0 -0.83084562877E-02  0.61830842373E-02  0.20889223288E-01  0.10206143266E+01  0.10203479715E+01 0.  0.
     999903    2    3    3    0    0  0.90414134642E-01 -0.48354577211E-01 -0.74459679651E-01  0.12830724954E+00  0.20140146737E-01 0.  0.
         14    1    1    2    0    0  0.83084562877E-02 -0.61830842373E-02 -0.20889223288E-01  0.23315673401E-01  0.00000000000E+00 0. -1.
     999901    1    3    3    0    0 -0.98722590930E-01  0.54537661449E-01  0.95348902939E-01  0.89230707706E+00  0.88000000000E+00 0. -1.
        -11    1    4    4    0    0  0.16635200945E-01 -0.12943557443E-01 -0.24920660884E-01  0.32643009200E-01  0.51100000000E-03 0.  1.
         11    1    4    4    0    0  0.73778933697E-01 -0.35411019768E-01 -0.49539018767E-01  0.95664240340E-01  0.51100000000E-03 0. -1.
</event>
<event>
 8    1  0.1010879E+005  0.1043930E+01  0.7957747E-01            NaN
         13   -1    0    0    0    0  0.00000000000E+00  0.00000000000E+00  0.74505805969E-08  0.10566000000E+00  0.10566000000E+00 0.  1.
     999900   -1    0    0    0    0 -0.00000000000E+00 -0.00000000000E+00 -0.74505805969E-08  0.93827000000E+00  0.93827000000E+00 0.  1.
     999902    2    1    2    0    0 -0.20961248091E-01  0.11109597896E-01 -0.17489975808E-03  0.10202060105E+01  0.10199301330E+01 0.  0.
     999903    2    3    3    0    0 -0.68312006472E-01 -0.10844154005E+00  0.14419191613E-01  0.13074125214E+00  0.21430447641E-01 0.  0.
         14    1    1    2    0    0  0.20961248091E-01 -0.11109597896E-01  0.17489975808E-03  0.23723989480E-01  0.00000000000E+00 0. -1.
     999901    1    3    3    0    0  0.47350758382E-01  0.11955113795E+00 -0.14594091371E-01  0.88946475838E+00  0.88000000000E+00 0.  1.
        -11    1    4    4    0    0 -0.50087719784E-01 -0.60046707424E-01  0.72486992569E-02  0.78531468264E-01  0.51100000000E-03 0. -1.
         11    1    4    4    0    0 -0.18224286688E-01 -0.48394832628E-01  0.71704923560E-02  0.52209783873E-01  0.51100000000E-03 0.  1.
</event>
<event>
 8    1  0.1010879E+005  0.1043930E+01  0.7957747E-01            NaN
         13   -1    0    0    0    0  0.00000000000E+00  0.00000000000E+00  0.74505805969E-08  0.10566000000E+00  0.10566000000E+00 0. -1.
     999900   -1    0    0    0    0 -0.00000000000E+00 -0.00000000000E+00 -0.74505805969E-08  0.93827000000E+00  0.93827000000E+00 0.  1.
     999902    2    1    2    0    0 -0.18797970950E-01 -0.10385731350E-01  0.10883727205E-01  0.10198534005E+01  0.10195691618E+01 0.  0.
     999903    2    3    3    0    0 -0.77052300153E-01  0.10276313498E+00  0.13018457656E-01  0.13069605224E+00  0.20363176629E-01 0.  0.
         14    1    1    2    0    0  0.18797970950E-01  0.10385731350E-01 -0.10883727205E-01  0.24076599539E-01  0.00000000000E+00 0.  1.
     999901    1    3    3    0    0  0.58254329203E-01 -0.11314886633E+00 -0.21347304505E-02  0.88915734822E+00  0.88000000000E+00 0. -1.
        -11    1    4    4    0    0 -0.20002039177E-01  0.29953545206E-01 -0.52713840497E-02  0.36405288798E-01  0.51100000000E-03 0.  1.
         11    1    4    4    0    0 -0.57050260976E-01  0.72809589770E-01  0.18289841705E-01  0.94290763442E-01  0.51100000000E-03 0. -1.
</event>
<event>
 8    1  0.1010879E+005  0.1043930E+01  0.7957747E-01            NaN
         13   -1    0    0    0    0  0.00000000000E+00  0.00000000000E+00  0.74505805969E-08  0.10566000000E+00  0.10566000000E+00 0. -1.
     999900   -1    0    0    0    0 -0.00000000000E+00 -0.00000000000E+00 -0.74505805969E-08  0.93827000000E+00  0.93827000000E+00 0.  1.
     999902    2    1    2    0    0  0.14847141850E-01  0.26428484423E-01  0.11712456924E-02  0.10135939781E+01  0.10131399105E+01 0.  0.
     999903    2    3    3    0    0  0.10925633540E+00  0.60396029753E-01  0.18240438078E-01  0.12772816019E+00  0.19928424147E-01 0.  0.
         14    1    1    2    0    0 -0.14847141850E-01 -0.26428484423E-01 -0.11712456924E-02  0.30336021929E-01  0.00000000000E+00 0.  1.
     999901    1    3    3    0    0 -0.94409193551E-01 -0.33967545330E-01 -0.17069192385E-01  0.88586581788E+00  0.88000000000E+00 0. -1.
        -11    1    4    4    0    0  0.86777661887E-01  0.39240607833E-01  0.17585437731E-01  0.96848833999E-01  0.51100000000E-03 0.  1.
         11    1    4    4    0    0  0.22478673514E-01  0.21155421920E-01  0.65500034635E-03  0.30879326191E-01  0.51100000000E-03 0. -1.
</event>
<event>
 8    1  0.1010879E+005  0.1043930E+01  0.7957747E-01            NaN
         13   -1    0    0    0    0  0.00000000000E+00  0.00000000000E+00  0.74505805969E-08  0.10566000000E+00  0.10566000000E+00 0.  1.
     999900   -1    0    0    0    0 -0.00000000000E+00 -0.00000000000E+00 -0.74505805969E-08  0.93827000000E+00  0.93827000000E+00 0.  1.
     999902    2    1    2    0    0  0.47063833930E-02  0.22407639330E-01  0.70193660619E-02  0.10199816421E+01  0.10197004592E+01 0.  0.
     999903    2    3    3    0    0  0.10506498280E-01  0.78886195127E-01  0.10455673189E+00  0.13277422200E+00  0.19064772629E-01 0.  0.
         14    1    1    2    0    0 -0.47063833930E-02 -0.22407639330E-01 -0.70193660619E-02  0.23948357874E-01  0.00000000000E+00 0. -1.
     999901    1    3    3    0    0 -0.58001148875E-02 -0.56478555797E-01 -0.97537365830E-01  0.88720742013E+00  0.88000000000E+00 0.  1.
        -11    1    4    4    0    0  0.10535194370E-02  0.41710213179E-01  0.68008340507E-01  0.79788766667E-01  0.51100000000E-03 0.  1.
         11    1    4    4    0    0  0.94529788434E-02  0.37175981948E-01  0.36548391385E-01  0.52985455331E-01  0.51100000000E-03 0. -1.
</event>
<event>
 8    1  0.1159990E+005  0.1043930E+01  0.7957747E-01            NaN
         13   -1    0    0    0    0  0.00000000000E+00  0.00000000000E+00  0.74505805969E-08  0.10566000000E+00  0.10566000000E+00 0. -1.
     999900   -1    0    0    0    0 -0.00000000000E+00 -0.00000000000E+00 -0.74505805969E-08  0.93827000000E+00  0.93827000000E+00 0. -1.
     999902    2    1    2    0    0 -0.19073547841E-01  0.22378204786E-02  0.13197730352E-01  0.10206278938E+01  0.10203618522E+01 0.  0.
     999903    2    3    3    0    0  0.76412304499E-02  0.11212913689E-01 -0.12690596454E+00  0.12909927562E+00  0.19426304187E-01 0.  0.
         14    1    1    2    0    0  0.19073547841E-01 -0.22378204786E-02 -0.13197730352E-01  0.23302106218E-01  0.00000000000E+00 0.  1.
     999901    1    3    3    0    0 -0.26714778291E-01 -0.89750932106E-02  0.14010369489E+00  0.89152861816E+00  0.88000000000E+00 0.  1.
        -11    1    4    4    0    0 -0.47210176825E-02  0.72972013127E-02 -0.78590009644E-01  0.79070777736E-01  0.51100000000E-03 0. -1.
         11    1    4    4    0    0  0.12362248132E-01  0.39157123766E-02 -0.48315954895E-01  0.50028497886E-01  0.51100000000E-03 0.  1.
</event>
<event>
 8    1  0.1010879E+005  0.1043930E+01  0.7957747E-01            NaN
         13   -1    0    0    0    0  0.00000000000E+00  0.00000000000E+00  0.74505805969E-08  0.10566000000E+00  0.10566000000E+00 0. -1.
     999900   -1    0    0    0    0 -0.00000000000E+00 -0.00000000000E+00 -0.74505805969E-08  0.93827000000E+00  0.93827000000E+00 0.  1.
     999902    2    1    2    0    0 -0.10162020123E-01  0.14297846024E-01 -0.16140484843E-01  0.10200928377E+01  0.10198142906E+01 0.  0.
     999903    2    3    3    0    0 -0.37498108580E-01  0.10673353449E+00  0.65558250923E-01  0.13106735910E+00  0.90891598000E-02 0.  0.
         14    1    1    2    0    0  0.10162020123E-01 -0.14297846024E-01  0.16140484843E-01  0.23837162265E-01  0.00000000000E+00 0. -1.
     999901    1    3    3    0    0  0.27336088457E-01 -0.92435688466E-01 -0.81698735765E-01  0.88902547863E+00  0.88000000000E+00 0.  1.
        -11    1    4    4    0    0 -0.26858925383E-01  0.64760926281E-01  0.42889206099E-01  0.82189564826E-01  0.51100000000E-03 0.  1.
         11    1    4    4    0    0 -0.10639183197E-01  0.41972608209E-01  0.22669044824E-01  0.48877794275E-01  0.51100000000E-03 0. -1.
</event>
<event>
 8    1  0.1010879E+005  0.1043930E+01  0.7957747E-01            NaN
         13   -1    0    0    0    0  0.00000000000E+00  0.00000000000E+00  0.74505805969E-08  0.10566000000E+00  0.10566000000E+00 0.  1.
     999900   -1    0    0    0    0 -0.00000000000E+00 -0.00000000000E+00 -0.74505805969E-08  0.93827000000E+00  0.93827000000E+00 0.  1.
     999902    2    1    2    0    0 -0.20335334420E-01  0.13279098742E-02 -0.12248195530E-01  0.10201538047E+01  0.10198766973E+01 0.  0.
     999903    2    3    3    0    0 -0.93452587792E-02 -0.12258371611E+00 -0.40281926866E-01  0.13096273245E+00  0.20359330608E-01 0.  0.
         14    1    1    2    0    0  0.20335334420E-01 -0.13279098742E-02  0.12248195530E-01  0.23776195329E-01  0.00000000000E+00 0.  1.
     999901    1    3    3    0    0 -0.10990075640E-01  0.12391162598E+00  0.28033731337E-01  0.88919107222E+00  0.88000000000E+00 0.  1.
        -11    1    4    4    0    0  0.29910887860E-02 -0.22318775124E-01 -0.14204364438E-01  0.26628920843E-01  0.51100000000E-03 0.  1.
         11    1    4    4    0    0 -0.12336347565E-01 -0.10026494099E+00 -0.26077562429E-01  0.10433381161E+00  0.51100000000E-03 0. -1.
</event>
<event>
 8    1  0.1010879E+005  0.1043930E+01  0.7957747E-01            NaN
         13   -1    0    0    0    0  0.00000000000E+00  0.00000000000E+00  0.74505805969E-08  0.10566000000E+00  0.10566000000E+00 0.  1.
     999900   -1    0    0    0    0 -0.00000000000E+00 -0.00000000000E+00 -0.74505805969E-08  0.93827000000E+00  0.93827000000E+00 0. -1.
     999902    2    1    2    0    0  0.78946398506E-02 -0.18722239468E-01 -0.10494134457E-01  0.10210613654E+01  0.10208052398E+01 0.  0.
     999903    2    3    3    0    0 -0.71443847520E-01  0.38056891694E-01  0.98222481848E-01  0.12902001663E+00  0.21117727066E-01 0.  0.
         14    1    1    2    0    0 -0.78946398506E-02  0.18722239468E-01  0.10494134457E-01  0.22868634569E-01  0.00000000000E+00 0. -1.
     999901    1    3    3    0    0  0.79338487370E-01 -0.56779131162E-01 -0.10871661630E+00  0.89204134880E+00  0.88000000000E+00 0. -1.
        -11    1    4    4    0    0 -0.37867710095E-01  0.30854938278E-01  0.64262937248E-01  0.80721601252E-01  0.51100000000E-03 0. -1.
         11    1    4    4    0    0 -0.33576137424E-01  0.72019534161E-02  0.33959544600E-01  0.48298415376E-01  0.51100000000E-03 0.  1.
</event>
<event>
 8    1  0.1010879E+005  0.1043930E+01  0.7957747E-01            NaN
         13   -1    0    0    0    0  0.00000000000E+00  0.00000000000E+00  0.74505805969E-08  0.10566000000E+00  0.10566000000E+00 0.  1.
     999900   -1    0    0    0    0 -0.00000000000E+00 -0.00000000000E+00 -0.74505805969E-08  0.93827000000E+00  0.93827000000E+00 0. -1.
     999902    2    1    2    0    0 -0.69961096379E-02  0.12324186582E-01 -0.18190552953E-01  0.10208707862E+01  0.10206103246E+01 0.  0.
     999903    2    3    3    0    0 -0.34489247879E-01  0.11961943203E+00  0.39878924831E-01  0.13202872676E+00  0.18518620517E-01 0.  0.
         14    1    1    2    0    0  0.69961096379E-02 -0.12324186582E-01  0.18190552953E-01  0.23059213814E-01  0.00000000000E+00 0.  1.
     999901    1    3    3    0    0  0.27493138241E-01 -0.10729524545E+00 -0.58069477785E-01  0.88884205942E+00  0.88000000000E+00 0. -1.
        -11    1    4    4    0    0 -0.26371361316E-01  0.80685329782E-01  0.35508705279E-01  0.92014674978E-01  0.51100000000E-03 0.  1.
         11    1    4    4    0    0 -0.81178865632E-02  0.38934102252E-01  0.43702195523E-02  0.40014051786E-01  0.51100000000E-03 0. -1.
</event>
<event>
 8    1  0.1010879E+005  0.1043930E+01  0.7957747E-01            NaN
         13   -1    0    0    0    0  0.00000000000E+00  0.00000000000E+00  0.74505805969E-08  0.10566000000E+00  0.10566000000E+00 0.  1.
     999900   -1    0    0    0    0 -0.00000000000E+00 -0.00000000000E+00 -0.74505805969E-08  0.93827000000E+00  0.93827000000E+00 0. -1.
     999902    2    1    2    0    0 -0.76250444279E-02  0.20175843861E-01  0.38211431718E-02  0.10220255002E+01  0.10217907398E+01 0.  0.
     999903    2    3    3    0    0 -0.12485784075E+00  0.27701934355E-01 -0.34152557916E-01  0.13340737490E+00  0.16560582787E-01 0.  0.
         14    1    1    2    0    0  0.76250444279E-02 -0.20175843861E-01 -0.38211431718E-02  0.21904499838E-01  0.00000000000E+00 0.  1.
     999901    1    3    3    0    0  0.11723279632E+00 -0.75260904945E-02  0.37973701088E-01  0.88861812526E+00  0.88000000000E+00 0. -1.
        -11    1    4    4    0    0 -0.10904643365E+00  0.21233552964E-01 -0.34447930396E-01  0.11631384051E+00  0.51100000000E-03 0.  1.
         11    1    4    4    0    0 -0.15811407092E-01  0.64683813909E-02  0.29537248029E-03  0.17093534390E-01  0.51100000000E-03 0. -1.
</event>
<event>
 8    1  0.1010879E+005  0.1043930E+01  0.7957747E-01            NaN
         13   -1    0    0    0    0  0.00000000000E+00  0.00000000000E+00  0.74505805969E-08  0.10566000000E+00  0.10566000000E+00 0.  1.
     999900   -1    0    0    0    0 -0.00000000000E+00 -0.00000000000E+00 -0.74505805969E-08  0.93827000000E+00  0.93827000000E+00 0. -1.
     999902    2    1    2    0    0 -0.13956850098E-01  0.14260404022E-01  0.14453459048E-01  0.10192915084E+01  0.10189936820E+01 0.  0.
     999903    2    3    3    0    0  0.35881388794E-01 -0.11032605097E+00  0.51077734927E-01  0.12836672351E+00  0.20242754651E-01 0.  0.
         14    1    1    2    0    0  0.13956850098E-01 -0.14260404022E-01 -0.14453459048E-01  0.24638491552E-01  0.00000000000E+00 0. -1.
     999901    1    3    3    0    0 -0.49838238891E-01  0.12458645499E+00 -0.36624275879E-01  0.89092478493E+00  0.88000000000E+00 0. -1.
        -11    1    4    4    0    0  0.15567212713E-01 -0.50220469062E-01  0.12274619477E-01  0.53994083276E-01  0.51100000000E-03 0. -1.
         11    1    4    4    0    0  0.20314176081E-01 -0.60105581910E-01  0.38803115450E-01  0.74372640239E-01  0.51100000000E-03 0.  1.
</event>
<event>
 8    1  0.1010879E+005  0.1043930E+01  0.7957747E-01            NaN
         13   -1    0    0    0    0  0.00000000000E+00  0.00000000000E+00  0.74505805969E-08  0.10566000000E+00  0.10566000000E+00 0.  1.
     999900   -1    0    0    0    0 -0.00000000000E+00 -0.00000000000E+00 -0.74505805969E-08  0.93827000000E+00  0.93827000000E+00 0.  1.
     999902    2    1    2    0    0  0.18939173862E-01 -0.19210483484E-02  0.16447690848E-01  0.10187723120E+01  0.10184616411E+01 0.  0.
     999903    2    3    3    0    0  0.68681349579E-01  0.81178211008E-01 -0.70606627086E-01  0.12918913697E+00  0.19937592647E-01 0.  0.
         14    1    1    2    0    0 -0.18939173862E-01  0.19210483484E-02 -0.16447690848E-01  0.25157688041E-01  0.00000000000E+00 0. -1.
     999901    1    3    3    0    0 -0.49742175717E-01 -0.83099259356E-01  0.87054317934E-01  0.88958317499E+00  0.88000000000E+00 0. -1.
        -11    1    4    4    0    0  0.38287599894E-01  0.59548625505E-01 -0.43825930127E-01  0.83264352382E-01  0.51100000000E-03 0.  1.
         11    1    4    4    0    0  0.30393749685E-01  0.21629585503E-01 -0.26780696959E-01  0.45924784589E-01  0.51100000000E-03 0. -1.
</event>
<event>
 8    1  0.1010879E+005  0.1043930E+01  0.7957747E-01            NaN
         13   -1    0    0    0    0  0.00000000000E+00  0.00000000000E+00  0.74505805969E-08  0.10566000000E+00  0.10566000000E+00 0. -1.
     999900   -1    0    0    0    0 -0.00000000000E+00 -0.00000000000E+00 -0.74505805969E-08  0.93827000000E+00  0.93827000000E+00 0. -1.
     999902    2    1    2    0    0 -0.15651212106E-01  0.77149804506E-02  0.14310873795E-01  0.10213627123E+01  0.10211133667E+01 0.  0.
     999903    2    3    3    0    0  0.54470436935E-01  0.87057887360E-01  0.81373653991E-01  0.13248152847E+00  0.19585187534E-01 0.  0.
         14    1    1    2    0    0  0.15651212106E-01 -0.77149804506E-02 -0.14310873795E-01  0.22567287664E-01  0.00000000000E+00 0. -1.
     999901    1    3    3    0    0 -0.70121649041E-01 -0.79342906910E-01 -0.67062780196E-01  0.88888118386E+00  0.88000000000E+00 0. -1.
        -11    1    4    4    0    0  0.10310058453E-01  0.13055894294E-01  0.23015105390E-01  0.28402638579E-01  0.51100000000E-03 0.  1.
         11    1    4    4    0    0  0.44160378482E-01  0.74001993066E-01  0.58358548601E-01  0.10407888989E+00  0.51100000000E-03 0. -1.
</event>
<event>
 8    1  0.1010879E+005  0.1043930E+01  0.7957747E-01            NaN
         13   -1    0    0    0    0  0.00000000000E+00  0.00000000000E+00  0.74505805969E-08  0.10566000000E+00  0.10566000000E+00 0.  1.
     999900   -1    0    0    0    0 -0.00000000000E+00 -0.00000000000E+00 -0.74505805969E-08  0.93827000000E+00  0.93827000000E+00 0.  1.
     999902    2    1    2    0    0 -0.14816999036E-01 -0.53107552931E-02  0.17659949112E-01  0.10202736819E+01  0.10199993944E+01 0.  0.
     999903    2    3    3    0    0  0.62126107632E-01  0.54922394679E-01  0.99642540137E-01  0.13107774218E+00  0.19406596934E-01 0.  0.
         14    1    1    2    0    0  0.14816999036E-01  0.53107552931E-02 -0.17659949112E-01  0.23656318075E-01  0.00000000000E+00 0. -1.
     999901    1    3    3    0    0 -0.76943106668E-01 -0.60233149972E-01 -0.81982591024E-01  0.88919593974E+00  0.88000000000E+00 0.  1.
        -11    1    4    4    0    0  0.29160372639E-01  0.24906111766E-01  0.61109075677E-01  0.72147224388E-01  0.51100000000E-03 0.  1.
         11    1    4    4    0    0  0.32965734993E-01  0.30016282913E-01  0.38533464459E-01  0.58930517797E-01  0.51100000000E-03 0. -1.
</event>
<event>
 8    1  0.1010879E+005  0.1043930E+01  0.7957747E-01            NaN
         13   -1    0    0    0    0  0.00000000000E+00  0.00000000000E+00  0.74505805969E-08  0.10566000000E+00  0.10566000000E+00 0. -1.
     999900   -1    0    0    0    0 -0.00000000000E+00 -0.00000000000E+00 -0.74505805969E-08  0.93827000000E+00  0.93827000000E+00 0.  1.
     999902    2    1    2    0    0  0.17197041987E-01 -0.16538447407E-01  0.40241682796E-02  0.10197338758E+01  0.10194467740E+01 0.  0.
     999903    2    3    3    0    0  0.16714419940E-01  0.11320853198E+00  0.55295757130E-01  0.12874381559E+00  0.20537910021E-01 0.  0.
         14    1    1    2    0    0 -0.17197041987E-01  0.16538447407E-01 -0.40241682796E-02  0.24196124196E-01  0.00000000000E+00 0. -1.
     999901    1    3    3    0    0  0.48262204677E-03 -0.12974697939E+00 -0.51271588851E-01  0.89099006022E+00  0.88000000000E+00 0.  1.
        -11    1    4    4    0    0  0.88873321954E-02  0.91196474891E-01  0.36033872140E-01  0.98460564535E-01  0.51100000000E-03 0. -1.
         11    1    4    4    0    0  0.78270877449E-02  0.22012057089E-01  0.19261884990E-01  0.30283251051E-01  0.51100000000E-03 0.  1.
</event>
<event>
 8    1  0.1010879E+005  0.1043930E+01  0.7957747E-01            NaN
         13   -1    0    0    0    0  0.00000000000E+00  0.00000000000E+00  0.74505805969E-08  0.10566000000E+00  0.10566000000E+00 0. -1.
     999900   -1    0    0    0    0 -0.00000000000E+00 -0.00000000000E+00 -0.74505805969E-08  0.93827000000E+00  0.93827000000E+00 0.  1.
     999902    2    1    2    0    0 -0.65319909495E-03  0.12400240657E-01 -0.20359666870E-01  0.10200823864E+01  0.10198035921E+01 0.  0.
     999903    2    3    3    0    0 -0.74968079951E-01  0.10384750300E+00 -0.26256112522E-01  0.13220848133E+00  0.19626059214E-01 0.  0.
         14    1    1    2    0    0  0.65319909495E-03 -0.12400240657E-01  0.20359666870E-01  0.23847613559E-01  0.00000000000E+00 0. -1.
     999901    1    3    3    0    0  0.74314880856E-01 -0.91447262341E-01  0.58964456519E-02  0.88787390511E+00  0.88000000000E+00 0.  1.
        -11    1    4    4    0    0 -0.40598974754E-01  0.40123584630E-01 -0.91437599967E-02  0.57810451153E-01  0.51100000000E-03 0. -1.
         11    1    4    4    0    0 -0.34369105197E-01  0.63723918368E-01 -0.17112352525E-01  0.74398030177E-01  0.51100000000E-03 0.  1.
</event>
<event>
 8    1  0.1010879E+005  0.1043930E+01  0.7957747E-01            NaN
         13   -1    0    0    0    0  0.00000000000E+00  0.00000000000E+00  0.74505805969E-08  0.10566000000E+00  0.10566000000E+00 0.  1.
     999900   -1    0    0    0    0 -0.00000000000E+00 -0.00000000000E+00 -0.74505805969E-08  0.93827000000E+00  0.93827000000E+00 0. -1.
     999902    2    1    2    0    0 -0.55654637629E-02 -0.19135782155E-01 -0.11982781597E-01  0.10206761917E+01  0.10204112645E+01 0.  0.
     999903    2    3    3    0    0 -0.89231504367E-01  0.13745220852E-01 -0.94482296889E-01  0.13225774484E+00  0.20347338293E-01 0.  0.
         14    1    1    2    0    0  0.55654637629E-02  0.19135782155E-01  0.11982781597E-01  0.23253808298E-01  0.00000000000E+00 0. -1.
     999901    1    3    3    0    0  0.83666040604E-01 -0.32881003007E-01  0.82499515292E-01  0.88841844687E+00  0.88000000000E+00 0.  1.
        -11    1    4    4    0    0 -0.11071718785E-01  0.89076965792E-02 -0.15472772969E-01  0.21014229454E-01  0.51100000000E-03 0. -1.
         11    1    4    4    0    0 -0.78159785581E-01  0.48375242730E-02 -0.79009523921E-01  0.11124351538E+00  0.51100000000E-03 0.  1.
</event>
<event>
 8    1  0.1010879E+005  0.1043930E+01  0.7957747E-01            NaN
         13   -1    0    0    0    0  0.00000000000E+00  0.00000000000E+00  0.74505805969E-08  0.10566000000E+00  0.10566000000E+00 0.  1.
     999900   -1    0    0    0    0 -0.00000000000E+00 -0.00000000000E+00 -0.74505805969E-08  0.93827000000E+00  0.93827000000E+00 0.  1.
     999902    2    1    2    0    0  0.40236012455E-02 -0.22570494299E-01 -0.56631157184E-02  0.10203145928E+01  0.10200412642E+01 0.  0.
     999903    2    3    3    0    0  0.85796432770E-01 -0.27054030879E-01 -0.94750533973E-01  0.13203340632E+00  0.19031769066E-01 0.  0.
         14    1    1    2    0    0 -0.40236012455E-02  0.22570494299E-01  0.56631157184E-02  0.23615407248E-01  0.00000000000E+00 0.  1.
     999901    1    3    3    0    0 -0.81772831524E-01  0.44835365799E-02  0.89087418254E-01  0.88828118643E+00  0.88000000000E+00 0. -1.
        -11    1    4    4    0    0  0.29666637600E-01 -0.36052573446E-02 -0.21513180476E-01  0.36826421524E-01  0.51100000000E-03 0. -1.
         11    1    4    4    0    0  0.56129795169E-01 -0.23448773534E-01 -0.73237353497E-01  0.95206984797E-01  0.51100000000E-03 0.  1.
</event>
<event>
 8    1  0.1010879E+005  0.1043930E+01  0.7957747E-01            NaN
         13   -1    0    0    0    0  0.00000000000E+00  0.00000000000E+00  0.74505805969E-08  0.10566000000E+00  0.10566000000E+00 0.  1.
     999900   -1    0    0    0    0 -0.00000000000E+00 -0.00000000000E+00 -0.74505805969E-08  0.93827000000E+00  0.93827000000E+00 0.  1.
     999902    2    1    2    0    0  0.13855738243E-02  0.14606998685E-01  0.19421036806E-01  0.10195894804E+01  0.10192989000E+01 0.  0.
     999903    2    3    3    0    0  0.91593242372E-01  0.83332931274E-01  0.41480517106E-01  0.13203818723E+00  0.19487177960E-01 0.  0.
         14    1    1    2    0    0 -0.13855738243E-02 -0.14606998685E-01 -0.19421036806E-01  0.24340519634E-01  0.00000000000E+00 0. -1.
     999901    1    3    3    0    0 -0.90207668548E-01 -0.68725932589E-01 -0.22059480299E-01  0.88755129314E+00  0.88000000000E+00 0. -1.
        -11    1    4    4    0    0  0.19175787193E-01  0.86519320780E-02  0.10357824897E-01  0.23454475069E-01  0.51100000000E-03 0. -1.
         11    1    4    4    0    0  0.72417455180E-01  0.74680999196E-01  0.31122692209E-01  0.10858371216E+00  0.51100000000E-03 0.  1.
</event>
<event>
 8    1  0.1010879E+005  0.1043930E+01  0.7957747E-01            NaN
         13   -1    0    0    0    0  0.00000000000E+00  0.00000000000E+00  0.74505805969E-08  0.10566000000E+00  0.10566000000E+00 0. -1.
     999900   -1    0    0    0    0 -0.00000000000E+00 -0.00000000000E+00 -0.74505805969E-08  0.93827000000E+00  0.93827000000E+00 0.  1.
     999902    2    1    2    0    0 -0.94897020414E-02 -0.26082167398E-02 -0.22145960346E-01  0.10196957103E+01  0.10194076911E+01 0.  0.
     999903    2    3    3    0    0  0.63745122753E-01 -0.76840966233E-01  0.77499515183E-01  0.12795412132E+00  0.19952632464E-01 0.  0.
         14    1    1    2    0    0  0.94897020414E-02  0.26082167398E-02  0.22145960346E-01  0.24234289737E-01  0.00000000000E+00 0. -1.
     999901    1    3    3    0    0 -0.73234824795E-01  0.74232749493E-01 -0.99645475530E-01  0.89174158894E+00  0.88000000000E+00 0.  1.
        -11    1    4    4    0    0  0.28825918622E-01 -0.44905956529E-01  0.31548220602E-01  0.61992175800E-01  0.51100000000E-03 0.  1.
         11    1    4    4    0    0  0.34919204131E-01 -0.31935009704E-01  0.45951294581E-01  0.65961945518E-01  0.51100000000E-03 0. -1.
</event>
<event>
 8    1  0.1010879E+005  0.1043930E+01  0.7957747E-01            NaN
         13   -1    0    0    0    0  0.00000000000E+00  0.00000000000E+00  0.74505805969E-08  0.10566000000E+00  0.10566000000E+00 0.  1.
     999900   -1    0    0    0    0 -0.00000000000E+00 -0.00000000000E+00 -0.74505805969E-08  0.93827000000E+00  0.93827000000E+00 0. -1.
     999902    2    1    2    0    0  0.21664389200E-01  0.77438065088E-02 -0.61569040588E-02  0.10201136240E+01  0.10198355682E+01 0.  0.
     999903    2    3    3    0    0 -0.86561700778E-02 -0.86498465013E-01 -0.94871447183E-01  0.13012979705E+00  0.19397393105E-01 0.  0.
         14    1    1    2    0    0 -0.21664389200E-01 -0.77438065088E-02  0.61569040588E-02  0.23816376010E-01  0.00000000000E+00 0.  1.
     999901    1    3    3    0    0  0.30320559277E-01  0.94242271522E-01  0.88714543124E-01  0.88998382694E+00  0.88000000000E+00 0.  1.
        -11    1    4    4    0    0  0.14249244165E-02 -0.48709396168E-01 -0.41812513060E-01  0.64212016430E-01  0.51100000000E-03 0. -1.
         11    1    4    4    0    0 -0.10081094494E-01 -0.37789068846E-01 -0.53058934123E-01  0.65917780619E-01  0.51100000000E-03 0.  1.
</event>
<event>
 8    1  0.1010879E+005  0.1043930E+01  0.7957747E-01            NaN
         13   -1    0    0    0    0  0.00000000000E+00  0.00000000000E+00  0.74505805969E-08  0.10566000000E+00  0.10566000000E+00 0. -1.
     999900   -1    0    0    0    0 -0.00000000000E+00 -0.00000000000E+00 -0.74505805969E-08  0.93827000000E+00  0.93827000000E+00 0.  1.
     999902    2    1    2    0    0 -0.15055330602E-01  0.91180671367E-02  0.16366732506E-01  0.10198951906E+01  0.10196119496E+01 0.  0.
     999903    2    3    3    0    0 -0.77216953935E-01 -0.53313072023E-01 -0.87079002518E-01  0.12946679114E+00  0.19343104833E-01 0.  0.
         14    1    1    2    0    0  0.15055330602E-01 -0.91180671367E-02 -0.16366732506E-01  0.24034809356E-01  0.00000000000E+00 0.  1.
     999901    1    3    3    0    0  0.62161623333E-01  0.62431139160E-01  0.10344573502E+00  0.89042839951E+00  0.88000000000E+00 0. -1.
        -11    1    4    4    0    0 -0.69987116329E-01 -0.43195604339E-01 -0.81637430272E-01  0.11588350974E+00  0.51100000000E-03 0. -1.
         11    1    4    4    0    0 -0.72298376063E-02 -0.10117467684E-01 -0.54415722456E-02  0.13583281403E-01  0.51100000000E-03 0.  1.
</event>
<event>
 8    1  0.1010879E+005  0.1043930E+01  0.7957747E-01            NaN
         13   -1    0    0    0    0  0.00000000000E+00  0.00000000000E+00  0.74505805969E-08  0.10566000000E+00  0.10566000000E+00 0.  1.
     999900   -1    0    0    0    0 -0.00000000000E+00 -0.00000000000E+00 -0.74505805969E-08  0.93827000000E+00  0.93827000000E+00 0.  1.
     999902    2    1    2    0    0 -0.25040761767E-01 -0.44705442560E-02  0.25163854762E-02  0.10183691371E+01  0.10180483003E+01 0.  0.
     999903    2    3    3    0    0 -0.10093841384E-01 -0.71842333218E-01 -0.10442714503E+00  0.12921263396E+00  0.22971061786E-01 0.  0.
         14    1    1    2    0    0  0.25040761767E-01  0.44705442560E-02 -0.25163854762E-02  0.25560862890E-01  0.00000000000E+00 0.  1.
     999901    1    3    3    0    0 -0.14946920384E-01  0.67371788962E-01  0.10694353051E+00  0.88915650315E+00  0.88000000000E+00 0. -1.
        -11    1    4    4    0    0 -0.11910043364E-01 -0.17496158055E-01 -0.22631740172E-01  0.30990667367E-01  0.51100000000E-03 0. -1.
         11    1    4    4    0    0  0.18162019807E-02 -0.54346175163E-01 -0.81795404859E-01  0.98221966593E-01  0.51100000000E-03 0.  1.
</event>
<event>
 8    1  0.1010879E+005  0.1043930E+01  0.7957747E-01            NaN
         13   -1    0    0    0    0  0.00000000000E+00  0.00000000000E+00  0.74505805969E-08  0.10566000000E+00  0.10566000000E+00 0. -1.
     999900   -1    0    0    0    0 -0.00000000000E+00 -0.00000000000E+00 -0.74505805969E-08  0.93827000000E+00  0.93827000000E+00 0.  1.
     999902    2    1    2    0    0 -0.29456561296E-02 -0.16931277827E-01 -0.15441137983E-01  0.10208264548E+01  0.10205649793E+01 0.  0.
     999903    2    3    3    0    0  0.13119287550E-01  0.55712384155E-01 -0.11688233894E+00  0.13188016773E+00  0.21328666856E-01 0.  0.
         14    1    1    2    0    0  0.29456561296E-02  0.16931277827E-01  0.15441137983E-01  0.23103545206E-01  0.00000000000E+00 0. -1.
     999901    1    3    3    0    0 -0.16064943680E-01 -0.72643661981E-01  0.10144120095E+00  0.88894628707E+00  0.88000000000E+00 0. -1.
        -11    1    4    4    0    0  0.66047064682E-02  0.62547130470E-02 -0.80457149656E-02  0.12154761748E-01  0.51100000000E-03 0.  1.
         11    1    4    4    0    0  0.65145810818E-02  0.49457671108E-01 -0.10883662397E+00  0.11972540598E+00  0.51100000000E-03 0. -1.
</event>
<event>
 8    1  0.1010879E+005  0.1043930E+01  0.7957747E-01            NaN
         13   -1    0    0    0    0  0.00000000000E+00  0.00000000000E+00  0.74505805969E-08  0.10566000000E+00  0.10566000000E+00 0. -1.
     999900   -1    0    0    0    0 -0.00000000000E+00 -0.00000000000E+00 -0.74505805969E-08  0.93827000000E+00  0.93827000000E+00 0.  1.
     999902    2    1    2    0    0 -0.10599550219E-01 -0.15835103901E-01  0.15119248406E-01  0.10196052666E+01  0.10193150676E+01 0.  0.
     999903    2    3    3    0    0 -0.98189420198E-02 -0.14739579783E-01  0.12943145378E+00  0.13221071526E+00  0.20334826477E-01 0.  0.
         14    1    1    2    0    0  0.10599550219E-01  0.15835103901E-01 -0.15119248406E-01  0.24324733354E-01  0.00000000000E+00 0. -1.
     999901    1    3    3    0    0 -0.78060819958E-03 -0.10955241181E-02 -0.11431220538E+00  0.88739455138E+00  0.88000000000E+00 0.  1.
        -11    1    4    4    0    0 -0.43370244659E-02  0.16947965775E-02  0.73645568522E-01  0.73794396810E-01  0.51100000000E-03 0.  1.
         11    1    4    4    0    0 -0.54819175539E-02 -0.16434376360E-01  0.55785885261E-01  0.58416318455E-01  0.51100000000E-03 0. -1.
</event>
<event>
 8    1  0.1010879E+005  0.1043930E+01  0.7957747E-01            NaN
         13   -1    0    0    0    0  0.00000000000E+00  0.00000000000E+00  0.74505805969E-08  0.10566000000E+00  0.10566000000E+00 0. -1.
     999900   -1    0    0    0    0 -0.00000000000E+00 -0.00000000000E+00 -0.74505805969E-08  0.93827000000E+00  0.93827000000E+00 0.  1.
     999902    2    1    2    0    0 -0.15905066365E-01  0.36403745995E-02 -0.16248830522E-01  0.10209028865E+01  0.10206431579E+01 0.  0.
     999903    2    3    3    0    0 -0.95262097635E-02  0.89117154603E-01  0.91996205415E-01  0.13013694780E+00  0.20969202510E-01 0.  0.
         14    1    1    2    0    0  0.15905066365E-01 -0.36403745995E-02  0.16248830522E-01  0.23027113511E-01  0.00000000000E+00 0. -1.
     999901    1    3    3    0    0 -0.63788566017E-02 -0.85476780003E-01 -0.10824503594E+00  0.89076593869E+00  0.88000000000E+00 0.  1.
        -11    1    4    4    0    0  0.41042911108E-02  0.26254746429E-01  0.18051550611E-01  0.32129060304E-01  0.51100000000E-03 0. -1.
         11    1    4    4    0    0 -0.13630500874E-01  0.62862408174E-01  0.73944654805E-01  0.98007887492E-01  0.51100000000E-03 0.  1.
</event>
<event>
 8    1  0.1010879E+005  0.1043930E+01  0.7957747E-01            NaN
         13   -1    0    0    0    0  0.00000000000E+00  0.00000000000E+00  0.74505805969E-08  0.10566000000E+00  0.10566000000E+00 0. -1.
     999900   -1    0    0    0    0 -0.00000000000E+00 -0.00000000000E+00 -0.74505805969E-08  0.93827000000E+00  0.93827000000E+00 0. -1.
     999902    2    1    2    0    0  0.10509644974E-01 -0.42418731900E-02  0.20696195635E-01  0.10203338427E+01  0.10200609648E+01 0.  0.
     999903    2    3    3    0    0  0.59449558373E-01 -0.32639354787E-01 -0.10845281940E+00  0.12910940398E+00  0.17539859978E-01 0.  0.
         14    1    1    2    0    0 -0.10509644974E-01  0.42418731900E-02 -0.20696195635E-01  0.23596157301E-01  0.00000000000E+00 0.  1.
     999901    1    3    3    0    0 -0.48939913398E-01  0.28397481597E-01  0.12914901504E+00  0.89122443872E+00  0.88000000000E+00 0.  1.
        -11    1    4    4    0    0  0.52855659544E-01 -0.21875643608E-01 -0.92500212332E-01  0.10876035551E+00  0.51100000000E-03 0.  1.
         11    1    4    4    0    0  0.65938988283E-02 -0.10763711179E-01 -0.15952607071E-01  0.20349048466E-01  0.51100000000E-03 0. -1.
</event>
<event>
 8    1  0.1010879E+005  0.1043930E+01  0.7957747E-01            NaN
         13   -1    0    0    0    0  0.00000000000E+00  0.00000000000E+00  0.74505805969E-08  0.10566000000E+00  0.10566000000E+00 0. -1.
     999900   -1    0    0    0    0 -0.00000000000E+00 -0.00000000000E+00 -0.74505805969E-08  0.93827000000E+00  0.93827000000E+00 0.  1.
     999902    2    1    2    0    0 -0.43088807384E-02 -0.94365401547E-02 -0.18927683036E-01  0.10223459335E+01  0.10221180635E+01 0.  0.
     999903    2    3    3    0    0 -0.63605388750E-02 -0.12732727031E+00 -0.37144974851E-01  0.13429508847E+00  0.20068169155E-01 0.  0.
         14    1    1    2    0    0  0.43088807384E-02  0.94365401547E-02  0.18927683036E-01  0.21584066540E-01  0.00000000000E+00 0. -1.
     999901    1    3    3    0    0  0.20516581367E-02  0.11789073015E+00  0.18217291815E-01  0.88805084498E+00  0.88000000000E+00 0.  1.
        -11    1    4    4    0    0 -0.74273927394E-02 -0.80794967354E-01 -0.14092044810E-01  0.82351926271E-01  0.51100000000E-03 0. -1.
         11    1    4    4    0    0  0.10668538644E-02 -0.46532302953E-01 -0.23052930041E-01  0.51943162204E-01  0.51100000000E-03 0.  1.
</event>
<event>
 8    1  0.1010879E+005  0.1043930E+01  0.7957747E-01            NaN
         13   -1    0    0    0    0  0.00000000000E+00  0.00000000000E+00  0.74505805969E-08  0.10566000000E+00  0.10566000000E+00 0. -1.
     999900   -1    0    0    0    0 -0.00000000000E+00 -0.00000000000E+00 -0.74505805969E-08  0.93827000000E+00  0.93827000000E+00 0.  1.
     999902    2    1    2    0    0 -0.94505182610E-02 -0.21460303898E-01 -0.35715393152E-02  0.10202105390E+01  0.10199347680E+01 0.  0.
     999903    2    3    3    0    0  0.65856659167E-01 -0.88343530924E-01  0.69064970901E-01  0.13149202355E+00  0.19455154525E-01 0.  0.
         14    1    1    2    0    0  0.94505182610E-02  0.21460303898E-01  0.35715393152E-02  0.23719461037E-01  0.00000000000E+00 0. -1.
     999901    1    3    3    0    0 -0.75307177429E-01  0.66883227026E-01 -0.72636510217E-01  0.88871851542E+00  0.88000000000E+00 0.  1.
        -11    1    4    4    0    0  0.18465654991E-01 -0.32563114982E-01  0.14298666534E-01  0.40075551864E-01  0.51100000000E-03 0. -1.
         11    1    4    4    0    0  0.47391004177E-01 -0.55780415943E-01  0.54766304368E-01  0.91416471682E-01  0.51100000000E-03 0.  1.
</event>
<event>
 8    1  0.1232901E+005  0.1043930E+01  0.7957747E-01            NaN
         13   -1    0    0    0    0  0.00000000000E+00  0.00000000000E+00  0.74505805969E-08  0.10566000000E+00  0.10566000000E+00 0.  1.
     999900   -1    0    0    0    0 -0.00000000000E+00 -0.00000000000E+00 -0.74505805969E-08  0.93827000000E+00  0.93827000000E+00 0.  1.
     999902    2    1    2    0    0 -0.17925383189E-01  0.12685425291E-01 -0.13857233533E-01  0.10179634388E+01  0.10176322030E+01 0.  0.
     999903    2    3    3    0    0  0.95510545410E-01 -0.12885695591E-01 -0.81370311880E-01  0.12775020154E+00  0.20265263440E-01 0.  0.
         14    1    1    2    0    0  0.17925383189E-01 -0.12685425291E-01  0.13857233533E-01  0.25966561160E-01  0.00000000000E+00 0.  1.
     999901    1    3    3    0    0 -0.11343592860E+00  0.25571120882E-01  0.67513078348E-01  0.89021323730E+00  0.88000000000E+00 0. -1.
        -11    1    4    4    0    0  0.45238423029E-01  0.31666591068E-02 -0.32217304272E-01  0.55630553328E-01  0.51100000000E-03 0. -1.
         11    1    4    4    0    0  0.50272122381E-01 -0.16052354698E-01 -0.49153007609E-01  0.72119648210E-01  0.51100000000E-03 0.  1.
</event>
<event>
 8    1  0.1053862E+005  0.1043930E+01  0.7957747E-01            NaN
         13   -1    0    0    0    0  0.00000000000E+00  0.00000000000E+00  0.74505805969E-08  0.10566000000E+00  0.10566000000E+00 0.  1.
     999900   -1    0    0    0    0 -0.00000000000E+00 -0.00000000000E+00 -0.74505805969E-08  0.93827000000E+00  0.93827000000E+00 0.  1.
     999902    2    1    2    0    0  0.13692603026E-01  0.13758779996E-01 -0.13062057262E-01  0.10205332322E+01  0.10202649995E+01 0.  0.
     999903    2    3    3    0    0 -0.12035739719E+00 -0.25396895526E-01 -0.34019654986E-01  0.12927468923E+00  0.20584046935E-01 0.  0.
         14    1    1    2    0    0 -0.13692603026E-01 -0.13758779996E-01  0.13062057262E-01  0.23396767823E-01  0.00000000000E+00 0.  1.
     999901    1    3    3    0    0  0.13405000022E+00  0.39155675522E-01  0.20957597724E-01  0.89125854295E+00  0.88000000000E+00 0. -1.
        -11    1    4    4    0    0 -0.89825361872E-01 -0.10547090420E-01 -0.20577792574E-01  0.92755287828E-01  0.51100000000E-03 0. -1.
         11    1    4    4    0    0 -0.30532035318E-01 -0.14849805105E-01 -0.13441862412E-01  0.36519401397E-01  0.51100000000E-03 0.  1.
</event>
<event>
 8    1  0.1016551E+005  0.1043930E+01  0.7957747E-01            NaN
         13   -1    0    0    0    0  0.00000000000E+00  0.00000000000E+00  0.74505805969E-08  0.10566000000E+00  0.10566000000E+00 0.  1.
     999900   -1    0    0    0    0 -0.00000000000E+00 -0.00000000000E+00 -0.74505805969E-08  0.93827000000E+00  0.93827000000E+00 0. -1.
     999902    2    1    2    0    0 -0.63967351553E-02  0.14868596872E-01 -0.18319963447E-01  0.10194838458E+01  0.10191907071E+01 0.  0.
     999903    2    3    3    0    0  0.20965457813E-01 -0.60690129602E-02 -0.12787682594E+00  0.13202129493E+00  0.24510331750E-01 0.  0.
         14    1    1    2    0    0  0.63967351553E-02 -0.14868596872E-01  0.18319963447E-01  0.24446154182E-01  0.00000000000E+00 0.  1.
     999901    1    3    3    0    0 -0.27362192969E-01  0.20937609832E-01  0.10955686249E+00  0.88746255089E+00  0.88000000000E+00 0.  1.
        -11    1    4    4    0    0 -0.70713057184E-03 -0.40554664357E-02 -0.70980396308E-01  0.71101509285E-01  0.51100000000E-03 0. -1.
         11    1    4    4    0    0  0.21672588385E-01 -0.20135465245E-02 -0.56896429634E-01  0.60919785645E-01  0.51100000000E-03 0.  1.
</event>
<event>
 8    1  0.1010879E+005  0.1043930E+01  0.7957747E-01            NaN
         13   -1    0    0    0    0  0.00000000000E+00  0.00000000000E+00  0.74505805969E-08  0.10566000000E+00  0.10566000000E+00 0.  1.
     999900   -1    0    0    0    0 -0.00000000000E+00 -0.00000000000E+00 -0.74505805969E-08  0.93827000000E+00  0.93827000000E+00 0. -1.
     999902    2    1    2    0    0  0.30308979953E-02  0.20868585806E-01  0.59631717451E-02  0.10220155383E+01  0.10217805620E+01 0.  0.
     999903    2    3    3    0    0  0.87584657691E-01 -0.46071144053E-01 -0.83082978796E-01  0.13097149746E+00  0.21380580078E-01 0.  0.
         14    1    1    2    0    0 -0.30308979953E-02 -0.20868585806E-01 -0.59631717451E-02  0.21914461742E-01  0.00000000000E+00 0. -1.
     999901    1    3    3    0    0 -0.84553759695E-01  0.66939729859E-01  0.89046150541E-01  0.89104404080E+00  0.88000000000E+00 0.  1.
        -11    1    4    4    0    0  0.65254240998E-01 -0.23385923194E-01 -0.54344306927E-01  0.88082814375E-01  0.51100000000E-03 0.  1.
         11    1    4    4    0    0  0.22330416693E-01 -0.22685220858E-01 -0.28738671869E-01  0.42888683086E-01  0.51100000000E-03 0. -1.
</event>
<event>
 8    1  0.1010879E+005  0.1043930E+01  0.7957747E-01            NaN
         13   -1    0    0    0    0  0.00000000000E+00  0.00000000000E+00  0.74505805969E-08  0.10566000000E+00  0.10566000000E+00 0. -1.
     999900   -1    0    0    0    0 -0.00000000000E+00 -0.00000000000E+00 -0.74505805969E-08  0.93827000000E+00  0.93827000000E+00 0.  1.
     999902    2    1    2    0    0 -0.12595507196E-01  0.10871443476E-01  0.18731250168E-01  0.10188761616E+01  0.10185680821E+01 0.  0.
     999903    2    3    3    0    0  0.11357448592E+00 -0.37114682941E-02  0.57691143599E-01  0.12890458804E+00  0.19369716546E-01 0.  0.
         14    1    1    2    0    0  0.12595507196E-01 -0.10871443476E-01 -0.18731250168E-01  0.25053838381E-01  0.00000000000E+00 0.  1.
     999901    1    3    3    0    0 -0.12616999312E+00  0.14582911770E-01 -0.38959893431E-01  0.88997157358E+00  0.88000000000E+00 0.  1.
        -11    1    4    4    0    0  0.37873213027E-01 -0.40474745851E-02  0.98293815015E-02  0.39340058175E-01  0.51100000000E-03 0.  1.
         11    1    4    4    0    0  0.75701272895E-01  0.33600629103E-03  0.47861762097E-01  0.89564529867E-01  0.51100000000E-03 0. -1.
</event>
<event>
 8    1  0.1010879E+005  0.1043930E+01  0.7957747E-01            NaN
         13   -1    0    0    0    0  0.00000000000E+00  0.00000000000E+00  0.74505805969E-08  0.10566000000E+00  0.10566000000E+00 0. -1.
     999900   -1    0    0    0    0 -0.00000000000E+00 -0.00000000000E+00 -0.74505805969E-08  0.93827000000E+00  0.93827000000E+00 0.  1.
     999902    2    1    2    0    0 -0.15036546647E-01  0.18089772068E-01  0.65055710929E-02  0.10195238523E+01  0.10192316839E+01 0.  0.
     999903    2    3    3    0    0 -0.10275984581E+00 -0.48427707612E-01  0.62252497035E-01  0.13091388611E+00  0.18927319250E-01 0.  0.
         14    1    1    2    0    0  0.15036546647E-01 -0.18089772068E-01 -0.65055710929E-02  0.24406147664E-01  0.00000000000E+00 0.  1.
     999901    1    3    3    0    0  0.87723299166E-01  0.66517479679E-01 -0.55746925942E-01  0.88860996622E+00  0.88000000000E+00 0.  1.
        -11    1    4    4    0    0 -0.19284398478E-01 -0.59357529451E-02  0.39048166150E-02  0.20557964429E-01  0.51100000000E-03 0. -1.
         11    1    4    4    0    0 -0.83475447335E-01 -0.42491954667E-01  0.58347680420E-01  0.11035592168E+00  0.51100000000E-03 0.  1.
</event>
<event>
 8    1  0.1010879E+005  0.1043930E+01  0.7957747E-01            NaN
         13   -1    0    0    0    0  0.00000000000E+00  0.00000000000E+00  0.74505805969E-08  0.10566000000E+00  0.10566000000E+00 0.  1.
     999900   -1    0    0    0    0 -0.00000000000E+00 -0.00000000000E+00 -0.74505805969E-08  0.93827000000E+00  0.93827000000E+00 0.  1.
     999902    2    1    2    0    0  0.63355544179E-02  0.19542531974E-01 -0.12389099346E-01  0.10199395938E+01  0.10196574108E+01 0.  0.
     999903    2    3    3    0    0  0.12657212134E+00  0.12845974804E-01 -0.27447459169E-01  0.13161058377E+00  0.19556630022E-01 0.  0.
         14    1    1    2    0    0 -0.63355544179E-02 -0.19542531974E-01  0.12389099346E-01  0.23990406173E-01  0.00000000000E+00 0.  1.
     999901    1    3    3    0    0 -0.12023656692E+00  0.66965571691E-02  0.15058359823E-01  0.88832901005E+00  0.88000000000E+00 0. -1.
        -11    1    4    4    0    0  0.74332890586E-01 -0.93945529684E-03 -0.20645682110E-01  0.77154173639E-01  0.51100000000E-03 0.  1.
         11    1    4    4    0    0  0.52239230751E-01  0.13785430101E-01 -0.68017770594E-02  0.54456410135E-01  0.51100000000E-03 0. -1.
</event>
<event>
 8    1  0.1010879E+005  0.1043930E+01  0.7957747E-01            NaN
         13   -1    0    0    0    0  0.00000000000E+00  0.00000000000E+00  0.74505805969E-08  0.10566000000E+00  0.10566000000E+00 0.  1.
     999900   -1    0    0    0    0 -0.00000000000E+00 -0.00000000000E+00 -0.74505805969E-08  0.93827000000E+00  0.93827000000E+00 0.  1.
     999902    2    1    2    0    0 -0.10942098904E-01  0.87789884570E-02 -0.17975448680E-01  0.10211283132E+01  0.10208737018E+01 0.  0.
     999903    2    3    3    0    0 -0.60163609582E-01  0.73118219213E-01  0.89041774961E-01  0.13095137577E+00  0.15933964663E-01 0.  0.
         14    1    1    2    0    0  0.10942098904E-01 -0.87789884570E-02  0.17975448680E-01  0.22801686824E-01  0.00000000000E+00 0. -1.
     999901    1    3    3    0    0  0.49221510678E-01 -0.64339230756E-01 -0.10701722364E+00  0.89017693740E+00  0.88000000000E+00 0. -1.
        -11    1    4    4    0    0 -0.22819219935E-01  0.17383927904E-01  0.30983418476E-01  0.42227373696E-01  0.51100000000E-03 0.  1.
         11    1    4    4    0    0 -0.37344389647E-01  0.55734291309E-01  0.58058356485E-01  0.88724002077E-01  0.51100000000E-03 0. -1.
</event>
<event>
 8    1  0.1010879E+005  0.1043930E+01  0.7957747E-01            NaN
         13   -1    0    0    0    0  0.00000000000E+00  0.00000000000E+00  0.74505805969E-08  0.10566000000E+00  0.10566000000E+00 0.  1.
     999900   -1    0    0    0    0 -0.00000000000E+00 -0.00000000000E+00 -0.74505805969E-08  0.93827000000E+00  0.93827000000E+00 0. -1.
     999902    2    1    2    0    0  0.19165164156E-01  0.48056076714E-02 -0.15408274386E-01  0.10188738171E+01  0.10185656792E+01 0.  0.
     999903    2    3    3    0    0  0.12412133923E+00 -0.79184777930E-02 -0.39990995787E-01  0.13220476315E+00  0.20248716298E-01 0.  0.
         14    1    1    2    0    0 -0.19165164156E-01 -0.48056076714E-02  0.15408274386E-01  0.25056182906E-01  0.00000000000E+00 0.  1.
     999901    1    3    3    0    0 -0.10495617507E+00  0.12724085464E-01  0.24582721401E-01  0.88666905395E+00  0.88000000000E+00 0. -1.
        -11    1    4    4    0    0  0.65738164452E-01  0.39507969042E-02 -0.27274917373E-01  0.71283218925E-01  0.51100000000E-03 0.  1.
         11    1    4    4    0    0  0.58383174779E-01 -0.11869274697E-01 -0.12716078415E-01  0.60921544222E-01  0.51100000000E-03 0. -1.
</event>
<event>
 8    1  0.1010879E+005  0.1043930E+01  0.7957747E-01            NaN
         13   -1    0    0    0    0  0.00000000000E+00  0.00000000000E+00  0.74505805969E-08  0.10566000000E+00  0.10566000000E+00 0.  1.
     999900   -1    0    0    0    0 -0.00000000000E+00 -0.00000000000E+00 -0.74505805969E-08  0.93827000000E+00  0.93827000000E+00 0. -1.
     999902    2    1    2    0    0 -0.77111591752E-02  0.21483254859E-01  0.87912707889E-02  0.10194702646E+01  0.10191767961E+01 0.  0.
     999903    2    3    3    0    0  0.11933148445E+00  0.13432139698E-01  0.44606705345E-01  0.12958971129E+00  0.19578292927E-01 0.  0.
         14    1    1    2    0    0  0.77111591752E-02 -0.21483254859E-01 -0.87912707889E-02  0.24459735429E-01  0.00000000000E+00 0. -1.
     999901    1    3    3    0    0 -0.12704264362E+00  0.80511151611E-02 -0.35815434556E-01  0.88988055328E+00  0.88000000000E+00 0. -1.
        -11    1    4    4    0    0  0.83772336381E-01  0.88737303755E-03  0.34009548079E-01  0.90418484035E-01  0.51100000000E-03 0. -1.
         11    1    4    4    0    0  0.35559148065E-01  0.12544766660E-01  0.10597157266E-01  0.39171227256E-01  0.51100000000E-03 0.  1.
</event>
<event>
 8    1  0.1010879E+005  0.1043930E+01  0.7957747E-01            NaN
         13   -1    0    0    0    0  0.00000000000E+00  0.00000000000E+00  0.74505805969E-08  0.10566000000E+00  0.10566000000E+00 0. -1.
     999900   -1    0    0    0    0 -0.00000000000E+00 -0.00000000000E+00 -0.74505805969E-08  0.93827000000E+00  0.93827000000E+00 0. -1.
     999902    2    1    2    0    0  0.76364600241E-02  0.12342805317E-01 -0.19083406691E-01  0.10199542461E+01  0.10196724118E+01 0.  0.
     999903    2    3    3    0    0  0.92987540483E-01 -0.86760124765E-01  0.15295139305E-01  0.12962392418E+00  0.19859972264E-01 0.  0.
         14    1    1    2    0    0 -0.76364600241E-02 -0.12342805317E-01  0.19083406691E-01  0.23975753914E-01  0.00000000000E+00 0. -1.
     999901    1    3    3    0    0 -0.85351080459E-01  0.99102930082E-01 -0.34378545997E-01  0.89033032191E+00  0.88000000000E+00 0. -1.
        -11    1    4    4    0    0  0.29482149873E-01 -0.24399607113E-01  0.13551652056E-01  0.40601063815E-01  0.51100000000E-03 0.  1.
         11    1    4    4    0    0  0.63505390610E-01 -0.62360517651E-01  0.17434872492E-02  0.89022860362E-01  0.51100000000E-03 0. -1.
</event>
<event>
 8    1  0.1010879E+005  0.1043930E+01  0.7957747E-01            NaN
         13   -1    0    0    0    0  0.00000000000E+00  0.00000000000E+00  0.74505805969E-08  0.10566000000E+00  0.10566000000E+00 0. -1.
     999900   -1    0    0    0    0 -0.00000000000E+00 -0.00000000000E+00 -0.74505805969E-08  0.93827000000E+00  0.93827000000E+00 0. -1.
     999902    2    1    2    0    0 -0.11220204351E-01 -0.13250512663E-01  0.13362063031E-01  0.10220207828E+01  0.10217859201E+01 0.  0.
     999903    2    3    3    0    0  0.90381121616E-01 -0.94572144085E-01  0.68871842882E-02  0.13242651500E+00  0.19409043953E-01 0.  0.
         14    1    1    2    0    0  0.11220204351E-01  0.13250512663E-01 -0.13362063031E-01  0.21909217238E-01  0.00000000000E+00 0.  1.
     999901    1    3    3    0    0 -0.10160132597E+00  0.81321631422E-01  0.64748787431E-02  0.88959426776E+00  0.88000000000E+00 0. -1.
        -11    1    4    4    0    0  0.16469160903E-01 -0.97543655122E-02 -0.34191976532E-02  0.19450782529E-01  0.51100000000E-03 0.  1.
         11    1    4    4    0    0  0.73911960713E-01 -0.84817778572E-01  0.10306381941E-01  0.11297573247E+00  0.51100000000E-03 0. -1.
</event>
<event>
 8    1  0.1072804E+005  0.1043930E+01  0.7957747E-01            NaN
         13   -1    0    0    0    0  0.00000000000E+00  0.00000000000E+00  0.74505805969E-08  0.10566000000E+00  0.10566000000E+00 0. -1.
     999900   -1    0    0    0    0 -0.00000000000E+00 -0.00000000000E+00 -0.74505805969E-08  0.93827000000E+00  0.93827000000E+00 0.  1.
     999902    2    1    2    0    0 -0.14703015289E-01 -0.14742842266E-01 -0.11373792377E-01  0.10202046294E+01  0.10199287194E+01 0.  0.
     999903    2    3    3    0    0  0.12189028883E+00 -0.23408581116E-01 -0.25752218544E-01  0.12950851686E+00  0.26534411602E-01 0.  0.
         14    1    1    2    0    0  0.14703015289E-01  0.14742842266E-01  0.11373792377E-01  0.23725370592E-01  0.00000000000E+00 0.  1.
     999901    1    3    3    0    0 -0.13659330412E+00  0.86657388496E-02  0.14378426167E-01  0.89069611254E+00  0.88000000000E+00 0. -1.
        -11    1    4    4    0    0  0.70132924715E-01 -0.76358297741E-03 -0.99326033482E-02  0.70838745884E-01  0.51100000000E-03 0.  1.
         11    1    4    4    0    0  0.51757364117E-01 -0.22644998138E-01 -0.15819615196E-01  0.58669770981E-01  0.51100000000E-03 0. -1.
</event>
<event>
 8    1  0.1010879E+005  0.1043930E+01  0.7957747E-01            NaN
         13   -1    0    0    0    0  0.00000000000E+00  0.00000000000E+00  0.74505805969E-08  0.10566000000E+00  0.10566000000E+00 0.  1.
     999900   -1    0    0    0    0 -0.00000000000E+00 -0.00000000000E+00 -0.74505805969E-08  0.93827000000E+00  0.93827000000E+00 0.  1.
     999902    2    1    2    0    0 -0.40801444791E-02 -0.13859878723E-01  0.17602698234E-01  0.10211572355E+01  0.10209032769E+01 0.  0.
     999903    2    3    3    0    0 -0.34663098352E-01  0.16851553257E-01  0.12623770678E+00  0.13341849343E+00  0.19468706701E-01 0.  0.
         14    1    1    2    0    0  0.40801444791E-02  0.13859878723E-01 -0.17602698234E-01  0.22772764485E-01  0.00000000000E+00 0. -1.
     999901    1    3    3    0    0  0.30582953873E-01 -0.30711431979E-01 -0.10863500855E+00  0.88773874209E+00  0.88000000000E+00 0.  1.
        -11    1    4    4    0    0 -0.79475865291E-02  0.14235538750E-01  0.45741674509E-01  0.48563119782E-01  0.51100000000E-03 0.  1.
         11    1    4    4    0    0 -0.26715511823E-01  0.26160145067E-02  0.80496032272E-01  0.84855373645E-01  0.51100000000E-03 0. -1.
</event>
<event>
 8    1  0.1010879E+005  0.1043930E+01  0.7957747E-01            NaN
         13   -1    0    0    0    0  0.00000000000E+00  0.00000000000E+00  0.74505805969E-08  0.10566000000E+00  0.10566000000E+00 0.  1.
     999900   -1    0    0    0    0 -0.00000000000E+00 -0.00000000000E+00 -0.74505805969E-08  0.93827000000E+00  0.93827000000E+00 0. -1.
     999902    2    1    2    0    0 -0.93230583045E-02  0.13828825088E-01  0.18388226568E-01  0.10191049583E+01  0.10188025487E+01 0.  0.
     999903    2    3    3    0    0 -0.12488898984E-01  0.63794639547E-01  0.11384914920E+00  0.13252761090E+00  0.19396139954E-01 0.  0.
         14    1    1    2    0    0  0.93230583045E-02 -0.13828825088E-01 -0.18388226568E-01  0.24825041707E-01  0.00000000000E+00 0.  1.
     999901    1    3    3    0    0  0.31658406793E-02 -0.49965814459E-01 -0.95460922629E-01  0.88657734739E+00  0.88000000000E+00 0. -1.
        -11    1    4    4    0    0 -0.15598087252E-01  0.29310292667E-01  0.55073466364E-01  0.64309730217E-01  0.51100000000E-03 0.  1.
         11    1    4    4    0    0  0.31091882682E-02  0.34484346880E-01  0.58775682832E-01  0.68217880683E-01  0.51100000000E-03 0. -1.
</event>
<event>
 8    1  0.1010879E+005  0.1043930E+01  0.7957747E-01            NaN
         13   -1    0    0    0    0  0.00000000000E+00  0.00000000000E+00  0.74505805969E-08  0.10566000000E+00  0.10566000000E+00 0. -1.
     999900   -1    0    0    0    0 -0.00000000000E+00 -0.00000000000E+00 -0.74505805969E-08  0.93827000000E+00  0.93827000000E+00 0.  1.
     999902    2    1    2    0    0 -0.13320406694E-01 -0.16002448193E-01  0.11432203492E-01  0.10201769611E+01  0.10199003995E+01 0.  0.
     999903    2    3    3    0    0  0.22481546045E-01 -0.11764260933E+00  0.53507038782E-01  0.13260567155E+00  0.19392201679E-01 0.  0.
         14    1    1    2    0    0  0.13320406694E-01  0.16002448193E-01 -0.11432203492E-01  0.23753038950E-01  0.00000000000E+00 0.  1.
     999901    1    3    3    0    0 -0.35801952739E-01  0.10164016114E+00 -0.42074835290E-01  0.88757128950E+00  0.88000000000E+00 0. -1.
        -11    1    4    4    0    0  0.19210479794E-01 -0.49373410220E-01  0.23509453282E-01  0.57963192504E-01  0.51100000000E-03 0. -1.
         11    1    4    4    0    0  0.32710662509E-02 -0.68269199111E-01  0.29997585500E-01  0.74642479048E-01  0.51100000000E-03 0.  1.
</event>
<event>
 8    1  0.1010879E+005  0.1043930E+01  0.7957747E-01            NaN
         13   -1    0    0    0    0  0.00000000000E+00  0.00000000000E+00  0.74505805969E-08  0.10566000000E+00  0.10566000000E+00 0. -1.
     999900   -1    0    0    0    0 -0.00000000000E+00 -0.00000000000E+00 -0.74505805969E-08  0.93827000000E+00  0.93827000000E+00 0.  1.
     999902    2    1    2    0    0 -0.13650903802E-01 -0.10986644884E-03  0.14447001760E-01  0.10240535037E+01  0.10238605878E+01 0.  0.
     999903    2    3    3    0    0  0.63373492816E-01  0.44806214458E-01 -0.10448420443E+00  0.13158790559E+00  0.19355399169E-01 0.  0.
         14    1    1    2    0    0  0.13650903802E-01  0.10986644884E-03 -0.14447001760E-01  0.19876496299E-01  0.00000000000E+00 0.  1.
     999901    1    3    3    0    0 -0.77024396618E-01 -0.44916080907E-01  0.11893120619E+00  0.89246559811E+00  0.88000000000E+00 0. -1.
        -11    1    4    4    0    0  0.42672325220E-01  0.18749940293E-01 -0.57779323961E-01  0.74237450112E-01  0.51100000000E-03 0. -1.
         11    1    4    4    0    0  0.20701167596E-01  0.26056274164E-01 -0.46704880472E-01  0.57350455482E-01  0.51100000000E-03 0.  1.
</event>
<event>
 8    1  0.1010879E+005  0.1043930E+01  0.7957747E-01            NaN
         13   -1    0    0    0    0  0.00000000000E+00  0.00000000000E+00  0.74505805969E-08  0.10566000000E+00  0.10566000000E+00 0.  1.
     999900   -1    0    0    0    0 -0.00000000000E+00 -0.00000000000E+00 -0.74505805969E-08  0.93827000000E+00  0.93827000000E+00 0.  1.
     999902    2    1    2    0    0  0.14634773194E-01  0.18076425989E-01  0.43092929584E-02  0.10202761680E+01  0.10200019388E+01 0.  0.
     999903    2    3    3    0    0 -0.31489095319E-01  0.12802635856E+00 -0.21369970028E-02  0.13221200726E+00  0.96507252882E-02 0.  0.
         14    1    1    2    0    0 -0.14634773194E-01 -0.18076425989E-01 -0.43092929584E-02  0.23653832011E-01  0.00000000000E+00 0. -1.
     999901    1    3    3    0    0  0.46123868513E-01 -0.10994993257E+00  0.64462899613E-02  0.88806416073E+00  0.88000000000E+00 0. -1.
        -11    1    4    4    0    0 -0.12414080417E-01  0.51906096927E-01 -0.55641921988E-02  0.53661658999E-01  0.51100000000E-03 0.  1.
         11    1    4    4    0    0 -0.19075014902E-01  0.76120261629E-01  0.34271951960E-02  0.78550348260E-01  0.51100000000E-03 0. -1.
</event>
<event>
 8    1  0.1010879E+005  0.1043930E+01  0.7957747E-01            NaN
         13   -1    0    0    0    0  0.00000000000E+00  0.00000000000E+00  0.74505805969E-08  0.10566000000E+00  0.10566000000E+00 0. -1.
     999900   -1    0    0    0    0 -0.00000000000E+00 -0.00000000000E+00 -0.74505805969E-08  0.93827000000E+00  0.93827000000E+00 0. -1.
     999902    2    1    2    0    0 -0.22735956108E-01  0.25870699332E-02 -0.60666933081E-02  0.10202567789E+01  0.10199820947E+01 0.  0.
     999903    2    3    3    0    0  0.98898335564E-01  0.77316945488E-01 -0.19466387749E-01  0.12865204188E+00  0.20337570924E-01 0.  0.
         14    1    1    2    0    0  0.22735956108E-01 -0.25870699332E-02  0.60666933081E-02  0.23673221130E-01  0.00000000000E+00 0. -1.
     999901    1    3    3    0    0 -0.12163429167E+00 -0.74729875554E-01  0.13399694441E-01  0.89160473699E+00  0.88000000000E+00 0.  1.
        -11    1    4    4    0    0  0.32450960464E-01  0.26869931794E-01  0.30292974395E-02  0.42243293357E-01  0.51100000000E-03 0. -1.
         11    1    4    4    0    0  0.66447375101E-01  0.50447013693E-01 -0.22495685188E-01  0.86408748524E-01  0.51100000000E-03 0.  1.
</event>
<event>
 8    1  0.1010879E+005  0.1043930E+01  0.7957747E-01            NaN
         13   -1    0    0    0    0  0.00000000000E+00  0.00000000000E+00  0.74505805969E-08  0.10566000000E+00  0.10566000000E+00 0. -1.
     999900   -1    0    0    0    0 -0.00000000000E+00 -0.00000000000E+00 -0.74505805969E-08  0.93827000000E+00  0.93827000000E+00 0.  1.
     999902    2    1    2    0    0  0.19776308952E-01 -0.29732390364E-02 -0.11974320879E-01  0.10206206262E+01  0.10203544167E+01 0.  0.
     999903    2    3    3    0    0 -0.32587237877E-01  0.51795252390E-01 -0.11492083410E+00  0.13138527307E+00  0.17624290809E-01 0.  0.
         14    1    1    2    0    0 -0.19776308952E-01  0.29732390364E-02  0.11974320879E-01  0.23309373794E-01  0.00000000000E+00 0. -1.
     999901    1    3    3    0    0  0.52363546830E-01 -0.54768491426E-01  0.10294651322E+00  0.88923535314E+00  0.88000000000E+00 0. -1.
        -11    1    4    4    0    0 -0.19844638522E-01  0.33130949307E-01 -0.88833916022E-01  0.96866894432E-01  0.51100000000E-03 0. -1.
         11    1    4    4    0    0 -0.12742599355E-01  0.18664303083E-01 -0.26086918076E-01  0.34518378635E-01  0.51100000000E-03 0.  1.
</event>
<event>
 8    1  0.1010879E+005  0.1043930E+01  0.7957747E-01            NaN
         13   -1    0    0    0    0  0.00000000000E+00  0.00000000000E+00  0.74505805969E-08  0.10566000000E+00  0.10566000000E+00 0. -1.
     999900   -1    0    0    0    0 -0.00000000000E+00 -0.00000000000E+00 -0.74505805969E-08  0.93827000000E+00  0.93827000000E+00 0.  1.
     999902    2    1    2    0    0 -0.21015769721E-01  0.97248315502E-03 -0.10429316353E-01  0.10204485405E+01  0.10201783397E+01 0.  0.
     999903    2    3    3    0    0  0.26542658329E-01  0.12079111040E+00 -0.36807021450E-01  0.13066536982E+00  0.20583415101E-01 0.  0.
         14    1    1    2    0    0  0.21015769721E-01 -0.97248315502E-03  0.10429316353E-01  0.23481459496E-01  0.00000000000E+00 0.  1.
     999901    1    3    3    0    0 -0.47558428050E-01 -0.11981862725E+00  0.26377705098E-01  0.88978317069E+00  0.88000000000E+00 0.  1.
        -11    1    4    4    0    0  0.73884465716E-02  0.11518741138E-01  0.26143559423E-03  0.13696715289E-01  0.51100000000E-03 0. -1.
         11    1    4    4    0    0  0.19154211757E-01  0.10927236927E+00 -0.37068457045E-01  0.11696865453E+00  0.51100000000E-03 0.  1.
</event>
<event>
 8    1  0.1010879E+005  0.1043930E+01  0.7957747E-01            NaN
         13   -1    0    0    0    0  0.00000000000E+00  0.00000000000E+00  0.74505805969E-08  0.10566000000E+00  0.10566000000E+00 0. -1.
     999900   -1    0    0    0    0 -0.00000000000E+00 -0.00000000000E+00 -0.74505805969E-08  0.93827000000E+00  0.93827000000E+00 0.  1.
     999902    2    1    2    0    0  0.96225322306E-02 -0.17488911444E-01  0.12652047892E-01  0.10202967720E+01  0.10200230260E+01 0.  0.
     999903    2    3    3    0    0  0.79655773286E-01  0.97198520071E-01  0.26955943337E-01  0.12998083750E+00  0.19385580030E-01 0.  0.
         14    1    1    2    0    0 -0.96225322306E-02  0.17488911444E-01 -0.12652047892E-01  0.23633228004E-01  0.00000000000E+00 0.  1.
     999901    1    3    3    0    0 -0.70033241055E-01 -0.11468743152E+00 -0.14303895445E-01  0.89031593450E+00  0.88000000000E+00 0.  1.
        -11    1    4    4    0    0  0.12320196246E-01  0.11896183242E-01 -0.26625089175E-02  0.17339448838E-01  0.51100000000E-03 0. -1.
         11    1    4    4    0    0  0.67335577040E-01  0.85302336830E-01  0.29618452255E-01  0.11264138866E+00  0.51100000000E-03 0.  1.
</event>
<event>
 8    1  0.1010879E+005  0.1043930E+01  0.7957747E-01            NaN
         13   -1    0    0    0    0  0.00000000000E+00  0.00000000000E+00  0.74505805969E-08  0.10566000000E+00  0.10566000000E+00 0. -1.
     999900   -1    0    0    0    0 -0.00000000000E+00 -0.00000000000E+00 -0.74505805969E-08  0.93827000000E+00  0.93827000000E+00 0.  1.
     999902    2    1    2    0    0  0.95494606734E-02  0.12186295176E-02  0.21849640538E-01  0.10200535671E+01  0.10197740905E+01 0.  0.
     999903    2    3    3    0    0  0.12374588587E+00 -0.18719284319E-01 -0.32585583820E-01  0.13078333955E+00  0.19468070152E-01 0.  0.
         14    1    1    2    0    0 -0.95494606734E-02 -0.12186295176E-02 -0.21849640538E-01  0.23876432914E-01  0.00000000000E+00 0.  1.
     999901    1    3    3    0    0 -0.11419642520E+00  0.19937913837E-01  0.54435224358E-01  0.88927022754E+00  0.88000000000E+00 0. -1.
        -11    1    4    4    0    0  0.74023045006E-01 -0.98750521551E-02 -0.29125415077E-01  0.80159084148E-01  0.51100000000E-03 0.  1.
         11    1    4    4    0    0  0.49722840863E-01 -0.88442321641E-02 -0.34601687430E-02  0.50624255400E-01  0.51100000000E-03 0. -1.
</event>
<event>
 8    1  0.1010879E+005  0.1043930E+01  0.7957747E-01            NaN
         13   -1    0    0    0    0  0.00000000000E+00  0.00000000000E+00  0.74505805969E-08  0.10566000000E+00  0.10566000000E+00 0. -1.
     999900   -1    0    0    0    0 -0.00000000000E+00 -0.00000000000E+00 -0.74505805969E-08  0.93827000000E+00  0.93827000000E+00 0. -1.
     999902    2    1    2    0    0  0.55786273008E-02 -0.58876254941E-02 -0.22327037669E-01  0.10201753830E+01  0.10198987843E+01 0.  0.
     999903    2    3    3    0    0  0.28943388774E-01 -0.12002822134E+00  0.37255059346E-01  0.13049902952E+00  0.19938996678E-01 0.  0.
         14    1    1    2    0    0 -0.55786273008E-02  0.58876254941E-02  0.22327037669E-01  0.23754616974E-01  0.00000000000E+00 0. -1.
     999901    1    3    3    0    0 -0.23364761473E-01  0.11414059584E+00 -0.59582097014E-01  0.88967635350E+00  0.88000000000E+00 0.  1.
        -11    1    4    4    0    0  0.27644709728E-03 -0.13544595014E-01  0.10163912138E-01  0.16943987371E-01  0.51100000000E-03 0.  1.
         11    1    4    4    0    0  0.28666941677E-01 -0.10648362632E+00  0.27091147208E-01  0.11355504215E+00  0.51100000000E-03 0. -1.
</event>
<event>
 8    1  0.1010879E+005  0.1043930E+01  0.7957747E-01            NaN
         13   -1    0    0    0    0  0.00000000000E+00  0.00000000000E+00  0.74505805969E-08  0.10566000000E+00  0.10566000000E+00 0. -1.
     999900   -1    0    0    0    0 -0.00000000000E+00 -0.00000000000E+00 -0.74505805969E-08  0.93827000000E+00  0.93827000000E+00 0. -1.
     999902    2    1    2    0    0  0.15233782394E-01  0.13183746612E-01  0.11946583235E-01  0.10205077851E+01  0.10202389618E+01 0.  0.
     999903    2    3    3    0    0  0.10552513332E+00  0.67457182352E-01  0.42344281184E-01  0.13370332303E+00  0.19937783858E-01 0.  0.
         14    1    1    2    0    0 -0.15233782394E-01 -0.13183746612E-01 -0.11946583235E-01  0.23422214920E-01  0.00000000000E+00 0.  1.
     999901    1    3    3    0    0 -0.90291350929E-01 -0.54273435741E-01 -0.30397697949E-01  0.88680446205E+00  0.88000000000E+00 0. -1.
        -11    1    4    4    0    0  0.64828891801E-02 -0.26741954885E-03  0.44225166185E-02  0.78688715568E-02  0.51100000000E-03 0. -1.
         11    1    4    4    0    0  0.99042244143E-01  0.67724601901E-01  0.37921764566E-01  0.12583445147E+00  0.51100000000E-03 0.  1.
</event>
<event>
 8    1  0.1010879E+005  0.1043930E+01  0.7957747E-01            NaN
         13   -1    0    0    0    0  0.00000000000E+00  0.00000000000E+00  0.74505805969E-08  0.10566000000E+00  0.10566000000E+00 0. -1.
     999900   -1    0    0    0    0 -0.00000000000E+00 -0.00000000000E+00 -0.74505805969E-08  0.93827000000E+00  0.93827000000E+00 0. -1.
     999902    2    1    2    0    0 -0.15578913193E-01 -0.37887991470E-02  0.19931818726E-01  0.10183500287E+01  0.10180287059E+01 0.  0.
     999903    2    3    3    0    0 -0.91040260389E-01  0.33086499947E-01 -0.81891472208E-01  0.12850611810E+00  0.20604943079E-01 0.  0.
         14    1    1    2    0    0  0.15578913193E-01  0.37887991470E-02 -0.19931818726E-01  0.25579971325E-01  0.00000000000E+00 0.  1.
     999901    1    3    3    0    0  0.75461347196E-01 -0.36875299094E-01  0.10182329093E+00  0.88984391057E+00  0.88000000000E+00 0.  1.
        -11    1    4    4    0    0 -0.60236069398E-01  0.13968901618E-01 -0.59947356329E-01  0.86124682413E-01  0.51100000000E-03 0. -1.
         11    1    4    4    0    0 -0.30804190991E-01  0.19117598329E-01 -0.21944115879E-01  0.42381435691E-01  0.51100000000E-03 0.  1.
</event>
<event>
 8    1  0.1010879E+005  0.1043930E+01  0.7957747E-01            NaN
         13   -1    0    0    0    0  0.00000000000E+00  0.00000000000E+00  0.74505805969E-08  0.10566000000E+00  0.10566000000E+00 0. -1.
     999900   -1    0    0    0    0 -0.00000000000E+00 -0.00000000000E+00 -0.74505805969E-08  0.93827000000E+00  0.93827000000E+00 0. -1.
     999902    2    1    2    0    0  0.81811240946E-02 -0.14567550685E-01 -0.17389245231E-01  0.10198150633E+01  0.10195299079E+01 0.  0.
     999903    2    3    3    0    0  0.32179122112E-01  0.11460828746E+00  0.42671213684E-01  0.12803618943E+00  0.20046891855E-01 0.  0.
         14    1    1    2    0    0 -0.81811240946E-02  0.14567550685E-01  0.17389245231E-01  0.24114936743E-01  0.00000000000E+00 0. -1.
     999901    1    3    3    0    0 -0.23997998018E-01 -0.12917583815E+00 -0.60060458916E-01  0.89177887382E+00  0.88000000000E+00 0.  1.
        -11    1    4    4    0    0  0.27510208981E-01  0.10609803832E+00  0.33350735675E-01  0.11456935902E+00  0.51100000000E-03 0. -1.
         11    1    4    4    0    0  0.46689131310E-02  0.85102491375E-02  0.93204780092E-02  0.13466830419E-01  0.51100000000E-03 0.  1.
</event>
<event>
 8    1  0.1010879E+005  0.1043930E+01  0.7957747E-01            NaN
         13   -1    0    0    0    0  0.00000000000E+00  0.00000000000E+00  0.74505805969E-08  0.10566000000E+00  0.10566000000E+00 0. -1.
     999900   -1    0    0    0    0 -0.00000000000E+00 -0.00000000000E+00 -0.74505805969E-08  0.93827000000E+00  0.93827000000E+00 0. -1.
     999902    2    1    2    0    0  0.29831544256E-02 -0.65314130839E-02  0.22952876209E-01  0.10198801956E+01  0.10195965968E+01 0.  0.
     999903    2    3    3    0    0  0.53501307289E-02 -0.12621579273E+00 -0.24688664036E-01  0.13049857350E+00  0.21477833257E-01 0.  0.
         14    1    1    2    0    0 -0.29831544256E-02  0.65314130839E-02 -0.22952876209E-01  0.24049804437E-01  0.00000000000E+00 0.  1.
     999901    1    3    3    0    0 -0.23669763033E-02  0.11968437964E+00  0.47641540246E-01  0.88938162206E+00  0.88000000000E+00 0. -1.
        -11    1    4    4    0    0  0.12268916882E-01 -0.77870653538E-01 -0.20643346145E-01  0.81490943454E-01  0.51100000000E-03 0. -1.
         11    1    4    4    0    0 -0.69187861532E-02 -0.48345139187E-01 -0.40453178911E-02  0.49007630046E-01  0.51100000000E-03 0.  1.
</event>
<event>
 8    1  0.1010879E+005  0.1043930E+01  0.7957747E-01            NaN
         13   -1    0    0    0    0  0.00000000000E+00  0.00000000000E+00  0.74505805969E-08  0.10566000000E+00  0.10566000000E+00 0. -1.
     999900   -1    0    0    0    0 -0.00000000000E+00 -0.00000000000E+00 -0.74505805969E-08  0.93827000000E+00  0.93827000000E+00 0.  1.
     999902    2    1    2    0    0  0.19165153348E-01  0.31913347360E-02  0.13120896963E-01  0.10204854770E+01  0.10202161355E+01 0.  0.
     999903    2    3    3    0    0  0.12808562282E+00 -0.21054915363E-01 -0.19546817736E-01  0.13283761391E+00  0.20359699179E-01 0.  0.
         14    1    1    2    0    0 -0.19165153348E-01 -0.31913347360E-02 -0.13120896963E-01  0.23444522972E-01  0.00000000000E+00 0.  1.
     999901    1    3    3    0    0 -0.10892046947E+00  0.24246250099E-01  0.32667714700E-01  0.88764786312E+00  0.88000000000E+00 0. -1.
        -11    1    4    4    0    0  0.79933492649E-01 -0.23060420406E-01 -0.12414510575E-01  0.84116154395E-01  0.51100000000E-03 0.  1.
         11    1    4    4    0    0  0.48152130174E-01  0.20055050436E-02 -0.71323071608E-02  0.48721459515E-01  0.51100000000E-03 0. -1.
</event>
<event>
 8    1  0.1010879E+005  0.1043930E+01  0.7957747E-01            NaN
         13   -1    0    0    0    0  0.00000000000E+00  0.00000000000E+00  0.74505805969E-08  0.10566000000E+00  0.10566000000E+00 0.  1.
     999900   -1    0    0    0    0 -0.00000000000E+00 -0.00000000000E+00 -0.74505805969E-08  0.93827000000E+00  0.93827000000E+00 0. -1.
     999902    2    1    2    0    0 -0.18483147740E-01  0.12861865104E-01 -0.78351017689E-02  0.10200879543E+01  0.10198092916E+01 0.  0.
     999903    2    3    3    0    0  0.11684478414E+00  0.24663077564E-01  0.42557805724E-01  0.12824023023E+00  0.19324048400E-01 0.  0.
         14    1    1    2    0    0  0.18483147740E-01 -0.12861865104E-01  0.78351017689E-02  0.23842045719E-01  0.00000000000E+00 0.  1.
     999901    1    3    3    0    0 -0.13532793188E+00 -0.11801212460E-01 -0.50392907493E-01  0.89184772405E+00  0.88000000000E+00 0. -1.
        -11    1    4    4    0    0  0.36640368229E-01  0.16040646919E-01  0.98686086980E-02  0.41200357961E-01  0.51100000000E-03 0.  1.
         11    1    4    4    0    0  0.80204415912E-01  0.86224306456E-02  0.32689197026E-01  0.87039872273E-01  0.51100000000E-03 0. -1.
</event>
<event>
 8    1  0.1010879E+005  0.1043930E+01  0.7957747E-01            NaN
         13   -1    0    0    0    0  0.00000000000E+00  0.00000000000E+00  0.74505805969E-08  0.10566000000E+00  0.10566000000E+00 0.  1.
     999900   -1    0    0    0    0 -0.00000000000E+00 -0.00000000000E+00 -0.74505805969E-08  0.93827000000E+00  0.93827000000E+00 0.  1.
     999902    2    1    2    0    0  0.13374542573E-01  0.96732526073E-02  0.18958448497E-01  0.10187929163E+01  0.10184827605E+01 0.  0.
     999903    2    3    3    0    0  0.12643646434E+00 -0.15993903763E-01  0.24224116403E-01  0.13117276768E+00  0.19429428474E-01 0.  0.
         14    1    1    2    0    0 -0.13374542573E-01 -0.96732526073E-02 -0.18958448497E-01  0.25137083651E-01  0.00000000000E+00 0. -1.
     999901    1    3    3    0    0 -0.11306192177E+00  0.25667156370E-01 -0.52656679059E-02  0.88762014867E+00  0.88000000000E+00 0.  1.
        -11    1    4    4    0    0  0.50110661343E-01  0.22463737451E-02  0.52709400266E-02  0.50439751239E-01  0.51100000000E-03 0.  1.
         11    1    4    4    0    0  0.76325803002E-01 -0.18240277508E-01  0.18953176376E-01  0.80733016438E-01  0.51100000000E-03 0. -1.
</event>
<event>
 8    1  0.1010879E+005  0.1043930E+01  0.7957747E-01            NaN
         13   -1    0    0    0    0  0.00000000000E+00  0.00000000000E+00  0.74505805969E-08  0.10566000000E+00  0.10566000000E+00 0. -1.
     999900   -1    0    0    0    0 -0.00000000000E+00 -0.00000000000E+00 -0.74505805969E-08  0.93827000000E+00  0.93827000000E+00 0.  1.
     999902    2    1    2    0    0 -0.93624331341E-02 -0.22372836750E-01 -0.39953593497E-02  0.10193502955E+01  0.10190539058E+01 0.  0.
     999903    2    3    3    0    0  0.59841104413E-01 -0.11508396090E+00  0.10859099519E-01  0.13165376112E+00  0.19736183515E-01 0.  0.
         14    1    1    2    0    0  0.93624331341E-02  0.22372836750E-01  0.39953593497E-02  0.24579704529E-01  0.00000000000E+00 0. -1.
     999901    1    3    3    0    0 -0.69203537548E-01  0.92711124154E-01 -0.14854458869E-01  0.88769653435E+00  0.88000000000E+00 0.  1.
        -11    1    4    4    0    0  0.12021900278E-01 -0.40488391833E-01  0.80633628236E-02  0.43001336032E-01  0.51100000000E-03 0.  1.
         11    1    4    4    0    0  0.47819204136E-01 -0.74595569071E-01  0.27957366956E-02  0.88652425087E-01  0.51100000000E-03 0. -1.
</event>
<event>
 8    1  0.1010879E+005  0.1043930E+01  0.7957747E-01            NaN
         13   -1    0    0    0    0  0.00000000000E+00  0.00000000000E+00  0.74505805969E-08  0.10566000000E+00  0.10566000000E+00 0.  1.
     999900   -1    0    0    0    0 -0.00000000000E+00 -0.00000000000E+00 -0.74505805969E-08  0.93827000000E+00  0.93827000000E+00 0.  1.
     999902    2    1    2    0    0  0.21331057431E-01  0.59102196959E-02  0.53490351587E-02  0.10211581559E+01  0.10209042180E+01 0.  0.
     999903    2    3    3    0    0  0.29368036886E-01 -0.42140375587E-03  0.12789251824E+00  0.13260788282E+00  0.19123158496E-01 0.  0.
         14    1    1    2    0    0 -0.21331057431E-01 -0.59102196959E-02 -0.53490351587E-02  0.22771844130E-01  0.00000000000E+00 0. -1.
     999901    1    3    3    0    0 -0.80369794552E-02  0.63316234518E-02 -0.12254348309E+00  0.88855027305E+00  0.88000000000E+00 0.  1.
        -11    1    4    4    0    0  0.64733815821E-02 -0.55718229179E-02  0.14713680442E-01  0.17020675453E-01  0.51100000000E-03 0. -1.
         11    1    4    4    0    0  0.22894655304E-01  0.51504191620E-02  0.11317883780E+00  0.11558720736E+00  0.51100000000E-03 0.  1.
</event>
<event>
 8    1  0.1010879E+005  0.1043930E+01  0.7957747E-01            NaN
         13   -1    0    0    0    0  0.00000000000E+00  0.00000000000E+00  0.74505805969E-08  0.10566000000E+00  0.10566000000E+00 0.  1.
     999900   -1    0    0    0    0 -0.00000000000E+00 -0.00000000000E+00 -0.74505805969E-08  0.93827000000E+00  0.93827000000E+00 0. -1.
     999902    2    1    2    0    0  0.13977740429E-01 -0.13079895129E-02  0.19296351981E-01  0.10200671153E+01  0.10197879596E+01 0.  0.
     999903    2    3    3    0    0 -0.83120404350E-01  0.88084260887E-01 -0.37590397738E-01  0.12840847750E+00  0.20195555387E-01 0.  0.
         14    1    1    2    0    0 -0.13977740429E-01  0.13079895129E-02 -0.19296351981E-01  0.23862884651E-01  0.00000000000E+00 0. -1.
     999901    1    3    3    0    0  0.97098144779E-01 -0.89392250400E-01  0.56886749720E-01  0.89165863785E+00  0.88000000000E+00 0. -1.
        -11    1    4    4    0    0 -0.62201023450E-01  0.72114329261E-01 -0.36725497404E-01  0.10207089244E+00  0.51100000000E-03 0.  1.
         11    1    4    4    0    0 -0.20919380901E-01  0.15969931626E-01 -0.86490033396E-03  0.26337585064E-01  0.51100000000E-03 0. -1.
</event>
<event>
 8    1  0.1010879E+005  0.1043930E+01  0.7957747E-01            NaN
         13   -1    0    0    0    0  0.00000000000E+00  0.00000000000E+00  0.74505805969E-08  0.10566000000E+00  0.10566000000E+00 0. -1.
     999900   -1    0    0    0    0 -0.00000000000E+00 -0.00000000000E+00 -0.74505805969E-08  0.93827000000E+00  0.93827000000E+00 0. -1.
     999902    2    1    2    0    0 -0.16453459855E-01  0.10031063678E-01  0.13102820567E-01  0.10206271571E+01  0.10203610985E+01 0.  0.
     999903    2    3    3    0    0  0.81362985944E-01  0.81555506760E-01 -0.55922308305E-01  0.12964552350E+00  0.20234155094E-01 0.  0.
         14    1    1    2    0    0  0.16453459855E-01 -0.10031063678E-01 -0.13102820567E-01  0.23302842885E-01  0.00000000000E+00 0.  1.
     999901    1    3    3    0    0 -0.97816445799E-01 -0.71524443082E-01  0.69025128872E-01  0.89098163362E+00  0.88000000000E+00 0.  1.
        -11    1    4    4    0    0  0.13463827962E-01  0.17954342803E-01 -0.31012299057E-02  0.22660799563E-01  0.51100000000E-03 0. -1.
         11    1    4    4    0    0  0.67899157982E-01  0.63601163957E-01 -0.52821078399E-01  0.10698472394E+00  0.51100000000E-03 0.  1.
</event>
<event>
 8    1  0.1010879E+005  0.1043930E+01  0.7957747E-01            NaN
         13   -1    0    0    0    0  0.00000000000E+00  0.00000000000E+00  0.74505805969E-08  0.10566000000E+00  0.10566000000E+00 0.  1.
     999900   -1    0    0    0    0 -0.00000000000E+00 -0.00000000000E+00 -0.74505805969E-08  0.93827000000E+00  0.93827000000E+00 0. -1.
     999902    2    1    2    0    0  0.23657988649E-01 -0.27179255168E-03 -0.13052396538E-02  0.10202344741E+01  0.10199592659E+01 0.  0.
     999903    2    3    3    0    0  0.55564347080E-01 -0.57566642557E-01 -0.10317079491E+00  0.13193423942E+00  0.19003042084E-01 0.  0.
         14    1    1    2    0    0 -0.23657988649E-01  0.27179255168E-03  0.13052396538E-02  0.23695525921E-01  0.00000000000E+00 0.  1.
     999901    1    3    3    0    0 -0.31906358431E-01  0.57294850005E-01  0.10186555525E+00  0.88830023466E+00  0.88000000000E+00 0.  1.
        -11    1    4    4    0    0  0.23182447887E-01 -0.14231963139E-01 -0.44241964693E-01  0.51938302107E-01  0.51100000000E-03 0. -1.
         11    1    4    4    0    0  0.32381899193E-01 -0.43334679417E-01 -0.58928830213E-01  0.79995937315E-01  0.51100000000E-03 0.  1.
</event>
<event>
 8    1  0.1010879E+005  0.1043930E+01  0.7957747E-01            NaN
         13   -1    0    0    0    0  0.00000000000E+00  0.00000000000E+00  0.74505805969E-08  0.10566000000E+00  0.10566000000E+00 0.  1.
     999900   -1    0    0    0    0 -0.00000000000E+00 -0.00000000000E+00 -0.74505805969E-08  0.93827000000E+00  0.93827000000E+00 0. -1.
     999902    2    1    2    0    0 -0.18242394559E-01  0.54304462640E-02 -0.13299171038E-01  0.10207105544E+01  0.10204464185E+01 0.  0.
     999903    2    3    3    0    0 -0.16228018823E-01  0.12475742591E+00  0.32775124394E-01  0.13146040592E+00  0.19490141887E-01 0.  0.
         14    1    1    2    0    0  0.18242394559E-01 -0.54304462640E-02  0.13299171038E-01  0.23219445647E-01  0.00000000000E+00 0. -1.
     999901    1    3    3    0    0 -0.20143757360E-02 -0.11932697965E+00 -0.46074295432E-01  0.88925014843E+00  0.88000000000E+00 0. -1.
        -11    1    4    4    0    0 -0.66110863270E-02  0.10497026435E+00  0.24893098960E-01  0.10808510701E+00  0.51100000000E-03 0.  1.
         11    1    4    4    0    0 -0.96169324962E-02  0.19787161561E-01  0.78820254345E-02  0.23375298912E-01  0.51100000000E-03 0. -1.
</event>
<event>
 8    1  0.1010879E+005  0.1043930E+01  0.7957747E-01            NaN
         13   -1    0    0    0    0  0.00000000000E+00  0.00000000000E+00  0.74505805969E-08  0.10566000000E+00  0.10566000000E+00 0. -1.
     999900   -1    0    0    0    0 -0.00000000000E+00 -0.00000000000E+00 -0.74505805969E-08  0.93827000000E+00  0.93827000000E+00 0.  1.
     999902    2    1    2    0    0  0.16986960479E-01 -0.12746013541E-01  0.99541545733E-02  0.10204757279E+01  0.10202061597E+01 0.  0.
     999903    2    3    3    0    0  0.95174367768E-01 -0.89421337349E-01  0.19756280493E-01  0.13363388312E+00  0.20331459512E-01 0.  0.
         14    1    1    2    0    0 -0.16986960479E-01  0.12746013541E-01 -0.99541545733E-02  0.23454272122E-01  0.00000000000E+00 0.  1.
     999901    1    3    3    0    0 -0.78187407289E-01  0.76675323808E-01 -0.98021259197E-02  0.88684184476E+00  0.88000000000E+00 0.  1.
        -11    1    4    4    0    0  0.62673475741E-01 -0.57628632765E-01  0.22555560644E-01  0.88079727025E-01  0.51100000000E-03 0.  1.
         11    1    4    4    0    0  0.32500892027E-01 -0.31792704584E-01 -0.27992801506E-02  0.45554156097E-01  0.51100000000E-03 0. -1.
</event>
<event>
 8    1  0.1010879E+005  0.1043930E+01  0.7957747E-01            NaN
         13   -1    0    0    0    0  0.00000000000E+00  0.00000000000E+00  0.74505805969E-08  0.10566000000E+00  0.10566000000E+00 0.  1.
     999900   -1    0    0    0    0 -0.00000000000E+00 -0.00000000000E+00 -0.74505805969E-08  0.93827000000E+00  0.93827000000E+00 0. -1.
     999902    2    1    2    0    0  0.99290721757E-02 -0.88354634382E-02 -0.18856757374E-01  0.10208599071E+01  0.10205991969E+01 0.  0.
     999903    2    3    3    0    0 -0.60619736831E-01 -0.11143299295E+00  0.25295909544E-01  0.13099876875E+00  0.20705795426E-01 0.  0.
         14    1    1    2    0    0 -0.99290721757E-02  0.88354634382E-02  0.18856757374E-01  0.23070092915E-01  0.00000000000E+00 0.  1.
     999901    1    3    3    0    0  0.70548809007E-01  0.10259752951E+00 -0.44152666918E-01  0.88986113833E+00  0.88000000000E+00 0.  1.
        -11    1    4    4    0    0 -0.35192091686E-01 -0.45389279516E-01  0.15972194216E-01  0.59615787518E-01  0.51100000000E-03 0. -1.
         11    1    4    4    0    0 -0.25427645145E-01 -0.66043713434E-01  0.93237153278E-02  0.71382981237E-01  0.51100000000E-03 0.  1.
</event>
<event>
 8    1  0.1010879E+005  0.1043930E+01  0.7957747E-01            NaN
         13   -1    0    0    0    0  0.00000000000E+00  0.00000000000E+00  0.74505805969E-08  0.10566000000E+00  0.10566000000E+00 0. -1.
     999900   -1    0    0    0    0 -0.00000000000E+00 -0.00000000000E+00 -0.74505805969E-08  0.93827000000E+00  0.93827000000E+00 0. -1.
     999902    2    1    2    0    0  0.15446471895E-01  0.11713174737E-01 -0.17627045382E-01  0.10177287656E+01  0.10173914368E+01 0.  0.
     999903    2    3    3    0    0 -0.24816490681E-01 -0.43302688843E-01  0.11331382022E+00  0.12543208751E+00  0.20055065561E-01 0.  0.
         14    1    1    2    0    0 -0.15446471895E-01 -0.11713174737E-01  0.17627045382E-01  0.26201234424E-01  0.00000000000E+00 0. -1.
     999901    1    3    3    0    0  0.40262962576E-01  0.55015863580E-01 -0.13094086560E+00  0.89229667806E+00  0.88000000000E+00 0. -1.
        -11    1    4    4    0    0 -0.78267354412E-02 -0.47631433068E-02  0.86509531964E-02  0.12611321661E-01  0.51100000000E-03 0.  1.
         11    1    4    4    0    0 -0.16989755240E-01 -0.38539545536E-01  0.10466286702E+00  0.11282076585E+00  0.51100000000E-03 0. -1.
</event>
<event>
 8    1  0.1010879E+005  0.1043930E+01  0.7957747E-01            NaN
         13   -1    0    0    0    0  0.00000000000E+00  0.00000000000E+00  0.74505805969E-08  0.10566000000E+00  0.10566000000E+00 0. -1.
     999900   -1    0    0    0    0 -0.00000000000E+00 -0.00000000000E+00 -0.74505805969E-08  0.93827000000E+00  0.93827000000E+00 0.  1.
     999902    2    1    2    0    0 -0.12052683768E-01 -0.11045998242E-01  0.17637072135E-01  0.10198811419E+01  0.10195975657E+01 0.  0.
     999903    2    3    3    0    0  0.46840265379E-01  0.97451840821E-01  0.69319148895E-01  0.12976249946E+00  0.18501084324E-01 0.  0.
         14    1    1    2    0    0  0.12052683768E-01  0.11045998242E-01 -0.17637072135E-01  0.24048858116E-01  0.00000000000E+00 0. -1.
     999901    1    3    3    0    0 -0.58892949147E-01 -0.10849783906E+00 -0.51682076760E-01  0.89011864243E+00  0.88000000000E+00 0. -1.
        -11    1    4    4    0    0  0.13309936596E-01  0.32442942975E-01  0.32740125020E-01  0.47977868527E-01  0.51100000000E-03 0. -1.
         11    1    4    4    0    0  0.33530328783E-01  0.65008897846E-01  0.36579023876E-01  0.81784630929E-01  0.51100000000E-03 0.  1.
</event>
<event>
 8    1  0.1010879E+005  0.1043930E+01  0.7957747E-01            NaN
         13   -1    0    0    0    0  0.00000000000E+00  0.00000000000E+00  0.74505805969E-08  0.10566000000E+00  0.10566000000E+00 0. -1.
     999900   -1    0    0    0    0 -0.00000000000E+00 -0.00000000000E+00 -0.74505805969E-08  0.93827000000E+00  0.93827000000E+00 0.  1.
     999902    2    1    2    0    0 -0.99968230713E-02 -0.18716739801E-01  0.11323958783E-01  0.10198782877E+01  0.10195946434E+01 0.  0.
     999903    2    3    3    0    0  0.10955012892E+00  0.40010546809E-01  0.51142261218E-01  0.12896534859E+00  0.20358183904E-01 0.  0.
         14    1    1    2    0    0  0.99968230713E-02  0.18716739801E-01 -0.11323958783E-01  0.24051712264E-01  0.00000000000E+00 0.  1.
     999901    1    3    3    0    0 -0.11954695200E+00 -0.58727286610E-01 -0.39818302436E-01  0.89091293914E+00  0.88000000000E+00 0.  1.
        -11    1    4    4    0    0  0.51522231354E-01  0.10781042236E-01  0.30250183890E-01  0.60713309429E-01  0.51100000000E-03 0.  1.
         11    1    4    4    0    0  0.58027897570E-01  0.29229504573E-01  0.20892077329E-01  0.68252039164E-01  0.51100000000E-03 0. -1.
</event>
<event>
 8    1  0.1010879E+005  0.1043930E+01  0.7957747E-01            NaN
         13   -1    0    0    0    0  0.00000000000E+00  0.00000000000E+00  0.74505805969E-08  0.10566000000E+00  0.10566000000E+00 0. -1.
     999900   -1    0    0    0    0 -0.00000000000E+00 -0.00000000000E+00 -0.74505805969E-08  0.93827000000E+00  0.93827000000E+00 0.  1.
     999902    2    1    2    0    0 -0.15647992372E-01 -0.82905841897E-02  0.87713971198E-02  0.10241681464E+01  0.10239774710E+01 0.  0.
     999903    2    3    3    0    0 -0.44662701030E-01 -0.40480206962E-01 -0.11801706198E+00  0.13402583275E+00  0.20037287915E-01 0.  0.
         14    1    1    2    0    0  0.15647992372E-01  0.82905841897E-02 -0.87713971198E-02  0.19761853631E-01  0.00000000000E+00 0.  1.
     999901    1    3    3    0    0  0.29014708658E-01  0.32189622772E-01  0.12678845910E+00  0.89014231362E+00  0.88000000000E+00 0.  1.
        -11    1    4    4    0    0 -0.28805700067E-01 -0.16438961325E-01 -0.48304538350E-01  0.58596905652E-01  0.51100000000E-03 0. -1.
         11    1    4    4    0    0 -0.15857000964E-01 -0.24041245637E-01 -0.69712523631E-01  0.75428927099E-01  0.51100000000E-03 0.  1.
</event>
<event>
 8    1  0.1010879E+005  0.1043930E+01  0.7957747E-01            NaN
         13   -1    0    0    0    0  0.00000000000E+00  0.00000000000E+00  0.74505805969E-08  0.10566000000E+00  0.10566000000E+00 0. -1.
     999900   -1    0    0    0    0 -0.00000000000E+00 -0.00000000000E+00 -0.74505805969E-08  0.93827000000E+00  0.93827000000E+00 0. -1.
     999902    2    1    2    0    0  0.20091904755E-01  0.52444024603E-02  0.11262499486E-01  0.10203072929E+01  0.10200337934E+01 0.  0.
     999903    2    3    3    0    0  0.89081550633E-01  0.95083585462E-01 -0.14929763240E-01  0.13266058132E+00  0.19988024352E-01 0.  0.
         14    1    1    2    0    0 -0.20091904755E-01 -0.52444024603E-02 -0.11262499486E-01  0.23622707053E-01  0.00000000000E+00 0.  1.
     999901    1    3    3    0    0 -0.68989645878E-01 -0.89839183002E-01  0.26192262725E-01  0.88764671163E+00  0.88000000000E+00 0.  1.
        -11    1    4    4    0    0  0.73814092690E-01  0.79539321300E-01 -0.19858624151E-01  0.11031613657E+00  0.51100000000E-03 0. -1.
         11    1    4    4    0    0  0.15267457943E-01  0.15544264162E-01  0.49288609116E-02  0.22344444752E-01  0.51100000000E-03 0.  1.
</event>
<event>
 8    1  0.1010879E+005  0.1043930E+01  0.7957747E-01            NaN
         13   -1    0    0    0    0  0.00000000000E+00  0.00000000000E+00  0.74505805969E-08  0.10566000000E+00  0.10566000000E+00 0. -1.
     999900   -1    0    0    0    0 -0.00000000000E+00 -0.00000000000E+00 -0.74505805969E-08  0.93827000000E+00  0.93827000000E+00 0.  1.
     999902    2    1    2    0    0 -0.39927089244E-02  0.14982784634E-01 -0.18020449723E-01  0.10201568604E+01  0.10198798251E+01 0.  0.
     999903    2    3    3    0    0 -0.36701109416E-01 -0.39577854808E-01 -0.11926490842E+00  0.13207063524E+00  0.17468723140E-01 0.  0.
         14    1    1    2    0    0  0.39927089244E-02 -0.14982784634E-01  0.18020449723E-01  0.23773139636E-01  0.00000000000E+00 0. -1.
     999901    1    3    3    0    0  0.32708400492E-01  0.54560639441E-01  0.10124445870E+00  0.88808622512E+00  0.88000000000E+00 0. -1.
        -11    1    4    4    0    0 -0.41387866888E-02 -0.29294425005E-02 -0.28103268309E-01  0.28561617588E-01  0.51100000000E-03 0. -1.
         11    1    4    4    0    0 -0.32562322728E-01 -0.36648412307E-01 -0.91161640112E-01  0.10350901765E+00  0.51100000000E-03 0.  1.
</event>
<event>
 8    1  0.1010879E+005  0.1043930E+01  0.7957747E-01            NaN
         13   -1    0    0    0    0  0.00000000000E+00  0.00000000000E+00  0.74505805969E-08  0.10566000000E+00  0.10566000000E+00 0. -1.
     999900   -1    0    0    0    0 -0.00000000000E+00 -0.00000000000E+00 -0.74505805969E-08  0.93827000000E+00  0.93827000000E+00 0. -1.
     999902    2    1    2    0    0  0.22468762187E-01 -0.53598761909E-02 -0.30351057325E-02  0.10206322444E+01  0.10203663033E+01 0.  0.
     999903    2    3    3    0    0 -0.14119929900E-01  0.12209478786E+00 -0.36871380962E-01  0.13005472548E+00  0.21171283417E-01 0.  0.
         14    1    1    2    0    0 -0.22468762187E-01  0.53598761909E-02  0.30351057325E-02  0.23297755553E-01  0.00000000000E+00 0.  1.
     999901    1    3    3    0    0  0.36588692086E-01 -0.12745466405E+00  0.33836275230E-01  0.89057751897E+00  0.88000000000E+00 0. -1.
        -11    1    4    4    0    0 -0.39604063304E-02  0.78963192088E-01 -0.32645949841E-01  0.85538819754E-01  0.51100000000E-03 0. -1.
         11    1    4    4    0    0 -0.10159523569E-01  0.43131595772E-01 -0.42254311216E-02  0.44515905721E-01  0.51100000000E-03 0.  1.
</event>
<event>
 8    1  0.1010879E+005  0.1043930E+01  0.7957747E-01            NaN
         13   -1    0    0    0    0  0.00000000000E+00  0.00000000000E+00  0.74505805969E-08  0.10566000000E+00  0.10566000000E+00 0. -1.
     999900   -1    0    0    0    0 -0.00000000000E+00 -0.00000000000E+00 -0.74505805969E-08  0.93827000000E+00  0.93827000000E+00 0. -1.
     999902    2    1    2    0    0  0.15041470720E-01  0.14785552909E-01 -0.84310433994E-02  0.10212156673E+01  0.10209630249E+01 0.  0.
     999903    2    3    3    0    0  0.12215386287E+00  0.27158891992E-01  0.40843071476E-01  0.13326628674E+00  0.20798439067E-01 0.  0.
         14    1    1    2    0    0 -0.15041470720E-01 -0.14785552909E-01  0.84310433994E-02  0.22714332679E-01  0.00000000000E+00 0. -1.
     999901    1    3    3    0    0 -0.10711239215E+00 -0.12373339083E-01 -0.49274114875E-01  0.88794938058E+00  0.88000000000E+00 0. -1.
        -11    1    4    4    0    0  0.10834695089E-01  0.22721088424E-02 -0.22883093356E-02  0.11315943482E-01  0.51100000000E-03 0.  1.
         11    1    4    4    0    0  0.11131916778E+00  0.24886783150E-01  0.43131380811E-01  0.12195034326E+00  0.51100000000E-03 0. -1.
</event>
<event>
 8    1  0.1010879E+005  0.1043930E+01  0.7957747E-01            NaN
         13   -1    0    0    0    0  0.00000000000E+00  0.00000000000E+00  0.74505805969E-08  0.10566000000E+00  0.10566000000E+00 0.  1.
     999900   -1    0    0    0    0 -0.00000000000E+00 -0.00000000000E+00 -0.74505805969E-08  0.93827000000E+00  0.93827000000E+00 0.  1.
     999902    2    1    2    0    0 -0.81754293386E-02  0.98974524302E-02  0.20135218878E-01  0.10200506313E+01  0.10197710852E+01 0.  0.
     999903    2    3    3    0    0 -0.22618868547E-01 -0.12453552974E+00 -0.14145765664E-01  0.12906464628E+00  0.20901407859E-01 0.  0.
         14    1    1    2    0    0  0.81754293386E-02 -0.98974524302E-02 -0.20135218878E-01  0.23879368684E-01  0.00000000000E+00 0. -1.
     999901    1    3    3    0    0  0.14443439208E-01  0.13443298217E+00  0.34280984541E-01  0.89098598504E+00  0.88000000000E+00 0.  1.
        -11    1    4    4    0    0 -0.18285498272E-01 -0.11033924603E+00 -0.18983461365E-01  0.11344488348E+00  0.51100000000E-03 0.  1.
         11    1    4    4    0    0 -0.43333702747E-02 -0.14196283708E-01  0.48376957018E-02  0.15619762795E-01  0.51100000000E-03 0. -1.
</event>
<event>
 8    1  0.1010879E+005  0.1043930E+01  0.7957747E-01            NaN
         13   -1    0    0    0    0  0.00000000000E+00  0.00000000000E+00  0.74505805969E-08  0.10566000000E+00  0.10566000000E+00 0.  1.
     999900   -1    0    0    0    0 -0.00000000000E+00 -0.00000000000E+00 -0.74505805969E-08  0.93827000000E+00  0.93827000000E+00 0. -1.
     999902    2    1    2    0    0  0.22454172206E-01 -0.55076460119E-02  0.70945459177E-02  0.10197461915E+01  0.10194593854E+01 0.  0.
     999903    2    3    3    0    0  0.93239390188E-01  0.81581053392E-01  0.40968106519E-01  0.13197234257E+00  0.19729705959E-01 0.  0.
         14    1    1    2    0    0 -0.22454172206E-01  0.55076460119E-02 -0.70945459177E-02  0.24183808547E-01  0.00000000000E+00 0. -1.
     999901    1    3    3    0    0 -0.70785217982E-01 -0.87088699404E-01 -0.33873560601E-01  0.88777384888E+00  0.88000000000E+00 0.  1.
        -11    1    4    4    0    0  0.30106921756E-01  0.38859937727E-01  0.14051957483E-01  0.51129640404E-01  0.51100000000E-03 0. -1.
         11    1    4    4    0    0  0.63132468432E-01  0.42721115665E-01  0.26916149036E-01  0.80842702168E-01  0.51100000000E-03 0.  1.
</event>
<event>
 8    1  0.1010879E+005  0.1043930E+01  0.7957747E-01            NaN
         13   -1    0    0    0    0  0.00000000000E+00  0.00000000000E+00  0.74505805969E-08  0.10566000000E+00  0.10566000000E+00 0.  1.
     999900   -1    0    0    0    0 -0.00000000000E+00 -0.00000000000E+00 -0.74505805969E-08  0.93827000000E+00  0.93827000000E+00 0.  1.
     999902    2    1    2    0    0 -0.17296557134E-01 -0.90812964962E-02 -0.12766420097E-01  0.10205928554E+01  0.10203260039E+01 0.  0.
     999903    2    3    3    0    0 -0.11688835336E+00  0.31881603754E-01  0.48297096210E-01  0.13192799278E+00  0.19825790496E-01 0.  0.
         14    1    1    2    0    0  0.17296557134E-01  0.90812964962E-02  0.12766420097E-01  0.23337144573E-01  0.00000000000E+00 0.  1.
     999901    1    3    3    0    0  0.99591796225E-01 -0.40962900251E-01 -0.61063516307E-01  0.88866486264E+00  0.88000000000E+00 0. -1.
        -11    1    4    4    0    0 -0.31397707621E-01  0.67481542089E-02  0.22306685732E-01  0.39105024977E-01  0.51100000000E-03 0.  1.
         11    1    4    4    0    0 -0.85490645738E-01  0.25133449545E-01  0.25990410478E-01  0.92822967807E-01  0.51100000000E-03 0. -1.
</event>
<event>
 8    1  0.1010879E+005  0.1043930E+01  0.7957747E-01            NaN
         13   -1    0    0    0    0  0.00000000000E+00  0.00000000000E+00  0.74505805969E-08  0.10566000000E+00  0.10566000000E+00 0.  1.
     999900   -1    0    0    0    0 -0.00000000000E+00 -0.00000000000E+00 -0.74505805969E-08  0.93827000000E+00  0.93827000000E+00 0.  1.
     999902    2    1    2    0    0 -0.37768716314E-02 -0.63713342971E-02  0.22477051460E-01  0.10202640645E+01  0.10199895513E+01 0.  0.
     999903    2    3    3    0    0 -0.69762503478E-01  0.16489995201E-01  0.11038654319E+00  0.13313114170E+00  0.19999628512E-01 0.  0.
         14    1    1    2    0    0  0.37768716314E-02  0.63713342971E-02 -0.22477051460E-01  0.23665935485E-01  0.00000000000E+00 0. -1.
     999901    1    3    3    0    0  0.65985631847E-01 -0.22861329498E-01 -0.87909491731E-01  0.88713292281E+00  0.88000000000E+00 0.  1.
        -11    1    4    4    0    0 -0.61548377374E-01  0.11667291087E-01  0.82047473818E-01  0.10322973176E+00  0.51100000000E-03 0. -1.
         11    1    4    4    0    0 -0.82141261041E-02  0.48227041139E-02  0.28339069374E-01  0.29901409943E-01  0.51100000000E-03 0.  1.
</event>
<event>
 8    1  0.1010879E+005  0.1043930E+01  0.7957747E-01            NaN
         13   -1    0    0    0    0  0.00000000000E+00  0.00000000000E+00  0.74505805969E-08  0.10566000000E+00  0.10566000000E+00 0.  1.
     999900   -1    0    0    0    0 -0.00000000000E+00 -0.00000000000E+00 -0.74505805969E-08  0.93827000000E+00  0.93827000000E+00 0. -1.
     999902    2    1    2    0    0  0.95228545506E-02  0.94443111480E-02  0.19947613884E-01  0.10198927982E+01  0.10196095001E+01 0.  0.
     999903    2    3    3    0    0  0.12516546794E+00 -0.30888374968E-01  0.15672846564E-01  0.13140069735E+00  0.20000476769E-01 0.  0.
         14    1    1    2    0    0 -0.95228545506E-02 -0.94443111480E-02 -0.19947613884E-01  0.24037201824E-01  0.00000000000E+00 0. -1.
     999901    1    3    3    0    0 -0.11564261339E+00  0.40332686116E-01  0.42747673200E-02  0.88849210083E+00  0.88000000000E+00 0. -1.
        -11    1    4    4    0    0  0.29343508579E-01 -0.13356125818E-01 -0.23647599417E-02  0.32330802699E-01  0.51100000000E-03 0.  1.
         11    1    4    4    0    0  0.95821959361E-01 -0.17532249150E-01  0.18037606506E-01  0.99069894648E-01  0.51100000000E-03 0. -1.
</event>
<event>
 8    1  0.1010879E+005  0.1043930E+01  0.7957747E-01            NaN
         13   -1    0    0    0    0  0.00000000000E+00  0.00000000000E+00  0.74505805969E-08  0.10566000000E+00  0.10566000000E+00 0.  1.
     999900   -1    0    0    0    0 -0.00000000000E+00 -0.00000000000E+00 -0.74505805969E-08  0.93827000000E+00  0.93827000000E+00 0. -1.
     999902    2    1    2    0    0 -0.19057239427E-01  0.10190450832E-01 -0.11272079810E-01  0.10195561729E+01  0.10192647871E+01 0.  0.
     999903    2    3    3    0    0 -0.65510110358E-01 -0.44911262309E-01 -0.10373848409E+00  0.13178136819E+00  0.17206390687E-01 0.  0.
         14    1    1    2    0    0  0.19057239427E-01 -0.10190450832E-01  0.11272079810E-01  0.24373827069E-01  0.00000000000E+00 0.  1.
     999901    1    3    3    0    0  0.46452870930E-01  0.55101713141E-01  0.92466404278E-01  0.88777480474E+00  0.88000000000E+00 0.  1.
        -11    1    4    4    0    0 -0.63466694269E-01 -0.43770225587E-01 -0.93111984076E-01  0.12088819888E+00  0.51100000000E-03 0. -1.
         11    1    4    4    0    0 -0.20434160881E-02 -0.11410367223E-02 -0.10626500012E-01  0.10893169310E-01  0.51100000000E-03 0.  1.
</event>
<event>
 8    1  0.1010879E+005  0.1043930E+01  0.7957747E-01            NaN
         13   -1    0    0    0    0  0.00000000000E+00  0.00000000000E+00  0.74505805969E-08  0.10566000000E+00  0.10566000000E+00 0. -1.
     999900   -1    0    0    0    0 -0.00000000000E+00 -0.00000000000E+00 -0.74505805969E-08  0.93827000000E+00  0.93827000000E+00 0. -1.
     999902    2    1    2    0    0 -0.22621223733E-01 -0.92519177367E-02  0.88369010938E-03  0.10194739444E+01  0.10191805653E+01 0.  0.
     999903    2    3    3    0    0 -0.10565741931E+00  0.66006012981E-01 -0.37631038081E-01  0.13153129416E+00  0.19081465141E-01 0.  0.
         14    1    1    2    0    0  0.22621223733E-01  0.92519177367E-02 -0.88369010938E-03  0.24456055553E-01  0.00000000000E+00 0.  1.
     999901    1    3    3    0    0  0.83036195575E-01 -0.75257930718E-01  0.38514728190E-01  0.88794265029E+00  0.88000000000E+00 0. -1.
        -11    1    4    4    0    0 -0.65184744999E-01  0.29657604947E-01 -0.22413542212E-01  0.75041671805E-01  0.51100000000E-03 0.  1.
         11    1    4    4    0    0 -0.40472674309E-01  0.36348408034E-01 -0.15217495869E-01  0.56489622356E-01  0.51100000000E-03 0. -1.
</event>
<event>
 8    1  0.1010879E+005  0.1043930E+01  0.7957747E-01            NaN
         13   -1    0    0    0    0  0.00000000000E+00  0.00000000000E+00  0.74505805969E-08  0.10566000000E+00  0.10566000000E+00 0.  1.
     999900   -1    0    0    0    0 -0.00000000000E+00 -0.00000000000E+00 -0.74505805969E-08  0.93827000000E+00  0.93827000000E+00 0. -1.
     999902    2    1    2    0    0 -0.83081149034E-02 -0.19754757546E-01 -0.98821027811E-02  0.10203306107E+01  0.10200576572E+01 0.  0.
     999903    2    3    3    0    0 -0.11818905161E+00 -0.47071413693E-02  0.52848927006E-01  0.13115378179E+00  0.20432725991E-01 0.  0.
         14    1    1    2    0    0  0.83081149034E-02  0.19754757546E-01  0.98821027811E-02  0.23599389278E-01  0.00000000000E+00 0.  1.
     999901    1    3    3    0    0  0.10988093671E+00 -0.15047616176E-01 -0.62731029787E-01  0.88917682893E+00  0.88000000000E+00 0. -1.
        -11    1    4    4    0    0 -0.10558836112E+00 -0.67146602496E-02  0.40207893888E-01  0.11318535469E+00  0.51100000000E-03 0. -1.
         11    1    4    4    0    0 -0.12600690500E-01  0.20075188803E-02  0.12641033118E-01  0.17968427099E-01  0.51100000000E-03 0.  1.
</event>
<event>
 8    1  0.1010879E+005  0.1043930E+01  0.7957747E-01            NaN
         13   -1    0    0    0    0  0.00000000000E+00  0.00000000000E+00  0.74505805969E-08  0.10566000000E+00  0.10566000000E+00 0. -1.
     999900   -1    0    0    0    0 -0.00000000000E+00 -0.00000000000E+00 -0.74505805969E-08  0.93827000000E+00  0.93827000000E+00 0.  1.
     999902    2    1    2    0    0  0.14859709908E-01  0.14546249410E-01 -0.10562936802E-01  0.10206066215E+01  0.10203400883E+01 0.  0.
     999903    2    3    3    0    0  0.98789954357E-01 -0.45315848362E-01  0.70579914574E-01  0.13088086656E+00  0.18311081235E-01 0.  0.
         14    1    1    2    0    0 -0.14859709908E-01 -0.14546249410E-01  0.10562936802E-01  0.23323378494E-01  0.00000000000E+00 0. -1.
     999901    1    3    3    0    0 -0.83930244449E-01  0.59862097773E-01 -0.81142851376E-01  0.88972575494E+00  0.88000000000E+00 0.  1.
        -11    1    4    4    0    0  0.66250344673E-01 -0.25051718959E-01  0.36976331382E-01  0.79901232753E-01  0.51100000000E-03 0. -1.
         11    1    4    4    0    0  0.32539609684E-01 -0.20264129404E-01  0.33603583192E-01  0.50979633808E-01  0.51100000000E-03 0.  1.
</event>
<event>
 8    1  0.1010879E+005  0.1043930E+01  0.7957747E-01            NaN
         13   -1    0    0    0    0  0.00000000000E+00  0.00000000000E+00  0.74505805969E-08  0.10566000000E+00  0.10566000000E+00 0.  1.
     999900   -1    0    0    0    0 -0.00000000000E+00 -0.00000000000E+00 -0.74505805969E-08  0.93827000000E+00  0.93827000000E+00 0. -1.
     999902    2    1    2    0    0 -0.13161523663E-01  0.14426698413E-01  0.13207695346E-01  0.10203546199E+01  0.10200822279E+01 0.  0.
     999903    2    3    3    0    0 -0.12424516048E+00  0.13514657334E-01  0.41863925089E-01  0.13290795347E+00  0.17100584962E-01 0.  0.
         14    1    1    2    0    0  0.13161523663E-01 -0.14426698413E-01 -0.13207695346E-01  0.23575380137E-01  0.00000000000E+00 0.  1.
     999901    1    3    3    0    0  0.11108363682E+00  0.91204107958E-03 -0.28656229743E-01  0.88744666639E+00  0.88000000000E+00 0.  1.
        -11    1    4    4    0    0 -0.73699904211E-01  0.16323277973E-01  0.23658254657E-01  0.79108150142E-01  0.51100000000E-03 0. -1.
         11    1    4    4    0    0 -0.50545256270E-01 -0.28086206389E-02  0.18205670432E-01  0.53799803328E-01  0.51100000000E-03 0.  1.
</event>
<event>
 7    1  0.1711350E+005  0.1043930E+01  0.7957747E-01            NaN
         13   -1    0    0    0    0  0.00000000000E+00  0.00000000000E+00  0.74505805969E-08  0.10566000000E+00  0.10566000000E+00 0.  1.
     999900   -1    0    0    0    0 -0.00000000000E+00 -0.00000000000E+00 -0.74505805969E-08  0.93827000000E+00  0.93827000000E+00 0. -1.
     999903    2    1    2    0    0  0.51077852466E-01 -0.93625890126E-01 -0.46601427183E-01  0.11813900290E+00  0.20257755958E-01 0.  0.
         14    1    1    2    0    0  0.95203169578E-02  0.13208755653E-01  0.36526996834E-01  0.39991613604E-01  0.00000000000E+00 0.  1.
     999901    1    1    2    0    0 -0.60598169424E-01  0.80417134473E-01  0.10074430348E-01  0.88579938350E+00  0.88000000000E+00 0.  1.
        -11    1    3    3    0    0  0.24454067072E-01 -0.25912137791E-01 -0.18402427570E-01  0.40104248438E-01  0.51100000000E-03 0. -1.
         11    1    3    3    0    0  0.26623785394E-01 -0.67713752335E-01 -0.28198999613E-01  0.78034754463E-01  0.51100000000E-03 0.  1.
</event>
<event>
 8    1  0.1010879E+005  0.1043930E+01  0.7957747E-01            NaN
         13   -1    0    0    0    0  0.00000000000E+00  0.00000000000E+00  0.74505805969E-08  0.10566000000E+00  0.10566000000E+00 0.  1.
     999900   -1    0    0    0    0 -0.00000000000E+00 -0.00000000000E+00 -0.74505805969E-08  0.93827000000E+00  0.93827000000E+00 0.  1.
     999902    2    1    2    0    0 -0.13641782812E-01 -0.18714032209E-01 -0.11548890799E-02  0.10207427835E+01  0.10204793889E+01 0.  0.
     999903    2    3    3    0    0 -0.10323564421E+00  0.60378111595E-01  0.50818765011E-01  0.13114518463E+00  0.17703049982E-01 0.  0.
         14    1    1    2    0    0  0.13641782812E-01  0.18714032209E-01  0.11548890799E-02  0.23187216491E-01  0.00000000000E+00 0. -1.
     999901    1    3    3    0    0  0.89593861399E-01 -0.79092143805E-01 -0.51973654091E-01  0.88959759888E+00  0.88000000000E+00 0.  1.
        -11    1    4    4    0    0 -0.52159196686E-01  0.21290343907E-01  0.27861019207E-01  0.62851873917E-01  0.51100000000E-03 0.  1.
         11    1    4    4    0    0 -0.51076447525E-01  0.39087767688E-01  0.22957745803E-01  0.68293310712E-01  0.51100000000E-03 0. -1.
</event>
<event>
 8    1  0.1010879E+005  0.1043930E+01  0.7957747E-01            NaN
         13   -1    0    0    0    0  0.00000000000E+00  0.00000000000E+00  0.74505805969E-08  0.10566000000E+00  0.10566000000E+00 0.  1.
     999900   -1    0    0    0    0 -0.00000000000E+00 -0.00000000000E+00 -0.74505805969E-08  0.93827000000E+00  0.93827000000E+00 0. -1.
     999902    2    1    2    0    0 -0.23765089316E-02  0.46574680642E-02 -0.22858739664E-01  0.10204808682E+01  0.10202114195E+01 0.  0.
     999903    2    3    3    0    0  0.10668883585E+00 -0.50110756808E-01  0.48839120972E-01  0.12916981637E+00  0.20149096234E-01 0.  0.
         14    1    1    2    0    0  0.23765089316E-02 -0.46574680642E-02  0.22858739664E-01  0.23449131807E-01  0.00000000000E+00 0.  1.
     999901    1    3    3    0    0 -0.10906534478E+00  0.54768224873E-01 -0.71697860637E-01  0.89131105183E+00  0.88000000000E+00 0. -1.
        -11    1    4    4    0    0  0.57325241599E-01 -0.36172481773E-01  0.33610587600E-01  0.75660851712E-01  0.51100000000E-03 0. -1.
         11    1    4    4    0    0  0.49363594254E-01 -0.13938275036E-01  0.15228533373E-01  0.53508964654E-01  0.51100000000E-03 0.  1.
</event>
<event>
 8    1  0.1010879E+005  0.1043930E+01  0.7957747E-01            NaN
         13   -1    0    0    0    0  0.00000000000E+00  0.00000000000E+00  0.74505805969E-08  0.10566000000E+00  0.10566000000E+00 0. -1.
     999900   -1    0    0    0    0 -0.00000000000E+00 -0.00000000000E+00 -0.74505805969E-08  0.93827000000E+00  0.93827000000E+00 0.  1.
     999902    2    1    2    0    0  0.18073011737E-01 -0.13527914051E-01 -0.17600050635E-02  0.10212863291E+01  0.10210352738E+01 0.  0.
     999903    2    3    3    0    0 -0.15610763952E-01  0.43442555361E-01  0.11990712466E+00  0.13045350444E+00  0.22570926173E-01 0.  0.
         14    1    1    2    0    0 -0.18073011737E-01  0.13527914051E-01  0.17600050635E-02  0.22643670852E-01  0.00000000000E+00 0. -1.
     999901    1    3    3    0    0  0.33683775689E-01 -0.56970469412E-01 -0.12166712972E+00  0.89083282471E+00  0.88000000000E+00 0.  1.
        -11    1    4    4    0    0 -0.19410782486E-01  0.21884923912E-01  0.62382254775E-01  0.68902359924E-01  0.51100000000E-03 0.  1.
         11    1    4    4    0    0  0.38000185342E-02  0.21557631450E-01  0.57524869884E-01  0.61551144512E-01  0.51100000000E-03 0. -1.
</event>
<event>
 8    1  0.1010879E+005  0.1043930E+01  0.7957747E-01            NaN
         13   -1    0    0    0    0  0.00000000000E+00  0.00000000000E+00  0.74505805969E-08  0.10566000000E+00  0.10566000000E+00 0.  1.
     999900   -1    0    0    0    0 -0.00000000000E+00 -0.00000000000E+00 -0.74505805969E-08  0.93827000000E+00  0.93827000000E+00 0. -1.
     999902    2    1    2    0    0 -0.19580393792E-01  0.13225001168E-01 -0.20408734316E-02  0.10202138106E+01  0.10199381166E+01 0.  0.
     999903    2    3    3    0    0  0.70485997341E-02 -0.12040255831E+00 -0.40780291500E-01  0.12888549257E+00  0.20049419287E-01 0.  0.
         14    1    1    2    0    0  0.19580393792E-01 -0.13225001168E-01  0.20408734316E-02  0.23716189435E-01  0.00000000000E+00 0.  1.
     999901    1    3    3    0    0 -0.26628993526E-01  0.13362755948E+00  0.38739418068E-01  0.89132831800E+00  0.88000000000E+00 0.  1.
        -11    1    4    4    0    0 -0.69774317632E-02 -0.33468289089E-01 -0.12222621176E-01  0.36310666724E-01  0.51100000000E-03 0.  1.
         11    1    4    4    0    0  0.14026031497E-01 -0.86934269224E-01 -0.28557670324E-01  0.92574825846E-01  0.51100000000E-03 0. -1.
</event>
<event>
 8    1  0.1010879E+005  0.1043930E+01  0.7957747E-01            NaN
         13   -1    0    0    0    0  0.00000000000E+00  0.00000000000E+00  0.74505805969E-08  0.10566000000E+00  0.10566000000E+00 0.  1.
     999900   -1    0    0    0    0 -0.00000000000E+00 -0.00000000000E+00 -0.74505805969E-08  0.93827000000E+00  0.93827000000E+00 0.  1.
     999902    2    1    2    0    0 -0.65927637905E-02  0.16975686876E-01  0.14486450106E-01  0.10206599395E+01  0.10203946376E+01 0.  0.
     999903    2    3    3    0    0  0.43075231721E-01 -0.30210175539E-01 -0.11539669819E+00  0.12849232766E+00  0.20633710768E-01 0.  0.
         14    1    1    2    0    0  0.65927637905E-02 -0.16975686876E-01 -0.14486450106E-01  0.23270060506E-01  0.00000000000E+00 0. -1.
     999901    1    3    3    0    0 -0.49667995512E-01  0.47185862415E-01  0.12988314830E+00  0.89216761183E+00  0.88000000000E+00 0. -1.
        -11    1    4    4    0    0  0.15294924099E-01 -0.15652273130E-02 -0.45187540336E-01  0.47734259839E-01  0.51100000000E-03 0.  1.
         11    1    4    4    0    0  0.27780307623E-01 -0.28644948226E-01 -0.70209157857E-01  0.80758067823E-01  0.51100000000E-03 0. -1.
</event>
<event>
 8    1  0.1010879E+005  0.1043930E+01  0.7957747E-01            NaN
         13   -1    0    0    0    0  0.00000000000E+00  0.00000000000E+00  0.74505805969E-08  0.10566000000E+00  0.10566000000E+00 0. -1.
     999900   -1    0    0    0    0 -0.00000000000E+00 -0.00000000000E+00 -0.74505805969E-08  0.93827000000E+00  0.93827000000E+00 0. -1.
     999902    2    1    2    0    0  0.12344464544E-01  0.17622111944E-01 -0.12068089351E-01  0.10192609219E+01  0.10189623464E+01 0.  0.
     999903    2    3    3    0    0 -0.48856524668E-01 -0.11397626734E+00  0.13777250018E-01  0.12699881013E+00  0.23692522798E-01 0.  0.
         14    1    1    2    0    0 -0.12344464544E-01 -0.17622111944E-01  0.12068089351E-01  0.24669078111E-01  0.00000000000E+00 0. -1.
     999901    1    3    3    0    0  0.61200989212E-01  0.13159837929E+00 -0.25845339368E-01  0.89226211176E+00  0.88000000000E+00 0. -1.
        -11    1    4    4    0    0 -0.36780541555E-01 -0.10091231324E+00  0.17478562391E-01  0.10882033112E+00  0.51100000000E-03 0.  1.
         11    1    4    4    0    0 -0.12075983113E-01 -0.13063954107E-01 -0.37013123729E-02  0.18178479016E-01  0.51100000000E-03 0. -1.
</event>
<event>
 8    1  0.1010879E+005  0.1043930E+01  0.7957747E-01            NaN
         13   -1    0    0    0    0  0.00000000000E+00  0.00000000000E+00  0.74505805969E-08  0.10566000000E+00  0.10566000000E+00 0.  1.
     999900   -1    0    0    0    0 -0.00000000000E+00 -0.00000000000E+00 -0.74505805969E-08  0.93827000000E+00  0.93827000000E+00 0.  1.
     999902    2    1    2    0    0  0.71613695480E-02 -0.86593628773E-02 -0.18305262504E-01  0.10224508842E+01  0.10222252483E+01 0.  0.
     999903    2    3    3    0    0 -0.11363205525E+00  0.62162883286E-01 -0.78395437522E-02  0.13131881023E+00  0.20166889591E-01 0.  0.
         14    1    1    2    0    0 -0.71613695480E-02  0.86593628773E-02  0.18305262504E-01  0.21479115777E-01  0.00000000000E+00 0.  1.
     999901    1    3    3    0    0  0.12079342480E+00 -0.70822246163E-01 -0.10465718752E-01  0.89113207399E+00  0.88000000000E+00 0. -1.
        -11    1    4    4    0    0 -0.59429441032E-01  0.26709373519E-01 -0.12636250794E-01  0.66371568086E-01  0.51100000000E-03 0. -1.
         11    1    4    4    0    0 -0.54202614218E-01  0.35453509767E-01  0.47967070418E-02  0.64947242146E-01  0.51100000000E-03 0.  1.
</event>
<event>
 8    1  0.1010879E+005  0.1043930E+01  0.7957747E-01            NaN
         13   -1    0    0    0    0  0.00000000000E+00  0.00000000000E+00  0.74505805969E-08  0.10566000000E+00  0.10566000000E+00 0. -1.
     999900   -1    0    0    0    0 -0.00000000000E+00 -0.00000000000E+00 -0.74505805969E-08  0.93827000000E+00  0.93827000000E+00 0.  1.
     999902    2    1    2    0    0 -0.92305734844E-02 -0.10579454354E-01  0.18630425176E-01  0.10206014535E+01  0.10203348008E+01 0.  0.
     999903    2    3    3    0    0 -0.47085963052E-01 -0.11824111032E+00 -0.22411608590E-01  0.13228365491E+00  0.28260167566E-01 0.  0.
         14    1    1    2    0    0  0.92305734844E-02  0.10579454354E-01 -0.18630425176E-01  0.23328546536E-01  0.00000000000E+00 0.  1.
     999901    1    3    3    0    0  0.37855389567E-01  0.10766165597E+00  0.41042033765E-01  0.88831779855E+00  0.88000000000E+00 0. -1.
        -11    1    4    4    0    0 -0.18027249029E-01 -0.26919993470E-01  0.45705195584E-02  0.32723363611E-01  0.51100000000E-03 0.  1.
         11    1    4    4    0    0 -0.29058714023E-01 -0.91321116852E-01 -0.26982128148E-01  0.99560291302E-01  0.51100000000E-03 0. -1.
</event>
<event>
 8    1  0.1010879E+005  0.1043930E+01  0.7957747E-01            NaN
         13   -1    0    0    0    0  0.00000000000E+00  0.00000000000E+00  0.74505805969E-08  0.10566000000E+00  0.10566000000E+00 0.  1.
     999900   -1    0    0    0    0 -0.00000000000E+00 -0.00000000000E+00 -0.74505805969E-08  0.93827000000E+00  0.93827000000E+00 0. -1.
     999902    2    1    2    0    0 -0.96802814950E-02  0.34272415873E-02 -0.20330972288E-01  0.10211527686E+01  0.10208987093E+01 0.  0.
     999903    2    3    3    0    0 -0.11615327816E+00 -0.40604692095E-01  0.41869327207E-01  0.13146507766E+00  0.19740846891E-01 0.  0.
         14    1    1    2    0    0  0.96802814950E-02 -0.34272415873E-02  0.20330972288E-01  0.22777231370E-01  0.00000000000E+00 0.  1.
     999901    1    3    3    0    0  0.10647299667E+00  0.44031933682E-01 -0.62200299495E-01  0.88968769097E+00  0.88000000000E+00 0. -1.
        -11    1    4    4    0    0 -0.22745751329E-01 -0.20312763978E-02  0.23873600569E-02  0.22966407999E-01  0.51100000000E-03 0. -1.
         11    1    4    4    0    0 -0.93407526833E-01 -0.38573415697E-01  0.39481967151E-01  0.10849866966E+00  0.51100000000E-03 0.  1.
</event>
<event>
 8    1  0.1010879E+005  0.1043930E+01  0.7957747E-01            NaN
         13   -1    0    0    0    0  0.00000000000E+00  0.00000000000E+00  0.74505805969E-08  0.10566000000E+00  0.10566000000E+00 0. -1.
     999900   -1    0    0    0    0 -0.00000000000E+00 -0.00000000000E+00 -0.74505805969E-08  0.93827000000E+00  0.93827000000E+00 0.  1.
     999902    2    1    2    0    0 -0.18636346290E-01 -0.46919321803E-03 -0.14467668304E-01  0.10203323948E+01  0.10200594830E+01 0.  0.
     999903    2    3    3    0    0  0.53837357420E-01  0.64153869333E-01  0.95117419093E-01  0.12823516393E+00  0.19564095886E-01 0.  0.
         14    1    1    2    0    0  0.18636346290E-01  0.46919321803E-03  0.14467668304E-01  0.23597605206E-01  0.00000000000E+00 0. -1.
     999901    1    3    3    0    0 -0.72473703709E-01 -0.64623062551E-01 -0.10958508740E+00  0.89209723087E+00  0.88000000000E+00 0.  1.
        -11    1    4    4    0    0  0.94794623249E-02  0.61985356492E-02  0.22939777654E-01  0.25588602345E-01  0.51100000000E-03 0. -1.
         11    1    4    4    0    0  0.44357895095E-01  0.57955333684E-01  0.72177641439E-01  0.10264656158E+00  0.51100000000E-03 0.  1.
</event>
<event>
 8    1  0.1010879E+005  0.1043930E+01  0.7957747E-01            NaN
         13   -1    0    0    0    0  0.00000000000E+00  0.00000000000E+00  0.74505805969E-08  0.10566000000E+00  0.10566000000E+00 0. -1.
     999900   -1    0    0    0    0 -0.00000000000E+00 -0.00000000000E+00 -0.74505805969E-08  0.93827000000E+00  0.93827000000E+00 0. -1.
     999902    2    1    2    0    0  0.50667151651E-02 -0.19218523420E-01 -0.13564907266E-01  0.10198669588E+01  0.10195830440E+01 0.  0.
     999903    2    3    3    0    0 -0.58601259737E-01 -0.11586502371E+00 -0.14820932302E-01  0.13228837933E+00  0.20536404470E-01 0.  0.
         14    1    1    2    0    0 -0.50667151651E-02  0.19218523420E-01  0.13564907266E-01  0.24063041249E-01  0.00000000000E+00 0. -1.
     999901    1    3    3    0    0  0.63667974903E-01  0.96646500295E-01  0.12560250361E-02  0.88757857942E+00  0.88000000000E+00 0. -1.
        -11    1    4    4    0    0 -0.20610415051E-01 -0.28534962592E-01 -0.11349954375E-01  0.36988050557E-01  0.51100000000E-03 0. -1.
         11    1    4    4    0    0 -0.37990844687E-01 -0.87330061122E-01 -0.34709779270E-02  0.95300328774E-01  0.51100000000E-03 0.  1.
</event>
<event>
 8    1  0.1010879E+005  0.1043930E+01  0.7957747E-01            NaN
         13   -1    0    0    0    0  0.00000000000E+00  0.00000000000E+00  0.74505805969E-08  0.10566000000E+00  0.10566000000E+00 0. -1.
     999900   -1    0    0    0    0 -0.00000000000E+00 -0.00000000000E+00 -0.74505805969E-08  0.93827000000E+00  0.93827000000E+00 0. -1.
     999902    2    1    2    0    0 -0.17939139597E-01 -0.14136338365E-01  0.46066695435E-02  0.10206304250E+01  0.10203644419E+01 0.  0.
     999903    2    3    3    0    0  0.67009803127E-01 -0.10986687341E+00  0.17627293809E-01  0.13127661751E+00  0.19020652713E-01 0.  0.
         14    1    1    2    0    0  0.17939139597E-01  0.14136338365E-01 -0.46066695435E-02  0.23299575021E-01  0.00000000000E+00 0.  1.
     999901    1    3    3    0    0 -0.84948942724E-01  0.95730535043E-01 -0.13020624266E-01  0.88935380747E+00  0.88000000000E+00 0. -1.
        -11    1    4    4    0    0  0.15006177209E-01 -0.41240001108E-01  0.36054940471E-02  0.44036164162E-01  0.51100000000E-03 0.  1.
         11    1    4    4    0    0  0.52003625918E-01 -0.68626872300E-01  0.14021799762E-01  0.87240453345E-01  0.51100000000E-03 0. -1.
</event>
<event>
 8    1  0.1010879E+005  0.1043930E+01  0.7957747E-01            NaN
         13   -1    0    0    0    0  0.00000000000E+00  0.00000000000E+00  0.74505805969E-08  0.10566000000E+00  0.10566000000E+00 0. -1.
     999900   -1    0    0    0    0 -0.00000000000E+00 -0.00000000000E+00 -0.74505805969E-08  0.93827000000E+00  0.93827000000E+00 0. -1.
     999902    2    1    2    0    0 -0.22873668810E-01 -0.12855927160E-01 -0.17079731864E-01  0.10126219047E+01  0.10121377995E+01 0.  0.
     999903    2    3    3    0    0 -0.43962624591E-01 -0.25344373286E-02 -0.11725733057E+00  0.12662708056E+00  0.18601081256E-01 0.  0.
         14    1    1    2    0    0  0.22873668810E-01  0.12855927160E-01  0.17079731864E-01  0.31308095255E-01  0.00000000000E+00 0. -1.
     999901    1    3    3    0    0  0.21088955781E-01 -0.10321489831E-01  0.10017759871E+00  0.88599482419E+00  0.88000000000E+00 0.  1.
        -11    1    4    4    0    0 -0.42558009570E-01 -0.46656524085E-03 -0.93489426596E-01  0.10272261615E+00  0.51100000000E-03 0.  1.
         11    1    4    4    0    0 -0.14046150209E-02 -0.20678720877E-02 -0.23767903975E-01  0.23904464409E-01  0.51100000000E-03 0. -1.
</event>
<event>
 8    1  0.1010879E+005  0.1043930E+01  0.7957747E-01            NaN
         13   -1    0    0    0    0  0.00000000000E+00  0.00000000000E+00  0.74505805969E-08  0.10566000000E+00  0.10566000000E+00 0. -1.
     999900   -1    0    0    0    0 -0.00000000000E+00 -0.00000000000E+00 -0.74505805969E-08  0.93827000000E+00  0.93827000000E+00 0. -1.
     999902    2    1    2    0    0 -0.11722923122E-01  0.20145976551E-01  0.34080660917E-02  0.10203736375E+01  0.10201016900E+01 0.  0.
     999903    2    3    3    0    0 -0.63661343955E-01  0.11365150162E+00 -0.21567774027E-01  0.13354520128E+00  0.19993033114E-01 0.  0.
         14    1    1    2    0    0  0.11722923122E-01 -0.20145976551E-01 -0.34080660917E-02  0.23556362457E-01  0.00000000000E+00 0.  1.
     999901    1    3    3    0    0  0.51938420833E-01 -0.93505525071E-01  0.24975840119E-01  0.88682843626E+00  0.88000000000E+00 0. -1.
        -11    1    4    4    0    0 -0.54049437256E-01  0.99400516835E-01 -0.11779946131E-01  0.11375778069E+00  0.51100000000E-03 0. -1.
         11    1    4    4    0    0 -0.96119066994E-02  0.14250984787E-01 -0.97878278968E-02  0.19787420593E-01  0.51100000000E-03 0.  1.
</event>
<event>
 8    1  0.1010879E+005  0.1043930E+01  0.7957747E-01            NaN
         13   -1    0    0    0    0  0.00000000000E+00  0.00000000000E+00  0.74505805969E-08  0.10566000000E+00  0.10566000000E+00 0.  1.
     999900   -1    0    0    0    0 -0.00000000000E+00 -0.00000000000E+00 -0.74505805969E-08  0.93827000000E+00  0.93827000000E+00 0.  1.
     999902    2    1    2    0    0 -0.19422818659E-01  0.13014108058E-01  0.80140493015E-02  0.10192148654E+01  0.10189151603E+01 0.  0.
     999903    2    3    3    0    0  0.56316362803E-01  0.69554346636E-01 -0.90309871390E-01  0.12870893302E+00  0.20019408405E-01 0.  0.
         14    1    1    2    0    0  0.19422818659E-01 -0.13014108058E-01 -0.80140493015E-02  0.24715134623E-01  0.00000000000E+00 0.  1.
     999901    1    3    3    0    0 -0.75739181462E-01 -0.56540238577E-01  0.98323920691E-01  0.89050593236E+00  0.88000000000E+00 0. -1.
        -11    1    4    4    0    0  0.21346177421E-01  0.41422704055E-01 -0.50459537520E-01  0.68687158549E-01  0.51100000000E-03 0.  1.
         11    1    4    4    0    0  0.34970185382E-01  0.28131642580E-01 -0.39850333869E-01  0.60021774469E-01  0.51100000000E-03 0. -1.
</event>
<event>
 8    1  0.1010879E+005  0.1043930E+01  0.7957747E-01            NaN
         13   -1    0    0    0    0  0.00000000000E+00  0.00000000000E+00  0.74505805969E-08  0.10566000000E+00  0.10566000000E+00 0. -1.
     999900   -1    0    0    0    0 -0.00000000000E+00 -0.00000000000E+00 -0.74505805969E-08  0.93827000000E+00  0.93827000000E+00 0. -1.
     999902    2    1    2    0    0 -0.13382983516E-01 -0.67072213408E-02 -0.16477020976E-01  0.10216683000E+01  0.10214257349E+01 0.  0.
     999903    2    3    3    0    0  0.11963816595E+00 -0.48019924064E-01  0.40983229562E-02  0.13047544188E+00  0.19693674703E-01 0.  0.
         14    1    1    2    0    0  0.13382983516E-01  0.67072213408E-02  0.16477020976E-01  0.22261699984E-01  0.00000000000E+00 0. -1.
     999901    1    3    3    0    0 -0.13302114947E+00  0.41312702723E-01 -0.20575343933E-01  0.89119285813E+00  0.88000000000E+00 0. -1.
        -11    1    4    4    0    0  0.45248828107E-01 -0.28444222987E-01  0.32392752375E-02  0.53547028782E-01  0.51100000000E-03 0. -1.
         11    1    4    4    0    0  0.74389337847E-01 -0.19575701076E-01  0.85904771872E-03  0.76928413099E-01  0.51100000000E-03 0.  1.
</event>
<event>
 8    1  0.1010879E+005  0.1043930E+01  0.7957747E-01            NaN
         13   -1    0    0    0    0  0.00000000000E+00  0.00000000000E+00  0.74505805969E-08  0.10566000000E+00  0.10566000000E+00 0. -1.
     999900   -1    0    0    0    0 -0.00000000000E+00 -0.00000000000E+00 -0.74505805969E-08  0.93827000000E+00  0.93827000000E+00 0. -1.
     999902    2    1    2    0    0 -0.17090030875E-01 -0.36160350912E-03  0.15915898635E-01  0.10205737216E+01  0.10203064272E+01 0.  0.
     999903    2    3    3    0    0  0.18610391743E-01  0.48821258019E-01  0.11974470137E+00  0.13238798969E+00  0.21399168033E-01 0.  0.
         14    1    1    2    0    0  0.17090030875E-01  0.36160350912E-03 -0.15915898635E-01  0.23356278422E-01  0.00000000000E+00 0.  1.
     999901    1    3    3    0    0 -0.35700422617E-01 -0.49182861528E-01 -0.10382880274E+00  0.88818573188E+00  0.88000000000E+00 0. -1.
        -11    1    4    4    0    0  0.64156096681E-03  0.30692063617E-01  0.59431337295E-01  0.66893642024E-01  0.51100000000E-03 0. -1.
         11    1    4    4    0    0  0.17968830776E-01  0.18129194402E-01  0.60313364080E-01  0.65494347670E-01  0.51100000000E-03 0.  1.
</event>
<event>
 8    1  0.1010879E+005  0.1043930E+01  0.7957747E-01            NaN
         13   -1    0    0    0    0  0.00000000000E+00  0.00000000000E+00  0.74505805969E-08  0.10566000000E+00  0.10566000000E+00 0. -1.
     999900   -1    0    0    0    0 -0.00000000000E+00 -0.00000000000E+00 -0.74505805969E-08  0.93827000000E+00  0.93827000000E+00 0.  1.
     999902    2    1    2    0    0  0.18741207119E-01  0.15876522309E-01 -0.23307069215E-02  0.10192575660E+01  0.10189589083E+01 0.  0.
     999903    2    3    3    0    0 -0.50074150691E-01 -0.60714463863E-01  0.98700072709E-01  0.12751267475E+00  0.18003088049E-01 0.  0.
         14    1    1    2    0    0 -0.18741207119E-01 -0.15876522309E-01  0.23307069215E-02  0.24672434003E-01  0.00000000000E+00 0. -1.
     999901    1    3    3    0    0  0.68815357810E-01  0.76590986172E-01 -0.10103077963E+00  0.89174489125E+00  0.88000000000E+00 0. -1.
        -11    1    4    4    0    0 -0.40699388138E-01 -0.55898410558E-01  0.91705398502E-01  0.11485300925E+00  0.51100000000E-03 0.  1.
         11    1    4    4    0    0 -0.93747625528E-02 -0.48160533053E-02  0.69946742072E-02  0.12659665502E-01  0.51100000000E-03 0. -1.
</event>
<event>
 8    1  0.1010879E+005  0.1043930E+01  0.7957747E-01            NaN
         13   -1    0    0    0    0  0.00000000000E+00  0.00000000000E+00  0.74505805969E-08  0.10566000000E+00  0.10566000000E+00 0. -1.
     999900   -1    0    0    0    0 -0.00000000000E+00 -0.00000000000E+00 -0.74505805969E-08  0.93827000000E+00  0.93827000000E+00 0.  1.
     999902    2    1    2    0    0  0.23820369299E-02  0.81066407094E-02  0.21694651173E-01  0.10206480410E+01  0.10203824646E+01 0.  0.
     999903    2    3    3    0    0 -0.34068818775E-01 -0.12174500596E+00 -0.19120233447E-01  0.12943764510E+00  0.20149187399E-01 0.  0.
         14    1    1    2    0    0 -0.23820369299E-02 -0.81066407094E-02 -0.21694651173E-01  0.23281958960E-01  0.00000000000E+00 0.  1.
     999901    1    3    3    0    0  0.36450855705E-01  0.12985164667E+00  0.40814884619E-01  0.89121039594E+00  0.88000000000E+00 0.  1.
        -11    1    4    4    0    0 -0.27946168020E-02 -0.42392672557E-01 -0.10067432462E-01  0.43664206016E-01  0.51100000000E-03 0. -1.
         11    1    4    4    0    0 -0.31274201973E-01 -0.79352333404E-01 -0.90528009851E-02  0.85773439084E-01  0.51100000000E-03 0.  1.
</event>
<event>
 8    1  0.1010879E+005  0.1043930E+01  0.7957747E-01            NaN
         13   -1    0    0    0    0  0.00000000000E+00  0.00000000000E+00  0.74505805969E-08  0.10566000000E+00  0.10566000000E+00 0.  1.
     999900   -1    0    0    0    0 -0.00000000000E+00 -0.00000000000E+00 -0.74505805969E-08  0.93827000000E+00  0.93827000000E+00 0. -1.
     999902    2    1    2    0    0 -0.58590015085E-02 -0.17951616533E-01 -0.13433105013E-01  0.10207559467E+01  0.10204928545E+01 0.  0.
     999903    2    3    3    0    0 -0.41340601884E-01  0.10496113426E+00 -0.62080795595E-01  0.13017575041E+00  0.19126310235E-01 0.  0.
         14    1    1    2    0    0  0.58590015085E-02  0.17951616533E-01  0.13433105013E-01  0.23174053273E-01  0.00000000000E+00 0.  1.
     999901    1    3    3    0    0  0.35481600375E-01 -0.12291275080E+00  0.48647690582E-01  0.89058019632E+00  0.88000000000E+00 0.  1.
        -11    1    4    4    0    0 -0.14771684116E-01  0.56091595885E-01 -0.39292556137E-01  0.70061657626E-01  0.51100000000E-03 0.  1.
         11    1    4    4    0    0 -0.26568917768E-01  0.48869538378E-01 -0.22788239458E-01  0.60114092784E-01  0.51100000000E-03 0. -1.
</event>
<event>
 8    1  0.1010879E+005  0.1043930E+01  0.7957747E-01            NaN
         13   -1    0    0    0    0  0.00000000000E+00  0.00000000000E+00  0.74505805969E-08  0.10566000000E+00  0.10566000000E+00 0. -1.
     999900   -1    0    0    0    0 -0.00000000000E+00 -0.00000000000E+00 -0.74505805969E-08  0.93827000000E+00  0.93827000000E+00 0. -1.
     999902    2    1    2    0    0 -0.16480758304E-01  0.36138688788E-02 -0.16732077625E-01  0.10201678902E+01  0.10198911149E+01 0.  0.
     999903    2    3    3    0    0 -0.12966851167E+00 -0.67013939109E-02 -0.19692884555E-01  0.13285360619E+00  0.20085800385E-01 0.  0.
         14    1    1    2    0    0  0.16480758304E-01 -0.36138688788E-02  0.16732077625E-01  0.23762109843E-01  0.00000000000E+00 0. -1.
     999901    1    3    3    0    0  0.11318775336E+00  0.10315262790E-01  0.29608069300E-02  0.88731428397E+00  0.88000000000E+00 0.  1.
        -11    1    4    4    0    0 -0.84463444669E-01 -0.12229773318E-01 -0.73254383401E-02  0.85659582118E-01  0.51100000000E-03 0. -1.
         11    1    4    4    0    0 -0.45205066997E-01  0.55283794068E-02 -0.12367446215E-01  0.47194024070E-01  0.51100000000E-03 0.  1.
</event>
<event>
 8    1  0.1290504E+005  0.1043930E+01  0.7957747E-01            NaN
         13   -1    0    0    0    0  0.00000000000E+00  0.00000000000E+00  0.74505805969E-08  0.10566000000E+00  0.10566000000E+00 0.  1.
     999900   -1    0    0    0    0 -0.00000000000E+00 -0.00000000000E+00 -0.74505805969E-08  0.93827000000E+00  0.93827000000E+00 0.  1.
     999902    2    1    2    0    0 -0.71447868424E-02 -0.16133009882E-01 -0.15487077704E-01  0.10204529567E+01  0.10201828587E+01 0.  0.
     999903    2    3    3    0    0  0.11278446717E-02 -0.12079574457E-01 -0.13074856826E+00  0.13288883057E+00  0.20422170167E-01 0.  0.
         14    1    1    2    0    0  0.71447868424E-02  0.16133009882E-01  0.15487077704E-01  0.23477043312E-01  0.00000000000E+00 0.  1.
     999901    1    3    3    0    0 -0.82726315141E-02 -0.40534354252E-02  0.11526149056E+00  0.88756412612E+00  0.88000000000E+00 0. -1.
        -11    1    4    4    0    0 -0.83031010370E-02 -0.11611947175E-01 -0.76468033279E-01  0.77790745199E-01  0.51100000000E-03 0.  1.
         11    1    4    4    0    0  0.94309457087E-02 -0.46762728167E-03 -0.54280534982E-01  0.55098085368E-01  0.51100000000E-03 0. -1.
</event>
<event>
 8    1  0.1010879E+005  0.1043930E+01  0.7957747E-01            NaN
         13   -1    0    0    0    0  0.00000000000E+00  0.00000000000E+00  0.74505805969E-08  0.10566000000E+00  0.10566000000E+00 0.  1.
     999900   -1    0    0    0    0 -0.00000000000E+00 -0.00000000000E+00 -0.74505805969E-08  0.93827000000E+00  0.93827000000E+00 0. -1.
     999902    2    1    2    0    0 -0.50966677586E-02 -0.47475360741E-02 -0.21438698373E-01  0.10213881964E+01  0.10211394199E+01 0.  0.
     999903    2    3    3    0    0 -0.99450354410E-01  0.78997520387E-01 -0.31419860558E-01  0.13233506174E+00  0.19858995688E-01 0.  0.
         14    1    1    2    0    0  0.50966677586E-02  0.47475360741E-02  0.21438698373E-01  0.22541803587E-01  0.00000000000E+00 0.  1.
     999901    1    3    3    0    0  0.94353686651E-01 -0.83745056461E-01  0.99811621846E-02  0.88905313467E+00  0.88000000000E+00 0. -1.
        -11    1    4    4    0    0 -0.61522251021E-01  0.60350701801E-01 -0.18605007803E-01  0.88168032840E-01  0.51100000000E-03 0. -1.
         11    1    4    4    0    0 -0.37928103389E-01  0.18646818586E-01 -0.12814852755E-01  0.44167028904E-01  0.51100000000E-03 0.  1.
</event>
<event>
 8    1  0.1010879E+005  0.1043930E+01  0.7957747E-01            NaN
         13   -1    0    0    0    0  0.00000000000E+00  0.00000000000E+00  0.74505805969E-08  0.10566000000E+00  0.10566000000E+00 0.  1.
     999900   -1    0    0    0    0 -0.00000000000E+00 -0.00000000000E+00 -0.74505805969E-08  0.93827000000E+00  0.93827000000E+00 0. -1.
     999902    2    1    2    0    0 -0.14556294892E-01 -0.25462151343E-02 -0.18462037717E-01  0.10202822566E+01  0.10200081702E+01 0.  0.
     999903    2    3    3    0    0 -0.20272872361E-01 -0.10684199630E+00  0.68075951054E-01  0.12988958324E+00  0.20267392390E-01 0.  0.
         14    1    1    2    0    0  0.14556294892E-01  0.25462151343E-02  0.18462037717E-01  0.23647743426E-01  0.00000000000E+00 0.  1.
     999901    1    3    3    0    0  0.57165774692E-02  0.10429578117E+00 -0.86537988771E-01  0.89039267333E+00  0.88000000000E+00 0. -1.
        -11    1    4    4    0    0  0.23069184957E-02 -0.25820572837E-01  0.21887466084E-01  0.33931491968E-01  0.51100000000E-03 0.  1.
         11    1    4    4    0    0 -0.22579790857E-01 -0.81021423466E-01  0.46188484971E-01  0.95958091271E-01  0.51100000000E-03 0. -1.
</event>
<event>
 8    1  0.1010879E+005  0.1043930E+01  0.7957747E-01            NaN
         13   -1    0    0    0    0  0.00000000000E+00  0.00000000000E+00  0.74505805969E-08  0.10566000000E+00  0.10566000000E+00 0. -1.
     999900   -1    0    0    0    0 -0.00000000000E+00 -0.00000000000E+00 -0.74505805969E-08  0.93827000000E+00  0.93827000000E+00 0.  1.
     999902    2    1    2    0    0  0.32367978422E-02 -0.48468643732E-02  0.23340977930E-01  0.10198723566E+01  0.10195885707E+01 0.  0.
     999903    2    3    3    0    0 -0.46971937552E-01  0.75956539066E-01 -0.89060329160E-01  0.12763687147E+00  0.19587495601E-01 0.  0.
         14    1    1    2    0    0 -0.32367978422E-02  0.48468643732E-02 -0.23340977930E-01  0.24057643386E-01  0.00000000000E+00 0.  1.
     999901    1    3    3    0    0  0.50208735394E-01 -0.80803403439E-01  0.11240130709E+00  0.89223548515E+00  0.88000000000E+00 0. -1.
        -11    1    4    4    0    0 -0.10161990185E-01  0.22893639867E-01 -0.14310215179E-01  0.28851831317E-01  0.51100000000E-03 0. -1.
         11    1    4    4    0    0 -0.36809947367E-01  0.53062899199E-01 -0.74750113981E-01  0.98785040151E-01  0.51100000000E-03 0.  1.
</event>
<event>
 8    1  0.1010879E+005  0.1043930E+01  0.7957747E-01            NaN
         13   -1    0    0    0    0  0.00000000000E+00  0.00000000000E+00  0.74505805969E-08  0.10566000000E+00  0.10566000000E+00 0. -1.
     999900   -1    0    0    0    0 -0.00000000000E+00 -0.00000000000E+00 -0.74505805969E-08  0.93827000000E+00  0.93827000000E+00 0.  1.
     999902    2    1    2    0    0  0.17639962538E-01 -0.17383821171E-01 -0.10596988799E-01  0.10169918915E+01  0.10166350603E+01 0.  0.
     999903    2    3    3    0    0  0.93639713169E-01 -0.82063345181E-01  0.32722423501E-01  0.13029240781E+00  0.20064048193E-01 0.  0.
         14    1    1    2    0    0 -0.17639962538E-01  0.17383821171E-01  0.10596988799E-01  0.26938108480E-01  0.00000000000E+00 0. -1.
     999901    1    3    3    0    0 -0.75999750631E-01  0.64679524009E-01 -0.43319412300E-01  0.88669948371E+00  0.88000000000E+00 0. -1.
        -11    1    4    4    0    0  0.47834697123E-01 -0.28849723071E-01  0.16102459787E-01  0.58137897299E-01  0.51100000000E-03 0.  1.
         11    1    4    4    0    0  0.45805016045E-01 -0.53213622110E-01  0.16619963714E-01  0.72154510516E-01  0.51100000000E-03 0. -1.
</event>
<event>
 8    1  0.1010879E+005  0.1043930E+01  0.7957747E-01            NaN
         13   -1    0    0    0    0  0.00000000000E+00  0.00000000000E+00  0.74505805969E-08  0.10566000000E+00  0.10566000000E+00 0.  1.
     999900   -1    0    0    0    0 -0.00000000000E+00 -0.00000000000E+00 -0.74505805969E-08  0.93827000000E+00  0.93827000000E+00 0. -1.
     999902    2    1    2    0    0 -0.19499842879E-01  0.11467906155E-01  0.18025728299E-01  0.10150045160E+01  0.10145922747E+01 0.  0.
     999903    2    3    3    0    0 -0.92808225180E-01  0.84764225182E-01  0.21149228436E-01  0.12891409987E+00  0.19318766812E-01 0.  0.
         14    1    1    2    0    0  0.19499842879E-01 -0.11467906155E-01 -0.18025728299E-01  0.28925484000E-01  0.00000000000E+00 0. -1.
     999901    1    3    3    0    0  0.73308382300E-01 -0.73296319027E-01 -0.31235001366E-02  0.88609041613E+00  0.88000000000E+00 0. -1.
        -11    1    4    4    0    0 -0.40779250722E-01  0.26113168730E-01  0.12645148078E-01  0.50050032582E-01  0.51100000000E-03 0. -1.
         11    1    4    4    0    0 -0.52028974458E-01  0.58651056452E-01  0.85040803578E-02  0.78864067292E-01  0.51100000000E-03 0.  1.
</event>
<event>
 8    1  0.1010879E+005  0.1043930E+01  0.7957747E-01            NaN
         13   -1    0    0    0    0  0.00000000000E+00  0.00000000000E+00  0.74505805969E-08  0.10566000000E+00  0.10566000000E+00 0. -1.
     999900   -1    0    0    0    0 -0.00000000000E+00 -0.00000000000E+00 -0.74505805969E-08  0.93827000000E+00  0.93827000000E+00 0.  1.
     999902    2    1    2    0    0 -0.59332685966E-02  0.16653078705E-01  0.17004253735E-01  0.10194009692E+01  0.10191058152E+01 0.  0.
     999903    2    3    3    0    0 -0.93917569825E-01 -0.47785823119E-01 -0.70386339246E-01  0.12837306556E+00  0.20528331553E-01 0.  0.
         14    1    1    2    0    0  0.59332685966E-02 -0.16653078705E-01 -0.17004253735E-01  0.24529030794E-01  0.00000000000E+00 0. -1.
     999901    1    3    3    0    0  0.87984301228E-01  0.64438901824E-01  0.87390592981E-01  0.89102790364E+00  0.88000000000E+00 0. -1.
        -11    1    4    4    0    0 -0.45082586526E-01 -0.33330718213E-01 -0.42090510753E-01  0.70108833972E-01  0.51100000000E-03 0. -1.
         11    1    4    4    0    0 -0.48834983299E-01 -0.14455104905E-01 -0.28295828493E-01  0.58264231590E-01  0.51100000000E-03 0.  1.
</event>
<event>
 8    1  0.1010879E+005  0.1043930E+01  0.7957747E-01            NaN
         13   -1    0    0    0    0  0.00000000000E+00  0.00000000000E+00  0.74505805969E-08  0.10566000000E+00  0.10566000000E+00 0. -1.
     999900   -1    0    0    0    0 -0.00000000000E+00 -0.00000000000E+00 -0.74505805969E-08  0.93827000000E+00  0.93827000000E+00 0.  1.
     999902    2    1    2    0    0 -0.11635844247E-01 -0.17292827106E-01 -0.10677493910E-01  0.10205111269E+01  0.10202423813E+01 0.  0.
     999903    2    3    3    0    0 -0.10049848264E+00 -0.62969900269E-01 -0.58011891946E-01  0.13359314381E+00  0.20410661704E-01 0.  0.
         14    1    1    2    0    0  0.11635844247E-01  0.17292827106E-01  0.10677493910E-01  0.23418873091E-01  0.00000000000E+00 0. -1.
     999901    1    3    3    0    0  0.88862638396E-01  0.45677073164E-01  0.47334398035E-01  0.88691798310E+00  0.88000000000E+00 0. -1.
        -11    1    4    4    0    0 -0.59912375479E-01 -0.49045246704E-01 -0.37413322585E-01  0.85993876454E-01  0.51100000000E-03 0. -1.
         11    1    4    4    0    0 -0.40586107164E-01 -0.13924653566E-01 -0.20598569360E-01  0.47599267351E-01  0.51100000000E-03 0.  1.
</event>
<event>
 8    1  0.1010879E+005  0.1043930E+01  0.7957747E-01            NaN
         13   -1    0    0    0    0  0.00000000000E+00  0.00000000000E+00  0.74505805969E-08  0.10566000000E+00  0.10566000000E+00 0.  1.
     999900   -1    0    0    0    0 -0.00000000000E+00 -0.00000000000E+00 -0.74505805969E-08  0.93827000000E+00  0.93827000000E+00 0.  1.
     999902    2    1    2    0    0  0.16903518457E-01 -0.94716437727E-02 -0.13807766872E-01  0.10201372406E+01  0.10198597425E+01 0.  0.
     999903    2    3    3    0    0  0.43672766790E-01 -0.85664611100E-01 -0.89922717257E-01  0.13316742909E+00  0.20043276624E-01 0.  0.
         14    1    1    2    0    0 -0.16903518457E-01  0.94716437727E-02  0.13807766872E-01  0.23792759360E-01  0.00000000000E+00 0. -1.
     999901    1    3    3    0    0 -0.26769248334E-01  0.76192967328E-01  0.76114950384E-01  0.88696981155E+00  0.88000000000E+00 0.  1.
        -11    1    4    4    0    0  0.33299586359E-01 -0.78637703591E-01 -0.74831059718E-01  0.11354602370E+00  0.51100000000E-03 0. -1.
         11    1    4    4    0    0  0.10373180431E-01 -0.70269075097E-02 -0.15091657539E-01  0.19621405395E-01  0.51100000000E-03 0.  1.
</event>
<event>
 8    1  0.1010879E+005  0.1043930E+01  0.7957747E-01            NaN
         13   -1    0    0    0    0  0.00000000000E+00  0.00000000000E+00  0.74505805969E-08  0.10566000000E+00  0.10566000000E+00 0. -1.
     999900   -1    0    0    0    0 -0.00000000000E+00 -0.00000000000E+00 -0.74505805969E-08  0.93827000000E+00  0.93827000000E+00 0. -1.
     999902    2    1    2    0    0 -0.17696312069E-01  0.98255362896E-02  0.11387704414E-01  0.10207054346E+01  0.10204411810E+01 0.  0.
     999903    2    3    3    0    0 -0.94951503000E-01 -0.64745472619E-01  0.63408791555E-01  0.13265397588E+00  0.19199956373E-01 0.  0.
         14    1    1    2    0    0  0.17696312069E-01 -0.98255362896E-02 -0.11387704414E-01  0.23224565358E-01  0.00000000000E+00 0.  1.
     999901    1    3    3    0    0  0.77255190931E-01  0.74571008909E-01 -0.52021087141E-01  0.88805145876E+00  0.88000000000E+00 0. -1.
        -11    1    4    4    0    0 -0.24959986104E-01 -0.93416348296E-02  0.20399335979E-01  0.33565772403E-01  0.51100000000E-03 0.  1.
         11    1    4    4    0    0 -0.69991516896E-01 -0.55403837790E-01  0.43009455576E-01  0.99088203481E-01  0.51100000000E-03 0. -1.
</event>
<event>
 8    1  0.1010879E+005  0.1043930E+01  0.7957747E-01            NaN
         13   -1    0    0    0    0  0.00000000000E+00  0.00000000000E+00  0.74505805969E-08  0.10566000000E+00  0.10566000000E+00 0. -1.
     999900   -1    0    0    0    0 -0.00000000000E+00 -0.00000000000E+00 -0.74505805969E-08  0.93827000000E+00  0.93827000000E+00 0.  1.
     999902    2    1    2    0    0  0.20418612345E-02  0.82936771469E-02 -0.21744180469E-01  0.10205684148E+01  0.10203009976E+01 0.  0.
     999903    2    3    3    0    0  0.37751735835E-01  0.12486055294E-01 -0.12612438712E+00  0.13367045072E+00  0.19476478978E-01 0.  0.
         14    1    1    2    0    0 -0.20418612345E-02 -0.82936771469E-02  0.21744180469E-01  0.23361585181E-01  0.00000000000E+00 0. -1.
     999901    1    3    3    0    0 -0.35709874600E-01 -0.41923781469E-02  0.10438020666E+00  0.88689796410E+00  0.88000000000E+00 0. -1.
        -11    1    4    4    0    0  0.37707109326E-02 -0.89932440486E-03 -0.39052007189E-01  0.39247260183E-01  0.51100000000E-03 0. -1.
         11    1    4    4    0    0  0.33981024902E-01  0.13385379699E-01 -0.87072379934E-01  0.94423190539E-01  0.51100000000E-03 0.  1.
</event>
<event>
 8    1  0.1010879E+005  0.1043930E+01  0.7957747E-01            NaN
         13   -1    0    0    0    0  0.00000000000E+00  0.00000000000E+00  0.74505805969E-08  0.10566000000E+00  0.10566000000E+00 0.  1.
     999900   -1    0    0    0    0 -0.00000000000E+00 -0.00000000000E+00 -0.74505805969E-08  0.93827000000E+00  0.93827000000E+00 0. -1.
     999902    2    1    2    0    0 -0.14007334213E-01 -0.74403030045E-02  0.15877797947E-01  0.10214874514E+01  0.10212408851E+01 0.  0.
     999903    2    3    3    0    0  0.11815907164E-01 -0.45883124653E-01  0.12347372782E+00  0.13372533547E+00  0.19794622887E-01 0.  0.
         14    1    1    2    0    0  0.14007334213E-01  0.74403030045E-02 -0.15877797947E-01  0.22442548612E-01  0.00000000000E+00 0. -1.
     999901    1    3    3    0    0 -0.25823241377E-01  0.38442821648E-01 -0.10759592987E+00  0.88776211592E+00  0.88000000000E+00 0. -1.
        -11    1    4    4    0    0  0.10239503538E-01 -0.31887520564E-01  0.60101354529E-01  0.68804762463E-01  0.51100000000E-03 0. -1.
         11    1    4    4    0    0  0.15764036265E-02 -0.13995604089E-01  0.63372373291E-01  0.64920573009E-01  0.51100000000E-03 0.  1.
</event>
<event>
 8    1  0.1010879E+005  0.1043930E+01  0.7957747E-01            NaN
         13   -1    0    0    0    0  0.00000000000E+00  0.00000000000E+00  0.74505805969E-08  0.10566000000E+00  0.10566000000E+00 0.  1.
     999900   -1    0    0    0    0 -0.00000000000E+00 -0.00000000000E+00 -0.74505805969E-08  0.93827000000E+00  0.93827000000E+00 0.  1.
     999902    2    1    2    0    0  0.11527824744E-01  0.14582960405E-01 -0.19109596805E-01  0.10172704770E+01  0.10169210850E+01 0.  0.
     999903    2    3    3    0    0  0.65280514612E-01  0.10442087066E+00  0.35047539477E-01  0.12941170601E+00  0.18809460652E-01 0.  0.
         14    1    1    2    0    0 -0.11527824744E-01 -0.14582960405E-01  0.19109596805E-01  0.26659523018E-01  0.00000000000E+00 0.  1.
     999901    1    3    3    0    0 -0.53752689868E-01 -0.89837910258E-01 -0.54157136283E-01  0.88785877098E+00  0.88000000000E+00 0.  1.
        -11    1    4    4    0    0  0.13244046829E-01  0.20567757072E-01  0.15023204800E-01  0.28712283275E-01  0.51100000000E-03 0. -1.
         11    1    4    4    0    0  0.52036467783E-01  0.83853113591E-01  0.20024334677E-01  0.10069942273E+00  0.51100000000E-03 0.  1.
</event>
<event>
 8    1  0.1130384E+005  0.1043930E+01  0.7957747E-01            NaN
         13   -1    0    0    0    0  0.00000000000E+00  0.00000000000E+00  0.74505805969E-08  0.10566000000E+00  0.10566000000E+00 0. -1.
     999900   -1    0    0    0    0 -0.00000000000E+00 -0.00000000000E+00 -0.74505805969E-08  0.93827000000E+00  0.93827000000E+00 0. -1.
     999902    2    1    2    0    0 -0.70598061382E-02 -0.74222070053E-02 -0.20741635525E-01  0.10207967887E+01  0.10205346336E+01 0.  0.
     999903    2    3    3    0    0 -0.63660047671E-01  0.58837507693E-01 -0.98993975269E-01  0.13303704318E+00  0.19611061626E-01 0.  0.
         14    1    1    2    0    0  0.70598061382E-02  0.74222070053E-02  0.20741635525E-01  0.23133211273E-01  0.00000000000E+00 0. -1.
     999901    1    3    3    0    0  0.56600241533E-01 -0.66259714699E-01  0.78252339743E-01  0.88775974554E+00  0.88000000000E+00 0.  1.
        -11    1    4    4    0    0 -0.20178833836E-01  0.31020212134E-01 -0.46266770735E-01  0.59247903685E-01  0.51100000000E-03 0.  1.
         11    1    4    4    0    0 -0.43481213835E-01  0.27817295559E-01 -0.52727204534E-01  0.73789139497E-01  0.51100000000E-03 0. -1.
</event>
<event>
 8    1  0.1010879E+005  0.1043930E+01  0.7957747E-01            NaN
         13   -1    0    0    0    0  0.00000000000E+00  0.00000000000E+00  0.74505805969E-08  0.10566000000E+00  0.10566000000E+00 0.  1.
     999900   -1    0    0    0    0 -0.00000000000E+00 -0.00000000000E+00 -0.74505805969E-08  0.93827000000E+00  0.93827000000E+00 0.  1.
     999902    2    1    2    0    0 -0.15752488347E-01 -0.12689599572E-01  0.12029296411E-01  0.10203955402E+01  0.10201241040E+01 0.  0.
     999903    2    3    3    0    0 -0.89136443843E-01  0.24207884550E-01  0.93541545411E-01  0.13281969780E+00  0.18966394227E-01 0.  0.
         14    1    1    2    0    0  0.15752488347E-01  0.12689599572E-01 -0.12029296411E-01  0.23534459811E-01  0.00000000000E+00 0. -1.
     999901    1    3    3    0    0  0.73383955496E-01 -0.36897484122E-01 -0.81512249000E-01  0.88757584239E+00  0.88000000000E+00 0.  1.
        -11    1    4    4    0    0 -0.57866568834E-01  0.24481795269E-01  0.58500127450E-01  0.85851174255E-01  0.51100000000E-03 0.  1.
         11    1    4    4    0    0 -0.31269875009E-01 -0.27391071907E-03  0.35041417961E-01  0.46968523544E-01  0.51100000000E-03 0. -1.
</event>
<event>
 8    1  0.1010879E+005  0.1043930E+01  0.7957747E-01            NaN
         13   -1    0    0    0    0  0.00000000000E+00  0.00000000000E+00  0.74505805969E-08  0.10566000000E+00  0.10566000000E+00 0.  1.
     999900   -1    0    0    0    0 -0.00000000000E+00 -0.00000000000E+00 -0.74505805969E-08  0.93827000000E+00  0.93827000000E+00 0.  1.
     999902    2    1    2    0    0 -0.23281952231E-02 -0.22422922428E-01 -0.70927670300E-02  0.10202970720E+01  0.10200233330E+01 0.  0.
     999903    2    3    3    0    0  0.11885243204E+00 -0.48096381779E-01 -0.21850445042E-01  0.13149919843E+00  0.19376137323E-01 0.  0.
         14    1    1    2    0    0  0.23281952231E-02  0.22422922428E-01  0.70927670300E-02  0.23632928032E-01  0.00000000000E+00 0.  1.
     999901    1    3    3    0    0 -0.12118062727E+00  0.25673459351E-01  0.14757678013E-01  0.88879787353E+00  0.88000000000E+00 0. -1.
        -11    1    4    4    0    0  0.82846035592E-01 -0.34868149635E-01 -0.63070890371E-02  0.90107124942E-01  0.51100000000E-03 0. -1.
         11    1    4    4    0    0  0.36006396450E-01 -0.13228232144E-01 -0.15543356005E-01  0.41392073491E-01  0.51100000000E-03 0.  1.
</event>
<event>
 8    1  0.1010879E+005  0.1043930E+01  0.7957747E-01            NaN
         13   -1    0    0    0    0  0.00000000000E+00  0.00000000000E+00  0.74505805969E-08  0.10566000000E+00  0.10566000000E+00 0.  1.
     999900   -1    0    0    0    0 -0.00000000000E+00 -0.00000000000E+00 -0.74505805969E-08  0.93827000000E+00  0.93827000000E+00 0. -1.
     999902    2    1    2    0    0  0.12674863345E-01 -0.15552421605E-01 -0.14410130721E-01  0.10192281408E+01  0.10189287616E+01 0.  0.
     999903    2    3    3    0    0  0.49618346471E-01 -0.96548693440E-01  0.70165816262E-01  0.13070222236E+00  0.19395840981E-01 0.  0.
         14    1    1    2    0    0 -0.12674863345E-01  0.15552421605E-01  0.14410130721E-01  0.24701859161E-01  0.00000000000E+00 0.  1.
     999901    1    3    3    0    0 -0.36943483126E-01  0.80996271835E-01 -0.84575946983E-01  0.88852591848E+00  0.88000000000E+00 0. -1.
        -11    1    4    4    0    0  0.37987686344E-01 -0.73472340662E-01  0.62720728912E-01  0.10380462472E+00  0.51100000000E-03 0.  1.
         11    1    4    4    0    0  0.11630660127E-01 -0.23076352778E-01  0.74450873497E-02  0.26897597647E-01  0.51100000000E-03 0. -1.
</event>
<event>
 8    1  0.1010879E+005  0.1043930E+01  0.7957747E-01            NaN
         13   -1    0    0    0    0  0.00000000000E+00  0.00000000000E+00  0.74505805969E-08  0.10566000000E+00  0.10566000000E+00 0. -1.
     999900   -1    0    0    0    0 -0.00000000000E+00 -0.00000000000E+00 -0.74505805969E-08  0.93827000000E+00  0.93827000000E+00 0. -1.
     999902    2    1    2    0    0  0.35603144267E-02 -0.39897512942E-02  0.22842067766E-01  0.10204703748E+01  0.10202006821E+01 0.  0.
     999903    2    3    3    0    0  0.12792349970E+00 -0.16567114491E-01  0.21474970913E-01  0.13163616031E+00  0.15100108167E-01 0.  0.
         14    1    1    2    0    0 -0.35603144267E-02  0.39897512942E-02 -0.22842067766E-01  0.23459625190E-01  0.00000000000E+00 0. -1.
     999901    1    3    3    0    0 -0.12436318527E+00  0.12577363197E-01  0.13670968535E-02  0.88883421450E+00  0.88000000000E+00 0. -1.
        -11    1    4    4    0    0  0.58679944504E-01 -0.14972612357E-01  0.82577091018E-02  0.61122548118E-01  0.51100000000E-03 0. -1.
         11    1    4    4    0    0  0.69243555196E-01 -0.15945021344E-02  0.13217261811E-01  0.70513612190E-01  0.51100000000E-03 0.  1.
</event>
<event>
 8    1  0.1010879E+005  0.1043930E+01  0.7957747E-01            NaN
         13   -1    0    0    0    0  0.00000000000E+00  0.00000000000E+00  0.74505805969E-08  0.10566000000E+00  0.10566000000E+00 0.  1.
     999900   -1    0    0    0    0 -0.00000000000E+00 -0.00000000000E+00 -0.74505805969E-08  0.93827000000E+00  0.93827000000E+00 0. -1.
     999902    2    1    2    0    0 -0.12014711750E-01 -0.20929913358E-01  0.86071209270E-02  0.10183078006E+01  0.10179854025E+01 0.  0.
     999903    2    3    3    0    0  0.50970185500E-02 -0.11897153437E+00  0.52209825022E-01  0.13162512536E+00  0.20471985934E-01 0.  0.
         14    1    1    2    0    0  0.12014711750E-01  0.20929913358E-01 -0.86071209270E-02  0.25622199404E-01  0.00000000000E+00 0. -1.
     999901    1    3    3    0    0 -0.17111730300E-01  0.98041621012E-01 -0.43602704095E-01  0.88668267524E+00  0.88000000000E+00 0. -1.
        -11    1    4    4    0    0 -0.71567997203E-02 -0.60834692247E-01  0.29832239695E-01  0.68134449504E-01  0.51100000000E-03 0. -1.
         11    1    4    4    0    0  0.12253818270E-01 -0.58136842123E-01  0.22377585327E-01  0.63490675853E-01  0.51100000000E-03 0.  1.
</event>
<event>
 8    1  0.1010879E+005  0.1043930E+01  0.7957747E-01            NaN
         13   -1    0    0    0    0  0.00000000000E+00  0.00000000000E+00  0.74505805969E-08  0.10566000000E+00  0.10566000000E+00 0.  1.
     999900   -1    0    0    0    0 -0.00000000000E+00 -0.00000000000E+00 -0.74505805969E-08  0.93827000000E+00  0.93827000000E+00 0.  1.
     999902    2    1    2    0    0  0.94332380456E-02 -0.18260559010E-01 -0.13988668747E-01  0.10190680441E+01  0.10187647235E+01 0.  0.
     999903    2    3    3    0    0  0.77729778213E-01 -0.84641545919E-01  0.59251171833E-01  0.13090424897E+00  0.20472208427E-01 0.  0.
         14    1    1    2    0    0 -0.94332380456E-02  0.18260559010E-01  0.13988668747E-01  0.24861955850E-01  0.00000000000E+00 0.  1.
     999901    1    3    3    0    0 -0.68296540168E-01  0.66380986909E-01 -0.73239840580E-01  0.88816379518E+00  0.88000000000E+00 0.  1.
        -11    1    4    4    0    0  0.62729007780E-01 -0.58014982826E-01  0.37080181775E-01  0.93144337728E-01  0.51100000000E-03 0. -1.
         11    1    4    4    0    0  0.15000770433E-01 -0.26626563093E-01  0.22170990058E-01  0.37759911241E-01  0.51100000000E-03 0.  1.
</event>
<event>
 8    1  0.1010879E+005  0.1043930E+01  0.7957747E-01            NaN
         13   -1    0    0    0    0  0.00000000000E+00  0.00000000000E+00  0.74505805969E-08  0.10566000000E+00  0.10566000000E+00 0.  1.
     999900   -1    0    0    0    0 -0.00000000000E+00 -0.00000000000E+00 -0.74505805969E-08  0.93827000000E+00  0.93827000000E+00 0.  1.
     999902    2    1    2    0    0 -0.20610427712E-01 -0.99933527944E-02 -0.67492163533E-02  0.10200509558E+01  0.10197714174E+01 0.  0.
     999903    2    3    3    0    0 -0.41689811171E-01  0.63242231073E-01 -0.10543327301E+00  0.13126170396E+00  0.19386586122E-01 0.  0.
         14    1    1    2    0    0  0.20610427712E-01  0.99933527944E-02  0.67492163533E-02  0.23879044200E-01  0.00000000000E+00 0. -1.
     999901    1    3    3    0    0  0.21079383459E-01 -0.73235583867E-01  0.98684056658E-01  0.88878925184E+00  0.88000000000E+00 0. -1.
        -11    1    4    4    0    0 -0.15720876576E-01  0.98964322294E-02 -0.30005743933E-01  0.35294349706E-01  0.51100000000E-03 0.  1.
         11    1    4    4    0    0 -0.25968934595E-01  0.53345798844E-01 -0.75427529078E-01  0.95967354252E-01  0.51100000000E-03 0. -1.
</event>
<event>
 8    1  0.1010879E+005  0.1043930E+01  0.7957747E-01            NaN
         13   -1    0    0    0    0  0.00000000000E+00  0.00000000000E+00  0.74505805969E-08  0.10566000000E+00  0.10566000000E+00 0. -1.
     999900   -1    0    0    0    0 -0.00000000000E+00 -0.00000000000E+00 -0.74505805969E-08  0.93827000000E+00  0.93827000000E+00 0.  1.
     999902    2    1    2    0    0 -0.47164766968E-02 -0.23221480777E-01  0.57762810978E-02  0.10195404993E+01  0.10192487341E+01 0.  0.
     999903    2    3    3    0    0 -0.67794576273E-01 -0.98854492643E-01  0.52989083287E-01  0.13278898515E+00  0.21371858630E-01 0.  0.
         14    1    1    2    0    0  0.47164766968E-02  0.23221480777E-01 -0.57762810978E-02  0.24389500717E-01  0.00000000000E+00 0. -1.
     999901    1    3    3    0    0  0.63078099577E-01  0.75633011865E-01 -0.47212802189E-01  0.88675151413E+00  0.88000000000E+00 0.  1.
        -11    1    4    4    0    0 -0.63796030196E-01 -0.88202651850E-01  0.53691524785E-01  0.12137826089E+00  0.51100000000E-03 0.  1.
         11    1    4    4    0    0 -0.39985460772E-02 -0.10651840793E-01 -0.70244149855E-03  0.11410724257E-01  0.51100000000E-03 0. -1.
</event>
<event>
 8    1  0.1010879E+005  0.1043930E+01  0.7957747E-01            NaN
         13   -1    0    0    0    0  0.00000000000E+00  0.00000000000E+00  0.74505805969E-08  0.10566000000E+00  0.10566000000E+00 0. -1.
     999900   -1    0    0    0    0 -0.00000000000E+00 -0.00000000000E+00 -0.74505805969E-08  0.93827000000E+00  0.93827000000E+00 0.  1.
     999902    2    1    2    0    0  0.19142863450E-01  0.44610220627E-02 -0.13610667787E-01  0.10200218379E+01  0.10197416092E+01 0.  0.
     999903    2    3    3    0    0 -0.94765596061E-01 -0.30427203685E-01  0.76937996590E-01  0.12739011870E+00  0.20061258741E-01 0.  0.
         14    1    1    2    0    0 -0.19142863450E-01 -0.44610220627E-02  0.13610667787E-01  0.23908162132E-01  0.00000000000E+00 0. -1.
     999901    1    3    3    0    0  0.11390845951E+00  0.34888225748E-01 -0.90548664377E-01  0.89263171917E+00  0.88000000000E+00 0.  1.
        -11    1    4    4    0    0 -0.50340636035E-02 -0.72687220265E-02  0.64604100919E-02  0.10962396445E-01  0.51100000000E-03 0.  1.
         11    1    4    4    0    0 -0.89731532457E-01 -0.23158481658E-01  0.70477586499E-01  0.11642772226E+00  0.51100000000E-03 0. -1.
</event>
<event>
 8    1  0.1010879E+005  0.1043930E+01  0.7957747E-01            NaN
         13   -1    0    0    0    0  0.00000000000E+00  0.00000000000E+00  0.74505805969E-08  0.10566000000E+00  0.10566000000E+00 0. -1.
     999900   -1    0    0    0    0 -0.00000000000E+00 -0.00000000000E+00 -0.74505805969E-08  0.93827000000E+00  0.93827000000E+00 0. -1.
     999902    2    1    2    0    0  0.21140254519E-01  0.10598278623E-01  0.63149724086E-02  0.10194532202E+01  0.10191593376E+01 0.  0.
     999903    2    3    3    0    0  0.83409524418E-01 -0.93784743952E-01 -0.29493877722E-01  0.13037754791E+00  0.19382704014E-01 0.  0.
         14    1    1    2    0    0 -0.21140254519E-01 -0.10598278623E-01 -0.63149724086E-02  0.24476779760E-01  0.00000000000E+00 0.  1.
     999901    1    3    3    0    0 -0.62269269899E-01  0.10438302257E+00  0.35808850131E-01  0.88907567233E+00  0.88000000000E+00 0. -1.
        -11    1    4    4    0    0  0.69122350376E-01 -0.75820078670E-01 -0.16269610164E-01  0.10388236129E+00  0.51100000000E-03 0.  1.
         11    1    4    4    0    0  0.14287174042E-01 -0.17964665283E-01 -0.13224267558E-01  0.26495186624E-01  0.51100000000E-03 0. -1.
</event>
<event>
 8    1  0.1010879E+005  0.1043930E+01  0.7957747E-01            NaN
         13   -1    0    0    0    0  0.00000000000E+00  0.00000000000E+00  0.74505805969E-08  0.10566000000E+00  0.10566000000E+00 0. -1.
     999900   -1    0    0    0    0 -0.00000000000E+00 -0.00000000000E+00 -0.74505805969E-08  0.93827000000E+00  0.93827000000E+00 0.  1.
     999902    2    1    2    0    0  0.14739107474E-01 -0.15754611816E-01 -0.11747847250E-01  0.10193645568E+01  0.10190685152E+01 0.  0.
     999903    2    3    3    0    0  0.76140513264E-01  0.22965933697E-01 -0.10344860190E+00  0.13162673424E+00  0.17296590997E-01 0.  0.
         14    1    1    2    0    0 -0.14739107474E-01  0.15754611816E-01  0.11747847250E-01  0.24565443160E-01  0.00000000000E+00 0. -1.
     999901    1    3    3    0    0 -0.61401405790E-01 -0.38720545514E-01  0.91700754649E-01  0.88773782260E+00  0.88000000000E+00 0. -1.
        -11    1    4    4    0    0  0.29503812767E-01  0.12162862591E-01 -0.29060245068E-01  0.43164443221E-01  0.51100000000E-03 0. -1.
         11    1    4    4    0    0  0.46636700498E-01  0.10803071106E-01 -0.74388356832E-01  0.88462291016E-01  0.51100000000E-03 0.  1.
</event>
<event>
 8    1  0.1010879E+005  0.1043930E+01  0.7957747E-01            NaN
         13   -1    0    0    0    0  0.00000000000E+00  0.00000000000E+00  0.74505805969E-08  0.10566000000E+00  0.10566000000E+00 0.  1.
     999900   -1    0    0    0    0 -0.00000000000E+00 -0.00000000000E+00 -0.74505805969E-08  0.93827000000E+00  0.93827000000E+00 0. -1.
     999902    2    1    2    0    0  0.99996909180E-02  0.17892773771E-01  0.16472356862E-01  0.10176339221E+01  0.10172941147E+01 0.  0.
     999903    2    3    3    0    0 -0.10136622986E+00  0.72931990678E-01 -0.21048007820E-01  0.12811750210E+00  0.19413600635E-01 0.  0.
         14    1    1    2    0    0 -0.99996909180E-02 -0.17892773771E-01 -0.16472356862E-01  0.26296077888E-01  0.00000000000E+00 0. -1.
     999901    1    3    3    0    0  0.11136592078E+00 -0.55039216907E-01  0.37520364682E-01  0.88951642001E+00  0.88000000000E+00 0. -1.
        -11    1    4    4    0    0 -0.24393745271E-01  0.25646571330E-01 -0.17273791408E-03  0.35399045026E-01  0.51100000000E-03 0. -1.
         11    1    4    4    0    0 -0.76972484592E-01  0.47285419349E-01 -0.20875269906E-01  0.92718457072E-01  0.51100000000E-03 0.  1.
</event>
<event>
 8    1  0.1010879E+005  0.1043930E+01  0.7957747E-01            NaN
         13   -1    0    0    0    0  0.00000000000E+00  0.00000000000E+00  0.74505805969E-08  0.10566000000E+00  0.10566000000E+00 0.  1.
     999900   -1    0    0    0    0 -0.00000000000E+00 -0.00000000000E+00 -0.74505805969E-08  0.93827000000E+00  0.93827000000E+00 0.  1.
     999902    2    1    2    0    0  0.82566992116E-02  0.19819907646E-01  0.10945053677E-01  0.10198302900E+01  0.10195454989E+01 0.  0.
     999903    2    3    3    0    0 -0.41204840205E-01  0.79063820385E-01 -0.93057902673E-01  0.13035128521E+00  0.19564195749E-01 0.  0.
         14    1    1    2    0    0 -0.82566992116E-02 -0.19819907646E-01 -0.10945053677E-01  0.24099709977E-01  0.00000000000E+00 0. -1.
     999901    1    3    3    0    0  0.49461539417E-01 -0.59243912739E-01  0.10400295635E+00  0.88947900482E+00  0.88000000000E+00 0. -1.
        -11    1    4    4    0    0 -0.60969998268E-03  0.17494377822E-01 -0.16909646654E-01  0.24343834135E-01  0.51100000000E-03 0.  1.
         11    1    4    4    0    0 -0.40595140223E-01  0.61569442562E-01 -0.76148256019E-01  0.10600745107E+00  0.51100000000E-03 0. -1.
</event>
<event>
 8    1  0.1010879E+005  0.1043930E+01  0.7957747E-01            NaN
         13   -1    0    0    0    0  0.00000000000E+00  0.00000000000E+00  0.74505805969E-08  0.10566000000E+00  0.10566000000E+00 0. -1.
     999900   -1    0    0    0    0 -0.00000000000E+00 -0.00000000000E+00 -0.74505805969E-08  0.93827000000E+00  0.93827000000E+00 0. -1.
     999902    2    1    2    0    0  0.69785487659E-02 -0.19921943586E-02  0.23687487943E-01  0.10191556975E+01  0.10188545380E+01 0.  0.
     999903    2    3    3    0    0 -0.56239045402E-01 -0.95453578519E-01  0.66740746189E-01  0.13090737768E+00  0.20203921660E-01 0.  0.
         14    1    1    2    0    0 -0.69785487659E-02  0.19921943586E-02 -0.23687487943E-01  0.24774302539E-01  0.00000000000E+00 0.  1.
     999901    1    3    3    0    0  0.63217594168E-01  0.93461384160E-01 -0.43053258245E-01  0.88824831978E+00  0.88000000000E+00 0. -1.
        -11    1    4    4    0    0 -0.14421370369E-01 -0.17536924676E-01  0.55776093645E-02  0.23385690018E-01  0.51100000000E-03 0.  1.
         11    1    4    4    0    0 -0.41817675033E-01 -0.77916653842E-01  0.61163136824E-01  0.10752168767E+00  0.51100000000E-03 0. -1.
</event>
<event>
 8    1  0.1010879E+005  0.1043930E+01  0.7957747E-01            NaN
         13   -1    0    0    0    0  0.00000000000E+00  0.00000000000E+00  0.74505805969E-08  0.10566000000E+00  0.10566000000E+00 0. -1.
     999900   -1    0    0    0    0 -0.00000000000E+00 -0.00000000000E+00 -0.74505805969E-08  0.93827000000E+00  0.93827000000E+00 0.  1.
     999902    2    1    2    0    0 -0.17657628745E-01 -0.74170735085E-02  0.13437884962E-01  0.10205338126E+01  0.10202655934E+01 0.  0.
     999903    2    3    3    0    0 -0.51382001213E-02 -0.18058122013E-01  0.12988476863E+00  0.13271071946E+00  0.19737909394E-01 0.  0.
         14    1    1    2    0    0  0.17657628745E-01  0.74170735085E-02 -0.13437884962E-01  0.23396187394E-01  0.00000000000E+00 0.  1.
     999901    1    3    3    0    0 -0.12519428624E-01  0.10641048505E-01 -0.11644688367E+00  0.88782309315E+00  0.88000000000E+00 0.  1.
        -11    1    4    4    0    0  0.71994886469E-02 -0.92365869777E-02  0.67231841984E-01  0.68246090536E-01  0.51100000000E-03 0. -1.
         11    1    4    4    0    0 -0.12337688768E-01 -0.88215350356E-02  0.62652926643E-01  0.64464628925E-01  0.51100000000E-03 0.  1.
</event>
<event>
 8    1  0.1010879E+005  0.1043930E+01  0.7957747E-01            NaN
         13   -1    0    0    0    0  0.00000000000E+00  0.00000000000E+00  0.74505805969E-08  0.10566000000E+00  0.10566000000E+00 0. -1.
     999900   -1    0    0    0    0 -0.00000000000E+00 -0.00000000000E+00 -0.74505805969E-08  0.93827000000E+00  0.93827000000E+00 0.  1.
     999902    2    1    2    0    0 -0.58975254184E-02  0.18090976436E-01  0.13778368980E-01  0.10204372844E+01  0.10201668215E+01 0.  0.
     999903    2    3    3    0    0 -0.78777965480E-01 -0.54815410113E-01  0.87251309557E-01  0.13137869649E+00  0.20901527234E-01 0.  0.
         14    1    1    2    0    0  0.58975254184E-02 -0.18090976436E-01 -0.13778368980E-01  0.23492715599E-01  0.00000000000E+00 0.  1.
     999901    1    3    3    0    0  0.72880440061E-01  0.72906386549E-01 -0.73472940577E-01  0.88905858791E+00  0.88000000000E+00 0.  1.
        -11    1    4    4    0    0 -0.56537269999E-01 -0.48052848123E-01  0.59062732884E-01  0.94837791245E-01  0.51100000000E-03 0. -1.
         11    1    4    4    0    0 -0.22240695481E-01 -0.67625619904E-02  0.28188576673E-01  0.36540905244E-01  0.51100000000E-03 0.  1.
</event>
<event>
 8    1  0.1010879E+005  0.1043930E+01  0.7957747E-01            NaN
         13   -1    0    0    0    0  0.00000000000E+00  0.00000000000E+00  0.74505805969E-08  0.10566000000E+00  0.10566000000E+00 0. -1.
     999900   -1    0    0    0    0 -0.00000000000E+00 -0.00000000000E+00 -0.74505805969E-08  0.93827000000E+00  0.93827000000E+00 0.  1.
     999902    2    1    2    0    0 -0.99168950719E-03 -0.20808072038E-01  0.15644432318E-01  0.10178779833E+01  0.10175445353E+01 0.  0.
     999903    2    3    3    0    0  0.66362180129E-01  0.70780558454E-01 -0.77478065420E-01  0.12569144422E+00  0.19536174686E-01 0.  0.
         14    1    1    2    0    0  0.99168950719E-03  0.20808072038E-01 -0.15644432318E-01  0.26052016670E-01  0.00000000000E+00 0.  1.
     999901    1    3    3    0    0 -0.67353869636E-01 -0.91588630493E-01  0.93122497738E-01  0.89218653911E+00  0.88000000000E+00 0.  1.
        -11    1    4    4    0    0  0.66775241451E-01  0.67616961602E-01 -0.71609946896E-01  0.11899257112E+00  0.51100000000E-03 0.  1.
         11    1    4    4    0    0 -0.41306132218E-03  0.31635968523E-02 -0.58681185242E-02  0.66988730928E-02  0.51100000000E-03 0. -1.
</event>
<event>
 8    1  0.1010879E+005  0.1043930E+01  0.7957747E-01            NaN
         13   -1    0    0    0    0  0.00000000000E+00  0.00000000000E+00  0.74505805969E-08  0.10566000000E+00  0.10566000000E+00 0.  1.
     999900   -1    0    0    0    0 -0.00000000000E+00 -0.00000000000E+00 -0.74505805969E-08  0.93827000000E+00  0.93827000000E+00 0.  1.
     999902    2    1    2    0    0  0.67469014265E-02 -0.21452769924E-01 -0.12408466501E-01  0.10182451395E+01  0.10179211424E+01 0.  0.
     999903    2    3    3    0    0 -0.10475498463E+00 -0.72046387833E-01  0.13988553500E-01  0.12937552737E+00  0.19443730317E-01 0.  0.
         14    1    1    2    0    0 -0.67469014265E-02  0.21452769924E-01  0.12408466501E-01  0.25684860466E-01  0.00000000000E+00 0. -1.
     999901    1    3    3    0    0  0.11150188605E+00  0.50593617909E-01 -0.26397020001E-01  0.88886961217E+00  0.88000000000E+00 0. -1.
        -11    1    4    4    0    0 -0.78835418039E-01 -0.50764776160E-01  0.21032954794E-02  0.93791100905E-01  0.51100000000E-03 0.  1.
         11    1    4    4    0    0 -0.25919566588E-01 -0.21281611672E-01  0.11885258021E-01  0.35584426463E-01  0.51100000000E-03 0. -1.
</event>
<event>
 8    1  0.1010879E+005  0.1043930E+01  0.7957747E-01            NaN
         13   -1    0    0    0    0  0.00000000000E+00  0.00000000000E+00  0.74505805969E-08  0.10566000000E+00  0.10566000000E+00 0. -1.
     999900   -1    0    0    0    0 -0.00000000000E+00 -0.00000000000E+00 -0.74505805969E-08  0.93827000000E+00  0.93827000000E+00 0.  1.
     999902    2    1    2    0    0 -0.39746261867E-02  0.22846758513E-01  0.46330962386E-02  0.10202817948E+01  0.10200076976E+01 0.  0.
     999903    2    3    3    0    0  0.23593486417E-01 -0.86090378304E-04 -0.12612738942E+00  0.12989748397E+00  0.20213311604E-01 0.  0.
         14    1    1    2    0    0  0.39746261867E-02 -0.22846758513E-01 -0.46330962386E-02  0.23648205189E-01  0.00000000000E+00 0. -1.
     999901    1    3    3    0    0 -0.27568112604E-01  0.22932848891E-01  0.13076048566E+00  0.89038431085E+00  0.88000000000E+00 0. -1.
        -11    1    4    4    0    0  0.24169098277E-01  0.39985387033E-02 -0.12011140601E+00  0.12258525440E+00  0.51100000000E-03 0.  1.
         11    1    4    4    0    0 -0.57561185981E-03 -0.40846290816E-02 -0.60159834121E-02  0.73122295616E-02  0.51100000000E-03 0. -1.
</event>
<event>
 8    1  0.1010879E+005  0.1043930E+01  0.7957747E-01            NaN
         13   -1    0    0    0    0  0.00000000000E+00  0.00000000000E+00  0.74505805969E-08  0.10566000000E+00  0.10566000000E+00 0.  1.
     999900   -1    0    0    0    0 -0.00000000000E+00 -0.00000000000E+00 -0.74505805969E-08  0.93827000000E+00  0.93827000000E+00 0. -1.
     999902    2    1    2    0    0 -0.18245161781E-01 -0.17685697684E-01  0.26178892497E-02  0.10183854668E+01  0.10180650450E+01 0.  0.
     999903    2    3    3    0    0 -0.11244935632E+00 -0.65913601380E-01 -0.70314596380E-02  0.13199194762E+00  0.19569676240E-01 0.  0.
         14    1    1    2    0    0  0.18245161781E-01  0.17685697684E-01 -0.26178892497E-02  0.25544533175E-01  0.00000000000E+00 0.  1.
     999901    1    3    3    0    0  0.94204194534E-01  0.48227903696E-01  0.96493488877E-02  0.88639351921E+00  0.88000000000E+00 0. -1.
        -11    1    4    4    0    0 -0.10138986673E+00 -0.53257799179E-01 -0.98182308785E-02  0.11494762733E+00  0.51100000000E-03 0. -1.
         11    1    4    4    0    0 -0.11059489584E-01 -0.12655802201E-01  0.27867712405E-02  0.17044320290E-01  0.51100000000E-03 0.  1.
</event>
<event>
 8    1  0.1010879E+005  0.1043930E+01  0.7957747E-01            NaN
         13   -1    0    0    0    0  0.00000000000E+00  0.00000000000E+00  0.74505805969E-08  0.10566000000E+00  0.10566000000E+00 0.  1.
     999900   -1    0    0    0    0 -0.00000000000E+00 -0.00000000000E+00 -0.74505805969E-08  0.93827000000E+00  0.93827000000E+00 0. -1.
     999902    2    1    2    0    0 -0.30217814143E-02 -0.47312782773E-02  0.24319622128E-01  0.10189708298E+01  0.10186651029E+01 0.  0.
     999903    2    3    3    0    0  0.68974418308E-01  0.10634326574E+00  0.10203086402E-01  0.12895943454E+00  0.21449294507E-01 0.  0.
         14    1    1    2    0    0  0.30217814143E-02  0.47312782773E-02 -0.24319622128E-01  0.24959170209E-01  0.00000000000E+00 0. -1.
     999901    1    3    3    0    0 -0.71996199722E-01 -0.11107454402E+00  0.14116535726E-01  0.89001139526E+00  0.88000000000E+00 0. -1.
        -11    1    4    4    0    0  0.41904388402E-01  0.67746547383E-01 -0.38791353122E-02  0.79755133135E-01  0.51100000000E-03 0.  1.
         11    1    4    4    0    0  0.27070029906E-01  0.38596718357E-01  0.14082221714E-01  0.49204301401E-01  0.51100000000E-03 0. -1.
</event>
<event>
 8    1  0.1010879E+005  0.1043930E+01  0.7957747E-01            NaN
         13   -1    0    0    0    0  0.00000000000E+00  0.00000000000E+00  0.74505805969E-08  0.10566000000E+00  0.10566000000E+00 0.  1.
     999900   -1    0    0    0    0 -0.00000000000E+00 -0.00000000000E+00 -0.74505805969E-08  0.93827000000E+00  0.93827000000E+00 0. -1.
     999902    2    1    2    0    0  0.10236126100E-01  0.54971264229E-02  0.20634224380E-01  0.10202494617E+01  0.10199746057E+01 0.  0.
     999903    2    3    3    0    0  0.78103065086E-01  0.10459121519E+00  0.48927411014E-02  0.13195145199E+00  0.18650353782E-01 0.  0.
         14    1    1    2    0    0 -0.10236126100E-01 -0.54971264229E-02 -0.20634224380E-01  0.23680538258E-01  0.00000000000E+00 0. -1.
     999901    1    3    3    0    0 -0.67866938987E-01 -0.99094088765E-01  0.15741483278E-01  0.88829800975E+00  0.88000000000E+00 0. -1.
        -11    1    4    4    0    0  0.42143902421E-01  0.70948146446E-01  0.68118775761E-03  0.82525590777E-01  0.51100000000E-03 0. -1.
         11    1    4    4    0    0  0.35959162665E-01  0.33643068742E-01  0.42115533438E-02  0.49425861212E-01  0.51100000000E-03 0.  1.
</event>
<event>
 8    1  0.1010879E+005  0.1043930E+01  0.7957747E-01            NaN
         13   -1    0    0    0    0  0.00000000000E+00  0.00000000000E+00  0.74505805969E-08  0.10566000000E+00  0.10566000000E+00 0. -1.
     999900   -1    0    0    0    0 -0.00000000000E+00 -0.00000000000E+00 -0.74505805969E-08  0.93827000000E+00  0.93827000000E+00 0.  1.
     999902    2    1    2    0    0 -0.73598643714E-02 -0.63300428833E-02  0.22154486068E-01  0.10197420216E+01  0.10194551154E+01 0.  0.
     999903    2    3    3    0    0 -0.85560485469E-01  0.47963934505E-01  0.86420159369E-01  0.13227751533E+00  0.20193103484E-01 0.  0.
         14    1    1    2    0    0  0.73598643714E-02  0.63300428833E-02 -0.22154486068E-01  0.24187978407E-01  0.00000000000E+00 0.  1.
     999901    1    3    3    0    0  0.78200621098E-01 -0.54293977389E-01 -0.64265673301E-01  0.88746450627E+00  0.88000000000E+00 0.  1.
        -11    1    4    4    0    0 -0.67696453314E-01  0.36120459502E-01  0.77489908465E-01  0.10905248471E+00  0.51100000000E-03 0. -1.
         11    1    4    4    0    0 -0.17864032155E-01  0.11843475004E-01  0.89302509039E-02  0.23225030618E-01  0.51100000000E-03 0.  1.
</event>
<event>
 8    1  0.1629663E+005  0.1043930E+01  0.7957747E-01            NaN
         13   -1    0    0    0    0  0.00000000000E+00  0.00000000000E+00  0.74505805969E-08  0.10566000000E+00  0.10566000000E+00 0. -1.
     999900   -1    0    0    0    0 -0.00000000000E+00 -0.00000000000E+00 -0.74505805969E-08  0.93827000000E+00  0.93827000000E+00 0. -1.
     999902    2    1    2    0    0 -0.36814907125E-01 -0.12913509907E-02  0.51550568579E-02  0.10067335004E+01  0.10060461029E+01 0.  0.
     999903    2    3    3    0    0 -0.83042816372E-01  0.84776720142E-01 -0.13628242889E-01  0.12112775015E+00  0.20074890364E-01 0.  0.
         14    1    1    2    0    0  0.36814907125E-01  0.12913509907E-02 -0.51550568579E-02  0.37196499636E-01  0.00000000000E+00 0.  1.
     999901    1    3    3    0    0  0.46227909247E-01 -0.86068071133E-01  0.18783299747E-01  0.88560575021E+00  0.88000000000E+00 0.  1.
        -11    1    4    4    0    0 -0.46450230916E-01  0.61137088110E-01 -0.93795353575E-02  0.77353760731E-01  0.51100000000E-03 0. -1.
         11    1    4    4    0    0 -0.36592585456E-01  0.23639632032E-01 -0.42487075311E-02  0.43773989419E-01  0.51100000000E-03 0.  1.
</event>
<event>
 8    1  0.1010879E+005  0.1043930E+01  0.7957747E-01            NaN
         13   -1    0    0    0    0  0.00000000000E+00  0.00000000000E+00  0.74505805969E-08  0.10566000000E+00  0.10566000000E+00 0.  1.
     999900   -1    0    0    0    0 -0.00000000000E+00 -0.00000000000E+00 -0.74505805969E-08  0.93827000000E+00  0.93827000000E+00 0. -1.
     999902    2    1    2    0    0  0.33101048469E-02 -0.31268235398E-02 -0.23522932568E-01  0.10199704053E+01  0.10196889553E+01 0.  0.
     999903    2    3    3    0    0  0.10514267119E-01 -0.12688454331E+00 -0.25864030208E-01  0.13127847115E+00  0.18837510042E-01 0.  0.
         14    1    1    2    0    0 -0.33101048469E-02  0.31268235398E-02  0.23522932568E-01  0.23959594657E-01  0.00000000000E+00 0.  1.
     999901    1    3    3    0    0 -0.72041622718E-02  0.12375771977E+00  0.23410976406E-02  0.88869193419E+00  0.88000000000E+00 0.  1.
        -11    1    4    4    0    0  0.31050328729E-02 -0.73200587299E-01 -0.58335566184E-02  0.73500059278E-01  0.51100000000E-03 0.  1.
         11    1    4    4    0    0  0.74092342458E-02 -0.53683956014E-01 -0.20030473590E-01  0.57778411874E-01  0.51100000000E-03 0. -1.
</event>
<event>
 8    1  0.1010879E+005  0.1043930E+01  0.7957747E-01            NaN
         13   -1    0    0    0    0  0.00000000000E+00  0.00000000000E+00  0.74505805969E-08  0.10566000000E+00  0.10566000000E+00 0. -1.
     999900   -1    0    0    0    0 -0.00000000000E+00 -0.00000000000E+00 -0.74505805969E-08  0.93827000000E+00  0.93827000000E+00 0. -1.
     999902    2    1    2    0    0 -0.13598041595E-01  0.15544454335E-01 -0.91199535238E-02  0.10213532343E+01  0.10211036769E+01 0.  0.
     999903    2    3    3    0    0 -0.11135949158E+00  0.57698226855E-01  0.41576250329E-01  0.13348818449E+00  0.18986549433E-01 0.  0.
         14    1    1    2    0    0  0.13598041595E-01 -0.15544454335E-01  0.91199535238E-02  0.22576765669E-01  0.00000000000E+00 0. -1.
     999901    1    3    3    0    0  0.97761449988E-01 -0.42153772520E-01 -0.50696203853E-01  0.88786504984E+00  0.88000000000E+00 0. -1.
        -11    1    4    4    0    0 -0.67194348706E-01  0.24561283975E-01  0.21006154465E-01  0.74564447392E-01  0.51100000000E-03 0.  1.
         11    1    4    4    0    0 -0.44165142877E-01  0.33136942880E-01  0.20570095864E-01  0.58923737099E-01  0.51100000000E-03 0. -1.
</event>
<event>
 8    1  0.1010879E+005  0.1043930E+01  0.7957747E-01            NaN
         13   -1    0    0    0    0  0.00000000000E+00  0.00000000000E+00  0.74505805969E-08  0.10566000000E+00  0.10566000000E+00 0.  1.
     999900   -1    0    0    0    0 -0.00000000000E+00 -0.00000000000E+00 -0.74505805969E-08  0.93827000000E+00  0.93827000000E+00 0. -1.
     999902    2    1    2    0    0 -0.11817320715E-01 -0.81014154790E-02 -0.18230502421E-01  0.10207430808E+01  0.10204796930E+01 0.  0.
     999903    2    3    3    0    0 -0.62573439461E-01 -0.35615274606E-01 -0.11090536263E+00  0.13399518783E+00  0.21698566600E-01 0.  0.
         14    1    1    2    0    0  0.11817320715E-01  0.81014154790E-02  0.18230502421E-01  0.23186919160E-01  0.00000000000E+00 0.  1.
     999901    1    3    3    0    0  0.50756118746E-01  0.27513859128E-01  0.92674860206E-01  0.88674789300E+00  0.88000000000E+00 0.  1.
        -11    1    4    4    0    0 -0.31689382578E-02  0.24722288249E-02 -0.10648047226E-01  0.11392809828E-01  0.51100000000E-03 0. -1.
         11    1    4    4    0    0 -0.59404501203E-01 -0.38087503431E-01 -0.10025731540E+00  0.12260237801E+00  0.51100000000E-03 0.  1.
</event>
<event>
 8    1  0.1010879E+005  0.1043930E+01  0.7957747E-01            NaN
         13   -1    0    0    0    0  0.00000000000E+00  0.00000000000E+00  0.74505805969E-08  0.10566000000E+00  0.10566000000E+00 0. -1.
     999900   -1    0    0    0    0 -0.00000000000E+00 -0.00000000000E+00 -0.74505805969E-08  0.93827000000E+00  0.93827000000E+00 0.  1.
     999902    2    1    2    0    0  0.21372037589E-01  0.11644803979E-01  0.20163267958E-02  0.10195080626E+01  0.10192155114E+01 0.  0.
     999903    2    3    3    0    0 -0.85419183228E-01 -0.37527237091E-01  0.85127292259E-01  0.12780761572E+00  0.19580611883E-01 0.  0.
         14    1    1    2    0    0 -0.21372037589E-01 -0.11644803979E-01 -0.20163267958E-02  0.24421937355E-01  0.00000000000E+00 0.  1.
     999901    1    3    3    0    0  0.10679122082E+00  0.49172041070E-01 -0.83110965463E-01  0.89170044693E+00  0.88000000000E+00 0.  1.
        -11    1    4    4    0    0 -0.41321876506E-01 -0.27704005364E-01  0.50426345779E-01  0.70838456087E-01  0.51100000000E-03 0. -1.
         11    1    4    4    0    0 -0.44097306722E-01 -0.98232317272E-02  0.34700946480E-01  0.56969159633E-01  0.51100000000E-03 0.  1.
</event>
<event>
 7    1  0.1010879E+005  0.1043930E+01  0.7957747E-01            NaN
         13   -1    0    0    0    0  0.00000000000E+00  0.00000000000E+00  0.74505805969E-08  0.10566000000E+00  0.10566000000E+00 0. -1.
     999900   -1    0    0    0    0 -0.00000000000E+00 -0.00000000000E+00 -0.74505805969E-08  0.93827000000E+00  0.93827000000E+00 0. -1.
     999903    2    1    2    0    0 -0.37246600831E-01 -0.78129545089E-01  0.79190318954E-01  0.11897514037E+00  0.19810157017E-01 0.  0.
         14    1    1    2    0    0  0.26467663183E-01 -0.12083199978E-02 -0.29894518286E-01  0.39945956681E-01  0.00000000000E+00 0.  1.
     999901    1    1    2    0    0  0.10778937648E-01  0.79337865087E-01 -0.49295800668E-01  0.88500890295E+00  0.88000000000E+00 0. -1.
        -11    1    3    3    0    0 -0.11626547105E-01 -0.42523020364E-01  0.47836118240E-01  0.65053356468E-01  0.51100000000E-03 0. -1.
         11    1    3    3    0    0 -0.25620053726E-01 -0.35606524725E-01  0.31354200714E-01  0.53921783903E-01  0.51100000000E-03 0.  1.
</event>
<event>
 8    1  0.1010879E+005  0.1043930E+01  0.7957747E-01            NaN
         13   -1    0    0    0    0  0.00000000000E+00  0.00000000000E+00  0.74505805969E-08  0.10566000000E+00  0.10566000000E+00 0.  1.
     999900   -1    0    0    0    0 -0.00000000000E+00 -0.00000000000E+00 -0.74505805969E-08  0.93827000000E+00  0.93827000000E+00 0. -1.
     999902    2    1    2    0    0 -0.15828231752E-01  0.33994365263E-02  0.18981795521E-01  0.10189821013E+01  0.10186766538E+01 0.  0.
     999903    2    3    3    0    0 -0.82534847086E-01  0.83989316219E-01  0.56136080832E-01  0.13200693695E+00  0.20208057999E-01 0.  0.
         14    1    1    2    0    0  0.15828231752E-01 -0.33994365263E-02 -0.18981795521E-01  0.24947898716E-01  0.00000000000E+00 0. -1.
     999901    1    3    3    0    0  0.66706615334E-01 -0.80589879692E-01 -0.37154285310E-01  0.88697516434E+00  0.88000000000E+00 0. -1.
        -11    1    4    4    0    0 -0.58963113053E-01  0.71395086418E-01  0.46274175415E-01  0.10351554230E+00  0.51100000000E-03 0.  1.
         11    1    4    4    0    0 -0.23571734033E-01  0.12594229801E-01  0.98619054164E-02  0.28491394649E-01  0.51100000000E-03 0. -1.
</event>
<event>
 8    1  0.1010879E+005  0.1043930E+01  0.7957747E-01            NaN
         13   -1    0    0    0    0  0.00000000000E+00  0.00000000000E+00  0.74505805969E-08  0.10566000000E+00  0.10566000000E+00 0.  1.
     999900   -1    0    0    0    0 -0.00000000000E+00 -0.00000000000E+00 -0.74505805969E-08  0.93827000000E+00  0.93827000000E+00 0.  1.
     999902    2    1    2    0    0 -0.20353892284E-02  0.28625706163E-02 -0.23434034182E-01  0.10202341970E+01  0.10199589824E+01 0.  0.
     999903    2    3    3    0    0  0.19652357216E-01  0.11839109536E+00 -0.50965421898E-01  0.13199145112E+00  0.20532957297E-01 0.  0.
         14    1    1    2    0    0  0.20353892284E-02 -0.28625706163E-02  0.23434034182E-01  0.23695802960E-01  0.00000000000E+00 0.  1.
     999901    1    3    3    0    0 -0.21687746444E-01 -0.11552852474E+00  0.27531387716E-01  0.88824274592E+00  0.88000000000E+00 0. -1.
        -11    1    4    4    0    0  0.21209984619E-01  0.70787168575E-01 -0.34882196306E-01  0.81717289618E-01  0.51100000000E-03 0. -1.
         11    1    4    4    0    0 -0.15576274036E-02  0.47603926781E-01 -0.16083225592E-01  0.50274161500E-01  0.51100000000E-03 0.  1.
</event>
<event>
 8    1  0.1010879E+005  0.1043930E+01  0.7957747E-01            NaN
         13   -1    0    0    0    0  0.00000000000E+00  0.00000000000E+00  0.74505805969E-08  0.10566000000E+00  0.10566000000E+00 0. -1.
     999900   -1    0    0    0    0 -0.00000000000E+00 -0.00000000000E+00 -0.74505805969E-08  0.93827000000E+00  0.93827000000E+00 0. -1.
     999902    2    1    2    0    0 -0.96659842492E-02  0.81778779980E-02  0.19768380812E-01  0.10204545273E+01  0.10201844659E+01 0.  0.
     999903    2    3    3    0    0 -0.33304188575E-01  0.12441755595E+00  0.23374056178E-01  0.13248863359E+00  0.20444909492E-01 0.  0.
         14    1    1    2    0    0  0.96659842492E-02 -0.81778779980E-02 -0.19768380812E-01  0.23475472732E-01  0.00000000000E+00 0.  1.
     999901    1    3    3    0    0  0.23638204325E-01 -0.11623967795E+00 -0.36056753654E-02  0.88796589367E+00  0.88000000000E+00 0. -1.
        -11    1    4    4    0    0 -0.17267369427E-01  0.37041655590E-01  0.10296608679E-02  0.40884809138E-01  0.51100000000E-03 0.  1.
         11    1    4    4    0    0 -0.16036819148E-01  0.87375900360E-01  0.22344395310E-01  0.91603824455E-01  0.51100000000E-03 0. -1.
</event>
<event>
 8    1  0.1010879E+005  0.1043930E+01  0.7957747E-01            NaN
         13   -1    0    0    0    0  0.00000000000E+00  0.00000000000E+00  0.74505805969E-08  0.10566000000E+00  0.10566000000E+00 0.  1.
     999900   -1    0    0    0    0 -0.00000000000E+00 -0.00000000000E+00 -0.74505805969E-08  0.93827000000E+00  0.93827000000E+00 0.  1.
     999902    2    1    2    0    0 -0.52737270666E-02  0.22780928046E-01  0.17249728867E-02  0.10204830725E+01  0.10202136750E+01 0.  0.
     999903    2    3    3    0    0  0.84301523131E-01 -0.31513093717E-01  0.91340452581E-01  0.12975163120E+00  0.19813774058E-01 0.  0.
         14    1    1    2    0    0  0.52737270666E-02 -0.22780928046E-01 -0.17249728867E-02  0.23446927544E-01  0.00000000000E+00 0.  1.
     999901    1    3    3    0    0 -0.89575250198E-01  0.54294021763E-01 -0.89615479694E-01  0.89073144126E+00  0.88000000000E+00 0.  1.
        -11    1    4    4    0    0  0.46428972604E-01 -0.67982025623E-02  0.46188219360E-01  0.65844345117E-01  0.51100000000E-03 0.  1.
         11    1    4    4    0    0  0.37872550527E-01 -0.24714891155E-01  0.45152233221E-01  0.63907286080E-01  0.51100000000E-03 0. -1.
</event>
<event>
 8    1  0.1010879E+005  0.1043930E+01  0.7957747E-01            NaN
         13   -1    0    0    0    0  0.00000000000E+00  0.00000000000E+00  0.74505805969E-08  0.10566000000E+00  0.10566000000E+00 0. -1.
     999900   -1    0    0    0    0 -0.00000000000E+00 -0.00000000000E+00 -0.74505805969E-08  0.93827000000E+00  0.93827000000E+00 0.  1.
     999902    2    1    2    0    0  0.55169203846E-02  0.49630104285E-02  0.22206993457E-01  0.10205159350E+01  0.10202473009E+01 0.  0.
     999903    2    3    3    0    0  0.81890769954E-01 -0.34636642173E-01 -0.91418443619E-01  0.12904981820E+00  0.19766855087E-01 0.  0.
         14    1    1    2    0    0 -0.55169203846E-02 -0.49630104285E-02 -0.22206993457E-01  0.23414065035E-01  0.00000000000E+00 0.  1.
     999901    1    3    3    0    0 -0.76373849569E-01  0.39599652601E-01  0.11362543708E+00  0.89146611676E+00  0.88000000000E+00 0. -1.
        -11    1    4    4    0    0  0.73359151409E-01 -0.25019098654E-01 -0.72236379402E-01  0.10595223463E+00  0.51100000000E-03 0. -1.
         11    1    4    4    0    0  0.85316185447E-02 -0.96175435187E-02 -0.19182064217E-01  0.23097583574E-01  0.51100000000E-03 0.  1.
</event>
<event>
 8    1  0.1010879E+005  0.1043930E+01  0.7957747E-01            NaN
         13   -1    0    0    0    0  0.00000000000E+00  0.00000000000E+00  0.74505805969E-08  0.10566000000E+00  0.10566000000E+00 0.  1.
     999900   -1    0    0    0    0 -0.00000000000E+00 -0.00000000000E+00 -0.74505805969E-08  0.93827000000E+00  0.93827000000E+00 0.  1.
     999902    2    1    2    0    0  0.20526560530E-01 -0.10078529943E-01  0.39726422704E-02  0.10207201241E+01  0.10204562085E+01 0.  0.
     999903    2    3    3    0    0  0.10617873560E+00  0.63331631750E-01 -0.42868686189E-01  0.13228360020E+00  0.19401215262E-01 0.  0.
         14    1    1    2    0    0 -0.20526560530E-01  0.10078529943E-01 -0.39726422704E-02  0.23209875907E-01  0.00000000000E+00 0.  1.
     999901    1    3    3    0    0 -0.85652175067E-01 -0.73410161693E-01  0.46841328460E-01  0.88843652389E+00  0.88000000000E+00 0. -1.
        -11    1    4    4    0    0  0.42365792938E-01  0.15224049934E-01 -0.19119346344E-01  0.48912601988E-01  0.51100000000E-03 0. -1.
         11    1    4    4    0    0  0.63812942659E-01  0.48107581816E-01 -0.23749339845E-01  0.83370998213E-01  0.51100000000E-03 0.  1.
</event>
<event>
 8    1  0.1010879E+005  0.1043930E+01  0.7957747E-01            NaN
         13   -1    0    0    0    0  0.00000000000E+00  0.00000000000E+00  0.74505805969E-08  0.10566000000E+00  0.10566000000E+00 0.  1.
     999900   -1    0    0    0    0 -0.00000000000E+00 -0.00000000000E+00 -0.74505805969E-08  0.93827000000E+00  0.93827000000E+00 0. -1.
     999902    2    1    2    0    0  0.23343733301E-01  0.99148950613E-03  0.46709585924E-02  0.10201028980E+01  0.10198245887E+01 0.  0.
     999903    2    3    3    0    0 -0.97995725346E-01 -0.75525861306E-01 -0.26428373413E-01  0.12794521145E+00  0.19084032609E-01 0.  0.
         14    1    1    2    0    0 -0.23343733301E-01 -0.99148950613E-03 -0.46709585924E-02  0.23827102007E-01  0.00000000000E+00 0.  1.
     999901    1    3    3    0    0  0.12133945865E+00  0.76517350812E-01  0.31099332006E-01  0.89215768654E+00  0.88000000000E+00 0.  1.
        -11    1    4    4    0    0 -0.22964105817E-01 -0.27379136181E-01 -0.11561735088E-01  0.37561976695E-01  0.51100000000E-03 0.  1.
         11    1    4    4    0    0 -0.75031619529E-01 -0.48146725126E-01 -0.14866638325E-01  0.90383234759E-01  0.51100000000E-03 0. -1.
</event>
<event>
 8    1  0.1010879E+005  0.1043930E+01  0.7957747E-01            NaN
         13   -1    0    0    0    0  0.00000000000E+00  0.00000000000E+00  0.74505805969E-08  0.10566000000E+00  0.10566000000E+00 0.  1.
     999900   -1    0    0    0    0 -0.00000000000E+00 -0.00000000000E+00 -0.74505805969E-08  0.93827000000E+00  0.93827000000E+00 0.  1.
     999902    2    1    2    0    0 -0.10761415474E-01  0.13236160307E-02 -0.20244122632E-01  0.10209651459E+01  0.10207068358E+01 0.  0.
     999903    2    3    3    0    0 -0.61111401944E-01 -0.84899364408E-01 -0.80188400928E-01  0.13329243595E+00  0.19854176258E-01 0.  0.
         14    1    1    2    0    0  0.10761415474E-01 -0.13236160307E-02  0.20244122632E-01  0.22964854094E-01  0.00000000000E+00 0.  1.
     999901    1    3    3    0    0  0.50349986470E-01  0.86222980439E-01  0.59944278295E-01  0.88767270995E+00  0.88000000000E+00 0. -1.
        -11    1    4    4    0    0 -0.83486573225E-02 -0.25744862176E-01 -0.17524645102E-01  0.32247051253E-01  0.51100000000E-03 0. -1.
         11    1    4    4    0    0 -0.52762744621E-01 -0.59154502232E-01 -0.62663755826E-01  0.10104538470E+00  0.51100000000E-03 0.  1.
</event>
<event>
 8    1  0.1010879E+005  0.1043930E+01  0.7957747E-01            NaN
         13   -1    0    0    0    0  0.00000000000E+00  0.00000000000E+00  0.74505805969E-08  0.10566000000E+00  0.10566000000E+00 0. -1.
     999900   -1    0    0    0    0 -0.00000000000E+00 -0.00000000000E+00 -0.74505805969E-08  0.93827000000E+00  0.93827000000E+00 0.  1.
     999902    2    1    2    0    0  0.52249183479E-02  0.11338414851E-01  0.17322480912E-01  0.10225775348E+01  0.10223545799E+01 0.  0.
     999903    2    3    3    0    0  0.18386608399E-01  0.11822871078E+00 -0.54826784077E-01  0.13308088961E+00  0.19709173186E-01 0.  0.
         14    1    1    2    0    0 -0.52249183479E-02 -0.11338414851E-01 -0.17322480912E-01  0.21352465151E-01  0.00000000000E+00 0.  1.
     999901    1    3    3    0    0 -0.13161690051E-01 -0.10689029593E+00  0.72149264989E-01  0.88949664524E+00  0.88000000000E+00 0. -1.
        -11    1    4    4    0    0  0.16147052410E-01  0.90500046096E-01 -0.32845817655E-01  0.97622202922E-01  0.51100000000E-03 0. -1.
         11    1    4    4    0    0  0.22395559887E-02  0.27728664680E-01 -0.21980966423E-01  0.35458686691E-01  0.51100000000E-03 0.  1.
</event>
<event>
 8    1  0.1010879E+005  0.1043930E+01  0.7957747E-01            NaN
         13   -1    0    0    0    0  0.00000000000E+00  0.00000000000E+00  0.74505805969E-08  0.10566000000E+00  0.10566000000E+00 0.  1.
     999900   -1    0    0    0    0 -0.00000000000E+00 -0.00000000000E+00 -0.74505805969E-08  0.93827000000E+00  0.93827000000E+00 0. -1.
     999902    2    1    2    0    0  0.17663402360E-02 -0.11307588843E-01 -0.18794182486E-01  0.10219253910E+01  0.10216884564E+01 0.  0.
     999903    2    3    3    0    0 -0.27846807168E-01  0.28095232420E-01 -0.12639249723E+00  0.13400258005E+00  0.20416692924E-01 0.  0.
         14    1    1    2    0    0 -0.17663402360E-02  0.11307588843E-01  0.18794182486E-01  0.22004609031E-01  0.00000000000E+00 0.  1.
     999901    1    3    3    0    0  0.29613147404E-01 -0.39402821263E-01  0.10759831474E+00  0.88792281092E+00  0.88000000000E+00 0.  1.
        -11    1    4    4    0    0 -0.20671157441E-01  0.29731549133E-01 -0.92946494032E-01  0.99752562060E-01  0.51100000000E-03 0. -1.
         11    1    4    4    0    0 -0.71756497271E-02 -0.16363167135E-02 -0.33446003194E-01  0.34250017986E-01  0.51100000000E-03 0.  1.
</event>
<event>
 8    1  0.1010879E+005  0.1043930E+01  0.7957747E-01            NaN
         13   -1    0    0    0    0  0.00000000000E+00  0.00000000000E+00  0.74505805969E-08  0.10566000000E+00  0.10566000000E+00 0.  1.
     999900   -1    0    0    0    0 -0.00000000000E+00 -0.00000000000E+00 -0.74505805969E-08  0.93827000000E+00  0.93827000000E+00 0.  1.
     999902    2    1    2    0    0  0.87649906301E-04 -0.22704253481E-01  0.57066309457E-02  0.10205193946E+01  0.10202508409E+01 0.  0.
     999903    2    3    3    0    0 -0.44812164573E-01 -0.11936740951E+00  0.34611071091E-01  0.13361735619E+00  0.19974060343E-01 0.  0.
         14    1    1    2    0    0 -0.87649906301E-04  0.22704253481E-01 -0.57066309457E-02  0.23410605404E-01  0.00000000000E+00 0. -1.
     999901    1    3    3    0    0  0.44899814479E-01  0.96663156024E-01 -0.28904440146E-01  0.88690203841E+00  0.88000000000E+00 0. -1.
        -11    1    4    4    0    0 -0.44514888516E-01 -0.98395824643E-01  0.27241837697E-01  0.11138084417E+00  0.51100000000E-03 0.  1.
         11    1    4    4    0    0 -0.29727605700E-03 -0.20971584863E-01  0.73692333946E-02  0.22236512014E-01  0.51100000000E-03 0. -1.
</event>
<event>
 8    1  0.1010879E+005  0.1043930E+01  0.7957747E-01            NaN
         13   -1    0    0    0    0  0.00000000000E+00  0.00000000000E+00  0.74505805969E-08  0.10566000000E+00  0.10566000000E+00 0.  1.
     999900   -1    0    0    0    0 -0.00000000000E+00 -0.00000000000E+00 -0.74505805969E-08  0.93827000000E+00  0.93827000000E+00 0.  1.
     999902    2    1    2    0    0  0.20399146470E-01 -0.93261410072E-02 -0.93782399215E-02  0.10196184088E+01  0.10193285271E+01 0.  0.
     999903    2    3    3    0    0 -0.35381545501E-01 -0.36699044568E-01 -0.11876651110E+00  0.13067152888E+00  0.19258521923E-01 0.  0.
         14    1    1    2    0    0 -0.20399146470E-01  0.93261410072E-02  0.93782399215E-02  0.24311591203E-01  0.00000000000E+00 0. -1.
     999901    1    3    3    0    0  0.55780691970E-01  0.27372903560E-01  0.10938827118E+00  0.88894687992E+00  0.88000000000E+00 0. -1.
        -11    1    4    4    0    0 -0.31214760226E-01 -0.20300381810E-01 -0.74747759087E-01  0.83510211155E-01  0.51100000000E-03 0.  1.
         11    1    4    4    0    0 -0.41667852749E-02 -0.16398662758E-01 -0.44018752012E-01  0.47161317724E-01  0.51100000000E-03 0. -1.
</event>
<event>
 8    1  0.1010879E+005  0.1043930E+01  0.7957747E-01            NaN
         13   -1    0    0    0    0  0.00000000000E+00  0.00000000000E+00  0.74505805969E-08  0.10566000000E+00  0.10566000000E+00 0. -1.
     999900   -1    0    0    0    0 -0.00000000000E+00 -0.00000000000E+00 -0.74505805969E-08  0.93827000000E+00  0.93827000000E+00 0. -1.
     999902    2    1    2    0    0  0.14754089994E-01 -0.21815015394E-03 -0.20658796545E-01  0.10185426678E+01  0.10182262271E+01 0.  0.
     999903    2    3    3    0    0 -0.10744551977E+00  0.12499927661E-01  0.61703804345E-01  0.12619851214E+00  0.20443020492E-01 0.  0.
         14    1    1    2    0    0 -0.14754089994E-01  0.21815015394E-03  0.20658796545E-01  0.25387332190E-01  0.00000000000E+00 0. -1.
     999901    1    3    3    0    0  0.12219960976E+00 -0.12718077815E-01 -0.82362600891E-01  0.89234415567E+00  0.88000000000E+00 0.  1.
        -11    1    4    4    0    0 -0.71482095718E-02  0.62906511123E-02  0.42149947115E-02  0.10425761023E-01  0.51100000000E-03 0. -1.
         11    1    4    4    0    0 -0.10029731019E+00  0.62092765487E-02  0.57488809634E-01  0.11577275112E+00  0.51100000000E-03 0.  1.
</event>
<event>
 8    1  0.1010879E+005  0.1043930E+01  0.7957747E-01            NaN
         13   -1    0    0    0    0  0.00000000000E+00  0.00000000000E+00  0.74505805969E-08  0.10566000000E+00  0.10566000000E+00 0.  1.
     999900   -1    0    0    0    0 -0.00000000000E+00 -0.00000000000E+00 -0.74505805969E-08  0.93827000000E+00  0.93827000000E+00 0. -1.
     999902    2    1    2    0    0 -0.19326388369E-02  0.22064924400E-01  0.77726392431E-02  0.10204563999E+01  0.10201863821E+01 0.  0.
     999903    2    3    3    0    0 -0.61678245911E-01  0.11284073398E+00  0.29889363831E-01  0.13349589644E+00  0.19762161626E-01 0.  0.
         14    1    1    2    0    0  0.19326388369E-02 -0.22064924400E-01 -0.77726392431E-02  0.23473600117E-01  0.00000000000E+00 0.  1.
     999901    1    3    3    0    0  0.59745607074E-01 -0.90775809575E-01 -0.22116724588E-01  0.88696050345E+00  0.88000000000E+00 0. -1.
        -11    1    4    4    0    0 -0.35171858755E-01  0.44577596655E-01  0.10570416582E-01  0.57759991339E-01  0.51100000000E-03 0. -1.
         11    1    4    4    0    0 -0.26506387156E-01  0.68263137321E-01  0.19318947249E-01  0.75735905096E-01  0.51100000000E-03 0.  1.
</event>
<event>
 8    1  0.1010879E+005  0.1043930E+01  0.7957747E-01            NaN
         13   -1    0    0    0    0  0.00000000000E+00  0.00000000000E+00  0.74505805969E-08  0.10566000000E+00  0.10566000000E+00 0. -1.
     999900   -1    0    0    0    0 -0.00000000000E+00 -0.00000000000E+00 -0.74505805969E-08  0.93827000000E+00  0.93827000000E+00 0.  1.
     999902    2    1    2    0    0 -0.16950485620E-01 -0.16179576915E-01  0.37112619040E-02  0.10202050946E+01  0.10199291955E+01 0.  0.
     999903    2    3    3    0    0 -0.42918133876E-01 -0.12336393512E+00 -0.15389618212E-01  0.13311566898E+00  0.20550286522E-01 0.  0.
         14    1    1    2    0    0  0.16950485620E-01  0.16179576915E-01 -0.37112619040E-02  0.23724905412E-01  0.00000000000E+00 0. -1.
     999901    1    3    3    0    0  0.25967648257E-01  0.10718435820E+00  0.19100880116E-01  0.88708942561E+00  0.88000000000E+00 0.  1.
        -11    1    4    4    0    0 -0.37378190352E-01 -0.11897047331E+00 -0.16964714564E-01  0.12585374565E+00  0.51100000000E-03 0. -1.
         11    1    4    4    0    0 -0.55399435238E-02 -0.43934618106E-02  0.15750963524E-02  0.72619233297E-02  0.51100000000E-03 0.  1.
</event>
<event>
 8    1  0.1010879E+005  0.1043930E+01  0.7957747E-01            NaN
         13   -1    0    0    0    0  0.00000000000E+00  0.00000000000E+00  0.74505805969E-08  0.10566000000E+00  0.10566000000E+00 0.  1.
     999900   -1    0    0    0    0 -0.00000000000E+00 -0.00000000000E+00 -0.74505805969E-08  0.93827000000E+00  0.93827000000E+00 0. -1.
     999902    2    1    2    0    0 -0.32122496513E-03 -0.45694547997E-02 -0.22722272287E-01  0.10207505962E+01  0.10204873810E+01 0.  0.
     999903    2    3    3    0    0  0.86065525685E-01  0.15776549140E-01  0.92423678823E-01  0.12882278487E+00  0.19924840792E-01 0.  0.
         14    1    1    2    0    0  0.32122496513E-03  0.45694547997E-02  0.22722272287E-01  0.23179403800E-01  0.00000000000E+00 0.  1.
     999901    1    3    3    0    0 -0.86386750650E-01 -0.20346003939E-01 -0.11514595111E+00  0.89192781133E+00  0.88000000000E+00 0. -1.
        -11    1    4    4    0    0  0.52590967686E-01  0.42126937727E-02  0.66713244512E-01  0.85055715771E-01  0.51100000000E-03 0. -1.
         11    1    4    4    0    0  0.33474557998E-01  0.11563855367E-01  0.25710434311E-01  0.43767069100E-01  0.51100000000E-03 0.  1.
</event>
<event>
 8    1  0.1010879E+005  0.1043930E+01  0.7957747E-01            NaN
         13   -1    0    0    0    0  0.00000000000E+00  0.00000000000E+00  0.74505805969E-08  0.10566000000E+00  0.10566000000E+00 0. -1.
     999900   -1    0    0    0    0 -0.00000000000E+00 -0.00000000000E+00 -0.74505805969E-08  0.93827000000E+00  0.93827000000E+00 0.  1.
     999902    2    1    2    0    0 -0.16370597100E-02 -0.19506333071E-01  0.10653020511E-01  0.10216440439E+01  0.10214009441E+01 0.  0.
     999903    2    3    3    0    0 -0.56985020958E-01  0.37977764782E-01  0.11147773802E+00  0.13229965502E+00  0.19654755482E-01 0.  0.
         14    1    1    2    0    0  0.16370597100E-02  0.19506333071E-01 -0.10653020511E-01  0.22285956124E-01  0.00000000000E+00 0.  1.
     999901    1    3    3    0    0  0.55347961248E-01 -0.57484097853E-01 -0.10082471751E+00  0.88934438885E+00  0.88000000000E+00 0.  1.
        -11    1    4    4    0    0 -0.43365759364E-01  0.17802636450E-01  0.71960365123E-01  0.85884097593E-01  0.51100000000E-03 0.  1.
         11    1    4    4    0    0 -0.13619261594E-01  0.20175128332E-01  0.39517372902E-01  0.46415557431E-01  0.51100000000E-03 0. -1.
</event>
<event>
 8    1  0.1010879E+005  0.1043930E+01  0.7957747E-01            NaN
         13   -1    0    0    0    0  0.00000000000E+00  0.00000000000E+00  0.74505805969E-08  0.10566000000E+00  0.10566000000E+00 0. -1.
     999900   -1    0    0    0    0 -0.00000000000E+00 -0.00000000000E+00 -0.74505805969E-08  0.93827000000E+00  0.93827000000E+00 0.  1.
     999902    2    1    2    0    0 -0.43636881919E-02  0.97247364826E-02 -0.19754605643E-01  0.10214832470E+01  0.10212365873E+01 0.  0.
     999903    2    3    3    0    0 -0.26161202983E-01 -0.11851275950E+00  0.41396893951E-01  0.12982216068E+00  0.20258525848E-01 0.  0.
         14    1    1    2    0    0  0.43636881919E-02 -0.97247364826E-02  0.19754605643E-01  0.22446752959E-01  0.00000000000E+00 0. -1.
     999901    1    3    3    0    0  0.21797514791E-01  0.12823749598E+00 -0.61151499594E-01  0.89166108636E+00  0.88000000000E+00 0.  1.
        -11    1    4    4    0    0 -0.57852885893E-02 -0.72345837527E-01  0.24586264299E-01  0.76629858963E-01  0.51100000000E-03 0.  1.
         11    1    4    4    0    0 -0.20375914393E-01 -0.46166921972E-01  0.16810629652E-01  0.53192301717E-01  0.51100000000E-03 0. -1.
</event>
<event>
 8    1  0.1010879E+005  0.1043930E+01  0.7957747E-01            NaN
         13   -1    0    0    0    0  0.00000000000E+00  0.00000000000E+00  0.74505805969E-08  0.10566000000E+00  0.10566000000E+00 0. -1.
     999900   -1    0    0    0    0 -0.00000000000E+00 -0.00000000000E+00 -0.74505805969E-08  0.93827000000E+00  0.93827000000E+00 0. -1.
     999902    2    1    2    0    0  0.18091959749E-01  0.16824678586E-01 -0.54937759078E-02  0.10186205079E+01  0.10183060290E+01 0.  0.
     999903    2    3    3    0    0  0.65510991751E-02 -0.11859235727E+00  0.39557476411E-01  0.12704853637E+00  0.21667315262E-01 0.  0.
         14    1    1    2    0    0 -0.18091959749E-01 -0.16824678586E-01  0.54937759078E-02  0.25309492108E-01  0.00000000000E+00 0.  1.
     999901    1    3    3    0    0  0.11540860574E-01  0.13541703586E+00 -0.45051252318E-01  0.89157197152E+00  0.88000000000E+00 0. -1.
        -11    1    4    4    0    0  0.14335429247E-01 -0.69057824263E-01  0.25030090872E-01  0.74841527200E-01  0.51100000000E-03 0.  1.
         11    1    4    4    0    0 -0.77843300719E-02 -0.49534533009E-01  0.14527385538E-01  0.52207009172E-01  0.51100000000E-03 0. -1.
</event>
<event>
 7    1  0.1010879E+005  0.1043930E+01  0.7957747E-01            NaN
         13   -1    0    0    0    0  0.00000000000E+00  0.00000000000E+00  0.74505805969E-08  0.10566000000E+00  0.10566000000E+00 0.  1.
     999900   -1    0    0    0    0 -0.00000000000E+00 -0.00000000000E+00 -0.74505805969E-08  0.93827000000E+00  0.93827000000E+00 0. -1.
     999902    2    1    2    0    0 -0.43833830540E-02 -0.19884499435E-01  0.93312047831E-02  0.10215318137E+01  0.10212862320E+01 0.  0.
         14    1    1    2    0    0  0.43833830540E-02  0.19884499435E-01 -0.93312047831E-02  0.22398186255E-01  0.00000000000E+00 0. -1.
     999901    1    3    3    0    0 -0.12637054733E+00  0.24155187298E-01  0.31347671546E-01  0.88990767207E+00  0.88000000000E+00 0. -1.
        -11    1    3    3    0    0  0.76805922253E-01 -0.27514105603E-01 -0.11736926637E-01  0.82426890444E-01  0.51100000000E-03 0. -1.
         11    1    3    3    0    0  0.45181242020E-01 -0.16525581130E-01 -0.10279540126E-01  0.49197251227E-01  0.51100000000E-03 0.  1.
</event>
<event>
 8    1  0.1010879E+005  0.1043930E+01  0.7957747E-01            NaN
         13   -1    0    0    0    0  0.00000000000E+00  0.00000000000E+00  0.74505805969E-08  0.10566000000E+00  0.10566000000E+00 0. -1.
     999900   -1    0    0    0    0 -0.00000000000E+00 -0.00000000000E+00 -0.74505805969E-08  0.93827000000E+00  0.93827000000E+00 0. -1.
     999902    2    1    2    0    0 -0.81909080702E-02  0.21175202874E-01 -0.72236824393E-02  0.10201043462E+01  0.10198260711E+01 0.  0.
     999903    2    3    3    0    0 -0.48635198235E-01  0.12119590186E+00  0.11755994086E-01  0.13331231366E+00  0.24086104715E-01 0.  0.
         14    1    1    2    0    0  0.81909080702E-02 -0.21175202874E-01  0.72236824393E-02  0.23825653816E-01  0.00000000000E+00 0.  1.
     999901    1    3    3    0    0  0.40444290165E-01 -0.10002069899E+00 -0.18979676525E-01  0.88679203253E+00  0.88000000000E+00 0.  1.
        -11    1    4    4    0    0 -0.26896927638E-01  0.94989377178E-01  0.78709140505E-02  0.99038572799E-01  0.51100000000E-03 0.  1.
         11    1    4    4    0    0 -0.21738270598E-01  0.26206524683E-01  0.38850800355E-02  0.34273740858E-01  0.51100000000E-03 0. -1.
</event>
<event>
 8    1  0.1010879E+005  0.1043930E+01  0.7957747E-01            NaN
         13   -1    0    0    0    0  0.00000000000E+00  0.00000000000E+00  0.74505805969E-08  0.10566000000E+00  0.10566000000E+00 0. -1.
     999900   -1    0    0    0    0 -0.00000000000E+00 -0.00000000000E+00 -0.74505805969E-08  0.93827000000E+00  0.93827000000E+00 0. -1.
     999902    2    1    2    0    0 -0.20958549384E-01 -0.10311930898E-01  0.30392549796E-02  0.10203750901E+01  0.10201031765E+01 0.  0.
     999903    2    3    3    0    0 -0.54011780324E-01  0.76523537909E-01 -0.86063216554E-01  0.13100893085E+00  0.31358227823E-01 0.  0.
         14    1    1    2    0    0  0.20958549384E-01  0.10311930898E-01 -0.30392549796E-02  0.23554909933E-01  0.00000000000E+00 0. -1.
     999901    1    3    3    0    0  0.33053230940E-01 -0.86835468807E-01  0.89102471534E-01  0.88936615921E+00  0.88000000000E+00 0.  1.
        -11    1    4    4    0    0 -0.50112200462E-01  0.52037294263E-01 -0.74043550841E-01  0.10344960692E+00  0.51100000000E-03 0. -1.
         11    1    4    4    0    0 -0.38995798614E-02  0.24486243646E-01 -0.12019665713E-01  0.27559323936E-01  0.51100000000E-03 0.  1.
</event>
<event>
 8    1  0.1010879E+005  0.1043930E+01  0.7957747E-01            NaN
         13   -1    0    0    0    0  0.00000000000E+00  0.00000000000E+00  0.74505805969E-08  0.10566000000E+00  0.10566000000E+00 0.  1.
     999900   -1    0    0    0    0 -0.00000000000E+00 -0.00000000000E+00 -0.74505805969E-08  0.93827000000E+00  0.93827000000E+00 0.  1.
     999902    2    1    2    0    0  0.15117497389E-01 -0.87819399382E-02  0.15679665828E-01  0.10204456836E+01  0.10201754163E+01 0.  0.
     999903    2    3    3    0    0  0.11986562395E+00 -0.50971700934E-01  0.19092798876E-01  0.13322316617E+00  0.20444924416E-01 0.  0.
         14    1    1    2    0    0 -0.15117497389E-01  0.87819399382E-02 -0.15679665828E-01  0.23484316402E-01  0.00000000000E+00 0.  1.
     999901    1    3    3    0    0 -0.10474812656E+00  0.42189760996E-01 -0.34131330474E-02  0.88722251743E+00  0.88000000000E+00 0. -1.
        -11    1    4    4    0    0  0.66864429075E-01 -0.20983188289E-01  0.17816609636E-01  0.72310709900E-01  0.51100000000E-03 0.  1.
         11    1    4    4    0    0  0.53001194877E-01 -0.29988512646E-01  0.12761892391E-02  0.60912456272E-01  0.51100000000E-03 0. -1.
</event>
<event>
 8    1  0.1010879E+005  0.1043930E+01  0.7957747E-01            NaN
         13   -1    0    0    0    0  0.00000000000E+00  0.00000000000E+00  0.74505805969E-08  0.10566000000E+00  0.10566000000E+00 0. -1.
     999900   -1    0    0    0    0 -0.00000000000E+00 -0.00000000000E+00 -0.74505805969E-08  0.93827000000E+00  0.93827000000E+00 0.  1.
     999902    2    1    2    0    0 -0.22158098145E-03  0.20953359791E-01 -0.43180705378E-02  0.10225351848E+01  0.10223113352E+01 0.  0.
     999903    2    3    3    0    0  0.76593906320E-01  0.86162302316E-01  0.66084006472E-01  0.13399183879E+00  0.17208954798E-01 0.  0.
         14    1    1    2    0    0  0.22158098145E-03 -0.20953359791E-01  0.43180705378E-02  0.21394815209E-01  0.00000000000E+00 0.  1.
     999901    1    3    3    0    0 -0.76815487302E-01 -0.65208942526E-01 -0.70402077009E-01  0.88854334600E+00  0.88000000000E+00 0. -1.
        -11    1    4    4    0    0  0.43480853492E-01  0.36548705092E-01  0.29360985023E-01  0.63943107736E-01  0.51100000000E-03 0. -1.
         11    1    4    4    0    0  0.33113052828E-01  0.49613597224E-01  0.36723021449E-01  0.70048731055E-01  0.51100000000E-03 0.  1.
</event>
<event>
 8    1  0.1010879E+005  0.1043930E+01  0.7957747E-01            NaN
         13   -1    0    0    0    0  0.00000000000E+00  0.00000000000E+00  0.74505805969E-08  0.10566000000E+00  0.10566000000E+00 0. -1.
     999900   -1    0    0    0    0 -0.00000000000E+00 -0.00000000000E+00 -0.74505805969E-08  0.93827000000E+00  0.93827000000E+00 0. -1.
     999902    2    1    2    0    0  0.93837585749E-02  0.42833888325E-02 -0.21169483554E-01  0.10203811279E+01  0.10201093553E+01 0.  0.
     999903    2    3    3    0    0 -0.18098854481E-01 -0.12709662070E+00 -0.96916759698E-02  0.13012962352E+00  0.18938606250E-01 0.  0.
         14    1    1    2    0    0 -0.93837585749E-02 -0.42833888325E-02  0.21169483554E-01  0.23548872135E-01  0.00000000000E+00 0. -1.
     999901    1    3    3    0    0  0.27482613056E-01  0.13138000953E+00 -0.11477807584E-01  0.89025150435E+00  0.88000000000E+00 0. -1.
        -11    1    4    4    0    0 -0.18406211422E-01 -0.62356868922E-01 -0.41784691230E-02  0.65152808426E-01  0.51100000000E-03 0.  1.
         11    1    4    4    0    0  0.30735694034E-03 -0.64739751779E-01 -0.55132068468E-02  0.64976815092E-01  0.51100000000E-03 0. -1.
</event>
<event>
 8    1  0.1010879E+005  0.1043930E+01  0.7957747E-01            NaN
         13   -1    0    0    0    0  0.00000000000E+00  0.00000000000E+00  0.74505805969E-08  0.10566000000E+00  0.10566000000E+00 0. -1.
     999900   -1    0    0    0    0 -0.00000000000E+00 -0.00000000000E+00 -0.74505805969E-08  0.93827000000E+00  0.93827000000E+00 0.  1.
     999902    2    1    2    0    0 -0.18620822668E-03 -0.55449997903E-02 -0.24413800079E-01  0.10188937197E+01  0.10185860772E+01 0.  0.
     999903    2    3    3    0    0  0.92786222212E-01  0.83025034617E-01  0.24084765799E-01  0.12825314423E+00  0.19140367158E-01 0.  0.
         14    1    1    2    0    0  0.18620822668E-03  0.55449997903E-02  0.24413800079E-01  0.25036280284E-01  0.00000000000E+00 0. -1.
     999901    1    3    3    0    0 -0.92972430438E-01 -0.88570034407E-01 -0.48498565877E-01  0.89064057549E+00  0.88000000000E+00 0. -1.
        -11    1    4    4    0    0  0.64521121786E-01  0.50140799285E-01  0.84298806217E-02  0.82148639172E-01  0.51100000000E-03 0. -1.
         11    1    4    4    0    0  0.28265100425E-01  0.32884235332E-01  0.15654885177E-01  0.46104505054E-01  0.51100000000E-03 0.  1.
</event>
<event>
 8    1  0.1010879E+005  0.1043930E+01  0.7957747E-01            NaN
         13   -1    0    0    0    0  0.00000000000E+00  0.00000000000E+00  0.74505805969E-08  0.10566000000E+00  0.10566000000E+00 0.  1.
     999900   -1    0    0    0    0 -0.00000000000E+00 -0.00000000000E+00 -0.74505805969E-08  0.93827000000E+00  0.93827000000E+00 0. -1.
     999902    2    1    2    0    0 -0.26848141245E-02  0.24027976167E-01 -0.20411437512E-02  0.10196664856E+01  0.10193777630E+01 0.  0.
     999903    2    3    3    0    0  0.79158649885E-01  0.96858626000E-01 -0.37803096139E-01  0.13215221896E+00  0.19683739925E-01 0.  0.
         14    1    1    2    0    0  0.26848141245E-02 -0.24027976167E-01  0.20411437512E-02  0.24263514449E-01  0.00000000000E+00 0.  1.
     999901    1    3    3    0    0 -0.81843464009E-01 -0.72830649833E-01  0.35761952388E-01  0.88751426659E+00  0.88000000000E+00 0.  1.
        -11    1    4    4    0    0  0.55885915737E-01  0.79785505539E-01 -0.33227177167E-01  0.10292360708E+00  0.51100000000E-03 0.  1.
         11    1    4    4    0    0  0.23272734148E-01  0.17073120462E-01 -0.45759189715E-02  0.29228611880E-01  0.51100000000E-03 0. -1.
</event>
<event>
 8    1  0.1010879E+005  0.1043930E+01  0.7957747E-01            NaN
         13   -1    0    0    0    0  0.00000000000E+00  0.00000000000E+00  0.74505805969E-08  0.10566000000E+00  0.10566000000E+00 0.  1.
     999900   -1    0    0    0    0 -0.00000000000E+00 -0.00000000000E+00 -0.74505805969E-08  0.93827000000E+00  0.93827000000E+00 0.  1.
     999902    2    1    2    0    0 -0.13436371248E-01  0.19706363659E-01 -0.63682910799E-02  0.10192433240E+01  0.10189443172E+01 0.  0.
     999903    2    3    3    0    0 -0.65314902480E-01  0.10186453920E+00  0.49320600043E-01  0.13214547121E+00  0.19684591482E-01 0.  0.
         14    1    1    2    0    0  0.13436371248E-01 -0.19706363659E-01  0.63682910799E-02  0.24686676006E-01  0.00000000000E+00 0.  1.
     999901    1    3    3    0    0  0.51878531232E-01 -0.82158175540E-01 -0.55688891123E-01  0.88709785278E+00  0.88000000000E+00 0.  1.
        -11    1    4    4    0    0 -0.43973602501E-01  0.66860166477E-01  0.22418175186E-01  0.83107131331E-01  0.51100000000E-03 0.  1.
         11    1    4    4    0    0 -0.21341299978E-01  0.35004372721E-01  0.26902424857E-01  0.49038339884E-01  0.51100000000E-03 0. -1.
</event>
<event>
 8    1  0.1010879E+005  0.1043930E+01  0.7957747E-01            NaN
         13   -1    0    0    0    0  0.00000000000E+00  0.00000000000E+00  0.74505805969E-08  0.10566000000E+00  0.10566000000E+00 0. -1.
     999900   -1    0    0    0    0 -0.00000000000E+00 -0.00000000000E+00 -0.74505805969E-08  0.93827000000E+00  0.93827000000E+00 0. -1.
     999902    2    1    2    0    0 -0.84454738252E-02 -0.99343092674E-03 -0.21855019744E-01  0.10204788844E+01  0.10202093897E+01 0.  0.
     999903    2    3    3    0    0  0.55744717519E-01 -0.10794169305E+00  0.42471120573E-01  0.12935814976E+00  0.13071044264E-01 0.  0.
         14    1    1    2    0    0  0.84454738252E-02  0.99343092674E-03  0.21855019744E-01  0.23451115563E-01  0.00000000000E+00 0. -1.
     999901    1    3    3    0    0 -0.64190191344E-01  0.10694826212E+00 -0.64326140317E-01  0.89112073467E+00  0.88000000000E+00 0. -1.
        -11    1    4    4    0    0  0.20214073107E-01 -0.51306308234E-01  0.15707771850E-01  0.57340572317E-01  0.51100000000E-03 0. -1.
         11    1    4    4    0    0  0.35530644412E-01 -0.56635384815E-01  0.26763348723E-01  0.72017577447E-01  0.51100000000E-03 0.  1.
</event>
<event>
 8    1  0.1010879E+005  0.1043930E+01  0.7957747E-01            NaN
         13   -1    0    0    0    0  0.00000000000E+00  0.00000000000E+00  0.74505805969E-08  0.10566000000E+00  0.10566000000E+00 0. -1.
     999900   -1    0    0    0    0 -0.00000000000E+00 -0.00000000000E+00 -0.74505805969E-08  0.93827000000E+00  0.93827000000E+00 0.  1.
     999902    2    1    2    0    0 -0.50245875884E-02 -0.20282109328E-01  0.11070324159E-01  0.10202833826E+01  0.10200093226E+01 0.  0.
     999903    2    3    3    0    0  0.83864096393E-01 -0.43145172647E-01 -0.87092631729E-01  0.13008122366E+00  0.21007276389E-01 0.  0.
         14    1    1    2    0    0  0.50245875884E-02  0.20282109328E-01 -0.11070324159E-01  0.23646617437E-01  0.00000000000E+00 0.  1.
     999901    1    3    3    0    0 -0.88888683981E-01  0.22863063319E-01  0.98162955888E-01  0.89020215890E+00  0.88000000000E+00 0. -1.
        -11    1    4    4    0    0  0.62109590937E-01 -0.22945064649E-01 -0.52559932793E-01  0.84539250850E-01  0.51100000000E-03 0.  1.
         11    1    4    4    0    0  0.21754505456E-01 -0.20200107998E-01 -0.34532698936E-01  0.45541972812E-01  0.51100000000E-03 0. -1.
</event>
<event>
 8    1  0.1010879E+005  0.1043930E+01  0.7957747E-01            NaN
         13   -1    0    0    0    0  0.00000000000E+00  0.00000000000E+00  0.74505805969E-08  0.10566000000E+00  0.10566000000E+00 0.  1.
     999900   -1    0    0    0    0 -0.00000000000E+00 -0.00000000000E+00 -0.74505805969E-08  0.93827000000E+00  0.93827000000E+00 0. -1.
     999902    2    1    2    0    0  0.16459228066E-01  0.16701370211E-01 -0.61976700752E-02  0.10196760710E+01  0.10193875793E+01 0.  0.
     999903    2    3    3    0    0 -0.98452743378E-01  0.30471322764E-01  0.74027803477E-01  0.12847996503E+00  0.20138061873E-01 0.  0.
         14    1    1    2    0    0 -0.16459228066E-01 -0.16701370211E-01  0.61976700752E-02  0.24253928956E-01  0.00000000000E+00 0. -1.
     999901    1    3    3    0    0  0.11491197144E+00 -0.13769952553E-01 -0.80225473552E-01  0.89119610602E+00  0.88000000000E+00 0. -1.
        -11    1    4    4    0    0 -0.56187792107E-01  0.27444020593E-01  0.46851118140E-01  0.78137895032E-01  0.51100000000E-03 0. -1.
         11    1    4    4    0    0 -0.42264951271E-01  0.30273021709E-02  0.27176685337E-01  0.50342069994E-01  0.51100000000E-03 0.  1.
</event>
<event>
 8    1  0.1010879E+005  0.1043930E+01  0.7957747E-01            NaN
         13   -1    0    0    0    0  0.00000000000E+00  0.00000000000E+00  0.74505805969E-08  0.10566000000E+00  0.10566000000E+00 0.  1.
     999900   -1    0    0    0    0 -0.00000000000E+00 -0.00000000000E+00 -0.74505805969E-08  0.93827000000E+00  0.93827000000E+00 0. -1.
     999902    2    1    2    0    0  0.17367599243E-01  0.15925322317E-01  0.19004950354E-02  0.10202897531E+01  0.10200158425E+01 0.  0.
     999903    2    3    3    0    0 -0.18180770832E-01  0.12561938690E+00 -0.31138670192E-01  0.13215234203E+00  0.19592190543E-01 0.  0.
         14    1    1    2    0    0 -0.17367599243E-01 -0.15925322317E-01 -0.19004950354E-02  0.23640246948E-01  0.00000000000E+00 0.  1.
     999901    1    3    3    0    0  0.35548370075E-01 -0.10969406458E+00  0.33039165227E-01  0.88813741102E+00  0.88000000000E+00 0.  1.
        -11    1    4    4    0    0 -0.17507657600E-01  0.73965025471E-01 -0.25549250314E-01  0.80189577753E-01  0.51100000000E-03 0.  1.
         11    1    4    4    0    0 -0.67311323226E-03  0.51654361425E-01 -0.55894198772E-02  0.51962764276E-01  0.51100000000E-03 0. -1.
</event>
<event>
 7    1  0.1010879E+005  0.1043930E+01  0.7957747E-01            NaN
         13   -1    0    0    0    0  0.00000000000E+00  0.00000000000E+00  0.74505805969E-08  0.10566000000E+00  0.10566000000E+00 0.  1.
     999900   -1    0    0    0    0 -0.00000000000E+00 -0.00000000000E+00 -0.74505805969E-08  0.93827000000E+00  0.93827000000E+00 0.  1.
     999902    2    1    2    0    0  0.24201878185E-01 -0.36181700620E-02 -0.28713437924E-02  0.10192912769E+01  0.10189934447E+01 0.  0.
         14    1    1    2    0    0 -0.24201878185E-01  0.36181700620E-02  0.28713437924E-02  0.24638723130E-01  0.00000000000E+00 0. -1.
     999901    1    3    3    0    0  0.27282453086E-01 -0.82729142366E-01 -0.98868601376E-01  0.88981090327E+00  0.88000000000E+00 0.  1.
        -11    1    3    3    0    0  0.47126918997E-02  0.14579039883E-01  0.42870459134E-01  0.45529059470E-01  0.51100000000E-03 0. -1.
         11    1    3    3    0    0 -0.77932668004E-02  0.64531932421E-01  0.53126798449E-01  0.83951314128E-01  0.51100000000E-03 0.  1.
</event>
<event>
 7    1  0.1010879E+005  0.1043930E+01  0.7957747E-01            NaN
         13   -1    0    0    0    0  0.00000000000E+00  0.00000000000E+00  0.74505805969E-08  0.10566000000E+00  0.10566000000E+00 0.  1.
     999900   -1    0    0    0    0 -0.00000000000E+00 -0.00000000000E+00 -0.74505805969E-08  0.93827000000E+00  0.93827000000E+00 0. -1.
     999902    2    1    2    0    0  0.84670340508E-02  0.45514376889E-02  0.21188181158E-01  0.10206631723E+01  0.10203979449E+01 0.  0.
         14    1    1    2    0    0 -0.84670340508E-02 -0.45514376889E-02 -0.21188181158E-01  0.23266827705E-01  0.00000000000E+00 0. -1.
     999901    1    3    3    0    0 -0.59490916565E-01 -0.84320893912E-01 -0.21696175762E-01  0.88629560889E+00  0.88000000000E+00 0. -1.
        -11    1    3    3    0    0  0.33887355876E-01  0.51737957193E-01 -0.84544461841E-02  0.62425218334E-01  0.51100000000E-03 0. -1.
         11    1    3    3    0    0  0.34070594740E-01  0.37134374407E-01  0.51338803104E-01  0.71942345066E-01  0.51100000000E-03 0.  1.
</event>
<event>
 8    1  0.1010879E+005  0.1043930E+01  0.7957747E-01            NaN
         13   -1    0    0    0    0  0.00000000000E+00  0.00000000000E+00  0.74505805969E-08  0.10566000000E+00  0.10566000000E+00 0.  1.
     999900   -1    0    0    0    0 -0.00000000000E+00 -0.00000000000E+00 -0.74505805969E-08  0.93827000000E+00  0.93827000000E+00 0.  1.
     999902    2    1    2    0    0 -0.16787031008E-01  0.24964211224E-02 -0.13746611509E-01  0.10220895363E+01  0.10218561612E+01 0.  0.
     999903    2    3    3    0    0 -0.11370258598E+00 -0.64059469227E-02 -0.69409995666E-01  0.13497607717E+00  0.20772089348E-01 0.  0.
         14    1    1    2    0    0  0.16787031008E-01 -0.24964211224E-02  0.13746611509E-01  0.21840463742E-01  0.00000000000E+00 0.  1.
     999901    1    3    3    0    0  0.96915554974E-01  0.89023680451E-02  0.55663384157E-01  0.88711345908E+00  0.88000000000E+00 0. -1.
        -11    1    4    4    0    0 -0.55237319472E-01 -0.39531276995E-02 -0.21728276158E-01  0.59490905077E-01  0.51100000000E-03 0.  1.
         11    1    4    4    0    0 -0.58465266510E-01 -0.24528192232E-02 -0.47681719509E-01  0.75485172097E-01  0.51100000000E-03 0. -1.
</event>
<event>
 8    1  0.1010879E+005  0.1043930E+01  0.7957747E-01            NaN
         13   -1    0    0    0    0  0.00000000000E+00  0.00000000000E+00  0.74505805969E-08  0.10566000000E+00  0.10566000000E+00 0. -1.
     999900   -1    0    0    0    0 -0.00000000000E+00 -0.00000000000E+00 -0.74505805969E-08  0.93827000000E+00  0.93827000000E+00 0.  1.
     999902    2    1    2    0    0  0.22822911045E-01 -0.65059531012E-02  0.36861621606E-02  0.10199133290E+01  0.10196305204E+01 0.  0.
     999903    2    3    3    0    0 -0.32666564002E-01 -0.34686015751E-01 -0.11855336120E+00  0.12928675246E+00  0.19746919187E-01 0.  0.
         14    1    1    2    0    0 -0.22822911045E-01  0.65059531012E-02 -0.36861621606E-02  0.24016670997E-01  0.00000000000E+00 0.  1.
     999901    1    3    3    0    0  0.55489475047E-01  0.28180062650E-01  0.12223952336E+00  0.89062657654E+00  0.88000000000E+00 0.  1.
        -11    1    4    4    0    0 -0.25453228567E-01 -0.20082333349E-01 -0.96933470973E-01  0.10221313944E+00  0.51100000000E-03 0. -1.
         11    1    4    4    0    0 -0.72133354349E-02 -0.14603682402E-01 -0.21619890228E-01  0.27073613026E-01  0.51100000000E-03 0.  1.
</event>
<event>
 8    1  0.1010879E+005  0.1043930E+01  0.7957747E-01            NaN
         13   -1    0    0    0    0  0.00000000000E+00  0.00000000000E+00  0.74505805969E-08  0.10566000000E+00  0.10566000000E+00 0.  1.
     999900   -1    0    0    0    0 -0.00000000000E+00 -0.00000000000E+00 -0.74505805969E-08  0.93827000000E+00  0.93827000000E+00 0.  1.
     999902    2    1    2    0    0  0.14677704332E-01  0.71655879559E-02 -0.42781483869E-02  0.10270455927E+01  0.10269067954E+01 0.  0.
     999903    2    3    3    0    0 -0.61226971089E-01 -0.74232721238E-03  0.11887046496E+00  0.13519939756E+00  0.19984909865E-01 0.  0.
         14    1    1    2    0    0 -0.14677704332E-01 -0.71655879559E-02  0.42781483869E-02  0.16884407269E-01  0.00000000000E+00 0.  1.
     999901    1    3    3    0    0  0.75904675421E-01  0.79079151682E-02 -0.12314861335E+00  0.89184619517E+00  0.88000000000E+00 0.  1.
        -11    1    4    4    0    0 -0.29608382362E-01 -0.28508101626E-02  0.37451030057E-01  0.47829114544E-01  0.51100000000E-03 0. -1.
         11    1    4    4    0    0 -0.31618588726E-01  0.21084829503E-02  0.81419434902E-01  0.87370283015E-01  0.51100000000E-03 0.  1.
</event>
<event>
 8    1  0.1010879E+005  0.1043930E+01  0.7957747E-01            NaN
         13   -1    0    0    0    0  0.00000000000E+00  0.00000000000E+00  0.74505805969E-08  0.10566000000E+00  0.10566000000E+00 0.  1.
     999900   -1    0    0    0    0 -0.00000000000E+00 -0.00000000000E+00 -0.74505805969E-08  0.93827000000E+00  0.93827000000E+00 0. -1.
     999902    2    1    2    0    0 -0.22572700884E-02  0.23476816861E-01  0.60646533698E-03  0.10203371198E+01  0.10200643185E+01 0.  0.
     999903    2    3    3    0    0 -0.85869784360E-01  0.68379258761E-01  0.71357512259E-01  0.13241088832E+00  0.19783980746E-01 0.  0.
         14    1    1    2    0    0  0.22572700884E-02 -0.23476816861E-01 -0.60646533698E-03  0.23592880247E-01  0.00000000000E+00 0.  1.
     999901    1    3    3    0    0  0.83612514272E-01 -0.44902441901E-01 -0.70751046922E-01  0.88792623144E+00  0.88000000000E+00 0. -1.
        -11    1    4    4    0    0 -0.55378391920E-01  0.31612955779E-01  0.41197747014E-01  0.75918777287E-01  0.51100000000E-03 0. -1.
         11    1    4    4    0    0 -0.30491392440E-01  0.36766302982E-01  0.30159765245E-01  0.56492111029E-01  0.51100000000E-03 0.  1.
</event>
<event>
 8    1  0.1010879E+005  0.1043930E+01  0.7957747E-01            NaN
         13   -1    0    0    0    0  0.00000000000E+00  0.00000000000E+00  0.74505805969E-08  0.10566000000E+00  0.10566000000E+00 0. -1.
     999900   -1    0    0    0    0 -0.00000000000E+00 -0.00000000000E+00 -0.74505805969E-08  0.93827000000E+00  0.93827000000E+00 0.  1.
     999902    2    1    2    0    0 -0.65791207213E-02 -0.12195584668E-02  0.12440636291E-01  0.10298040811E+01  0.10297071933E+01 0.  0.
     999903    2    3    3    0    0 -0.89482001215E-01 -0.75096106655E-01 -0.72194175222E-01  0.13879696372E+00  0.20153025254E-01 0.  0.
         14    1    1    2    0    0  0.65791207213E-02  0.12195584668E-02 -0.12440636291E-01  0.14125918860E-01  0.00000000000E+00 0.  1.
     999901    1    3    3    0    0  0.82902880494E-01  0.73876548188E-01  0.84634811513E-01  0.89100711742E+00  0.88000000000E+00 0. -1.
        -11    1    4    4    0    0 -0.54521030257E-01 -0.33565386482E-01 -0.34773963394E-01  0.72860603629E-01  0.51100000000E-03 0.  1.
         11    1    4    4    0    0 -0.34960970958E-01 -0.41530720173E-01 -0.37420211827E-01  0.65936360095E-01  0.51100000000E-03 0. -1.
</event>
<event>
 8    1  0.1010879E+005  0.1043930E+01  0.7957747E-01            NaN
         13   -1    0    0    0    0  0.00000000000E+00  0.00000000000E+00  0.74505805969E-08  0.10566000000E+00  0.10566000000E+00 0. -1.
     999900   -1    0    0    0    0 -0.00000000000E+00 -0.00000000000E+00 -0.74505805969E-08  0.93827000000E+00  0.93827000000E+00 0.  1.
     999902    2    1    2    0    0 -0.19861400298E-01  0.94308340320E-02  0.93319882502E-02  0.10200448193E+01  0.10197651355E+01 0.  0.
     999903    2    3    3    0    0 -0.11354116240E+00 -0.63948785136E-01 -0.61735876205E-02  0.13190018625E+00  0.19455160489E-01 0.  0.
         14    1    1    2    0    0  0.19861400298E-01 -0.94308340320E-02 -0.93319882502E-02  0.23885180699E-01  0.00000000000E+00 0.  1.
     999901    1    3    3    0    0  0.93679762099E-01  0.73379619168E-01  0.15505575871E-01  0.88814463305E+00  0.88000000000E+00 0.  1.
        -11    1    4    4    0    0 -0.41184875595E-01 -0.33681844569E-01 -0.52111204711E-02  0.53460990721E-01  0.51100000000E-03 0.  1.
         11    1    4    4    0    0 -0.72356286801E-01 -0.30266940567E-01 -0.96246714942E-03  0.78439195527E-01  0.51100000000E-03 0. -1.
</event>
<event>
 8    1  0.1121934E+005  0.1043930E+01  0.7957747E-01            NaN
         13   -1    0    0    0    0  0.00000000000E+00  0.00000000000E+00  0.74505805969E-08  0.10566000000E+00  0.10566000000E+00 0.  1.
     999900   -1    0    0    0    0 -0.00000000000E+00 -0.00000000000E+00 -0.74505805969E-08  0.93827000000E+00  0.93827000000E+00 0.  1.
     999902    2    1    2    0    0  0.24593906622E-01  0.21906896791E-01  0.53053302695E-02  0.10105695609E+01  0.10100187713E+01 0.  0.
     999903    2    3    3    0    0 -0.68860721798E-01 -0.70837487516E-01 -0.61936697241E-01  0.11823734770E+00  0.19600185750E-01 0.  0.
         14    1    1    2    0    0 -0.24593906622E-01 -0.21906896791E-01 -0.53053302695E-02  0.33360439134E-01  0.00000000000E+00 0.  1.
     999901    1    3    3    0    0  0.93454628420E-01  0.92744384307E-01  0.67242027510E-01  0.89233221317E+00  0.88000000000E+00 0. -1.
        -11    1    4    4    0    0 -0.39761695233E-01 -0.53225428652E-01 -0.36892944207E-01  0.75995322989E-01  0.51100000000E-03 0. -1.
         11    1    4    4    0    0 -0.29099026566E-01 -0.17612058864E-01 -0.25043753034E-01  0.42242024709E-01  0.51100000000E-03 0.  1.
</event>
<event>
 8    1  0.1010879E+005  0.1043930E+01  0.7957747E-01            NaN
         13   -1    0    0    0    0  0.00000000000E+00  0.00000000000E+00  0.74505805969E-08  0.10566000000E+00  0.10566000000E+00 0. -1.
     999900   -1    0    0    0    0 -0.00000000000E+00 -0.00000000000E+00 -0.74505805969E-08  0.93827000000E+00  0.93827000000E+00 0. -1.
     999902    2    1    2    0    0  0.86006781085E-02  0.19867481111E-01  0.74605525463E-02  0.10210313469E+01  0.10207745407E+01 0.  0.
     999903    2    3    3    0    0 -0.22532378846E-01  0.73839580576E-02  0.12859119198E+00  0.13210067615E+00  0.18779325101E-01 0.  0.
         14    1    1    2    0    0 -0.86006781085E-02 -0.19867481111E-01 -0.74605525463E-02  0.22898653103E-01  0.00000000000E+00 0.  1.
     999901    1    3    3    0    0  0.31133056954E-01  0.12483523054E-01 -0.12113063944E+00  0.88893067075E+00  0.88000000000E+00 0. -1.
        -11    1    4    4    0    0 -0.21970679940E-01  0.27304202998E-02  0.72380178536E-01  0.75692254147E-01  0.51100000000E-03 0.  1.
         11    1    4    4    0    0 -0.56169890570E-03  0.46535377578E-02  0.56211013446E-01  0.56408422003E-01  0.51100000000E-03 0. -1.
</event>
<event>
 8    1  0.1010879E+005  0.1043930E+01  0.7957747E-01            NaN
         13   -1    0    0    0    0  0.00000000000E+00  0.00000000000E+00  0.74505805969E-08  0.10566000000E+00  0.10566000000E+00 0.  1.
     999900   -1    0    0    0    0 -0.00000000000E+00 -0.00000000000E+00 -0.74505805969E-08  0.93827000000E+00  0.93827000000E+00 0. -1.
     999902    2    1    2    0    0 -0.16334356843E-01 -0.10230162071E-01  0.11719047732E-01  0.10213733267E+01  0.10211242182E+01 0.  0.
     999903    2    3    3    0    0  0.52116011230E-02  0.81558807921E-01 -0.98623228885E-01  0.12948495853E+00  0.18995085510E-01 0.  0.
         14    1    1    2    0    0  0.16334356843E-01  0.10230162071E-01 -0.11719047732E-01  0.22556673274E-01  0.00000000000E+00 0. -1.
     999901    1    3    3    0    0 -0.21545957966E-01 -0.91788969992E-01  0.11034227662E+00  0.89188836820E+00  0.88000000000E+00 0.  1.
        -11    1    4    4    0    0  0.72866098271E-02  0.55730150663E-01 -0.54365844347E-01  0.78197509732E-01  0.51100000000E-03 0. -1.
         11    1    4    4    0    0 -0.20750087041E-02  0.25828657258E-01 -0.44257384538E-01  0.51287448796E-01  0.51100000000E-03 0.  1.
</event>
<event>
 8    1  0.1010879E+005  0.1043930E+01  0.7957747E-01            NaN
         13   -1    0    0    0    0  0.00000000000E+00  0.00000000000E+00  0.74505805969E-08  0.10566000000E+00  0.10566000000E+00 0.  1.
     999900   -1    0    0    0    0 -0.00000000000E+00 -0.00000000000E+00 -0.74505805969E-08  0.93827000000E+00  0.93827000000E+00 0. -1.
     999902    2    1    2    0    0 -0.62572633621E-02  0.21008025768E-01 -0.89605539557E-02  0.10202491635E+01  0.10199743004E+01 0.  0.
     999903    2    3    3    0    0  0.99294334659E-01 -0.24826837153E-01  0.75624338974E-01  0.12873551881E+00  0.19443673011E-01 0.  0.
         14    1    1    2    0    0  0.62572633621E-02 -0.21008025768E-01  0.89605539557E-02  0.23680836527E-01  0.00000000000E+00 0.  1.
     999901    1    3    3    0    0 -0.10555159802E+00  0.45834862920E-01 -0.84584892930E-01  0.89151364466E+00  0.88000000000E+00 0. -1.
        -11    1    4    4    0    0  0.63969071142E-01 -0.22958125253E-01  0.41809576855E-01  0.79796111532E-01  0.51100000000E-03 0. -1.
         11    1    4    4    0    0  0.35325263517E-01 -0.18687119000E-02  0.33814762119E-01  0.48939407280E-01  0.51100000000E-03 0.  1.
</event>
<event>
 8    1  0.1010879E+005  0.1043930E+01  0.7957747E-01            NaN
         13   -1    0    0    0    0  0.00000000000E+00  0.00000000000E+00  0.74505805969E-08  0.10566000000E+00  0.10566000000E+00 0.  1.
     999900   -1    0    0    0    0 -0.00000000000E+00 -0.00000000000E+00 -0.74505805969E-08  0.93827000000E+00  0.93827000000E+00 0. -1.
     999902    2    1    2    0    0  0.83480494700E-02 -0.17859588762E-01 -0.13094822794E-01  0.10202629507E+01  0.10199884113E+01 0.  0.
     999903    2    3    3    0    0 -0.67824566955E-02  0.12644920232E+00 -0.26790884425E-02  0.12831987684E+00  0.20576948045E-01 0.  0.
         14    1    1    2    0    0 -0.83480494700E-02  0.17859588762E-01  0.13094822794E-01  0.23667049345E-01  0.00000000000E+00 0.  1.
     999901    1    3    3    0    0  0.15130506166E-01 -0.14430879108E+00 -0.10415734352E-01  0.89194307381E+00  0.88000000000E+00 0.  1.
        -11    1    4    4    0    0 -0.12529572097E-01  0.53466693555E-01 -0.43599350564E-02  0.55090358969E-01  0.51100000000E-03 0.  1.
         11    1    4    4    0    0  0.57471154018E-02  0.72982508768E-01  0.16808466138E-02  0.73229517872E-01  0.51100000000E-03 0. -1.
</event>
<event>
 8    1  0.1010879E+005  0.1043930E+01  0.7957747E-01            NaN
         13   -1    0    0    0    0  0.00000000000E+00  0.00000000000E+00  0.74505805969E-08  0.10566000000E+00  0.10566000000E+00 0.  1.
     999900   -1    0    0    0    0 -0.00000000000E+00 -0.00000000000E+00 -0.74505805969E-08  0.93827000000E+00  0.93827000000E+00 0. -1.
     999902    2    1    2    0    0 -0.24339793767E-01  0.71058873502E-02  0.77393206176E-02  0.10174193176E+01  0.10170738673E+01 0.  0.
     999903    2    3    3    0    0  0.40233372878E-01  0.10352597421E+00  0.60796334551E-01  0.12821654339E+00  0.20172656634E-01 0.  0.
         14    1    1    2    0    0  0.24339793767E-01 -0.71058873502E-02 -0.77393206176E-02  0.26510682361E-01  0.00000000000E+00 0. -1.
     999901    1    3    3    0    0 -0.64573166644E-01 -0.96420086858E-01 -0.53057013933E-01  0.88920277425E+00  0.88000000000E+00 0.  1.
        -11    1    4    4    0    0  0.22646377690E-01  0.55674515293E-01  0.21462014581E-01  0.63823109188E-01  0.51100000000E-03 0.  1.
         11    1    4    4    0    0  0.17586995188E-01  0.47851458916E-01  0.39334319970E-01  0.64393434204E-01  0.51100000000E-03 0. -1.
</event>
<event>
 8    1  0.1010879E+005  0.1043930E+01  0.7957747E-01            NaN
         13   -1    0    0    0    0  0.00000000000E+00  0.00000000000E+00  0.74505805969E-08  0.10566000000E+00  0.10566000000E+00 0.  1.
     999900   -1    0    0    0    0 -0.00000000000E+00 -0.00000000000E+00 -0.74505805969E-08  0.93827000000E+00  0.93827000000E+00 0. -1.
     999902    2    1    2    0    0  0.11075716208E-01 -0.15699839890E-01  0.13921396269E-01  0.10202031853E+01  0.10199272413E+01 0.  0.
     999903    2    3    3    0    0  0.71491252296E-01  0.79509526179E-01  0.73057500875E-01  0.13103956747E+00  0.20030124830E-01 0.  0.
         14    1    1    2    0    0 -0.11075716208E-01  0.15699839890E-01 -0.13921396269E-01  0.23726814708E-01  0.00000000000E+00 0. -1.
     999901    1    3    3    0    0 -0.60415536088E-01 -0.95209366070E-01 -0.59136104606E-01  0.88916361782E+00  0.88000000000E+00 0. -1.
        -11    1    4    4    0    0  0.42212633623E-02  0.14923790077E-01  0.11033707011E-01  0.19040545844E-01  0.51100000000E-03 0. -1.
         11    1    4    4    0    0  0.67269988934E-01  0.64585736102E-01  0.62023793864E-01  0.11199902163E+00  0.51100000000E-03 0.  1.
</event>
<event>
 8    1  0.1010879E+005  0.1043930E+01  0.7957747E-01            NaN
         13   -1    0    0    0    0  0.00000000000E+00  0.00000000000E+00  0.74505805969E-08  0.10566000000E+00  0.10566000000E+00 0.  1.
     999900   -1    0    0    0    0 -0.00000000000E+00 -0.00000000000E+00 -0.74505805969E-08  0.93827000000E+00  0.93827000000E+00 0.  1.
     999902    2    1    2    0    0 -0.12783700184E-01  0.94447871704E-02  0.16975319782E-01  0.10206751408E+01  0.10204101894E+01 0.  0.
     999903    2    3    3    0    0 -0.12672909570E+00 -0.20504818635E-01 -0.22516789325E-01  0.13194562135E+00  0.20540932466E-01 0.  0.
         14    1    1    2    0    0  0.12783700184E-01 -0.94447871704E-02 -0.16975319782E-01  0.23254859208E-01  0.00000000000E+00 0. -1.
     999901    1    3    3    0    0  0.11394539552E+00  0.29949605805E-01  0.39492109107E-01  0.88872951944E+00  0.88000000000E+00 0. -1.
        -11    1    4    4    0    0 -0.30779610635E-01 -0.11861197697E-01  0.87079190084E-04  0.32990015845E-01  0.51100000000E-03 0.  1.
         11    1    4    4    0    0 -0.95949485068E-01 -0.86436209372E-02 -0.22603868515E-01  0.98955605504E-01  0.51100000000E-03 0. -1.
</event>
<event>
 8    1  0.1010879E+005  0.1043930E+01  0.7957747E-01            NaN
         13   -1    0    0    0    0  0.00000000000E+00  0.00000000000E+00  0.74505805969E-08  0.10566000000E+00  0.10566000000E+00 0.  1.
     999900   -1    0    0    0    0 -0.00000000000E+00 -0.00000000000E+00 -0.74505805969E-08  0.93827000000E+00  0.93827000000E+00 0.  1.
     999902    2    1    2    0    0 -0.12648298420E-01 -0.72824715162E-02 -0.21038442475E-01  0.10183247289E+01  0.10180027621E+01 0.  0.
     999903    2    3    3    0    0  0.71798595173E-01  0.61409560284E-01 -0.85759032070E-01  0.12925857404E+00  0.20663857769E-01 0.  0.
         14    1    1    2    0    0  0.12648298420E-01  0.72824715162E-02  0.21038442475E-01  0.25605271061E-01  0.00000000000E+00 0.  1.
     999901    1    3    3    0    0 -0.84446893593E-01 -0.68692031801E-01  0.64720589595E-01  0.88906615490E+00  0.88000000000E+00 0. -1.
        -11    1    4    4    0    0  0.36701457422E-01  0.32656239054E-01 -0.30784804133E-01  0.57977514715E-01  0.51100000000E-03 0.  1.
         11    1    4    4    0    0  0.35097137752E-01  0.28753321231E-01 -0.54974227937E-01  0.71281059324E-01  0.51100000000E-03 0. -1.
</event>
<event>
 8    1  0.1010879E+005  0.1043930E+01  0.7957747E-01            NaN
         13   -1    0    0    0    0  0.00000000000E+00  0.00000000000E+00  0.74505805969E-08  0.10566000000E+00  0.10566000000E+00 0. -1.
     999900   -1    0    0    0    0 -0.00000000000E+00 -0.00000000000E+00 -0.74505805969E-08  0.93827000000E+00  0.93827000000E+00 0.  1.
     999902    2    1    2    0    0  0.20324834279E-01  0.90592110235E-02  0.81205652295E-02  0.10202422020E+01  0.10199671755E+01 0.  0.
     999903    2    3    3    0    0  0.12417694396E+00 -0.39354028562E-01 -0.13888901967E-01  0.13254094649E+00  0.20138220418E-01 0.  0.
         14    1    1    2    0    0 -0.20324834279E-01 -0.90592110235E-02 -0.81205652295E-02  0.23687797966E-01  0.00000000000E+00 0.  1.
     999901    1    3    3    0    0 -0.10385210968E+00  0.48413239586E-01  0.22009467196E-01  0.88770125555E+00  0.88000000000E+00 0. -1.
        -11    1    4    4    0    0  0.58936801948E-01 -0.16716061711E-01  0.33788359595E-02  0.61356751841E-01  0.51100000000E-03 0. -1.
         11    1    4    4    0    0  0.65240142015E-01 -0.22637966851E-01 -0.17267737926E-01  0.71184194646E-01  0.51100000000E-03 0.  1.
</event>
<event>
 8    1  0.1393457E+005  0.1043930E+01  0.7957747E-01            NaN
         13   -1    0    0    0    0  0.00000000000E+00  0.00000000000E+00  0.74505805969E-08  0.10566000000E+00  0.10566000000E+00 0. -1.
     999900   -1    0    0    0    0 -0.00000000000E+00 -0.00000000000E+00 -0.74505805969E-08  0.93827000000E+00  0.93827000000E+00 0.  1.
     999902    2    1    2    0    0 -0.74540040983E-03  0.24265997666E-01  0.18154504769E-02  0.10195847720E+01  0.10192940779E+01 0.  0.
     999903    2    3    3    0    0  0.82645978790E-01  0.89176718309E-01  0.47666103527E-01  0.13207713479E+00  0.19734923602E-01 0.  0.
         14    1    1    2    0    0  0.74540040983E-03 -0.24265997666E-01 -0.18154504769E-02  0.24345227971E-01  0.00000000000E+00 0.  1.
     999901    1    3    3    0    0 -0.83391379200E-01 -0.64910720643E-01 -0.45850653050E-01  0.88750763724E+00  0.88000000000E+00 0.  1.
        -11    1    4    4    0    0  0.57340253167E-01  0.54501190692E-01  0.39316558143E-01  0.88342160294E-01  0.51100000000E-03 0. -1.
         11    1    4    4    0    0  0.25305725623E-01  0.34675527616E-01  0.83495453833E-02  0.43734974493E-01  0.51100000000E-03 0.  1.
</event>
<event>
 8    1  0.1010879E+005  0.1043930E+01  0.7957747E-01            NaN
         13   -1    0    0    0    0  0.00000000000E+00  0.00000000000E+00  0.74505805969E-08  0.10566000000E+00  0.10566000000E+00 0. -1.
     999900   -1    0    0    0    0 -0.00000000000E+00 -0.00000000000E+00 -0.74505805969E-08  0.93827000000E+00  0.93827000000E+00 0. -1.
     999902    2    1    2    0    0  0.96744658999E-02  0.13376254797E-02 -0.22464845164E-01  0.10194340044E+01  0.10191396546E+01 0.  0.
     999903    2    3    3    0    0 -0.37733841697E-01 -0.10933520027E+00 -0.57092459012E-01  0.13056106993E+00  0.20214234522E-01 0.  0.
         14    1    1    2    0    0 -0.96744658999E-02 -0.13376254797E-02  0.22464845164E-01  0.24495995604E-01  0.00000000000E+00 0. -1.
     999901    1    3    3    0    0  0.47408307597E-01  0.11067282575E+00  0.34627613848E-01  0.88887293447E+00  0.88000000000E+00 0. -1.
        -11    1    4    4    0    0 -0.84870392247E-02 -0.30767597992E-01 -0.62932277553E-02  0.32535223337E-01  0.51100000000E-03 0.  1.
         11    1    4    4    0    0 -0.29246802472E-01 -0.78567602279E-01 -0.50799231257E-01  0.98025846591E-01  0.51100000000E-03 0. -1.
</event>
<event>
 8    1  0.1010879E+005  0.1043930E+01  0.7957747E-01            NaN
         13   -1    0    0    0    0  0.00000000000E+00  0.00000000000E+00  0.74505805969E-08  0.10566000000E+00  0.10566000000E+00 0. -1.
     999900   -1    0    0    0    0 -0.00000000000E+00 -0.00000000000E+00 -0.74505805969E-08  0.93827000000E+00  0.93827000000E+00 0. -1.
     999902    2    1    2    0    0  0.54686403923E-02 -0.20146680291E-01 -0.11808157109E-01  0.10199461027E+01  0.10196640746E+01 0.  0.
     999903    2    3    3    0    0 -0.64983155820E-01  0.96830128998E-01 -0.49822736547E-01  0.12860321822E+00  0.21391545916E-01 0.  0.
         14    1    1    2    0    0 -0.54686403923E-02  0.20146680291E-01  0.11808157109E-01  0.23983897282E-01  0.00000000000E+00 0. -1.
     999901    1    3    3    0    0  0.70451796212E-01 -0.11697680929E+00  0.38014579438E-01  0.89134288450E+00  0.88000000000E+00 0.  1.
        -11    1    4    4    0    0 -0.46254661527E-01  0.60937391736E-01 -0.22454952356E-01  0.79732963265E-01  0.51100000000E-03 0. -1.
         11    1    4    4    0    0 -0.18728494293E-01  0.35892737262E-01 -0.27367784191E-01  0.48870254953E-01  0.51100000000E-03 0.  1.
</event>
<event>
 8    1  0.1010879E+005  0.1043930E+01  0.7957747E-01            NaN
         13   -1    0    0    0    0  0.00000000000E+00  0.00000000000E+00  0.74505805969E-08  0.10566000000E+00  0.10566000000E+00 0.  1.
     999900   -1    0    0    0    0 -0.00000000000E+00 -0.00000000000E+00 -0.74505805969E-08  0.93827000000E+00  0.93827000000E+00 0. -1.
     999902    2    1    2    0    0 -0.11136344217E-01  0.20818669877E-01 -0.26659155623E-02  0.10201699014E+01  0.10198931736E+01 0.  0.
     999903    2    3    3    0    0 -0.11097734529E+00  0.19010329747E-01 -0.66331717424E-01  0.13223700424E+00  0.20232764284E-01 0.  0.
         14    1    1    2    0    0  0.11136344217E-01 -0.20818669877E-01  0.26659155623E-02  0.23760098564E-01  0.00000000000E+00 0. -1.
     999901    1    3    3    0    0  0.99841001072E-01  0.18083401296E-02  0.63665801861E-01  0.88793289719E+00  0.88000000000E+00 0.  1.
        -11    1    4    4    0    0 -0.47363575785E-01  0.58582533310E-02 -0.39499742085E-01  0.61952547882E-01  0.51100000000E-03 0. -1.
         11    1    4    4    0    0 -0.63613769505E-01  0.13152076416E-01 -0.26831975338E-01  0.70284456363E-01  0.51100000000E-03 0.  1.
</event>
<event>
 8    1  0.1010879E+005  0.1043930E+01  0.7957747E-01            NaN
         13   -1    0    0    0    0  0.00000000000E+00  0.00000000000E+00  0.74505805969E-08  0.10566000000E+00  0.10566000000E+00 0. -1.
     999900   -1    0    0    0    0 -0.00000000000E+00 -0.00000000000E+00 -0.74505805969E-08  0.93827000000E+00  0.93827000000E+00 0. -1.
     999902    2    1    2    0    0 -0.17206921122E-01 -0.15096380633E-01  0.49116348807E-02  0.10205184003E+01  0.10202498235E+01 0.  0.
     999903    2    3    3    0    0 -0.52990792714E-01  0.10798592130E+00 -0.44636319151E-01  0.12985306571E+00  0.20010856407E-01 0.  0.
         14    1    1    2    0    0  0.17206921122E-01  0.15096380633E-01 -0.49116348807E-02  0.23411599687E-01  0.00000000000E+00 0.  1.
     999901    1    3    3    0    0  0.35783871593E-01 -0.12308230194E+00  0.49547954032E-01  0.89066533460E+00  0.88000000000E+00 0.  1.
        -11    1    4    4    0    0 -0.51321311489E-01  0.87998866219E-01 -0.36859634006E-01  0.10833545684E+00  0.51100000000E-03 0.  1.
         11    1    4    4    0    0 -0.16694812247E-02  0.19987055085E-01 -0.77766851454E-02  0.21517608868E-01  0.51100000000E-03 0. -1.
</event>
<event>
 8    1  0.1010879E+005  0.1043930E+01  0.7957747E-01            NaN
         13   -1    0    0    0    0  0.00000000000E+00  0.00000000000E+00  0.74505805969E-08  0.10566000000E+00  0.10566000000E+00 0. -1.
     999900   -1    0    0    0    0 -0.00000000000E+00 -0.00000000000E+00 -0.74505805969E-08  0.93827000000E+00  0.93827000000E+00 0. -1.
     999902    2    1    2    0    0 -0.86433328870E-02  0.37690651861E-02  0.21938486051E-01  0.10200509249E+01  0.10197713858E+01 0.  0.
     999903    2    3    3    0    0 -0.74534899409E-01 -0.85177388465E-02 -0.10272410320E+00  0.12874097590E+00  0.19849291970E-01 0.  0.
         14    1    1    2    0    0  0.86433328870E-02 -0.37690651861E-02 -0.21938486051E-01  0.23879075065E-01  0.00000000000E+00 0.  1.
     999901    1    3    3    0    0  0.65891566522E-01  0.12286804033E-01  0.12466258925E+00  0.89130994904E+00  0.88000000000E+00 0.  1.
        -11    1    4    4    0    0 -0.23463697705E-01 -0.95749285140E-02 -0.24080691222E-01  0.34962339407E-01  0.51100000000E-03 0. -1.
         11    1    4    4    0    0 -0.51071201704E-01  0.10571896675E-02 -0.78643411980E-01  0.93778636492E-01  0.51100000000E-03 0.  1.
</event>
<event>
 8    1  0.1010879E+005  0.1043930E+01  0.7957747E-01            NaN
         13   -1    0    0    0    0  0.00000000000E+00  0.00000000000E+00  0.74505805969E-08  0.10566000000E+00  0.10566000000E+00 0. -1.
     999900   -1    0    0    0    0 -0.00000000000E+00 -0.00000000000E+00 -0.74505805969E-08  0.93827000000E+00  0.93827000000E+00 0.  1.
     999902    2    1    2    0    0 -0.19598584449E-01 -0.41318093035E-02  0.15481118420E-01  0.10186151548E+01  0.10183005412E+01 0.  0.
     999903    2    3    3    0    0 -0.13350255761E-02  0.10160581117E+00 -0.74057132400E-01  0.12758704057E+00  0.21644188709E-01 0.  0.
         14    1    1    2    0    0  0.19598584449E-01  0.41318093035E-02 -0.15481118420E-01  0.25314845211E-01  0.00000000000E+00 0.  1.
     999901    1    3    3    0    0 -0.18263558873E-01 -0.10573762048E+00  0.89538250820E-01  0.89102811422E+00  0.88000000000E+00 0. -1.
        -11    1    4    4    0    0  0.29886383795E-02  0.98808056771E-02 -0.12760484370E-02  0.10414014634E-01  0.51100000000E-03 0. -1.
         11    1    4    4    0    0 -0.43236639557E-02  0.91725005497E-01 -0.72781083963E-01  0.11717302594E+00  0.51100000000E-03 0.  1.
</event>
<event>
 8    1  0.1010879E+005  0.1043930E+01  0.7957747E-01            NaN
         13   -1    0    0    0    0  0.00000000000E+00  0.00000000000E+00  0.74505805969E-08  0.10566000000E+00  0.10566000000E+00 0.  1.
     999900   -1    0    0    0    0 -0.00000000000E+00 -0.00000000000E+00 -0.74505805969E-08  0.93827000000E+00  0.93827000000E+00 0. -1.
     999902    2    1    2    0    0 -0.92108225434E-03 -0.14965756864E-01  0.17408675878E-01  0.10209542679E+01  0.10206957102E+01 0.  0.
     999903    2    3    3    0    0 -0.96068313112E-01 -0.72058897004E-01 -0.49842505428E-01  0.13144016254E+00  0.19251897575E-01 0.  0.
         14    1    1    2    0    0  0.92108225434E-03  0.14965756864E-01 -0.17408675878E-01  0.22975732129E-01  0.00000000000E+00 0. -1.
     999901    1    3    3    0    0  0.95147230858E-01  0.57093140140E-01  0.67251181306E-01  0.88951410533E+00  0.88000000000E+00 0.  1.
        -11    1    4    4    0    0 -0.68569686243E-01 -0.59709725151E-01 -0.42725910761E-01  0.10046301668E+00  0.51100000000E-03 0.  1.
         11    1    4    4    0    0 -0.27498626870E-01 -0.12349171853E-01 -0.71165946674E-02  0.30977145864E-01  0.51100000000E-03 0. -1.
</event>
<event>
 8    1  0.1010879E+005  0.1043930E+01  0.7957747E-01            NaN
         13   -1    0    0    0    0  0.00000000000E+00  0.00000000000E+00  0.74505805969E-08  0.10566000000E+00  0.10566000000E+00 0. -1.
     999900   -1    0    0    0    0 -0.00000000000E+00 -0.00000000000E+00 -0.74505805969E-08  0.93827000000E+00  0.93827000000E+00 0. -1.
     999902    2    1    2    0    0  0.16946821416E-01 -0.13357367540E-01 -0.82913968205E-02  0.10208137441E+01  0.10205519776E+01 0.  0.
     999903    2    3    3    0    0 -0.50377377974E-01 -0.79160257174E-01  0.88666582520E-01  0.13049727352E+00  0.19066961268E-01 0.  0.
         14    1    1    2    0    0 -0.16946821416E-01  0.13357367540E-01  0.82913968205E-02  0.23116255859E-01  0.00000000000E+00 0. -1.
     999901    1    3    3    0    0  0.67324199390E-01  0.65802889634E-01 -0.96957979341E-01  0.89031647062E+00  0.88000000000E+00 0. -1.
        -11    1    4    4    0    0 -0.84934711140E-02 -0.45323581198E-02  0.51969791247E-02  0.10952215973E-01  0.51100000000E-03 0.  1.
         11    1    4    4    0    0 -0.41883906860E-01 -0.74627899054E-01  0.83469603396E-01  0.11954505754E+00  0.51100000000E-03 0. -1.
</event>
<event>
 8    1  0.1010879E+005  0.1043930E+01  0.7957747E-01            NaN
         13   -1    0    0    0    0  0.00000000000E+00  0.00000000000E+00  0.74505805969E-08  0.10566000000E+00  0.10566000000E+00 0.  1.
     999900   -1    0    0    0    0 -0.00000000000E+00 -0.00000000000E+00 -0.74505805969E-08  0.93827000000E+00  0.93827000000E+00 0. -1.
     999902    2    1    2    0    0 -0.17160598245E-01  0.92178726535E-02  0.13997774007E-01  0.10199426495E+01  0.10196605392E+01 0.  0.
     999903    2    3    3    0    0  0.10279814347E+00 -0.63940604700E-01 -0.34481554841E-01  0.12747836007E+00  0.20146846692E-01 0.  0.
         14    1    1    2    0    0  0.17160598245E-01 -0.92178726535E-02 -0.13997774007E-01  0.23987350532E-01  0.00000000000E+00 0. -1.
     999901    1    3    3    0    0 -0.11995874172E+00  0.73158477353E-01  0.48479328848E-01  0.89246428940E+00  0.88000000000E+00 0. -1.
        -11    1    4    4    0    0  0.53292506595E-01 -0.27924573541E-01 -0.77150203472E-02  0.60660165896E-01  0.51100000000E-03 0. -1.
         11    1    4    4    0    0  0.49505636877E-01 -0.36016031158E-01 -0.26766534494E-01  0.66818194175E-01  0.51100000000E-03 0.  1.
</event>
<event>
 8    1  0.1010879E+005  0.1043930E+01  0.7957747E-01            NaN
         13   -1    0    0    0    0  0.00000000000E+00  0.00000000000E+00  0.74505805969E-08  0.10566000000E+00  0.10566000000E+00 0.  1.
     999900   -1    0    0    0    0 -0.00000000000E+00 -0.00000000000E+00 -0.74505805969E-08  0.93827000000E+00  0.93827000000E+00 0. -1.
     999902    2    1    2    0    0 -0.22376094092E-01  0.25938255682E-02 -0.88704798881E-02  0.10197204372E+01  0.10194330126E+01 0.  0.
     999903    2    3    3    0    0 -0.88888964665E-01 -0.83088420919E-01  0.45261413275E-01  0.13140986584E+00  0.20372127504E-01 0.  0.
         14    1    1    2    0    0  0.22376094092E-01 -0.25938255682E-02  0.88704798881E-02  0.24209562808E-01  0.00000000000E+00 0.  1.
     999901    1    3    3    0    0  0.66512870572E-01  0.85682246488E-01 -0.54131893163E-01  0.88831057135E+00  0.88000000000E+00 0. -1.
        -11    1    4    4    0    0 -0.26441783846E-01 -0.15826521320E-01  0.17872334668E-01  0.35627632219E-01  0.51100000000E-03 0. -1.
         11    1    4    4    0    0 -0.62447180818E-01 -0.67261899599E-01  0.27389078607E-01  0.95782233623E-01  0.51100000000E-03 0.  1.
</event>
<event>
 8    1  0.1010879E+005  0.1043930E+01  0.7957747E-01            NaN
         13   -1    0    0    0    0  0.00000000000E+00  0.00000000000E+00  0.74505805969E-08  0.10566000000E+00  0.10566000000E+00 0.  1.
     999900   -1    0    0    0    0 -0.00000000000E+00 -0.00000000000E+00 -0.74505805969E-08  0.93827000000E+00  0.93827000000E+00 0.  1.
     999902    2    1    2    0    0 -0.12992216954E-01 -0.21431928528E-01 -0.51207867235E-02  0.10183497788E+01  0.10180284496E+01 0.  0.
     999903    2    3    3    0    0 -0.10254017469E+00 -0.70143679693E-01  0.38172742036E-01  0.13140784094E+00  0.19396886379E-01 0.  0.
         14    1    1    2    0    0  0.12992216954E-01  0.21431928528E-01  0.51207867235E-02  0.25580221236E-01  0.00000000000E+00 0.  1.
     999901    1    3    3    0    0  0.89547957731E-01  0.48711751165E-01 -0.43293528759E-01  0.88694193782E+00  0.88000000000E+00 0.  1.
        -11    1    4    4    0    0 -0.77168555556E-01 -0.52834485728E-01  0.19741946160E-01  0.95584906800E-01  0.51100000000E-03 0.  1.
         11    1    4    4    0    0 -0.25371619129E-01 -0.17309193965E-01  0.18430795876E-01  0.35822934142E-01  0.51100000000E-03 0. -1.
</event>
<event>
 8    1  0.1010879E+005  0.1043930E+01  0.7957747E-01            NaN
         13   -1    0    0    0    0  0.00000000000E+00  0.00000000000E+00  0.74505805969E-08  0.10566000000E+00  0.10566000000E+00 0.  1.
     999900   -1    0    0    0    0 -0.00000000000E+00 -0.00000000000E+00 -0.74505805969E-08  0.93827000000E+00  0.93827000000E+00 0.  1.
     999902    2    1    2    0    0 -0.19297611039E-01  0.25401753784E-03  0.11768564394E-01  0.10213255441E+01  0.10210753673E+01 0.  0.
     999903    2    3    3    0    0 -0.11530505570E+00 -0.36554588287E-01  0.55212790601E-01  0.13427441614E+00  0.18699539833E-01 0.  0.
         14    1    1    2    0    0  0.19297611039E-01 -0.25401753784E-03 -0.11768564394E-01  0.22604455857E-01  0.00000000000E+00 0. -1.
     999901    1    3    3    0    0  0.96007444662E-01  0.36808605825E-01 -0.43444226206E-01  0.88705112800E+00  0.88000000000E+00 0. -1.
        -11    1    4    4    0    0 -0.86436949091E-01 -0.19362001475E-01  0.43524805035E-01  0.98696013312E-01  0.51100000000E-03 0. -1.
         11    1    4    4    0    0 -0.28868106609E-01 -0.17192586813E-01  0.11687985565E-01  0.35578402832E-01  0.51100000000E-03 0.  1.
</event>
<event>
 8    1  0.1010879E+005  0.1043930E+01  0.7957747E-01            NaN
         13   -1    0    0    0    0  0.00000000000E+00  0.00000000000E+00  0.74505805969E-08  0.10566000000E+00  0.10566000000E+00 0.  1.
     999900   -1    0    0    0    0 -0.00000000000E+00 -0.00000000000E+00 -0.74505805969E-08  0.93827000000E+00  0.93827000000E+00 0.  1.
     999902    2    1    2    0    0 -0.38414952195E-02  0.10093365841E-01 -0.21085961970E-01  0.10202392653E+01  0.10199641697E+01 0.  0.
     999903    2    3    3    0    0  0.78016876771E-01  0.96578248419E-01 -0.40344540054E-01  0.13200994758E+00  0.19620224769E-01 0.  0.
         14    1    1    2    0    0  0.38414952195E-02 -0.10093365841E-01  0.21085961970E-01  0.23690734723E-01  0.00000000000E+00 0. -1.
     999901    1    3    3    0    0 -0.81858371991E-01 -0.86484882578E-01  0.19258578084E-01  0.88822931769E+00  0.88000000000E+00 0.  1.
        -11    1    4    4    0    0  0.32682017415E-01  0.29410896139E-01 -0.20840550010E-01  0.48659066162E-01  0.51100000000E-03 0. -1.
         11    1    4    4    0    0  0.45334859357E-01  0.67167352280E-01 -0.19503990044E-01  0.83350881422E-01  0.51100000000E-03 0.  1.
</event>
<event>
 8    1  0.1010879E+005  0.1043930E+01  0.7957747E-01            NaN
         13   -1    0    0    0    0  0.00000000000E+00  0.00000000000E+00  0.74505805969E-08  0.10566000000E+00  0.10566000000E+00 0. -1.
     999900   -1    0    0    0    0 -0.00000000000E+00 -0.00000000000E+00 -0.74505805969E-08  0.93827000000E+00  0.93827000000E+00 0. -1.
     999902    2    1    2    0    0 -0.22426904885E-01 -0.20630693631E-02  0.80004611313E-02  0.10200295879E+01  0.10197495431E+01 0.  0.
     999903    2    3    3    0    0  0.94458853868E-01 -0.62191017748E-01  0.58152521357E-01  0.12885458834E+00  0.20774778808E-01 0.  0.
         14    1    1    2    0    0  0.22426904885E-01  0.20630693631E-02 -0.80004611313E-02  0.23900412051E-01  0.00000000000E+00 0. -1.
     999901    1    3    3    0    0 -0.11688575875E+00  0.60127948385E-01 -0.50152060226E-01  0.89117499961E+00  0.88000000000E+00 0. -1.
        -11    1    4    4    0    0  0.21785959537E-01 -0.24631950335E-01  0.20887313444E-01  0.38960261731E-01  0.51100000000E-03 0. -1.
         11    1    4    4    0    0  0.72672894331E-01 -0.37559067413E-01  0.37265207913E-01  0.89894326613E-01  0.51100000000E-03 0.  1.
</event>
<event>
 8    1  0.1010879E+005  0.1043930E+01  0.7957747E-01            NaN
         13   -1    0    0    0    0  0.00000000000E+00  0.00000000000E+00  0.74505805969E-08  0.10566000000E+00  0.10566000000E+00 0. -1.
     999900   -1    0    0    0    0 -0.00000000000E+00 -0.00000000000E+00 -0.74505805969E-08  0.93827000000E+00  0.93827000000E+00 0.  1.
     999902    2    1    2    0    0 -0.68530218452E-02  0.18324550198E-01  0.11654742690E-01  0.10211575149E+01  0.10209035627E+01 0.  0.
     999903    2    3    3    0    0  0.93482259508E-01 -0.88912253923E-02  0.90024576463E-01  0.13157913281E+00  0.19765047198E-01 0.  0.
         14    1    1    2    0    0  0.68530218452E-02 -0.18324550198E-01 -0.11654742690E-01  0.22772485054E-01  0.00000000000E+00 0.  1.
     999901    1    3    3    0    0 -0.10033528135E+00  0.27215775591E-01 -0.78369833774E-01  0.88957838214E+00  0.88000000000E+00 0.  1.
        -11    1    4    4    0    0  0.42794106891E-01  0.48407329361E-04  0.28766734922E-01  0.51566695521E-01  0.51100000000E-03 0.  1.
         11    1    4    4    0    0  0.50688152618E-01 -0.89396327216E-02  0.61257841542E-01  0.80012437285E-01  0.51100000000E-03 0. -1.
</event>
<event>
 8    1  0.1010879E+005  0.1043930E+01  0.7957747E-01            NaN
         13   -1    0    0    0    0  0.00000000000E+00  0.00000000000E+00  0.74505805969E-08  0.10566000000E+00  0.10566000000E+00 0. -1.
     999900   -1    0    0    0    0 -0.00000000000E+00 -0.00000000000E+00 -0.74505805969E-08  0.93827000000E+00  0.93827000000E+00 0. -1.
     999902    2    1    2    0    0  0.19052378640E-02  0.22858656997E-01 -0.75956812827E-02  0.10197671669E+01  0.10194808640E+01 0.  0.
     999903    2    3    3    0    0 -0.12424446258E+00  0.18440709054E-01 -0.29421414920E-01  0.13049239052E+00  0.19644289143E-01 0.  0.
         14    1    1    2    0    0 -0.19052378640E-02 -0.22858656997E-01  0.75956812827E-02  0.24162833136E-01  0.00000000000E+00 0. -1.
     999901    1    3    3    0    0  0.12614970045E+00  0.44179479424E-02  0.21825733637E-01  0.88927477634E+00  0.88000000000E+00 0.  1.
        -11    1    4    4    0    0 -0.65911062285E-01  0.19452172789E-01 -0.13839823745E-01  0.70103188230E-01  0.51100000000E-03 0.  1.
         11    1    4    4    0    0 -0.58333400297E-01 -0.10114637341E-02 -0.15581591175E-01  0.60389202294E-01  0.51100000000E-03 0. -1.
</event>
<event>
 8    1  0.1010879E+005  0.1043930E+01  0.7957747E-01            NaN
         13   -1    0    0    0    0  0.00000000000E+00  0.00000000000E+00  0.74505805969E-08  0.10566000000E+00  0.10566000000E+00 0. -1.
     999900   -1    0    0    0    0 -0.00000000000E+00 -0.00000000000E+00 -0.74505805969E-08  0.93827000000E+00  0.93827000000E+00 0. -1.
     999902    2    1    2    0    0 -0.19300050821E-01  0.77873248995E-02  0.12404093889E-01  0.10197020010E+01  0.10194141332E+01 0.  0.
     999903    2    3    3    0    0  0.48576080729E-01  0.59776759067E-01 -0.10077040836E+00  0.12834430710E+00  0.19613500992E-01 0.  0.
         14    1    1    2    0    0  0.19300050821E-01 -0.77873248995E-02 -0.12404093889E-01  0.24227999009E-01  0.00000000000E+00 0.  1.
     999901    1    3    3    0    0 -0.67876131550E-01 -0.51989434167E-01  0.11317450225E+00  0.89135769389E+00  0.88000000000E+00 0.  1.
        -11    1    4    4    0    0  0.21945252472E-01  0.16687111097E-01 -0.46838679804E-01  0.54352339688E-01  0.51100000000E-03 0. -1.
         11    1    4    4    0    0  0.26630828257E-01  0.43089647970E-01 -0.53931728553E-01  0.73991967412E-01  0.51100000000E-03 0.  1.
</event>
<event>
 8    1  0.1010879E+005  0.1043930E+01  0.7957747E-01            NaN
         13   -1    0    0    0    0  0.00000000000E+00  0.00000000000E+00  0.74505805969E-08  0.10566000000E+00  0.10566000000E+00 0. -1.
     999900   -1    0    0    0    0 -0.00000000000E+00 -0.00000000000E+00 -0.74505805969E-08  0.93827000000E+00  0.93827000000E+00 0.  1.
     999902    2    1    2    0    0  0.15602485117E-01  0.72808110649E-02 -0.14053564364E-01  0.10217050045E+01  0.10214632475E+01 0.  0.
     999903    2    3    3    0    0  0.10119381315E+00 -0.75323750305E-01  0.34496348866E-01  0.13237577245E+00  0.20481500593E-01 0.  0.
         14    1    1    2    0    0 -0.15602485117E-01 -0.72808110649E-02  0.14053564364E-01  0.22224995454E-01  0.00000000000E+00 0.  1.
     999901    1    3    3    0    0 -0.85591328029E-01  0.82604561369E-01 -0.48549913230E-01  0.88932923210E+00  0.88000000000E+00 0.  1.
        -11    1    4    4    0    0  0.54846737333E-01 -0.41642447986E-01  0.29318249720E-01  0.74847037069E-01  0.51100000000E-03 0. -1.
         11    1    4    4    0    0  0.46347075814E-01 -0.33681302319E-01  0.51780991462E-02  0.57528735377E-01  0.51100000000E-03 0.  1.
</event>
<event>
 8    1  0.1010879E+005  0.1043930E+01  0.7957747E-01            NaN
         13   -1    0    0    0    0  0.00000000000E+00  0.00000000000E+00  0.74505805969E-08  0.10566000000E+00  0.10566000000E+00 0. -1.
     999900   -1    0    0    0    0 -0.00000000000E+00 -0.00000000000E+00 -0.74505805969E-08  0.93827000000E+00  0.93827000000E+00 0. -1.
     999902    2    1    2    0    0 -0.17049644354E-01  0.46123287744E-02  0.81866136400E-03  0.10262485364E+01  0.10260962061E+01 0.  0.
     999903    2    3    3    0    0  0.95823728839E-01 -0.74910883198E-01 -0.52335898617E-01  0.13389785035E+00  0.19893733013E-01 0.  0.
         14    1    1    2    0    0  0.17049644354E-01 -0.46123287744E-02 -0.81866136400E-03  0.17681463621E-01  0.00000000000E+00 0.  1.
     999901    1    3    3    0    0 -0.11287337319E+00  0.79523211972E-01  0.53154559981E-01  0.89235068603E+00  0.88000000000E+00 0.  1.
        -11    1    4    4    0    0  0.48792462045E-01 -0.48147171962E-01 -0.35663084472E-01  0.77272059863E-01  0.51100000000E-03 0. -1.
         11    1    4    4    0    0  0.47031266794E-01 -0.26763711235E-01 -0.16672814144E-01  0.56625790483E-01  0.51100000000E-03 0.  1.
</event>
<event>
 8    1  0.1010879E+005  0.1043930E+01  0.7957747E-01            NaN
         13   -1    0    0    0    0  0.00000000000E+00  0.00000000000E+00  0.74505805969E-08  0.10566000000E+00  0.10566000000E+00 0.  1.
     999900   -1    0    0    0    0 -0.00000000000E+00 -0.00000000000E+00 -0.74505805969E-08  0.93827000000E+00  0.93827000000E+00 0. -1.
     999902    2    1    2    0    0  0.23160279748E-01 -0.99410925377E-02 -0.22320323350E-02  0.10186277106E+01  0.10183134130E+01 0.  0.
     999903    2    3    3    0    0  0.88182945287E-02  0.96283625514E-01 -0.81724354817E-01  0.12856680676E+00  0.22411041266E-01 0.  0.
         14    1    1    2    0    0 -0.23160279748E-01  0.99410925377E-02  0.22320323350E-02  0.25302289366E-01  0.00000000000E+00 0. -1.
     999901    1    3    3    0    0  0.14341985219E-01 -0.10622471805E+00  0.79492322482E-01  0.89006090387E+00  0.88000000000E+00 0.  1.
        -11    1    4    4    0    0  0.15479966746E-01  0.82297667496E-01 -0.69535363561E-01  0.10884835025E+00  0.51100000000E-03 0. -1.
         11    1    4    4    0    0 -0.66616722173E-02  0.13985958018E-01 -0.12188991256E-01  0.19718456513E-01  0.51100000000E-03 0.  1.
</event>
<event>
 8    1  0.1010879E+005  0.1043930E+01  0.7957747E-01            NaN
         13   -1    0    0    0    0  0.00000000000E+00  0.00000000000E+00  0.74505805969E-08  0.10566000000E+00  0.10566000000E+00 0. -1.
     999900   -1    0    0    0    0 -0.00000000000E+00 -0.00000000000E+00 -0.74505805969E-08  0.93827000000E+00  0.93827000000E+00 0.  1.
     999902    2    1    2    0    0 -0.17965814950E-01 -0.12172434812E-02 -0.15971925544E-01  0.10198602141E+01  0.10195761382E+01 0.  0.
     999903    2    3    3    0    0  0.10460952736E+00 -0.64091386548E-01  0.30732236284E-01  0.12791898780E+00  0.19181711286E-01 0.  0.
         14    1    1    2    0    0  0.17965814950E-01  0.12172434812E-02  0.15971925544E-01  0.24069785917E-01  0.00000000000E+00 0. -1.
     999901    1    3    3    0    0 -0.12257534231E+00  0.62874143067E-01 -0.46704161828E-01  0.89194122628E+00  0.88000000000E+00 0. -1.
        -11    1    4    4    0    0  0.55947813147E-01 -0.34049675665E-01  0.65397114170E-02  0.65822239063E-01  0.51100000000E-03 0.  1.
         11    1    4    4    0    0  0.48661714217E-01 -0.30041710883E-01  0.24192524867E-01  0.62096748738E-01  0.51100000000E-03 0. -1.
</event>
<event>
 8    1  0.1010879E+005  0.1043930E+01  0.7957747E-01            NaN
         13   -1    0    0    0    0  0.00000000000E+00  0.00000000000E+00  0.74505805969E-08  0.10566000000E+00  0.10566000000E+00 0.  1.
     999900   -1    0    0    0    0 -0.00000000000E+00 -0.00000000000E+00 -0.74505805969E-08  0.93827000000E+00  0.93827000000E+00 0.  1.
     999902    2    1    2    0    0  0.17798868451E-01  0.52303678091E-02 -0.13886917592E-01  0.10207566760E+01  0.10204936005E+01 0.  0.
     999903    2    3    3    0    0  0.92788003232E-01  0.57156561522E-01 -0.75382452259E-01  0.13390753396E+00  0.19293197613E-01 0.  0.
         14    1    1    2    0    0 -0.17798868451E-01 -0.52303678091E-02  0.13886917592E-01  0.23173324012E-01  0.00000000000E+00 0. -1.
     999901    1    3    3    0    0 -0.74989134781E-01 -0.51926193713E-01  0.61495534667E-01  0.88684914203E+00  0.88000000000E+00 0. -1.
        -11    1    4    4    0    0  0.29786436061E-01  0.89418669475E-02 -0.17378712560E-01  0.35629615897E-01  0.51100000000E-03 0.  1.
         11    1    4    4    0    0  0.63001567171E-01  0.48214694575E-01 -0.58003739699E-01  0.98277918064E-01  0.51100000000E-03 0. -1.
</event>
<event>
 8    1  0.1010879E+005  0.1043930E+01  0.7957747E-01            NaN
         13   -1    0    0    0    0  0.00000000000E+00  0.00000000000E+00  0.74505805969E-08  0.10566000000E+00  0.10566000000E+00 0. -1.
     999900   -1    0    0    0    0 -0.00000000000E+00 -0.00000000000E+00 -0.74505805969E-08  0.93827000000E+00  0.93827000000E+00 0. -1.
     999902    2    1    2    0    0 -0.83657268294E-02  0.37850043376E-04  0.21422014901E-01  0.10209324014E+01  0.10206733458E+01 0.  0.
     999903    2    3    3    0    0  0.95860425085E-01 -0.86100939563E-01  0.30684850526E-02  0.13041579075E+00  0.19906531236E-01 0.  0.
         14    1    1    2    0    0  0.83657268294E-02 -0.37850043376E-04 -0.21422014901E-01  0.22997598580E-01  0.00000000000E+00 0.  1.
     999901    1    3    3    0    0 -0.10422615191E+00  0.86138789606E-01  0.18353529849E-01  0.89051661067E+00  0.88000000000E+00 0.  1.
        -11    1    4    4    0    0  0.30880241509E-01 -0.40705536457E-01  0.21910721633E-02  0.51142858076E-01  0.51100000000E-03 0.  1.
         11    1    4    4    0    0  0.64980183577E-01 -0.45395403106E-01  0.87741288931E-03  0.79272932677E-01  0.51100000000E-03 0. -1.
</event>
<event>
 8    1  0.1010879E+005  0.1043930E+01  0.7957747E-01            NaN
         13   -1    0    0    0    0  0.00000000000E+00  0.00000000000E+00  0.74505805969E-08  0.10566000000E+00  0.10566000000E+00 0.  1.
     999900   -1    0    0    0    0 -0.00000000000E+00 -0.00000000000E+00 -0.74505805969E-08  0.93827000000E+00  0.93827000000E+00 0. -1.
     999902    2    1    2    0    0 -0.13450576633E-01  0.12943886724E-01  0.14881698047E-01  0.10200568529E+01  0.10197774542E+01 0.  0.
     999903    2    3    3    0    0 -0.15674843301E-01  0.75128613295E-01  0.10681671091E+00  0.13308225678E+00  0.20274814227E-01 0.  0.
         14    1    1    2    0    0  0.13450576633E-01 -0.12943886724E-01 -0.14881698047E-01  0.23873147091E-01  0.00000000000E+00 0. -1.
     999901    1    3    3    0    0  0.22242666681E-02 -0.62184726571E-01 -0.91935012867E-01  0.88697459613E+00  0.88000000000E+00 0. -1.
        -11    1    4    4    0    0 -0.13992695664E-01  0.23130320819E-01  0.42264509217E-01  0.50173271106E-01  0.51100000000E-03 0.  1.
         11    1    4    4    0    0 -0.16821476368E-02  0.51998292477E-01  0.64552201696E-01  0.82908985677E-01  0.51100000000E-03 0. -1.
</event>
<event>
 8    1  0.1010879E+005  0.1043930E+01  0.7957747E-01            NaN
         13   -1    0    0    0    0  0.00000000000E+00  0.00000000000E+00  0.74505805969E-08  0.10566000000E+00  0.10566000000E+00 0. -1.
     999900   -1    0    0    0    0 -0.00000000000E+00 -0.00000000000E+00 -0.74505805969E-08  0.93827000000E+00  0.93827000000E+00 0.  1.
     999902    2    1    2    0    0  0.23951237406E-02  0.28765159551E-01  0.11982333714E-01  0.10126770427E+01  0.10121946677E+01 0.  0.
     999903    2    3    3    0    0 -0.59731947550E-01  0.82033945228E-01  0.73466424513E-01  0.12674384543E+00  0.19214918594E-01 0.  0.
         14    1    1    2    0    0 -0.23951237406E-02 -0.28765159551E-01 -0.11982333714E-01  0.31252957348E-01  0.00000000000E+00 0.  1.
     999901    1    3    3    0    0  0.62127071290E-01 -0.53268785677E-01 -0.61484090799E-01  0.88593319722E+00  0.88000000000E+00 0.  1.
        -11    1    4    4    0    0 -0.37500285386E-01  0.54438856581E-01  0.36419280500E-01  0.75475066234E-01  0.51100000000E-03 0.  1.
         11    1    4    4    0    0 -0.22231662163E-01  0.27595088647E-01  0.37047144013E-01  0.51268779199E-01  0.51100000000E-03 0. -1.
</event>
<event>
 7    1  0.1010879E+005  0.1043930E+01  0.7957747E-01            NaN
         13   -1    0    0    0    0  0.00000000000E+00  0.00000000000E+00  0.74505805969E-08  0.10566000000E+00  0.10566000000E+00 0. -1.
     999900   -1    0    0    0    0 -0.00000000000E+00 -0.00000000000E+00 -0.74505805969E-08  0.93827000000E+00  0.93827000000E+00 0.  1.
     999903    2    1    2    0    0  0.69220927057E-01  0.33942748329E-01  0.42023956449E-01  0.89994235693E-01  0.19730753547E-01 0.  0.
         14    1    1    2    0    0  0.91976459265E-02  0.63164914560E-01 -0.94903379723E-02  0.64532702073E-01  0.00000000000E+00 0. -1.
     999901    1    1    2    0    0 -0.78418572984E-01 -0.97107662889E-01 -0.32533618476E-01  0.88940306223E+00  0.88000000000E+00 0.  1.
        -11    1    3    3    0    0  0.21222753302E-01  0.20166781037E-01  0.11451126021E-01  0.31440320024E-01  0.51100000000E-03 0. -1.
         11    1    3    3    0    0  0.47998173756E-01  0.13775967292E-01  0.30572830428E-01  0.58553915668E-01  0.51100000000E-03 0.  1.
</event>
<event>
 8    1  0.1010879E+005  0.1043930E+01  0.7957747E-01            NaN
         13   -1    0    0    0    0  0.00000000000E+00  0.00000000000E+00  0.74505805969E-08  0.10566000000E+00  0.10566000000E+00 0. -1.
     999900   -1    0    0    0    0 -0.00000000000E+00 -0.00000000000E+00 -0.74505805969E-08  0.93827000000E+00  0.93827000000E+00 0. -1.
     999902    2    1    2    0    0 -0.23366889446E-01  0.30520929545E-03  0.10424706661E-02  0.10205378770E+01  0.10202697520E+01 0.  0.
     999903    2    3    3    0    0 -0.68877908403E-01 -0.46560517081E-01  0.10110566880E+00  0.13246113885E+00  0.20286671104E-01 0.  0.
         14    1    1    2    0    0  0.23366889446E-01 -0.30520929545E-03 -0.10424706661E-02  0.23392123037E-01  0.00000000000E+00 0.  1.
     999901    1    3    3    0    0  0.45511018957E-01  0.46865726376E-01 -0.10006319814E+00  0.88807673811E+00  0.88000000000E+00 0. -1.
        -11    1    4    4    0    0 -0.34099735896E-01 -0.12986034817E-01  0.34989451833E-01  0.50556423420E-01  0.51100000000E-03 0. -1.
         11    1    4    4    0    0 -0.34778172506E-01 -0.33574482264E-01  0.66116216971E-01  0.81904715430E-01  0.51100000000E-03 0.  1.
</event>
<event>
 8    1  0.1010879E+005  0.1043930E+01  0.7957747E-01            NaN
         13   -1    0    0    0    0  0.00000000000E+00  0.00000000000E+00  0.74505805969E-08  0.10566000000E+00  0.10566000000E+00 0.  1.
     999900   -1    0    0    0    0 -0.00000000000E+00 -0.00000000000E+00 -0.74505805969E-08  0.93827000000E+00  0.93827000000E+00 0.  1.
     999902    2    1    2    0    0 -0.78376881192E-02  0.25359530880E-01 -0.16779189246E-03  0.10173863884E+01  0.10170400681E+01 0.  0.
     999903    2    3    3    0    0 -0.90787902847E-01 -0.10447655860E-02  0.89014359097E-01  0.12860554870E+00  0.19294978448E-01 0.  0.
         14    1    1    2    0    0  0.78376881192E-02 -0.25359530880E-01  0.16779189246E-03  0.26543611578E-01  0.00000000000E+00 0. -1.
     999901    1    3    3    0    0  0.82950214728E-01  0.26404296466E-01 -0.89182150990E-01  0.88878083972E+00  0.88000000000E+00 0.  1.
        -11    1    4    4    0    0 -0.64617670120E-01 -0.68217816561E-02  0.53867182242E-01  0.84403284535E-01  0.51100000000E-03 0. -1.
         11    1    4    4    0    0 -0.26170232727E-01  0.57770160701E-02  0.35147176856E-01  0.44202264168E-01  0.51100000000E-03 0.  1.
</event>
<event>
 8    1  0.1010879E+005  0.1043930E+01  0.7957747E-01            NaN
         13   -1    0    0    0    0  0.00000000000E+00  0.00000000000E+00  0.74505805969E-08  0.10566000000E+00  0.10566000000E+00 0.  1.
     999900   -1    0    0    0    0 -0.00000000000E+00 -0.00000000000E+00 -0.74505805969E-08  0.93827000000E+00  0.93827000000E+00 0.  1.
     999902    2    1    2    0    0  0.23119678969E-01  0.86567853056E-03  0.68599488696E-02  0.10197985298E+01  0.10195129786E+01 0.  0.
     999903    2    3    3    0    0 -0.11298073376E+00 -0.67437997917E-02 -0.54123920851E-01  0.12721785622E+00  0.21091683116E-01 0.  0.
         14    1    1    2    0    0 -0.23119678969E-01 -0.86567853056E-03 -0.68599488696E-02  0.24131470188E-01  0.00000000000E+00 0. -1.
     999901    1    3    3    0    0  0.13610041273E+00  0.76094783223E-02  0.60983869721E-01  0.89258067359E+00  0.88000000000E+00 0.  1.
        -11    1    4    4    0    0 -0.76739228371E-01  0.46198456627E-02 -0.32118353198E-01  0.83319276750E-01  0.51100000000E-03 0. -1.
         11    1    4    4    0    0 -0.36241505386E-01 -0.11363645454E-01 -0.22005567654E-01  0.43898579469E-01  0.51100000000E-03 0.  1.
</event>
<event>
 8    1  0.1010879E+005  0.1043930E+01  0.7957747E-01            NaN
         13   -1    0    0    0    0  0.00000000000E+00  0.00000000000E+00  0.74505805969E-08  0.10566000000E+00  0.10566000000E+00 0.  1.
     999900   -1    0    0    0    0 -0.00000000000E+00 -0.00000000000E+00 -0.74505805969E-08  0.93827000000E+00  0.93827000000E+00 0. -1.
     999902    2    1    2    0    0  0.21213343549E-01  0.12705165283E-01  0.21889669988E-02  0.10191062463E+01  0.10188038686E+01 0.  0.
     999903    2    3    3    0    0  0.11259887690E+00 -0.92856929975E-02  0.64932676314E-01  0.13187928179E+00  0.20277113705E-01 0.  0.
         14    1    1    2    0    0 -0.21213343549E-01 -0.12705165283E-01 -0.21889669988E-02  0.24823753663E-01  0.00000000000E+00 0. -1.
     999901    1    3    3    0    0 -0.91385533348E-01  0.21990858280E-01 -0.62743709316E-01  0.88722696454E+00  0.88000000000E+00 0.  1.
        -11    1    4    4    0    0  0.85092246639E-01  0.24635024282E-03  0.42458741249E-01  0.95098669581E-01  0.51100000000E-03 0. -1.
         11    1    4    4    0    0  0.27506630258E-01 -0.95320432403E-02  0.22473935065E-01  0.36780612214E-01  0.51100000000E-03 0.  1.
</event>
<event>
 8    1  0.1010879E+005  0.1043930E+01  0.7957747E-01            NaN
         13   -1    0    0    0    0  0.00000000000E+00  0.00000000000E+00  0.74505805969E-08  0.10566000000E+00  0.10566000000E+00 0. -1.
     999900   -1    0    0    0    0 -0.00000000000E+00 -0.00000000000E+00 -0.74505805969E-08  0.93827000000E+00  0.93827000000E+00 0.  1.
     999902    2    1    2    0    0  0.11408001018E-02 -0.25368844154E-02 -0.27040988457E-01  0.10167463236E+01  0.10163828679E+01 0.  0.
     999903    2    3    3    0    0 -0.41594966435E-01 -0.31976541727E-01  0.11122231067E+00  0.12444044606E+00  0.19036327660E-01 0.  0.
         14    1    1    2    0    0 -0.11408001018E-02  0.25368844154E-02  0.27040988457E-01  0.27183676428E-01  0.00000000000E+00 0. -1.
     999901    1    3    3    0    0  0.42735766536E-01  0.29439657312E-01 -0.13826329913E+00  0.89230587752E+00  0.88000000000E+00 0.  1.
        -11    1    4    4    0    0 -0.17526233219E-01 -0.23641021740E-01  0.48373874443E-01  0.56624726131E-01  0.51100000000E-03 0. -1.
         11    1    4    4    0    0 -0.24068733215E-01 -0.83355199870E-02  0.62848436225E-01  0.67815719925E-01  0.51100000000E-03 0.  1.
</event>
<event>
 8    1  0.1220024E+005  0.1043930E+01  0.7957747E-01            NaN
         13   -1    0    0    0    0  0.00000000000E+00  0.00000000000E+00  0.74505805969E-08  0.10566000000E+00  0.10566000000E+00 0.  1.
     999900   -1    0    0    0    0 -0.00000000000E+00 -0.00000000000E+00 -0.74505805969E-08  0.93827000000E+00  0.93827000000E+00 0.  1.
     999902    2    1    2    0    0  0.60221426409E-02 -0.50167853820E-02 -0.22538491607E-01  0.10200675202E+01  0.10197883741E+01 0.  0.
     999903    2    3    3    0    0 -0.57885187607E-01  0.89942675759E-01  0.67489845246E-01  0.12809972508E+00  0.20353881390E-01 0.  0.
         14    1    1    2    0    0 -0.60221426409E-02  0.50167853820E-02  0.22538491607E-01  0.23862479784E-01  0.00000000000E+00 0.  1.
     999901    1    3    3    0    0  0.63907330248E-01 -0.94959461141E-01 -0.90028336852E-01  0.89196779513E+00  0.88000000000E+00 0. -1.
        -11    1    4    4    0    0 -0.34381725227E-01  0.44920630521E-01  0.46155192412E-01  0.73010471739E-01  0.51100000000E-03 0.  1.
         11    1    4    4    0    0 -0.23503462381E-01  0.45022045238E-01  0.21334652834E-01  0.55089253343E-01  0.51100000000E-03 0. -1.
</event>
<event>
 8    1  0.1010879E+005  0.1043930E+01  0.7957747E-01            NaN
         13   -1    0    0    0    0  0.00000000000E+00  0.00000000000E+00  0.74505805969E-08  0.10566000000E+00  0.10566000000E+00 0.  1.
     999900   -1    0    0    0    0 -0.00000000000E+00 -0.00000000000E+00 -0.74505805969E-08  0.93827000000E+00  0.93827000000E+00 0. -1.
     999902    2    1    2    0    0 -0.52322359237E-02  0.74048428470E-02  0.14347396403E-01  0.10269577941E+01  0.10268175374E+01 0.  0.
     999903    2    3    3    0    0 -0.13156342913E-01  0.89550229491E-01  0.10290240347E+00  0.13867144087E+00  0.21178548374E-01 0.  0.
         14    1    1    2    0    0  0.52322359237E-02 -0.74048428470E-02 -0.14347396403E-01  0.16972205923E-01  0.00000000000E+00 0. -1.
     999901    1    3    3    0    0  0.79241069890E-02 -0.82145386644E-01 -0.88555007069E-01  0.88828635321E+00  0.88000000000E+00 0.  1.
        -11    1    4    4    0    0 -0.86300846363E-02  0.13668209520E-01  0.25391035245E-01  0.30104220703E-01  0.51100000000E-03 0. -1.
         11    1    4    4    0    0 -0.45262582764E-02  0.75882019971E-01  0.77511368228E-01  0.10856722017E+00  0.51100000000E-03 0.  1.
</event>
<event>
 8    1  0.1010879E+005  0.1043930E+01  0.7957747E-01            NaN
         13   -1    0    0    0    0  0.00000000000E+00  0.00000000000E+00  0.74505805969E-08  0.10566000000E+00  0.10566000000E+00 0. -1.
     999900   -1    0    0    0    0 -0.00000000000E+00 -0.00000000000E+00 -0.74505805969E-08  0.93827000000E+00  0.93827000000E+00 0.  1.
     999902    2    1    2    0    0  0.11882351028E-01  0.98659040696E-02  0.10377079869E-01  0.10253232777E+01  0.10251544340E+01 0.  0.
     999903    2    3    3    0    0  0.12145871994E+00  0.60140110237E-01  0.41803372810E-03  0.13704761155E+00  0.20317961761E-01 0.  0.
         14    1    1    2    0    0 -0.11882351028E-01 -0.98659040696E-02 -0.10377079869E-01  0.18606722324E-01  0.00000000000E+00 0.  1.
     999901    1    3    3    0    0 -0.10957636891E+00 -0.50274206168E-01  0.99590461407E-02  0.88827566613E+00  0.88000000000E+00 0. -1.
        -11    1    4    4    0    0  0.13527927408E-01  0.27773434671E-02 -0.50074139213E-02  0.14698767699E-01  0.51100000000E-03 0.  1.
         11    1    4    4    0    0  0.10793079253E+00  0.57362766770E-01  0.54254476494E-02  0.12234884385E+00  0.51100000000E-03 0. -1.
</event>
<event>
 8    1  0.1010879E+005  0.1043930E+01  0.7957747E-01            NaN
         13   -1    0    0    0    0  0.00000000000E+00  0.00000000000E+00  0.74505805969E-08  0.10566000000E+00  0.10566000000E+00 0. -1.
     999900   -1    0    0    0    0 -0.00000000000E+00 -0.00000000000E+00 -0.74505805969E-08  0.93827000000E+00  0.93827000000E+00 0. -1.
     999902    2    1    2    0    0 -0.49878055687E-04 -0.21624741665E-01  0.10420739217E-01  0.10199253391E+01  0.10196428167E+01 0.  0.
     999903    2    3    3    0    0 -0.50944242258E-01  0.10761293529E+00  0.43283624727E-01  0.12842515249E+00  0.21063901830E-01 0.  0.
         14    1    1    2    0    0  0.49878055687E-04  0.21624741665E-01 -0.10420739217E-01  0.24004660917E-01  0.00000000000E+00 0.  1.
     999901    1    3    3    0    0  0.50894364203E-01 -0.12923767696E+00 -0.32862885510E-01  0.89150018659E+00  0.88000000000E+00 0.  1.
        -11    1    4    4    0    0 -0.21122057140E-01  0.28542520030E-01  0.58238428623E-02  0.35986039157E-01  0.51100000000E-03 0. -1.
         11    1    4    4    0    0 -0.29822185119E-01  0.79070415264E-01  0.37459781865E-01  0.92439113332E-01  0.51100000000E-03 0.  1.
</event>
<event>
 8    1  0.1013698E+005  0.1043930E+01  0.7957747E-01            NaN
         13   -1    0    0    0    0  0.00000000000E+00  0.00000000000E+00  0.74505805969E-08  0.10566000000E+00  0.10566000000E+00 0. -1.
     999900   -1    0    0    0    0 -0.00000000000E+00 -0.00000000000E+00 -0.74505805969E-08  0.93827000000E+00  0.93827000000E+00 0.  1.
     999902    2    1    2    0    0  0.20831864202E-01 -0.13234496243E-02  0.11915902064E-01  0.10198944678E+01  0.10196112096E+01 0.  0.
     999903    2    3    3    0    0  0.91328099404E-01  0.57410821385E-02  0.94639589551E-01  0.13317983771E+00  0.20160245461E-01 0.  0.
         14    1    1    2    0    0 -0.20831864202E-01  0.13234496243E-02 -0.11915902064E-01  0.24035532177E-01  0.00000000000E+00 0. -1.
     999901    1    3    3    0    0 -0.70496235202E-01 -0.70645317629E-02 -0.82723687486E-01  0.88671463011E+00  0.88000000000E+00 0.  1.
        -11    1    4    4    0    0  0.37119156032E-01  0.12255995454E-01  0.40341152779E-01  0.56175714482E-01  0.51100000000E-03 0.  1.
         11    1    4    4    0    0  0.54208943372E-01 -0.65149133158E-02  0.54298436772E-01  0.77004123227E-01  0.51100000000E-03 0. -1.
</event>
<event>
 8    1  0.1010879E+005  0.1043930E+01  0.7957747E-01            NaN
         13   -1    0    0    0    0  0.00000000000E+00  0.00000000000E+00  0.74505805969E-08  0.10566000000E+00  0.10566000000E+00 0. -1.
     999900   -1    0    0    0    0 -0.00000000000E+00 -0.00000000000E+00 -0.74505805969E-08  0.93827000000E+00  0.93827000000E+00 0.  1.
     999902    2    1    2    0    0 -0.10026526744E-01  0.14753398092E-01  0.15686273602E-01  0.10201759862E+01  0.10198994017E+01 0.  0.
     999903    2    3    3    0    0 -0.66271677506E-01  0.11324409190E+00 -0.30938099010E-02  0.13269831023E+00  0.19573203302E-01 0.  0.
         14    1    1    2    0    0  0.10026526744E-01 -0.14753398092E-01 -0.15686273602E-01  0.23754013836E-01  0.00000000000E+00 0.  1.
     999901    1    3    3    0    0  0.56245150761E-01 -0.98490693809E-01  0.18780083503E-01  0.88747767594E+00  0.88000000000E+00 0. -1.
        -11    1    4    4    0    0 -0.46690772684E-01  0.63124061709E-01  0.27852293476E-02  0.78566494411E-01  0.51100000000E-03 0. -1.
         11    1    4    4    0    0 -0.19580904822E-01  0.50120030192E-01 -0.58790392485E-02  0.54131815816E-01  0.51100000000E-03 0.  1.
</event>
<event>
 8    1  0.1011543E+005  0.1043930E+01  0.7957747E-01            NaN
         13   -1    0    0    0    0  0.00000000000E+00  0.00000000000E+00  0.74505805969E-08  0.10566000000E+00  0.10566000000E+00 0.  1.
     999900   -1    0    0    0    0 -0.00000000000E+00 -0.00000000000E+00 -0.74505805969E-08  0.93827000000E+00  0.93827000000E+00 0. -1.
     999902    2    1    2    0    0 -0.17495516019E-01 -0.14538279753E-01  0.25356702024E-02  0.10210414814E+01  0.10207849051E+01 0.  0.
     999903    2    3    3    0    0  0.24192855692E-01  0.11905000951E+00  0.39417754757E-01  0.12922084951E+00  0.19648652027E-01 0.  0.
         14    1    1    2    0    0  0.17495516019E-01  0.14538279753E-01 -0.25356702024E-02  0.22888518570E-01  0.00000000000E+00 0.  1.
     999901    1    3    3    0    0 -0.41688371711E-01 -0.13358828926E+00 -0.36882084555E-01  0.89182063192E+00  0.88000000000E+00 0. -1.
        -11    1    4    4    0    0  0.37205707698E-02  0.63491618452E-01  0.24499866864E-01  0.68158145939E-01  0.51100000000E-03 0.  1.
         11    1    4    4    0    0  0.20472284922E-01  0.55558391056E-01  0.14917887893E-01  0.61062703567E-01  0.51100000000E-03 0. -1.
</event>
<event>
 8    1  0.1412176E+005  0.1043930E+01  0.7957747E-01            NaN
         13   -1    0    0    0    0  0.00000000000E+00  0.00000000000E+00  0.74505805969E-08  0.10566000000E+00  0.10566000000E+00 0.  1.
     999900   -1    0    0    0    0 -0.00000000000E+00 -0.00000000000E+00 -0.74505805969E-08  0.93827000000E+00  0.93827000000E+00 0. -1.
     999902    2    1    2    0    0  0.95372143697E-02  0.16075191521E-01  0.13873233312E-01  0.10206526109E+01  0.10203871399E+01 0.  0.
     999903    2    3    3    0    0  0.11948240763E+00 -0.41227221586E-03 -0.50593189049E-01  0.13131819597E+00  0.20213414194E-01 0.  0.
         14    1    1    2    0    0 -0.95372143697E-02 -0.16075191521E-01 -0.13873233312E-01  0.23277389092E-01  0.00000000000E+00 0.  1.
     999901    1    3    3    0    0 -0.10994519326E+00  0.16487463737E-01  0.64466422361E-01  0.88933441494E+00  0.88000000000E+00 0. -1.
        -11    1    4    4    0    0  0.72671496477E-01 -0.98439935932E-02 -0.33099260507E-01  0.80460380171E-01  0.51100000000E-03 0. -1.
         11    1    4    4    0    0  0.46810911153E-01  0.94317213773E-02 -0.17493928541E-01  0.50857815800E-01  0.51100000000E-03 0.  1.
</event>
<event>
 8    1  0.1010879E+005  0.1043930E+01  0.7957747E-01            NaN
         13   -1    0    0    0    0  0.00000000000E+00  0.00000000000E+00  0.74505805969E-08  0.10566000000E+00  0.10566000000E+00 0.  1.
     999900   -1    0    0    0    0 -0.00000000000E+00 -0.00000000000E+00 -0.74505805969E-08  0.93827000000E+00  0.93827000000E+00 0. -1.
     999902    2    1    2    0    0  0.15213400655E-01 -0.16403680180E-01 -0.11522186360E-01  0.10187647648E+01  0.10184539052E+01 0.  0.
     999903    2    3    3    0    0  0.63527913325E-02  0.12544172724E+00 -0.44992643538E-02  0.12733448071E+00  0.20441176725E-01 0.  0.
         14    1    1    2    0    0 -0.15213400655E-01  0.16403680180E-01  0.11522186360E-01  0.25165235176E-01  0.00000000000E+00 0.  1.
     999901    1    3    3    0    0  0.88606093225E-02 -0.14184540742E+00 -0.70229220063E-02  0.89143028412E+00  0.88000000000E+00 0.  1.
        -11    1    4    4    0    0  0.11010352633E-01  0.11409369960E+00 -0.68693335665E-02  0.11483052303E+00  0.51100000000E-03 0.  1.
         11    1    4    4    0    0 -0.46575613005E-02  0.11348027643E-01  0.23700692127E-02  0.12503957682E-01  0.51100000000E-03 0. -1.
</event>
<event>
 8    1  0.1010879E+005  0.1043930E+01  0.7957747E-01            NaN
         13   -1    0    0    0    0  0.00000000000E+00  0.00000000000E+00  0.74505805969E-08  0.10566000000E+00  0.10566000000E+00 0.  1.
     999900   -1    0    0    0    0 -0.00000000000E+00 -0.00000000000E+00 -0.74505805969E-08  0.93827000000E+00  0.93827000000E+00 0. -1.
     999902    2    1    2    0    0  0.19546835333E-01 -0.62489396300E-02  0.86527060841E-02  0.10216590023E+01  0.10214162323E+01 0.  0.
     999903    2    3    3    0    0  0.81073761437E-01 -0.90934407887E-01 -0.50441392233E-01  0.13348711370E+00  0.20795531754E-01 0.  0.
         14    1    1    2    0    0 -0.19546835333E-01  0.62489396300E-02 -0.86527060841E-02  0.22270997746E-01  0.00000000000E+00 0. -1.
     999901    1    3    3    0    0 -0.61526926105E-01  0.84685468257E-01  0.59094098317E-01  0.88817188856E+00  0.88000000000E+00 0.  1.
        -11    1    4    4    0    0  0.78809055485E-01 -0.86991946649E-01 -0.43521066843E-01  0.12519109548E+00  0.51100000000E-03 0.  1.
         11    1    4    4    0    0  0.22647059526E-02 -0.39424612377E-02 -0.69203253903E-02  0.82960182117E-02  0.51100000000E-03 0. -1.
</event>
<event>
 8    1  0.1010879E+005  0.1043930E+01  0.7957747E-01            NaN
         13   -1    0    0    0    0  0.00000000000E+00  0.00000000000E+00  0.74505805969E-08  0.10566000000E+00  0.10566000000E+00 0. -1.
     999900   -1    0    0    0    0 -0.00000000000E+00 -0.00000000000E+00 -0.74505805969E-08  0.93827000000E+00  0.93827000000E+00 0. -1.
     999902    2    1    2    0    0  0.26263698996E-02  0.92124710716E-02 -0.21874838029E-01  0.10200495481E+01  0.10197699764E+01 0.  0.
     999903    2    3    3    0    0  0.97555527917E-01 -0.54284501715E-01  0.61190886225E-01  0.12879014419E+00  0.19459921097E-01 0.  0.
         14    1    1    2    0    0 -0.26263698996E-02 -0.92124710716E-02  0.21874838029E-01  0.23880451857E-01  0.00000000000E+00 0. -1.
     999901    1    3    3    0    0 -0.94929158017E-01  0.63496972787E-01 -0.83065724254E-01  0.89125940396E+00  0.88000000000E+00 0. -1.
        -11    1    4    4    0    0  0.37953461376E-01 -0.14184114997E-01  0.14147195956E-01  0.42919210420E-01  0.51100000000E-03 0. -1.
         11    1    4    4    0    0  0.59602066541E-01 -0.40100386718E-01  0.47043690269E-01  0.85870933767E-01  0.51100000000E-03 0.  1.
</event>
<event>
 8    1  0.1010879E+005  0.1043930E+01  0.7957747E-01            NaN
         13   -1    0    0    0    0  0.00000000000E+00  0.00000000000E+00  0.74505805969E-08  0.10566000000E+00  0.10566000000E+00 0.  1.
     999900   -1    0    0    0    0 -0.00000000000E+00 -0.00000000000E+00 -0.74505805969E-08  0.93827000000E+00  0.93827000000E+00 0. -1.
     999902    2    1    2    0    0 -0.21597740429E-01  0.91158288184E-02 -0.11391444369E-02  0.10204596277E+01  0.10201896850E+01 0.  0.
     999903    2    3    3    0    0  0.45501354197E-01  0.10527371435E+00 -0.59949713885E-01  0.13073646258E+00  0.18577574813E-01 0.  0.
         14    1    1    2    0    0  0.21597740429E-01 -0.91158288184E-02  0.11391444369E-02  0.23470372318E-01  0.00000000000E+00 0. -1.
     999901    1    3    3    0    0 -0.67099094626E-01 -0.96157885528E-01  0.58810569448E-01  0.88972316511E+00  0.88000000000E+00 0.  1.
        -11    1    4    4    0    0  0.58716743952E-02  0.29937407853E-01 -0.21525602826E-01  0.37340830832E-01  0.51100000000E-03 0. -1.
         11    1    4    4    0    0  0.39629679802E-01  0.75336306493E-01 -0.38424111058E-01  0.93395631744E-01  0.51100000000E-03 0.  1.
</event>
<event>
 8    1  0.1010879E+005  0.1043930E+01  0.7957747E-01            NaN
         13   -1    0    0    0    0  0.00000000000E+00  0.00000000000E+00  0.74505805969E-08  0.10566000000E+00  0.10566000000E+00 0. -1.
     999900   -1    0    0    0    0 -0.00000000000E+00 -0.00000000000E+00 -0.74505805969E-08  0.93827000000E+00  0.93827000000E+00 0.  1.
     999902    2    1    2    0    0 -0.90214465912E-03 -0.21374435655E-02  0.22798902483E-01  0.10210133579E+01  0.10207561435E+01 0.  0.
     999903    2    3    3    0    0 -0.40679581025E-01  0.69887998205E-01 -0.98673361743E-01  0.12886683425E+00  0.18195275418E-01 0.  0.
         14    1    1    2    0    0  0.90214465912E-03  0.21374435655E-02 -0.22798902483E-01  0.22916642084E-01  0.00000000000E+00 0.  1.
     999901    1    3    3    0    0  0.39777436366E-01 -0.72025441771E-01  0.12147226423E+00  0.89214652366E+00  0.88000000000E+00 0. -1.
        -11    1    4    4    0    0 -0.20547594735E-01  0.27250858619E-01 -0.54177962057E-01  0.64033785134E-01  0.51100000000E-03 0. -1.
         11    1    4    4    0    0 -0.20131986290E-01  0.42637139586E-01 -0.44495399685E-01  0.64833049120E-01  0.51100000000E-03 0.  1.
</event>
<event>
 8    1  0.1010879E+005  0.1043930E+01  0.7957747E-01            NaN
         13   -1    0    0    0    0  0.00000000000E+00  0.00000000000E+00  0.74505805969E-08  0.10566000000E+00  0.10566000000E+00 0.  1.
     999900   -1    0    0    0    0 -0.00000000000E+00 -0.00000000000E+00 -0.74505805969E-08  0.93827000000E+00  0.93827000000E+00 0. -1.
     999902    2    1    2    0    0  0.20412462174E-01  0.48599223227E-02 -0.11451164401E-01  0.10200256777E+01  0.10197455401E+01 0.  0.
     999903    2    3    3    0    0  0.95739031118E-01 -0.80126587614E-01  0.36086648416E-01  0.13145567908E+00  0.19801950550E-01 0.  0.
         14    1    1    2    0    0 -0.20412462174E-01 -0.48599223227E-02  0.11451164401E-01  0.23904322269E-01  0.00000000000E+00 0.  1.
     999901    1    3    3    0    0 -0.75326568944E-01  0.84986509937E-01 -0.47537812817E-01  0.88856999865E+00  0.88000000000E+00 0. -1.
        -11    1    4    4    0    0  0.57146342772E-01 -0.53099068981E-01  0.31447025856E-01  0.84109405984E-01  0.51100000000E-03 0. -1.
         11    1    4    4    0    0  0.38592688347E-01 -0.27027518633E-01  0.46396225594E-02  0.47346273093E-01  0.51100000000E-03 0.  1.
</event>
<event>
 8    1  0.1010879E+005  0.1043930E+01  0.7957747E-01            NaN
         13   -1    0    0    0    0  0.00000000000E+00  0.00000000000E+00  0.74505805969E-08  0.10566000000E+00  0.10566000000E+00 0.  1.
     999900   -1    0    0    0    0 -0.00000000000E+00 -0.00000000000E+00 -0.74505805969E-08  0.93827000000E+00  0.93827000000E+00 0.  1.
     999902    2    1    2    0    0  0.16701901830E-01 -0.20530042079E-03 -0.16112689668E-01  0.10207219315E+01  0.10204580575E+01 0.  0.
     999903    2    3    3    0    0  0.19414848197E-01  0.43273305805E-01 -0.12285822932E+00  0.13320158839E+00  0.19975067293E-01 0.  0.
         14    1    1    2    0    0 -0.16701901830E-01  0.20530042079E-03  0.16112689668E-01  0.23208068454E-01  0.00000000000E+00 0.  1.
     999901    1    3    3    0    0 -0.27129463669E-02 -0.43478606226E-01  0.10674553965E+00  0.88752034315E+00  0.88000000000E+00 0. -1.
        -11    1    4    4    0    0  0.15465955805E-01  0.33765787344E-01 -0.68960895593E-01  0.78327456399E-01  0.51100000000E-03 0.  1.
         11    1    4    4    0    0  0.39488923919E-02  0.95075184612E-02 -0.53897333725E-01  0.54874131994E-01  0.51100000000E-03 0. -1.
</event>
<event>
 8    1  0.1010879E+005  0.1043930E+01  0.7957747E-01            NaN
         13   -1    0    0    0    0  0.00000000000E+00  0.00000000000E+00  0.74505805969E-08  0.10566000000E+00  0.10566000000E+00 0.  1.
     999900   -1    0    0    0    0 -0.00000000000E+00 -0.00000000000E+00 -0.74505805969E-08  0.93827000000E+00  0.93827000000E+00 0.  1.
     999902    2    1    2    0    0 -0.17921419883E-01  0.45080469918E-02  0.13352203510E-01  0.10211312913E+01  0.10208767472E+01 0.  0.
     999903    2    3    3    0    0  0.20502673796E-01  0.12550102115E+00 -0.24605752798E-01  0.13121190329E+00  0.20982243736E-01 0.  0.
         14    1    1    2    0    0  0.17921419883E-01 -0.45080469918E-02 -0.13352203510E-01  0.22798708667E-01  0.00000000000E+00 0. -1.
     999901    1    3    3    0    0 -0.38424093680E-01 -0.12099297415E+00  0.37957956308E-01  0.88991938804E+00  0.88000000000E+00 0. -1.
        -11    1    4    4    0    0  0.61212129252E-02  0.51650779378E-01 -0.20345139968E-01  0.55852109176E-01  0.51100000000E-03 0.  1.
         11    1    4    4    0    0  0.14381460871E-01  0.73850241769E-01 -0.42606128297E-02  0.75359794113E-01  0.51100000000E-03 0. -1.
</event>
<event>
 8    1  0.1010879E+005  0.1043930E+01  0.7957747E-01            NaN
         13   -1    0    0    0    0  0.00000000000E+00  0.00000000000E+00  0.74505805969E-08  0.10566000000E+00  0.10566000000E+00 0.  1.
     999900   -1    0    0    0    0 -0.00000000000E+00 -0.00000000000E+00 -0.74505805969E-08  0.93827000000E+00  0.93827000000E+00 0.  1.
     999902    2    1    2    0    0 -0.15044986827E-01  0.66620677628E-02 -0.41408771566E-03  0.10274707702E+01  0.10273389302E+01 0.  0.
     999903    2    3    3    0    0  0.70247847447E-01 -0.11365901579E+00  0.46355707284E-02  0.13518296366E+00  0.19995329650E-01 0.  0.
         14    1    1    2    0    0  0.15044986827E-01 -0.66620677628E-02  0.41408771566E-03  0.16459229755E-01  0.00000000000E+00 0.  1.
     999901    1    3    3    0    0 -0.85292834274E-01  0.12032108355E+00 -0.50496584441E-02  0.89228780658E+00  0.88000000000E+00 0.  1.
        -11    1    4    4    0    0  0.45445533761E-01 -0.67762711087E-01 -0.64480212495E-02  0.81846928175E-01  0.51100000000E-03 0. -1.
         11    1    4    4    0    0  0.24802313686E-01 -0.45896304701E-01  0.11083591978E-01  0.53336035487E-01  0.51100000000E-03 0.  1.
</event>
<event>
 8    1  0.1010879E+005  0.1043930E+01  0.7957747E-01            NaN
         13   -1    0    0    0    0  0.00000000000E+00  0.00000000000E+00  0.74505805969E-08  0.10566000000E+00  0.10566000000E+00 0. -1.
     999900   -1    0    0    0    0 -0.00000000000E+00 -0.00000000000E+00 -0.74505805969E-08  0.93827000000E+00  0.93827000000E+00 0.  1.
     999902    2    1    2    0    0 -0.39782556966E-02 -0.22679669208E-01  0.53846594039E-02  0.10202828338E+01  0.10200087610E+01 0.  0.
     999903    2    3    3    0    0 -0.15319920798E-01  0.10204071066E+00 -0.72932642033E-01  0.12797268241E+00  0.20268955631E-01 0.  0.
         14    1    1    2    0    0  0.39782556966E-02  0.22679669208E-01 -0.53846594039E-02  0.23647166230E-01  0.00000000000E+00 0. -1.
     999901    1    3    3    0    0  0.11341665101E-01 -0.12472037987E+00  0.78317301437E-01  0.89231015136E+00  0.88000000000E+00 0. -1.
        -11    1    4    4    0    0 -0.77755566600E-02  0.20375835768E-01 -0.24162256840E-01  0.32553183274E-01  0.51100000000E-03 0. -1.
         11    1    4    4    0    0 -0.75443641376E-02  0.81664874895E-01 -0.48770385193E-01  0.95419499133E-01  0.51100000000E-03 0.  1.
</event>
<event>
 8    1  0.1010879E+005  0.1043930E+01  0.7957747E-01            NaN
         13   -1    0    0    0    0  0.00000000000E+00  0.00000000000E+00  0.74505805969E-08  0.10566000000E+00  0.10566000000E+00 0.  1.
     999900   -1    0    0    0    0 -0.00000000000E+00 -0.00000000000E+00 -0.74505805969E-08  0.93827000000E+00  0.93827000000E+00 0.  1.
     999902    2    1    2    0    0 -0.23239624285E-01 -0.54416438034E-02 -0.19286118266E-02  0.10199839947E+01  0.10197028677E+01 0.  0.
     999903    2    3    3    0    0 -0.82088279601E-02 -0.26117315389E-02  0.12893076840E+00  0.13017608815E+00  0.15762768996E-01 0.  0.
         14    1    1    2    0    0  0.23239624285E-01  0.54416438034E-02  0.19286118266E-02  0.23946005257E-01  0.00000000000E+00 0.  1.
     999901    1    3    3    0    0 -0.15030796325E-01 -0.28299122645E-02 -0.13085938023E+00  0.88980790659E+00  0.88000000000E+00 0.  1.
        -11    1    4    4    0    0 -0.62617332474E-02 -0.49247309173E-02  0.25958762820E-01  0.27158438210E-01  0.51100000000E-03 0.  1.
         11    1    4    4    0    0 -0.19470947127E-02  0.23129993784E-02  0.10297200558E+00  0.10301764994E+00  0.51100000000E-03 0. -1.
</event>
<event>
 8    1  0.1010879E+005  0.1043930E+01  0.7957747E-01            NaN
         13   -1    0    0    0    0  0.00000000000E+00  0.00000000000E+00  0.74505805969E-08  0.10566000000E+00  0.10566000000E+00 0.  1.
     999900   -1    0    0    0    0 -0.00000000000E+00 -0.00000000000E+00 -0.74505805969E-08  0.93827000000E+00  0.93827000000E+00 0.  1.
     999902    2    1    2    0    0 -0.84807976488E-02 -0.20248804108E-01  0.76492725069E-02  0.10206824331E+01  0.10204176497E+01 0.  0.
     999903    2    3    3    0    0  0.22572300742E-01  0.48718750184E-01 -0.11553139171E+00  0.12888969121E+00  0.19545450851E-01 0.  0.
         14    1    1    2    0    0  0.84807976488E-02  0.20248804108E-01 -0.76492725069E-02  0.23247566893E-01  0.00000000000E+00 0. -1.
     999901    1    3    3    0    0 -0.31053098391E-01 -0.68967554292E-01  0.12318066422E+00  0.89179274190E+00  0.88000000000E+00 0. -1.
        -11    1    4    4    0    0  0.12499593952E-01  0.17937144619E-01 -0.67520038817E-01  0.70973218674E-01  0.51100000000E-03 0. -1.
         11    1    4    4    0    0  0.10072706790E-01  0.30781605564E-01 -0.48011352894E-01  0.57916472535E-01  0.51100000000E-03 0.  1.
</event>
<event>
 8    1  0.1010879E+005  0.1043930E+01  0.7957747E-01            NaN
         13   -1    0    0    0    0  0.00000000000E+00  0.00000000000E+00  0.74505805969E-08  0.10566000000E+00  0.10566000000E+00 0.  1.
     999900   -1    0    0    0    0 -0.00000000000E+00 -0.00000000000E+00 -0.74505805969E-08  0.93827000000E+00  0.93827000000E+00 0. -1.
     999902    2    1    2    0    0 -0.37257645356E-02 -0.17778172777E-01 -0.14630721046E-01  0.10206061335E+01  0.10203395891E+01 0.  0.
     999903    2    3    3    0    0  0.12185337141E+00 -0.43451361727E-01 -0.10399220397E-01  0.13131026735E+00  0.19949375111E-01 0.  0.
         14    1    1    2    0    0  0.37257645356E-02  0.17778172777E-01  0.14630721046E-01  0.23323866468E-01  0.00000000000E+00 0.  1.
     999901    1    3    3    0    0 -0.12557913594E+00  0.25673188950E-01 -0.42315006487E-02  0.88929586618E+00  0.88000000000E+00 0.  1.
        -11    1    4    4    0    0  0.10619950709E+00 -0.35426246238E-01 -0.15417550085E-01  0.11301024821E+00  0.51100000000E-03 0. -1.
         11    1    4    4    0    0  0.15653864315E-01 -0.80251154894E-02  0.50183296881E-02  0.18300019138E-01  0.51100000000E-03 0.  1.
</event>
<event>
 8    1  0.1010879E+005  0.1043930E+01  0.7957747E-01            NaN
         13   -1    0    0    0    0  0.00000000000E+00  0.00000000000E+00  0.74505805969E-08  0.10566000000E+00  0.10566000000E+00 0. -1.
     999900   -1    0    0    0    0 -0.00000000000E+00 -0.00000000000E+00 -0.74505805969E-08  0.93827000000E+00  0.93827000000E+00 0.  1.
     999902    2    1    2    0    0 -0.16773844589E-01 -0.18217469338E-01  0.10979743440E-01  0.10168413895E+01  0.10164805058E+01 0.  0.
     999903    2    3    3    0    0 -0.10888115144E+00 -0.94355068215E-03 -0.65487761824E-01  0.12856810748E+00  0.19624369652E-01 0.  0.
         14    1    1    2    0    0  0.16773844589E-01  0.18217469338E-01 -0.10979743440E-01  0.27088610474E-01  0.00000000000E+00 0. -1.
     999901    1    3    3    0    0  0.92107306853E-01 -0.17273918656E-01  0.76467505263E-01  0.88827328205E+00  0.88000000000E+00 0. -1.
        -11    1    4    4    0    0 -0.10310994598E+00 -0.54719472731E-02 -0.60375728628E-01  0.11961226064E+00  0.51100000000E-03 0. -1.
         11    1    4    4    0    0 -0.57712054602E-02  0.45283965910E-02 -0.51120331953E-02  0.89558468354E-02  0.51100000000E-03 0.  1.
</event>
<event>
 8    1  0.1010879E+005  0.1043930E+01  0.7957747E-01            NaN
         13   -1    0    0    0    0  0.00000000000E+00  0.00000000000E+00  0.74505805969E-08  0.10566000000E+00  0.10566000000E+00 0. -1.
     999900   -1    0    0    0    0 -0.00000000000E+00 -0.00000000000E+00 -0.74505805969E-08  0.93827000000E+00  0.93827000000E+00 0.  1.
     999902    2    1    2    0    0 -0.10519835336E-02 -0.22089656990E-01  0.72081837659E-02  0.10206702165E+01  0.10204051516E+01 0.  0.
     999903    2    3    3    0    0 -0.57856388671E-01  0.10931095055E+00  0.29672070983E-01  0.12881962008E+00  0.20440574863E-01 0.  0.
         14    1    1    2    0    0  0.10519835336E-02  0.22089656990E-01 -0.72081837659E-02  0.23259783501E-01  0.00000000000E+00 0.  1.
     999901    1    3    3    0    0  0.56804405137E-01 -0.13140060754E+00 -0.22463887218E-01  0.89185059642E+00  0.88000000000E+00 0.  1.
        -11    1    4    4    0    0 -0.20792553220E-01  0.54772263151E-01  0.21334223743E-01  0.62351754617E-01  0.51100000000E-03 0.  1.
         11    1    4    4    0    0 -0.37063835451E-01  0.54538687399E-01  0.83378472409E-02  0.66467865463E-01  0.51100000000E-03 0. -1.
</event>
<event>
 8    1  0.1010879E+005  0.1043930E+01  0.7957747E-01            NaN
         13   -1    0    0    0    0  0.00000000000E+00  0.00000000000E+00  0.74505805969E-08  0.10566000000E+00  0.10566000000E+00 0. -1.
     999900   -1    0    0    0    0 -0.00000000000E+00 -0.00000000000E+00 -0.74505805969E-08  0.93827000000E+00  0.93827000000E+00 0.  1.
     999902    2    1    2    0    0  0.14646036929E-03 -0.10307463573E-01  0.23058161224E-01  0.10186724456E+01  0.10183592722E+01 0.  0.
     999903    2    3    3    0    0  0.11274832679E+00  0.58313652025E-01  0.84123883423E-02  0.12872720205E+00  0.19678848123E-01 0.  0.
         14    1    1    2    0    0 -0.14646036929E-03  0.10307463573E-01 -0.23058161224E-01  0.25257554414E-01  0.00000000000E+00 0. -1.
     999901    1    3    3    0    0 -0.11260186642E+00 -0.68621115598E-01  0.14645772882E-01  0.88994524354E+00  0.88000000000E+00 0.  1.
        -11    1    4    4    0    0  0.49677313030E-01  0.17068944726E-01 -0.24471873648E-02  0.52587395362E-01  0.51100000000E-03 0. -1.
         11    1    4    4    0    0  0.63071013761E-01  0.41244707300E-01  0.10859575707E-01  0.76139806689E-01  0.51100000000E-03 0.  1.
</event>
<event>
 8    1  0.1010879E+005  0.1043930E+01  0.7957747E-01            NaN
         13   -1    0    0    0    0  0.00000000000E+00  0.00000000000E+00  0.74505805969E-08  0.10566000000E+00  0.10566000000E+00 0. -1.
     999900   -1    0    0    0    0 -0.00000000000E+00 -0.00000000000E+00 -0.74505805969E-08  0.93827000000E+00  0.93827000000E+00 0.  1.
     999902    2    1    2    0    0 -0.17227148076E-01  0.22200906276E-02  0.17271308512E-01  0.10194350713E+01  0.10191407474E+01 0.  0.
     999903    2    3    3    0    0  0.10004399198E+00  0.63447820764E-01  0.47891347379E-01  0.12902003214E+00  0.17837075118E-01 0.  0.
         14    1    1    2    0    0  0.17227148076E-01 -0.22200906276E-02 -0.17271308512E-01  0.24494928678E-01  0.00000000000E+00 0.  1.
     999901    1    3    3    0    0 -0.11727114005E+00 -0.61227730137E-01 -0.30620038867E-01  0.89041503919E+00  0.88000000000E+00 0. -1.
        -11    1    4    4    0    0  0.60622024935E-01  0.31115631759E-01  0.34107101268E-01  0.76202151708E-01  0.51100000000E-03 0. -1.
         11    1    4    4    0    0  0.39421967041E-01  0.32332189005E-01  0.13784246111E-01  0.52817880430E-01  0.51100000000E-03 0.  1.
</event>
<event>
 8    1  0.1010879E+005  0.1043930E+01  0.7957747E-01            NaN
         13   -1    0    0    0    0  0.00000000000E+00  0.00000000000E+00  0.74505805969E-08  0.10566000000E+00  0.10566000000E+00 0. -1.
     999900   -1    0    0    0    0 -0.00000000000E+00 -0.00000000000E+00 -0.74505805969E-08  0.93827000000E+00  0.93827000000E+00 0.  1.
     999902    2    1    2    0    0 -0.63502290952E-02 -0.21937419591E-01  0.52443386855E-02  0.10204975679E+01  0.10202285073E+01 0.  0.
     999903    2    3    3    0    0 -0.55139527262E-01  0.30457255642E-01  0.11314725232E+00  0.13102095974E+00  0.19904253215E-01 0.  0.
         14    1    1    2    0    0  0.63502290952E-02  0.21937419591E-01 -0.52443386855E-02  0.23432432143E-01  0.00000000000E+00 0. -1.
     999901    1    3    3    0    0  0.48789298167E-01 -0.52394675233E-01 -0.10790291364E+00  0.88947660811E+00  0.88000000000E+00 0.  1.
        -11    1    4    4    0    0 -0.40833501146E-01  0.27025244860E-01  0.69974100922E-01  0.85407110924E-01  0.51100000000E-03 0.  1.
         11    1    4    4    0    0 -0.14306026116E-01  0.34320107823E-02  0.43173151402E-01  0.45613848820E-01  0.51100000000E-03 0. -1.
</event>
<event>
 8    1  0.1010879E+005  0.1043930E+01  0.7957747E-01            NaN
         13   -1    0    0    0    0  0.00000000000E+00  0.00000000000E+00  0.74505805969E-08  0.10566000000E+00  0.10566000000E+00 0. -1.
     999900   -1    0    0    0    0 -0.00000000000E+00 -0.00000000000E+00 -0.74505805969E-08  0.93827000000E+00  0.93827000000E+00 0. -1.
     999902    2    1    2    0    0  0.90761980116E-02  0.87557113589E-02 -0.19318000968E-01  0.10208599975E+01  0.10205992894E+01 0.  0.
     999903    2    3    3    0    0 -0.96234093255E-01 -0.77229247194E-01 -0.37018212550E-01  0.13024393659E+00  0.19177529336E-01 0.  0.
         14    1    1    2    0    0 -0.90761980116E-02 -0.87557113589E-02  0.19318000968E-01  0.23070002453E-01  0.00000000000E+00 0.  1.
     999901    1    3    3    0    0  0.10531029127E+00  0.85984958553E-01  0.17700211581E-01  0.89061606096E+00  0.88000000000E+00 0.  1.
        -11    1    4    4    0    0 -0.53465473551E-01 -0.40863981711E-01 -0.29950575757E-01  0.73659486642E-01  0.51100000000E-03 0.  1.
         11    1    4    4    0    0 -0.42768619705E-01 -0.36365265484E-01 -0.70676367926E-02  0.56584449948E-01  0.51100000000E-03 0. -1.
</event>
<event>
 8    1  0.1010879E+005  0.1043930E+01  0.7957747E-01            NaN
         13   -1    0    0    0    0  0.00000000000E+00  0.00000000000E+00  0.74505805969E-08  0.10566000000E+00  0.10566000000E+00 0. -1.
     999900   -1    0    0    0    0 -0.00000000000E+00 -0.00000000000E+00 -0.74505805969E-08  0.93827000000E+00  0.93827000000E+00 0. -1.
     999902    2    1    2    0    0  0.16928057082E-01 -0.16224279471E-01 -0.20346818190E-02  0.10203943613E+01  0.10201228976E+01 0.  0.
     999903    2    3    3    0    0 -0.62364478823E-01 -0.10159433039E+00  0.50864837623E-01  0.13113977960E+00  0.19991845846E-01 0.  0.
         14    1    1    2    0    0 -0.16928057082E-01  0.16224279471E-01  0.20346818190E-02  0.23535638743E-01  0.00000000000E+00 0.  1.
     999901    1    3    3    0    0  0.79292535906E-01  0.85370050919E-01 -0.52899519442E-01  0.88925458166E+00  0.88000000000E+00 0. -1.
        -11    1    4    4    0    0 -0.44523092063E-01 -0.87316936134E-01  0.41586309447E-01  0.10647175831E+00  0.51100000000E-03 0.  1.
         11    1    4    4    0    0 -0.17841386761E-01 -0.14277394256E-01  0.92785281756E-02  0.24668021290E-01  0.51100000000E-03 0. -1.
</event>
<event>
 8    1  0.1010879E+005  0.1043930E+01  0.7957747E-01            NaN
         13   -1    0    0    0    0  0.00000000000E+00  0.00000000000E+00  0.74505805969E-08  0.10566000000E+00  0.10566000000E+00 0. -1.
     999900   -1    0    0    0    0 -0.00000000000E+00 -0.00000000000E+00 -0.74505805969E-08  0.93827000000E+00  0.93827000000E+00 0.  1.
     999902    2    1    2    0    0 -0.13663996529E-01  0.39075844761E-02  0.18968957750E-01  0.10202277770E+01  0.10199524114E+01 0.  0.
     999903    2    3    3    0    0  0.35399800374E-01  0.11375375605E+00  0.51678459398E-01  0.13144020446E+00  0.20317512189E-01 0.  0.
         14    1    1    2    0    0  0.13663996529E-01 -0.39075844761E-02 -0.18968957750E-01  0.23702223012E-01  0.00000000000E+00 0. -1.
     999901    1    3    3    0    0 -0.49063796903E-01 -0.10984617157E+00 -0.32709501648E-01  0.88878757252E+00  0.88000000000E+00 0.  1.
        -11    1    4    4    0    0  0.27175356169E-01  0.10311025916E+00  0.40942217447E-01  0.11422237879E+00  0.51100000000E-03 0.  1.
         11    1    4    4    0    0  0.82244442050E-02  0.10643496890E-01  0.10736241951E-01  0.17217825669E-01  0.51100000000E-03 0. -1.
</event>
<event>
 8    1  0.1010879E+005  0.1043930E+01  0.7957747E-01            NaN
         13   -1    0    0    0    0  0.00000000000E+00  0.00000000000E+00  0.74505805969E-08  0.10566000000E+00  0.10566000000E+00 0.  1.
     999900   -1    0    0    0    0 -0.00000000000E+00 -0.00000000000E+00 -0.74505805969E-08  0.93827000000E+00  0.93827000000E+00 0. -1.
     999902    2    1    2    0    0  0.37838313031E-03  0.22325384328E-01 -0.48805208870E-02  0.10210742470E+01  0.10208184131E+01 0.  0.
     999903    2    3    3    0    0 -0.99259157816E-01 -0.79821208960E-01 -0.62510752548E-02  0.12957918564E+00  0.22975717590E-01 0.  0.
         14    1    1    2    0    0 -0.37838313031E-03 -0.22325384328E-01  0.48805208870E-02  0.22855752959E-01  0.00000000000E+00 0. -1.
     999901    1    3    3    0    0  0.99637540946E-01  0.10214659329E+00  0.13705543678E-02  0.89149506140E+00  0.88000000000E+00 0.  1.
        -11    1    4    4    0    0 -0.33926771267E-01 -0.39530387396E-01 -0.85155706723E-02  0.52786867696E-01  0.51100000000E-03 0.  1.
         11    1    4    4    0    0 -0.65332386549E-01 -0.40290821564E-01  0.22644954174E-02  0.76792317942E-01  0.51100000000E-03 0. -1.
</event>
<event>
 8    1  0.1010879E+005  0.1043930E+01  0.7957747E-01            NaN
         13   -1    0    0    0    0  0.00000000000E+00  0.00000000000E+00  0.74505805969E-08  0.10566000000E+00  0.10566000000E+00 0. -1.
     999900   -1    0    0    0    0 -0.00000000000E+00 -0.00000000000E+00 -0.74505805969E-08  0.93827000000E+00  0.93827000000E+00 0. -1.
     999902    2    1    2    0    0  0.22604053559E-01 -0.17491476845E-02  0.68293628919E-02  0.10202520999E+01  0.10199773058E+01 0.  0.
     999903    2    3    3    0    0 -0.11358326751E+00  0.54569610821E-01 -0.86093481346E-02  0.12786365155E+00  0.19899533406E-01 0.  0.
         14    1    1    2    0    0 -0.22604053559E-01  0.17491476845E-02 -0.68293628919E-02  0.23677900085E-01  0.00000000000E+00 0.  1.
     999901    1    3    3    0    0  0.13618732106E+00 -0.56318758506E-01  0.15438711027E-01  0.89238844837E+00  0.88000000000E+00 0. -1.
        -11    1    4    4    0    0 -0.88496942657E-01  0.38439021781E-01  0.11058513494E-02  0.96492234316E-01  0.51100000000E-03 0.  1.
         11    1    4    4    0    0 -0.25086324849E-01  0.16130589041E-01 -0.97151994840E-02  0.31371417234E-01  0.51100000000E-03 0. -1.
</event>
<event>
 8    1  0.1010879E+005  0.1043930E+01  0.7957747E-01            NaN
         13   -1    0    0    0    0  0.00000000000E+00  0.00000000000E+00  0.74505805969E-08  0.10566000000E+00  0.10566000000E+00 0.  1.
     999900   -1    0    0    0    0 -0.00000000000E+00 -0.00000000000E+00 -0.74505805969E-08  0.93827000000E+00  0.93827000000E+00 0. -1.
     999902    2    1    2    0    0 -0.79665116878E-02 -0.11701269158E-01 -0.18657168635E-01  0.10205104579E+01  0.10202416968E+01 0.  0.
     999903    2    3    3    0    0 -0.58722379919E-01 -0.80155372665E-01  0.82476018927E-01  0.13062841853E+00  0.19705033887E-01 0.  0.
         14    1    1    2    0    0  0.79665116878E-02  0.11701269158E-01  0.18657168635E-01  0.23419542050E-01  0.00000000000E+00 0.  1.
     999901    1    3    3    0    0  0.50755868231E-01  0.68454103507E-01 -0.10113318756E+00  0.88988203941E+00  0.88000000000E+00 0. -1.
        -11    1    4    4    0    0 -0.49219039716E-01 -0.58048967964E-01  0.53868123833E-01  0.93242868030E-01  0.51100000000E-03 0.  1.
         11    1    4    4    0    0 -0.95033402030E-02 -0.22106404701E-01  0.28607895094E-01  0.37385550505E-01  0.51100000000E-03 0. -1.
</event>
<event>
 8    1  0.1010879E+005  0.1043930E+01  0.7957747E-01            NaN
         13   -1    0    0    0    0  0.00000000000E+00  0.00000000000E+00  0.74505805969E-08  0.10566000000E+00  0.10566000000E+00 0.  1.
     999900   -1    0    0    0    0 -0.00000000000E+00 -0.00000000000E+00 -0.74505805969E-08  0.93827000000E+00  0.93827000000E+00 0. -1.
     999902    2    1    2    0    0 -0.23687039699E-01  0.36671801855E-03  0.66596602241E-02  0.10193218427E+01  0.10190247581E+01 0.  0.
     999903    2    3    3    0    0  0.10811246271E+00  0.63507145877E-01 -0.62403388740E-02  0.12717598441E+00  0.20330445448E-01 0.  0.
         14    1    1    2    0    0  0.23687039699E-01 -0.36671801855E-03 -0.66596602241E-02  0.24608157308E-01  0.00000000000E+00 0. -1.
     999901    1    3    3    0    0 -0.13179950241E+00 -0.63140427858E-01  0.12899999098E-01  0.89214585828E+00  0.88000000000E+00 0. -1.
        -11    1    4    4    0    0  0.74660447809E-01  0.32981505763E-01 -0.14636680695E-02  0.81635565991E-01  0.51100000000E-03 0.  1.
         11    1    4    4    0    0  0.33452014900E-01  0.30525640114E-01 -0.47766708045E-02  0.45540418424E-01  0.51100000000E-03 0. -1.
</event>
<event>
 8    1  0.1037780E+005  0.1043930E+01  0.7957747E-01            NaN
         13   -1    0    0    0    0  0.00000000000E+00  0.00000000000E+00  0.74505805969E-08  0.10566000000E+00  0.10566000000E+00 0.  1.
     999900   -1    0    0    0    0 -0.00000000000E+00 -0.00000000000E+00 -0.74505805969E-08  0.93827000000E+00  0.93827000000E+00 0.  1.
     999902    2    1    2    0    0  0.14986451185E-01  0.17793316648E-01 -0.28174138836E-02  0.10204963990E+01  0.10202273113E+01 0.  0.
     999903    2    3    3    0    0 -0.47052063271E-01 -0.28771974548E-01 -0.11513542745E+00  0.12997271046E+00  0.24392942262E-01 0.  0.
         14    1    1    2    0    0 -0.14986451185E-01 -0.17793316648E-01  0.28174138836E-02  0.23433601035E-01  0.00000000000E+00 0.  1.
     999901    1    3    3    0    0  0.62038514457E-01  0.46565291197E-01  0.11231801357E+00  0.89052368851E+00  0.88000000000E+00 0. -1.
        -11    1    4    4    0    0 -0.39149872053E-01 -0.19089560386E-01 -0.64609765112E-01  0.77921798403E-01  0.51100000000E-03 0. -1.
         11    1    4    4    0    0 -0.79021912178E-02 -0.96824141628E-02 -0.50525662338E-01  0.52050912055E-01  0.51100000000E-03 0.  1.
</event>
<event>
 8    1  0.1010879E+005  0.1043930E+01  0.7957747E-01            NaN
         13   -1    0    0    0    0  0.00000000000E+00  0.00000000000E+00  0.74505805969E-08  0.10566000000E+00  0.10566000000E+00 0.  1.
     999900   -1    0    0    0    0 -0.00000000000E+00 -0.00000000000E+00 -0.74505805969E-08  0.93827000000E+00  0.93827000000E+00 0. -1.
     999902    2    1    2    0    0 -0.19084657432E-01  0.87547250113E-02  0.11228784231E-01  0.10201191841E+01  0.10198412596E+01 0.  0.
     999903    2    3    3    0    0  0.56662555188E-01  0.97165152288E-01  0.63809495247E-01  0.13089549173E+00  0.20255026342E-01 0.  0.
         14    1    1    2    0    0  0.19084657432E-01 -0.87547250113E-02 -0.11228784231E-01  0.23810815917E-01  0.00000000000E+00 0. -1.
     999901    1    3    3    0    0 -0.75747212619E-01 -0.88410427276E-01 -0.52580711016E-01  0.88922369235E+00  0.88000000000E+00 0.  1.
        -11    1    4    4    0    0  0.23020374273E-01  0.41693484635E-01  0.15785197316E-01  0.50176865865E-01  0.51100000000E-03 0. -1.
         11    1    4    4    0    0  0.33642180915E-01  0.55471667652E-01  0.48024297932E-01  0.80718625866E-01  0.51100000000E-03 0.  1.
</event>
<event>
 8    1  0.1010879E+005  0.1043930E+01  0.7957747E-01            NaN
         13   -1    0    0    0    0  0.00000000000E+00  0.00000000000E+00  0.74505805969E-08  0.10566000000E+00  0.10566000000E+00 0. -1.
     999900   -1    0    0    0    0 -0.00000000000E+00 -0.00000000000E+00 -0.74505805969E-08  0.93827000000E+00  0.93827000000E+00 0.  1.
     999902    2    1    2    0    0 -0.11180667746E-01  0.19051313361E-01  0.56027953965E-02  0.10211407221E+01  0.10208863909E+01 0.  0.
     999903    2    3    3    0    0  0.50596729537E-01 -0.11140219939E+00  0.34972953128E-01  0.12889794572E+00  0.20520572392E-01 0.  0.
         14    1    1    2    0    0  0.11180667746E-01 -0.19051313361E-01 -0.56027953965E-02  0.22789277923E-01  0.00000000000E+00 0.  1.
     999901    1    3    3    0    0 -0.61777397282E-01  0.13045351275E+00 -0.29370157732E-01  0.89224277636E+00  0.88000000000E+00 0.  1.
        -11    1    4    4    0    0  0.17101195064E-01 -0.36962035463E-01  0.17549346622E-02  0.40767436206E-01  0.51100000000E-03 0. -1.
         11    1    4    4    0    0  0.33495534473E-01 -0.74440163923E-01  0.33218018466E-01  0.88130509509E-01  0.51100000000E-03 0.  1.
</event>
<event>
 8    1  0.1010879E+005  0.1043930E+01  0.7957747E-01            NaN
         13   -1    0    0    0    0  0.00000000000E+00  0.00000000000E+00  0.74505805969E-08  0.10566000000E+00  0.10566000000E+00 0.  1.
     999900   -1    0    0    0    0 -0.00000000000E+00 -0.00000000000E+00 -0.74505805969E-08  0.93827000000E+00  0.93827000000E+00 0. -1.
     999902    2    1    2    0    0  0.20794714716E-01 -0.11335214245E-01  0.28088639614E-02  0.10200805355E+01  0.10198016973E+01 0.  0.
     999903    2    3    3    0    0 -0.11755300579E+00 -0.18494703443E-01  0.43760796725E-01  0.12830230582E+00  0.19639529614E-01 0.  0.
         14    1    1    2    0    0 -0.20794714716E-01  0.11335214245E-01 -0.28088639614E-02  0.23849464540E-01  0.00000000000E+00 0. -1.
     999901    1    3    3    0    0  0.13834772051E+00  0.71594891984E-02 -0.40951932764E-01  0.89177822964E+00  0.88000000000E+00 0. -1.
        -11    1    4    4    0    0 -0.54704839813E-01 -0.14867687929E-02  0.12795922384E-01  0.56203440563E-01  0.51100000000E-03 0. -1.
         11    1    4    4    0    0 -0.62848165980E-01 -0.17007934650E-01  0.30964874341E-01  0.72098865262E-01  0.51100000000E-03 0.  1.
</event>
<event>
 8    1  0.1010879E+005  0.1043930E+01  0.7957747E-01            NaN
         13   -1    0    0    0    0  0.00000000000E+00  0.00000000000E+00  0.74505805969E-08  0.10566000000E+00  0.10566000000E+00 0.  1.
     999900   -1    0    0    0    0 -0.00000000000E+00 -0.00000000000E+00 -0.74505805969E-08  0.93827000000E+00  0.93827000000E+00 0. -1.
     999902    2    1    2    0    0  0.20908766148E-01  0.86184096569E-02 -0.41089837829E-02  0.10209444125E+01  0.10206856304E+01 0.  0.
     999903    2    3    3    0    0 -0.32836696808E-01 -0.49267625831E-01  0.11351138496E+00  0.12961174783E+00  0.20219373059E-01 0.  0.
         14    1    1    2    0    0 -0.20908766148E-01 -0.86184096569E-02  0.41089837829E-02  0.22985587540E-01  0.00000000000E+00 0. -1.
     999901    1    3    3    0    0  0.53745462955E-01  0.57886035488E-01 -0.11762036875E+00  0.89133266463E+00  0.88000000000E+00 0.  1.
        -11    1    4    4    0    0 -0.23756415929E-01 -0.37071132227E-01  0.99995588918E-01  0.10926122398E+00  0.51100000000E-03 0.  1.
         11    1    4    4    0    0 -0.90802808785E-02 -0.12196493603E-01  0.13515796045E-01  0.20350523845E-01  0.51100000000E-03 0. -1.
</event>
<event>
 8    1  0.1010879E+005  0.1043930E+01  0.7957747E-01            NaN
         13   -1    0    0    0    0  0.00000000000E+00  0.00000000000E+00  0.74505805969E-08  0.10566000000E+00  0.10566000000E+00 0.  1.
     999900   -1    0    0    0    0 -0.00000000000E+00 -0.00000000000E+00 -0.74505805969E-08  0.93827000000E+00  0.93827000000E+00 0. -1.
     999902    2    1    2    0    0 -0.22146722952E-02  0.32485699993E-02 -0.23053699460E-01  0.10205434432E+01  0.10202754473E+01 0.  0.
     999903    2    3    3    0    0  0.69794288374E-01  0.53384358663E-01  0.91949052795E-01  0.12873375456E+00  0.19915290935E-01 0.  0.
         14    1    1    2    0    0  0.22146722952E-02 -0.32485699993E-02  0.23053699460E-01  0.23386556806E-01  0.00000000000E+00 0.  1.
     999901    1    3    3    0    0 -0.72008960669E-01 -0.50135788663E-01 -0.11500275226E+00  0.89180968864E+00  0.88000000000E+00 0. -1.
        -11    1    4    4    0    0  0.53172822241E-02  0.12903318664E-01  0.14194918185E-01  0.19912959250E-01  0.51100000000E-03 0.  1.
         11    1    4    4    0    0  0.64477006149E-01  0.40481039998E-01  0.77754134610E-01  0.10882079531E+00  0.51100000000E-03 0. -1.
</event>
<event>
 8    1  0.1010879E+005  0.1043930E+01  0.7957747E-01            NaN
         13   -1    0    0    0    0  0.00000000000E+00  0.00000000000E+00  0.74505805969E-08  0.10566000000E+00  0.10566000000E+00 0. -1.
     999900   -1    0    0    0    0 -0.00000000000E+00 -0.00000000000E+00 -0.74505805969E-08  0.93827000000E+00  0.93827000000E+00 0. -1.
     999902    2    1    2    0    0  0.12617820075E-01 -0.20266173031E-01  0.14248184312E-02  0.10200143720E+01  0.10197339663E+01 0.  0.
     999903    2    3    3    0    0  0.34284957190E-01 -0.26107623786E-01  0.12250490241E+00  0.13144024790E+00  0.20298308840E-01 0.  0.
         14    1    1    2    0    0 -0.12617820075E-01  0.20266173031E-01 -0.14248184312E-02  0.23915627951E-01  0.00000000000E+00 0. -1.
     999901    1    3    3    0    0 -0.21667137115E-01  0.58414507557E-02 -0.12108008398E+00  0.88857412415E+00  0.88000000000E+00 0. -1.
        -11    1    4    4    0    0  0.25205877882E-01 -0.17226433194E-01  0.56504288362E-01  0.64226801296E-01  0.51100000000E-03 0. -1.
         11    1    4    4    0    0  0.90790793080E-02 -0.88811905924E-02  0.66000614053E-01  0.67213446600E-01  0.51100000000E-03 0.  1.
</event>
<event>
 8    1  0.1012075E+005  0.1043930E+01  0.7957747E-01            NaN
         13   -1    0    0    0    0  0.00000000000E+00  0.00000000000E+00  0.74505805969E-08  0.10566000000E+00  0.10566000000E+00 0. -1.
     999900   -1    0    0    0    0 -0.00000000000E+00 -0.00000000000E+00 -0.74505805969E-08  0.93827000000E+00  0.93827000000E+00 0.  1.
     999902    2    1    2    0    0 -0.25962802788E-01 -0.43677770552E-03  0.40628484704E-02  0.10176475983E+01  0.10173081488E+01 0.  0.
     999903    2    3    3    0    0  0.51372273863E-01  0.70670375494E-01 -0.89232558819E-01  0.12650172113E+00  0.20169863659E-01 0.  0.
         14    1    1    2    0    0  0.25962802788E-01  0.43677770552E-03 -0.40628484704E-02  0.26282401737E-01  0.00000000000E+00 0.  1.
     999901    1    3    3    0    0 -0.77335076651E-01 -0.71107153200E-01  0.93295407289E-01  0.89114587714E+00  0.88000000000E+00 0. -1.
        -11    1    4    4    0    0  0.33028496999E-01  0.59821332617E-01 -0.67058785304E-01  0.95742442300E-01  0.51100000000E-03 0. -1.
         11    1    4    4    0    0  0.18343776864E-01  0.10849042877E-01 -0.22173773515E-01  0.30759278825E-01  0.51100000000E-03 0.  1.
</event>
<event>
 8    1  0.1010879E+005  0.1043930E+01  0.7957747E-01            NaN
         13   -1    0    0    0    0  0.00000000000E+00  0.00000000000E+00  0.74505805969E-08  0.10566000000E+00  0.10566000000E+00 0. -1.
     999900   -1    0    0    0    0 -0.00000000000E+00 -0.00000000000E+00 -0.74505805969E-08  0.93827000000E+00  0.93827000000E+00 0. -1.
     999902    2    1    2    0    0 -0.44977657374E-03  0.19250008324E-01  0.13411830362E-01  0.10204642310E+01  0.10201943955E+01 0.  0.
     999903    2    3    3    0    0 -0.75888433630E-01 -0.55368046456E-01 -0.85427988430E-01  0.12859644103E+00  0.20357517285E-01 0.  0.
         14    1    1    2    0    0  0.44977657374E-03 -0.19250008324E-01 -0.13411830362E-01  0.23465768965E-01  0.00000000000E+00 0. -1.
     999901    1    3    3    0    0  0.75438657056E-01  0.74618054780E-01  0.98839818793E-01  0.89186779001E+00  0.88000000000E+00 0.  1.
        -11    1    4    4    0    0 -0.29895926749E-01 -0.32113799924E-01 -0.31601611307E-01  0.54073889632E-01  0.51100000000E-03 0. -1.
         11    1    4    4    0    0 -0.45992506881E-01 -0.23254246532E-01 -0.53826377124E-01  0.74522551394E-01  0.51100000000E-03 0.  1.
</event>
<event>
 8    1  0.1010879E+005  0.1043930E+01  0.7957747E-01            NaN
         13   -1    0    0    0    0  0.00000000000E+00  0.00000000000E+00  0.74505805969E-08  0.10566000000E+00  0.10566000000E+00 0.  1.
     999900   -1    0    0    0    0 -0.00000000000E+00 -0.00000000000E+00 -0.74505805969E-08  0.93827000000E+00  0.93827000000E+00 0. -1.
     999902    2    1    2    0    0 -0.88460857208E-02  0.15202511925E-01  0.15615706622E-01  0.10204093730E+01  0.10201382596E+01 0.  0.
     999903    2    3    3    0    0  0.13419347904E-01  0.12951952895E+00  0.16648766418E-01  0.13273533534E+00  0.19649441377E-01 0.  0.
         14    1    1    2    0    0  0.88460857208E-02 -0.15202511925E-01 -0.15615706622E-01  0.23520627005E-01  0.00000000000E+00 0. -1.
     999901    1    3    3    0    0 -0.22265433625E-01 -0.11431701703E+00 -0.10330597961E-02  0.88767403766E+00  0.88000000000E+00 0. -1.
        -11    1    4    4    0    0  0.54401025905E-02  0.36919198924E-01  0.13659225716E-01  0.39742389631E-01  0.51100000000E-03 0.  1.
         11    1    4    4    0    0  0.79792453133E-02  0.92600330027E-01  0.29895407014E-02  0.92992945708E-01  0.51100000000E-03 0. -1.
</event>
<event>
 8    1  0.1010879E+005  0.1043930E+01  0.7957747E-01            NaN
         13   -1    0    0    0    0  0.00000000000E+00  0.00000000000E+00  0.74505805969E-08  0.10566000000E+00  0.10566000000E+00 0. -1.
     999900   -1    0    0    0    0 -0.00000000000E+00 -0.00000000000E+00 -0.74505805969E-08  0.93827000000E+00  0.93827000000E+00 0. -1.
     999902    2    1    2    0    0 -0.95731770968E-02 -0.11678917454E-01  0.18236429948E-01  0.10202527913E+01  0.10199780135E+01 0.  0.
     999903    2    3    3    0    0  0.11801205572E+00 -0.49633981771E-02 -0.46570388022E-01  0.12866823927E+00  0.20862265926E-01 0.  0.
         14    1    1    2    0    0  0.95731770968E-02  0.11678917454E-01 -0.18236429948E-01  0.23677208659E-01  0.00000000000E+00 0.  1.
     999901    1    3    3    0    0 -0.12758523282E+00 -0.67155192773E-02  0.64806817969E-01  0.89158455207E+00  0.88000000000E+00 0.  1.
        -11    1    4    4    0    0  0.74505308871E-01 -0.77884794883E-02 -0.19729436503E-01  0.77467498013E-01  0.51100000000E-03 0.  1.
         11    1    4    4    0    0  0.43506746851E-01  0.28250813111E-02 -0.26840951519E-01  0.51200741259E-01  0.51100000000E-03 0. -1.
</event>
<event>
 8    1  0.1010879E+005  0.1043930E+01  0.7957747E-01            NaN
         13   -1    0    0    0    0  0.00000000000E+00  0.00000000000E+00  0.74505805969E-08  0.10566000000E+00  0.10566000000E+00 0. -1.
     999900   -1    0    0    0    0 -0.00000000000E+00 -0.00000000000E+00 -0.74505805969E-08  0.93827000000E+00  0.93827000000E+00 0.  1.
     999902    2    1    2    0    0  0.13266066444E-01  0.37412903119E-02  0.18782113470E-01  0.10206329281E+01  0.10203670028E+01 0.  0.
     999903    2    3    3    0    0  0.24329361291E-01 -0.11366613237E+00  0.58991788290E-01  0.13185639976E+00  0.19853755451E-01 0.  0.
         14    1    1    2    0    0 -0.13266066444E-01 -0.37412903119E-02 -0.18782113470E-01  0.23297071887E-01  0.00000000000E+00 0.  1.
     999901    1    3    3    0    0 -0.11063294846E-01  0.11740742268E+00 -0.40209674820E-01  0.88877652835E+00  0.88000000000E+00 0. -1.
        -11    1    4    4    0    0  0.14923559951E-01 -0.54767231323E-01  0.18270070007E-01  0.59634041012E-01  0.51100000000E-03 0. -1.
         11    1    4    4    0    0  0.94058013399E-02 -0.58898901043E-01  0.40721718283E-01  0.72222358753E-01  0.51100000000E-03 0.  1.
</event>
<event>
 8    1  0.1010879E+005  0.1043930E+01  0.7957747E-01            NaN
         13   -1    0    0    0    0  0.00000000000E+00  0.00000000000E+00  0.74505805969E-08  0.10566000000E+00  0.10566000000E+00 0. -1.
     999900   -1    0    0    0    0 -0.00000000000E+00 -0.00000000000E+00 -0.74505805969E-08  0.93827000000E+00  0.93827000000E+00 0.  1.
     999902    2    1    2    0    0 -0.83364386888E-02  0.12780803618E-01  0.16887913798E-01  0.10211693589E+01  0.10209156737E+01 0.  0.
     999903    2    3    3    0    0  0.12753109391E+00  0.10383620298E-01 -0.13510086941E-01  0.13022055489E+00  0.20071646214E-01 0.  0.
         14    1    1    2    0    0  0.83364386888E-02 -0.12780803618E-01 -0.16887913798E-01  0.22760641107E-01  0.00000000000E+00 0.  1.
     999901    1    3    3    0    0 -0.13586753260E+00  0.23971833204E-02  0.30398000740E-01  0.89094880400E+00  0.88000000000E+00 0. -1.
        -11    1    4    4    0    0  0.28889154766E-01  0.96231943473E-02 -0.76513663755E-02  0.31400535998E-01  0.51100000000E-03 0. -1.
         11    1    4    4    0    0  0.98641939147E-01  0.76042595065E-03 -0.58587205656E-02  0.98820018893E-01  0.51100000000E-03 0.  1.
</event>
<event>
 8    1  0.1010879E+005  0.1043930E+01  0.7957747E-01            NaN
         13   -1    0    0    0    0  0.00000000000E+00  0.00000000000E+00  0.74505805969E-08  0.10566000000E+00  0.10566000000E+00 0. -1.
     999900   -1    0    0    0    0 -0.00000000000E+00 -0.00000000000E+00 -0.74505805969E-08  0.93827000000E+00  0.93827000000E+00 0. -1.
     999902    2    1    2    0    0 -0.12776127404E-01 -0.21441245790E-01  0.12316522018E-02  0.10189405338E+01  0.10186340550E+01 0.  0.
     999903    2    3    3    0    0 -0.26873329112E-01  0.99114946519E-01  0.73254735022E-01  0.12769429902E+00  0.19840094699E-01 0.  0.
         14    1    1    2    0    0  0.12776127404E-01  0.21441245790E-01 -0.12316522018E-02  0.24989466173E-01  0.00000000000E+00 0.  1.
     999901    1    3    3    0    0  0.14097201708E-01 -0.12055619231E+00 -0.72023082820E-01  0.89124623481E+00  0.88000000000E+00 0. -1.
        -11    1    4    4    0    0 -0.21958697457E-02  0.67397348329E-02  0.12589706687E-01  0.14457098776E-01  0.51100000000E-03 0. -1.
         11    1    4    4    0    0 -0.24677459366E-01  0.92375211687E-01  0.60665028335E-01  0.11323720024E+00  0.51100000000E-03 0.  1.
</event>
<event>
 8    1  0.1052318E+005  0.1043930E+01  0.7957747E-01            NaN
         13   -1    0    0    0    0  0.00000000000E+00  0.00000000000E+00  0.74505805969E-08  0.10566000000E+00  0.10566000000E+00 0. -1.
     999900   -1    0    0    0    0 -0.00000000000E+00 -0.00000000000E+00 -0.74505805969E-08  0.93827000000E+00  0.93827000000E+00 0. -1.
     999902    2    1    2    0    0 -0.12406183623E-01 -0.20421998277E-01 -0.34187987285E-02  0.10197916573E+01  0.10195059414E+01 0.  0.
     999903    2    3    3    0    0  0.96297553248E-01 -0.84543085346E-01 -0.15658868348E-01  0.13070345268E+00  0.20431356839E-01 0.  0.
         14    1    1    2    0    0  0.12406183623E-01  0.20421998277E-01  0.34187987285E-02  0.24138342745E-01  0.00000000000E+00 0. -1.
     999901    1    3    3    0    0 -0.10870373687E+00  0.64121087069E-01  0.12240069620E-01  0.88908820458E+00  0.88000000000E+00 0. -1.
        -11    1    4    4    0    0  0.36830726826E-01 -0.27257858493E-01  0.34375831845E-02  0.45951837692E-01  0.51100000000E-03 0. -1.
         11    1    4    4    0    0  0.59466826422E-01 -0.57285226853E-01 -0.19096451533E-01  0.84751614984E-01  0.51100000000E-03 0.  1.
</event>
<event>
 8    1  0.1010879E+005  0.1043930E+01  0.7957747E-01            NaN
         13   -1    0    0    0    0  0.00000000000E+00  0.00000000000E+00  0.74505805969E-08  0.10566000000E+00  0.10566000000E+00 0.  1.
     999900   -1    0    0    0    0 -0.00000000000E+00 -0.00000000000E+00 -0.74505805969E-08  0.93827000000E+00  0.93827000000E+00 0.  1.
     999902    2    1    2    0    0  0.10084687078E-01  0.98176452532E-02 -0.18308748088E-01  0.10208367688E+01  0.10205755294E+01 0.  0.
     999903    2    3    3    0    0 -0.55002729817E-01 -0.68283018914E-02 -0.11873798387E+00  0.13258033576E+00  0.20172025758E-01 0.  0.
         14    1    1    2    0    0 -0.10084687078E-01 -0.98176452532E-02  0.18308748088E-01  0.23093231224E-01  0.00000000000E+00 0.  1.
     999901    1    3    3    0    0  0.65087416895E-01  0.16645947145E-01  0.10042923578E+00  0.88825643302E+00  0.88000000000E+00 0. -1.
        -11    1    4    4    0    0 -0.26089162427E-01  0.11421969106E-02 -0.76024945215E-01  0.80386581131E-01  0.51100000000E-03 0.  1.
         11    1    4    4    0    0 -0.28913567389E-01 -0.79704988020E-02 -0.42713038654E-01  0.52193754630E-01  0.51100000000E-03 0. -1.
</event>
<event>
 8    1  0.1010879E+005  0.1043930E+01  0.7957747E-01            NaN
         13   -1    0    0    0    0  0.00000000000E+00  0.00000000000E+00  0.74505805969E-08  0.10566000000E+00  0.10566000000E+00 0.  1.
     999900   -1    0    0    0    0 -0.00000000000E+00 -0.00000000000E+00 -0.74505805969E-08  0.93827000000E+00  0.93827000000E+00 0.  1.
     999902    2    1    2    0    0 -0.76617004463E-03  0.77531330099E-02  0.29343462525E-01  0.10135698801E+01  0.10131150798E+01 0.  0.
     999903    2    3    3    0    0  0.81542721565E-01 -0.89749795063E-01  0.17659913807E-01  0.12429035152E+00  0.20784074947E-01 0.  0.
         14    1    1    2    0    0  0.76617004463E-03 -0.77531330099E-02 -0.29343462525E-01  0.30360119910E-01  0.00000000000E+00 0. -1.
     999901    1    3    3    0    0 -0.82308891610E-01  0.97502928073E-01  0.11683548718E-01  0.88927952857E+00  0.88000000000E+00 0. -1.
        -11    1    4    4    0    0  0.45915510942E-01 -0.42846418877E-01  0.18192471226E-01  0.65385601518E-01  0.51100000000E-03 0.  1.
         11    1    4    4    0    0  0.35627210624E-01 -0.46903376186E-01 -0.53255741843E-03  0.58904750003E-01  0.51100000000E-03 0. -1.
</event>
<event>
 8    1  0.1010879E+005  0.1043930E+01  0.7957747E-01            NaN
         13   -1    0    0    0    0  0.00000000000E+00  0.00000000000E+00  0.74505805969E-08  0.10566000000E+00  0.10566000000E+00 0.  1.
     999900   -1    0    0    0    0 -0.00000000000E+00 -0.00000000000E+00 -0.74505805969E-08  0.93827000000E+00  0.93827000000E+00 0. -1.
     999902    2    1    2    0    0 -0.27316619315E-03  0.17628741138E-02  0.23484736752E-01  0.10203776072E+01  0.10201057524E+01 0.  0.
     999903    2    3    3    0    0  0.61960885112E-01 -0.89975514436E-01 -0.65590553632E-01  0.12896108482E+00  0.19851856062E-01 0.  0.
         14    1    1    2    0    0  0.27316619315E-03 -0.17628741138E-02 -0.23484736752E-01  0.23552392771E-01  0.00000000000E+00 0. -1.
     999901    1    3    3    0    0 -0.62234051305E-01  0.91738388550E-01  0.89075290384E-01  0.89141652241E+00  0.88000000000E+00 0.  1.
        -11    1    4    4    0    0  0.17563005799E-01 -0.21649234883E-01 -0.26950670478E-01  0.38778193665E-01  0.51100000000E-03 0.  1.
         11    1    4    4    0    0  0.44397879313E-01 -0.68326279554E-01 -0.38639883154E-01  0.90182891151E-01  0.51100000000E-03 0. -1.
</event>
<event>
 8    1  0.1010879E+005  0.1043930E+01  0.7957747E-01            NaN
         13   -1    0    0    0    0  0.00000000000E+00  0.00000000000E+00  0.74505805969E-08  0.10566000000E+00  0.10566000000E+00 0.  1.
     999900   -1    0    0    0    0 -0.00000000000E+00 -0.00000000000E+00 -0.74505805969E-08  0.93827000000E+00  0.93827000000E+00 0.  1.
     999902    2    1    2    0    0  0.14292026635E-01 -0.16433969567E-01  0.10801209203E-01  0.10196194364E+01  0.10193295795E+01 0.  0.
     999903    2    3    3    0    0  0.74070766601E-01 -0.29509802798E-01  0.10396329966E+00  0.13258863072E+00  0.20348719727E-01 0.  0.
         14    1    1    2    0    0 -0.14292026635E-01  0.16433969567E-01 -0.10801209203E-01  0.24310563575E-01  0.00000000000E+00 0. -1.
     999901    1    3    3    0    0 -0.59778739965E-01  0.13075833231E-01 -0.93162090458E-01  0.88703080570E+00  0.88000000000E+00 0.  1.
        -11    1    4    4    0    0  0.47473442238E-01 -0.24974227352E-01  0.55955275819E-01  0.77515764608E-01  0.51100000000E-03 0.  1.
         11    1    4    4    0    0  0.26597324362E-01 -0.45355754458E-02  0.48008023842E-01  0.55072866114E-01  0.51100000000E-03 0. -1.
</event>
<event>
 8    1  0.1010879E+005  0.1043930E+01  0.7957747E-01            NaN
         13   -1    0    0    0    0  0.00000000000E+00  0.00000000000E+00  0.74505805969E-08  0.10566000000E+00  0.10566000000E+00 0. -1.
     999900   -1    0    0    0    0 -0.00000000000E+00 -0.00000000000E+00 -0.74505805969E-08  0.93827000000E+00  0.93827000000E+00 0.  1.
     999902    2    1    2    0    0  0.15301140010E-01  0.10630827630E-01 -0.14715544591E-01  0.10201879143E+01  0.10199116108E+01 0.  0.
     999903    2    3    3    0    0 -0.27268775400E-01 -0.12217652146E+00 -0.24884164072E-01  0.12914729203E+00  0.19725945129E-01 0.  0.
         14    1    1    2    0    0 -0.15301140010E-01 -0.10630827630E-01  0.14715544591E-01  0.23742085720E-01  0.00000000000E+00 0. -1.
     999901    1    3    3    0    0  0.42569915410E-01  0.13280734909E+00  0.10168619481E-01  0.89104062225E+00  0.88000000000E+00 0. -1.
        -11    1    4    4    0    0 -0.64066047460E-02 -0.63501339074E-02 -0.19088916357E-02  0.92343799624E-02  0.51100000000E-03 0.  1.
         11    1    4    4    0    0 -0.20862170654E-01 -0.11582638755E+00 -0.22975272437E-01  0.11991291207E+00  0.51100000000E-03 0. -1.
</event>
<event>
 8    1  0.1010879E+005  0.1043930E+01  0.7957747E-01            NaN
         13   -1    0    0    0    0  0.00000000000E+00  0.00000000000E+00  0.74505805969E-08  0.10566000000E+00  0.10566000000E+00 0.  1.
     999900   -1    0    0    0    0 -0.00000000000E+00 -0.00000000000E+00 -0.74505805969E-08  0.93827000000E+00  0.93827000000E+00 0.  1.
     999902    2    1    2    0    0  0.20949189177E-01 -0.14178409853E-01 -0.12204983313E-03  0.10186335431E+01  0.10183193922E+01 0.  0.
     999903    2    3    3    0    0  0.58157646844E-01 -0.11574686234E+00  0.15077442159E-01  0.13188011382E+00  0.19631279414E-01 0.  0.
         14    1    1    2    0    0 -0.20949189177E-01  0.14178409853E-01  0.12204983313E-03  0.25296456853E-01  0.00000000000E+00 0.  1.
     999901    1    3    3    0    0 -0.37208457667E-01  0.10156845249E+00 -0.15199491992E-01  0.88675342932E+00  0.88000000000E+00 0. -1.
        -11    1    4    4    0    0  0.23103736904E-01 -0.26790719460E-01  0.30557782615E-02  0.35512310681E-01  0.51100000000E-03 0.  1.
         11    1    4    4    0    0  0.35053909940E-01 -0.88956142881E-01  0.12021663898E-01  0.96367803141E-01  0.51100000000E-03 0. -1.
</event>
<event>
 8    1  0.1010879E+005  0.1043930E+01  0.7957747E-01            NaN
         13   -1    0    0    0    0  0.00000000000E+00  0.00000000000E+00  0.74505805969E-08  0.10566000000E+00  0.10566000000E+00 0. -1.
     999900   -1    0    0    0    0 -0.00000000000E+00 -0.00000000000E+00 -0.74505805969E-08  0.93827000000E+00  0.93827000000E+00 0. -1.
     999902    2    1    2    0    0  0.65317335668E-02 -0.12920367841E-01  0.20421360444E-01  0.10188973930E+01  0.10185898420E+01 0.  0.
     999903    2    3    3    0    0 -0.67718419448E-01  0.90087459282E-01  0.59682554585E-01  0.12891697807E+00  0.18869161639E-01 0.  0.
         14    1    1    2    0    0 -0.65317335668E-02  0.12920367841E-01 -0.20421360444E-01  0.25032606954E-01  0.00000000000E+00 0.  1.
     999901    1    3    3    0    0  0.74250153015E-01 -0.10300782712E+00 -0.39261194141E-01  0.88998041497E+00  0.88000000000E+00 0.  1.
        -11    1    4    4    0    0 -0.26713218570E-01  0.43988420507E-01  0.36095671341E-01  0.62862833182E-01  0.51100000000E-03 0. -1.
         11    1    4    4    0    0 -0.41005200878E-01  0.46099038775E-01  0.23586883245E-01  0.66054144890E-01  0.51100000000E-03 0.  1.
</event>
<event>
 8    1  0.1010879E+005  0.1043930E+01  0.7957747E-01            NaN
         13   -1    0    0    0    0  0.00000000000E+00  0.00000000000E+00  0.74505805969E-08  0.10566000000E+00  0.10566000000E+00 0.  1.
     999900   -1    0    0    0    0 -0.00000000000E+00 -0.00000000000E+00 -0.74505805969E-08  0.93827000000E+00  0.93827000000E+00 0.  1.
     999902    2    1    2    0    0  0.14965167166E-01 -0.96340203326E-02 -0.14387179345E-01  0.10210441636E+01  0.10207876481E+01 0.  0.
     999903    2    3    3    0    0 -0.53546860328E-01  0.31886967310E-01 -0.11423696974E+00  0.13178162032E+00  0.20790989941E-01 0.  0.
         14    1    1    2    0    0 -0.14965167166E-01  0.96340203326E-02  0.14387179345E-01  0.22885836353E-01  0.00000000000E+00 0.  1.
     999901    1    3    3    0    0  0.68512027494E-01 -0.41520987643E-01  0.99849790397E-01  0.88926254333E+00  0.88000000000E+00 0. -1.
        -11    1    4    4    0    0 -0.35974460395E-01  0.18539219623E-01 -0.52991580418E-01  0.66680080842E-01  0.51100000000E-03 0. -1.
         11    1    4    4    0    0 -0.17572399933E-01  0.13347747687E-01 -0.61245389324E-01  0.65101539476E-01  0.51100000000E-03 0.  1.
</event>
<event>
 8    1  0.1010879E+005  0.1043930E+01  0.7957747E-01            NaN
         13   -1    0    0    0    0  0.00000000000E+00  0.00000000000E+00  0.74505805969E-08  0.10566000000E+00  0.10566000000E+00 0. -1.
     999900   -1    0    0    0    0 -0.00000000000E+00 -0.00000000000E+00 -0.74505805969E-08  0.93827000000E+00  0.93827000000E+00 0. -1.
     999902    2    1    2    0    0 -0.24377773114E-01 -0.65145844840E-02  0.59080943211E-03  0.10186898596E+01  0.10183771233E+01 0.  0.
     999903    2    3    3    0    0 -0.93115454793E-01 -0.82892066704E-01  0.38286353403E-01  0.13190953576E+00  0.19816612292E-01 0.  0.
         14    1    1    2    0    0  0.24377773114E-01  0.65145844840E-02 -0.59080943211E-03  0.25240140427E-01  0.00000000000E+00 0. -1.
     999901    1    3    3    0    0  0.68737681678E-01  0.76377482220E-01 -0.37695543971E-01  0.88678032382E+00  0.88000000000E+00 0. -1.
        -11    1    4    4    0    0 -0.14334010954E-01 -0.21783848268E-01  0.35242577575E-02  0.26318841713E-01  0.51100000000E-03 0. -1.
         11    1    4    4    0    0 -0.78781443839E-01 -0.61108218437E-01  0.34762095646E-01  0.10559069404E+00  0.51100000000E-03 0.  1.
</event>
<event>
 8    1  0.1010879E+005  0.1043930E+01  0.7957747E-01            NaN
         13   -1    0    0    0    0  0.00000000000E+00  0.00000000000E+00  0.74505805969E-08  0.10566000000E+00  0.10566000000E+00 0.  1.
     999900   -1    0    0    0    0 -0.00000000000E+00 -0.00000000000E+00 -0.74505805969E-08  0.93827000000E+00  0.93827000000E+00 0.  1.
     999902    2    1    2    0    0  0.11566482649E-01  0.57111278467E-02 -0.19967277339E-01  0.10201583222E+01  0.10198813214E+01 0.  0.
     999903    2    3    3    0    0 -0.14503392628E-02 -0.94303506073E-01 -0.89705327020E-01  0.13165634681E+00  0.19776076938E-01 0.  0.
         14    1    1    2    0    0 -0.11566482649E-01 -0.57111278467E-02  0.19967277339E-01  0.23771677823E-01  0.00000000000E+00 0.  1.
     999901    1    3    3    0    0  0.13016821912E-01  0.10001463392E+00  0.69738049681E-01  0.88850197536E+00  0.88000000000E+00 0. -1.
        -11    1    4    4    0    0  0.70781429083E-02 -0.17347149045E-01 -0.20903261617E-01  0.28075454657E-01  0.51100000000E-03 0.  1.
         11    1    4    4    0    0 -0.85284821711E-02 -0.76956357028E-01 -0.68802065403E-01  0.10358089216E+00  0.51100000000E-03 0. -1.
</event>
<event>
 8    1  0.1010879E+005  0.1043930E+01  0.7957747E-01            NaN
         13   -1    0    0    0    0  0.00000000000E+00  0.00000000000E+00  0.74505805969E-08  0.10566000000E+00  0.10566000000E+00 0. -1.
     999900   -1    0    0    0    0 -0.00000000000E+00 -0.00000000000E+00 -0.74505805969E-08  0.93827000000E+00  0.93827000000E+00 0.  1.
     999902    2    1    2    0    0  0.11147632245E-01  0.13709670458E-01 -0.19547313737E-01  0.10175800049E+01  0.10172387842E+01 0.  0.
     999903    2    3    3    0    0  0.66560817619E-01  0.58355499850E-01 -0.94919535066E-01  0.13149601171E+00  0.21113411704E-01 0.  0.
         14    1    1    2    0    0 -0.11147632245E-01 -0.13709670458E-01  0.19547313737E-01  0.26349995125E-01  0.00000000000E+00 0. -1.
     999901    1    3    3    0    0 -0.55413185374E-01 -0.44645829392E-01  0.75372221329E-01  0.88608399317E+00  0.88000000000E+00 0. -1.
        -11    1    4    4    0    0  0.47334652149E-01  0.45889757839E-01 -0.56828618122E-01  0.87041324250E-01  0.51100000000E-03 0.  1.
         11    1    4    4    0    0  0.19226165470E-01  0.12465742011E-01 -0.38090916944E-01  0.44454687460E-01  0.51100000000E-03 0. -1.
</event>
<event>
 8    1  0.1010879E+005  0.1043930E+01  0.7957747E-01            NaN
         13   -1    0    0    0    0  0.00000000000E+00  0.00000000000E+00  0.74505805969E-08  0.10566000000E+00  0.10566000000E+00 0. -1.
     999900   -1    0    0    0    0 -0.00000000000E+00 -0.00000000000E+00 -0.74505805969E-08  0.93827000000E+00  0.93827000000E+00 0.  1.
     999902    2    1    2    0    0 -0.20701291955E-01 -0.98272910962E-02  0.15291154393E-02  0.10209635607E+01  0.10207052145E+01 0.  0.
     999903    2    3    3    0    0  0.89985382758E-01  0.89268677514E-01 -0.33660568857E-02  0.12849758733E+00  0.20833475849E-01 0.  0.
         14    1    1    2    0    0  0.20701291955E-01  0.98272910962E-02 -0.15291154393E-02  0.22966439274E-01  0.00000000000E+00 0.  1.
     999901    1    3    3    0    0 -0.11068667471E+00 -0.99095968610E-01  0.48951723250E-02  0.89246597339E+00  0.88000000000E+00 0.  1.
        -11    1    4    4    0    0  0.40463047294E-01  0.26016370227E-01 -0.43137650600E-03  0.48109842266E-01  0.51100000000E-03 0. -1.
         11    1    4    4    0    0  0.49522335464E-01  0.63252307287E-01 -0.29346803797E-02  0.80387745066E-01  0.51100000000E-03 0.  1.
</event>
<event>
 8    1  0.1010879E+005  0.1043930E+01  0.7957747E-01            NaN
         13   -1    0    0    0    0  0.00000000000E+00  0.00000000000E+00  0.74505805969E-08  0.10566000000E+00  0.10566000000E+00 0.  1.
     999900   -1    0    0    0    0 -0.00000000000E+00 -0.00000000000E+00 -0.74505805969E-08  0.93827000000E+00  0.93827000000E+00 0.  1.
     999902    2    1    2    0    0  0.19691499377E-01 -0.99658528879E-02  0.83178580386E-02  0.10203448323E+01  0.10200722115E+01 0.  0.
     999903    2    3    3    0    0  0.15471849779E-01 -0.60803084224E-01 -0.11288993449E+00  0.13057319955E+00  0.19204945860E-01 0.  0.
         14    1    1    2    0    0 -0.19691499377E-01  0.99658528879E-02 -0.83178580386E-02  0.23585167667E-01  0.00000000000E+00 0. -1.
     999901    1    3    3    0    0  0.42196495984E-02  0.50837231336E-01  0.12120779253E+00  0.88977163278E+00  0.88000000000E+00 0. -1.
        -11    1    4    4    0    0  0.19192324703E-01 -0.40124492272E-01 -0.80220307415E-01  0.91727199076E-01  0.51100000000E-03 0. -1.
         11    1    4    4    0    0 -0.37204749246E-02 -0.20678591952E-01 -0.32669627075E-01  0.38846000476E-01  0.51100000000E-03 0.  1.
</event>
<event>
 8    1  0.1010879E+005  0.1043930E+01  0.7957747E-01            NaN
         13   -1    0    0    0    0  0.00000000000E+00  0.00000000000E+00  0.74505805969E-08  0.10566000000E+00  0.10566000000E+00 0. -1.
     999900   -1    0    0    0    0 -0.00000000000E+00 -0.00000000000E+00 -0.74505805969E-08  0.93827000000E+00  0.93827000000E+00 0. -1.
     999902    2    1    2    0    0 -0.38585664057E-02  0.21766290203E-01 -0.91963534525E-02  0.10199877186E+01  0.10197066800E+01 0.  0.
     999903    2    3    3    0    0 -0.12996352571E+00 -0.86616302061E-02 -0.10743677751E-02  0.13044048218E+00  0.69298824875E-02 0.  0.
         14    1    1    2    0    0  0.38585664057E-02 -0.21766290203E-01  0.91963534525E-02  0.23942281443E-01  0.00000000000E+00 0.  1.
     999901    1    3    3    0    0  0.12610495930E+00  0.30427920409E-01 -0.81219856774E-02  0.88954723638E+00  0.88000000000E+00 0. -1.
        -11    1    4    4    0    0 -0.47266868462E-01 -0.29068037795E-02 -0.36766115290E-02  0.47501420566E-01  0.51100000000E-03 0. -1.
         11    1    4    4    0    0 -0.82696657248E-01 -0.57548264265E-02  0.26022437538E-02  0.82939061610E-01  0.51100000000E-03 0.  1.
</event>
<event>
 8    1  0.1010879E+005  0.1043930E+01  0.7957747E-01            NaN
         13   -1    0    0    0    0  0.00000000000E+00  0.00000000000E+00  0.74505805969E-08  0.10566000000E+00  0.10566000000E+00 0. -1.
     999900   -1    0    0    0    0 -0.00000000000E+00 -0.00000000000E+00 -0.74505805969E-08  0.93827000000E+00  0.93827000000E+00 0.  1.
     999902    2    1    2    0    0 -0.44363244185E-03  0.18143102979E-01 -0.14665628491E-01  0.10205965550E+01  0.10203297891E+01 0.  0.
     999903    2    3    3    0    0 -0.43536298144E-01 -0.11055768083E+00  0.45388180047E-01  0.12816878231E+00  0.15771487726E-01 0.  0.
         14    1    1    2    0    0  0.44363244185E-03 -0.18143102979E-01  0.14665628491E-01  0.23333444977E-01  0.00000000000E+00 0.  1.
     999901    1    3    3    0    0  0.43092665702E-01  0.12870078381E+00 -0.60053808538E-01  0.89242777271E+00  0.88000000000E+00 0. -1.
        -11    1    4    4    0    0 -0.83326961069E-02 -0.20893183032E-01  0.15455476696E-01  0.27296369768E-01  0.51100000000E-03 0.  1.
         11    1    4    4    0    0 -0.35203602037E-01 -0.89664497795E-01  0.29932703350E-01  0.10087241254E+00  0.51100000000E-03 0. -1.
</event>
<event>
 8    1  0.1010879E+005  0.1043930E+01  0.7957747E-01            NaN
         13   -1    0    0    0    0  0.00000000000E+00  0.00000000000E+00  0.74505805969E-08  0.10566000000E+00  0.10566000000E+00 0.  1.
     999900   -1    0    0    0    0 -0.00000000000E+00 -0.00000000000E+00 -0.74505805969E-08  0.93827000000E+00  0.93827000000E+00 0.  1.
     999902    2    1    2    0    0 -0.20266434961E-01  0.50641562722E-02  0.50424908651E-02  0.10224404495E+01  0.10222145920E+01 0.  0.
     999903    2    3    3    0    0 -0.13173550940E+00  0.99858638036E-02 -0.20061406665E-01  0.13503987290E+00  0.19476789295E-01 0.  0.
         14    1    1    2    0    0  0.20266434961E-01 -0.50641562722E-02 -0.50424908651E-02  0.21489550458E-01  0.00000000000E+00 0.  1.
     999901    1    3    3    0    0  0.11146907444E+00 -0.49217075314E-02  0.25103897530E-01  0.88740057665E+00  0.88000000000E+00 0.  1.
        -11    1    4    4    0    0 -0.75362609977E-02  0.44948442813E-02 -0.40960848738E-02  0.96973134028E-02  0.51100000000E-03 0. -1.
         11    1    4    4    0    0 -0.12419924840E+00  0.54910195223E-02 -0.15965321791E-01  0.12534255949E+00  0.51100000000E-03 0.  1.
</event>
<event>
 7    1  0.1010879E+005  0.1043930E+01  0.7957747E-01            NaN
         13   -1    0    0    0    0  0.00000000000E+00  0.00000000000E+00  0.74505805969E-08  0.10566000000E+00  0.10566000000E+00 0.  1.
     999900   -1    0    0    0    0 -0.00000000000E+00 -0.00000000000E+00 -0.74505805969E-08  0.93827000000E+00  0.93827000000E+00 0. -1.
     999902    2    1    2    0    0  0.97039105839E-02  0.12841722429E-01  0.15088129338E-01  0.10218681016E+01  0.10216299181E+01 0.  0.
         14    1    1    2    0    0 -0.97039105839E-02 -0.12841722429E-01 -0.15088129338E-01  0.22061898434E-01  0.00000000000E+00 0.  1.
     999901    1    3    3    0    0 -0.55743464659E-01  0.12109815630E+00  0.79291475916E-02  0.89007582188E+00  0.88000000000E+00 0.  1.
        -11    1    3    3    0    0  0.30500187986E-01 -0.31255707776E-01 -0.11571110410E-01  0.45181107256E-01  0.51100000000E-03 0. -1.
         11    1    3    3    0    0  0.34947187257E-01 -0.77000726098E-01  0.18730092156E-01  0.86611172432E-01  0.51100000000E-03 0.  1.
</event>
<event>
 8    1  0.1010879E+005  0.1043930E+01  0.7957747E-01            NaN
         13   -1    0    0    0    0  0.00000000000E+00  0.00000000000E+00  0.74505805969E-08  0.10566000000E+00  0.10566000000E+00 0.  1.
     999900   -1    0    0    0    0 -0.00000000000E+00 -0.00000000000E+00 -0.74505805969E-08  0.93827000000E+00  0.93827000000E+00 0. -1.
     999902    2    1    2    0    0 -0.22003008258E-01  0.87463706699E-02  0.84233189419E-03  0.10202373662E+01  0.10199622260E+01 0.  0.
     999903    2    3    3    0    0 -0.93622285996E-01  0.82863602901E-01  0.41801781359E-01  0.13327605841E+00  0.19585956690E-01 0.  0.
         14    1    1    2    0    0  0.22003008258E-01 -0.87463706699E-02 -0.84233189419E-03  0.23692633778E-01  0.00000000000E+00 0.  1.
     999901    1    3    3    0    0  0.71619277737E-01 -0.74117232231E-01 -0.40959449465E-01  0.88696130781E+00  0.88000000000E+00 0. -1.
        -11    1    4    4    0    0 -0.22404871629E-01  0.17876181910E-01  0.12867253734E-02  0.28695869660E-01  0.51100000000E-03 0.  1.
         11    1    4    4    0    0 -0.71217414367E-01  0.64987420991E-01  0.40515055986E-01  0.10458018875E+00  0.51100000000E-03 0. -1.
</event>
<event>
 8    1  0.1010879E+005  0.1043930E+01  0.7957747E-01            NaN
         13   -1    0    0    0    0  0.00000000000E+00  0.00000000000E+00  0.74505805969E-08  0.10566000000E+00  0.10566000000E+00 0.  1.
     999900   -1    0    0    0    0 -0.00000000000E+00 -0.00000000000E+00 -0.74505805969E-08  0.93827000000E+00  0.93827000000E+00 0. -1.
     999902    2    1    2    0    0  0.42399674771E-02 -0.12790709896E-01 -0.19826392556E-01  0.10199578198E+01  0.10196760705E+01 0.  0.
     999903    2    3    3    0    0  0.13811314670E-01  0.79066937281E-01 -0.10172519679E+00  0.13134268812E+00  0.21460500428E-01 0.  0.
         14    1    1    2    0    0 -0.42399674771E-02  0.12790709896E-01  0.19826392556E-01  0.23972180244E-01  0.00000000000E+00 0.  1.
     999901    1    3    3    0    0 -0.95713471931E-02 -0.91857647177E-01  0.81898804229E-01  0.88861513163E+00  0.88000000000E+00 0.  1.
        -11    1    4    4    0    0  0.92254939651E-02  0.45614079276E-01 -0.75046414752E-01  0.88306168841E-01  0.51100000000E-03 0. -1.
         11    1    4    4    0    0  0.45858207051E-02  0.33452858005E-01 -0.26678782033E-01  0.43036519283E-01  0.51100000000E-03 0.  1.
</event>
<event>
 8    1  0.1010879E+005  0.1043930E+01  0.7957747E-01            NaN
         13   -1    0    0    0    0  0.00000000000E+00  0.00000000000E+00  0.74505805969E-08  0.10566000000E+00  0.10566000000E+00 0.  1.
     999900   -1    0    0    0    0 -0.00000000000E+00 -0.00000000000E+00 -0.74505805969E-08  0.93827000000E+00  0.93827000000E+00 0. -1.
     999902    2    1    2    0    0 -0.19097208600E-01 -0.14312507454E-01 -0.42878927788E-02  0.10196825822E+01  0.10193942472E+01 0.  0.
     999903    2    3    3    0    0 -0.10136532975E+00 -0.60185695543E-02  0.81281338286E-01  0.13167417769E+00  0.20500728323E-01 0.  0.
         14    1    1    2    0    0  0.19097208600E-01  0.14312507454E-01  0.42878927788E-02  0.24247417809E-01  0.00000000000E+00 0. -1.
     999901    1    3    3    0    0  0.82268121148E-01 -0.82939379001E-02 -0.85569231065E-01  0.88800840450E+00  0.88000000000E+00 0.  1.
        -11    1    4    4    0    0 -0.13646458081E-01  0.58973350199E-02  0.14614853251E-01  0.20853283556E-01  0.51100000000E-03 0.  1.
         11    1    4    4    0    0 -0.87718871667E-01 -0.11915904574E-01  0.66666485035E-01  0.11082089413E+00  0.51100000000E-03 0. -1.
</event>
<event>
 8    1  0.1010879E+005  0.1043930E+01  0.7957747E-01            NaN
         13   -1    0    0    0    0  0.00000000000E+00  0.00000000000E+00  0.74505805969E-08  0.10566000000E+00  0.10566000000E+00 0.  1.
     999900   -1    0    0    0    0 -0.00000000000E+00 -0.00000000000E+00 -0.74505805969E-08  0.93827000000E+00  0.93827000000E+00 0. -1.
     999902    2    1    2    0    0  0.14276382017E-01 -0.18011405216E-01  0.47648695083E-02  0.10204581065E+01  0.10201881284E+01 0.  0.
     999903    2    3    3    0    0  0.22232629634E-01 -0.11311609810E+00 -0.62712068328E-01  0.13272991524E+00  0.19871724037E-01 0.  0.
         14    1    1    2    0    0 -0.14276382017E-01  0.18011405216E-01 -0.47648695083E-02  0.23471893464E-01  0.00000000000E+00 0. -1.
     999901    1    3    3    0    0 -0.79562476163E-02  0.95104692881E-01  0.67476937836E-01  0.88772819130E+00  0.88000000000E+00 0.  1.
        -11    1    4    4    0    0  0.13926433914E-01 -0.40277477032E-01 -0.14650774296E-01  0.45068026650E-01  0.51100000000E-03 0. -1.
         11    1    4    4    0    0  0.83061957194E-02 -0.72838621065E-01 -0.48061294032E-01  0.87661888589E-01  0.51100000000E-03 0.  1.
</event>
<event>
 8    1  0.1010879E+005  0.1043930E+01  0.7957747E-01            NaN
         13   -1    0    0    0    0  0.00000000000E+00  0.00000000000E+00  0.74505805969E-08  0.10566000000E+00  0.10566000000E+00 0.  1.
     999900   -1    0    0    0    0 -0.00000000000E+00 -0.00000000000E+00 -0.74505805969E-08  0.93827000000E+00  0.93827000000E+00 0. -1.
     999902    2    1    2    0    0  0.21982393781E-02  0.19671482819E-01 -0.11053199122E-01  0.10212590339E+01  0.10210073661E+01 0.  0.
     999903    2    3    3    0    0  0.11541259800E+00  0.39617271128E-01  0.46232341767E-01  0.13193515665E+00  0.19490002225E-01 0.  0.
         14    1    1    2    0    0 -0.21982393781E-02 -0.19671482819E-01  0.11053199122E-01  0.22670966091E-01  0.00000000000E+00 0. -1.
     999901    1    3    3    0    0 -0.11321435862E+00 -0.19945788309E-01 -0.57285540889E-01  0.88932387726E+00  0.88000000000E+00 0. -1.
        -11    1    4    4    0    0  0.58035937642E-01  0.27928710147E-01  0.17698990395E-01  0.66795945165E-01  0.51100000000E-03 0.  1.
         11    1    4    4    0    0  0.57376660356E-01  0.11688560981E-01  0.28533351371E-01  0.65139211485E-01  0.51100000000E-03 0. -1.
</event>
<event>
 8    1  0.1010879E+005  0.1043930E+01  0.7957747E-01            NaN
         13   -1    0    0    0    0  0.00000000000E+00  0.00000000000E+00  0.74505805969E-08  0.10566000000E+00  0.10566000000E+00 0.  1.
     999900   -1    0    0    0    0 -0.00000000000E+00 -0.00000000000E+00 -0.74505805969E-08  0.93827000000E+00  0.93827000000E+00 0. -1.
     999902    2    1    2    0    0  0.57195261600E-02 -0.22991623370E-01 -0.23139836922E-02  0.10201249114E+01  0.10198471221E+01 0.  0.
     999903    2    3    3    0    0 -0.87716600986E-01 -0.41982632669E-01 -0.85602218674E-01  0.13106479057E+00  0.19836732367E-01 0.  0.
         14    1    1    2    0    0 -0.57195261600E-02  0.22991623370E-01  0.23139836922E-02  0.23805088641E-01  0.00000000000E+00 0.  1.
     999901    1    3    3    0    0  0.93436127146E-01  0.18991009298E-01  0.83288234982E-01  0.88906012079E+00  0.88000000000E+00 0.  1.
        -11    1    4    4    0    0 -0.26470057550E-01 -0.14080309812E-01 -0.39024640496E-01  0.49214863181E-01  0.51100000000E-03 0.  1.
         11    1    4    4    0    0 -0.61246543436E-01 -0.27902322857E-01 -0.46577578178E-01  0.81849927389E-01  0.51100000000E-03 0. -1.
</event>
<event>
 8    1  0.1010879E+005  0.1043930E+01  0.7957747E-01            NaN
         13   -1    0    0    0    0  0.00000000000E+00  0.00000000000E+00  0.74505805969E-08  0.10566000000E+00  0.10566000000E+00 0. -1.
     999900   -1    0    0    0    0 -0.00000000000E+00 -0.00000000000E+00 -0.74505805969E-08  0.93827000000E+00  0.93827000000E+00 0.  1.
     999902    2    1    2    0    0  0.52255947061E-02 -0.23465959520E-01 -0.38923839833E-02  0.10195761759E+01  0.10192852739E+01 0.  0.
     999903    2    3    3    0    0 -0.99180404769E-01  0.68606228903E-01  0.37136702854E-01  0.12768981172E+00  0.19544461714E-01 0.  0.
         14    1    1    2    0    0 -0.52255947061E-02  0.23465959520E-01  0.38923839833E-02  0.24353824121E-01  0.00000000000E+00 0.  1.
     999901    1    3    3    0    0  0.10440599948E+00 -0.92072188423E-01 -0.41029086837E-01  0.89188636416E+00  0.88000000000E+00 0.  1.
        -11    1    4    4    0    0 -0.74927693538E-01  0.41758788684E-01  0.29486388076E-01  0.90706471070E-01  0.51100000000E-03 0.  1.
         11    1    4    4    0    0 -0.24252711231E-01  0.26847440219E-01  0.76503147774E-02  0.36983340649E-01  0.51100000000E-03 0. -1.
</event>
<event>
 8    1  0.1010879E+005  0.1043930E+01  0.7957747E-01            NaN
         13   -1    0    0    0    0  0.00000000000E+00  0.00000000000E+00  0.74505805969E-08  0.10566000000E+00  0.10566000000E+00 0. -1.
     999900   -1    0    0    0    0 -0.00000000000E+00 -0.00000000000E+00 -0.74505805969E-08  0.93827000000E+00  0.93827000000E+00 0.  1.
     999902    2    1    2    0    0 -0.20742641198E-01  0.12691379240E-01 -0.13249457423E-01  0.10162374668E+01  0.10158600852E+01 0.  0.
     999903    2    3    3    0    0  0.88432611670E-01  0.67806311519E-01 -0.56977648387E-01  0.12670441727E+00  0.19736622054E-01 0.  0.
         14    1    1    2    0    0  0.20742641198E-01 -0.12691379240E-01  0.13249457423E-01  0.27692533161E-01  0.00000000000E+00 0. -1.
     999901    1    3    3    0    0 -0.10917525287E+00 -0.55114932279E-01  0.43728190964E-01  0.88953304957E+00  0.88000000000E+00 0. -1.
        -11    1    4    4    0    0  0.66048245778E-02  0.63599143685E-02 -0.11515560656E-01  0.14728933318E-01  0.51100000000E-03 0.  1.
         11    1    4    4    0    0  0.81827787092E-01  0.61446397151E-01 -0.45462087731E-01  0.11197548395E+00  0.51100000000E-03 0. -1.
</event>
<event>
 8    1  0.1010879E+005  0.1043930E+01  0.7957747E-01            NaN
         13   -1    0    0    0    0  0.00000000000E+00  0.00000000000E+00  0.74505805969E-08  0.10566000000E+00  0.10566000000E+00 0. -1.
     999900   -1    0    0    0    0 -0.00000000000E+00 -0.00000000000E+00 -0.74505805969E-08  0.93827000000E+00  0.93827000000E+00 0.  1.
     999902    2    1    2    0    0 -0.12531149937E-01 -0.22324248573E-01  0.60811409128E-02  0.10176168461E+01  0.10172765914E+01 0.  0.
     999903    2    3    3    0    0 -0.18284972616E-01 -0.56763076562E-01  0.11412358245E+00  0.13032190725E+00  0.20080347409E-01 0.  0.
         14    1    1    2    0    0  0.12531149937E-01  0.22324248573E-01 -0.60811409128E-02  0.26313153895E-01  0.00000000000E+00 0.  1.
     999901    1    3    3    0    0  0.57538226790E-02  0.34438827988E-01 -0.10804244154E+00  0.88729493886E+00  0.88000000000E+00 0.  1.
        -11    1    4    4    0    0 -0.80014447461E-03 -0.34958951205E-01  0.63358293447E-01  0.72369212860E-01  0.51100000000E-03 0. -1.
         11    1    4    4    0    0 -0.17484828141E-01 -0.21804125357E-01  0.50765289007E-01  0.57952694387E-01  0.51100000000E-03 0.  1.
</event>
<event>
 8    1  0.1010879E+005  0.1043930E+01  0.7957747E-01            NaN
         13   -1    0    0    0    0  0.00000000000E+00  0.00000000000E+00  0.74505805969E-08  0.10566000000E+00  0.10566000000E+00 0.  1.
     999900   -1    0    0    0    0 -0.00000000000E+00 -0.00000000000E+00 -0.74505805969E-08  0.93827000000E+00  0.93827000000E+00 0.  1.
     999902    2    1    2    0    0 -0.71882982985E-02 -0.10808195551E-01 -0.19486316418E-01  0.10205162166E+01  0.10202475892E+01 0.  0.
     999903    2    3    3    0    0  0.11166605881E+00 -0.38590624662E-01  0.49386622182E-01  0.12942603981E+00  0.18802029925E-01 0.  0.
         14    1    1    2    0    0  0.71882982985E-02  0.10808195551E-01  0.19486316418E-01  0.23413783356E-01  0.00000000000E+00 0.  1.
     999901    1    3    3    0    0 -0.11885435711E+00  0.27782429111E-01 -0.68872938600E-01  0.89109017683E+00  0.88000000000E+00 0.  1.
        -11    1    4    4    0    0  0.18129993527E-01 -0.58605810344E-02  0.15903170667E-01  0.24823678890E-01  0.51100000000E-03 0.  1.
         11    1    4    4    0    0  0.93536065283E-01 -0.32730043628E-01  0.33483451515E-01  0.10460236092E+00  0.51100000000E-03 0. -1.
</event>
<event>
 8    1  0.1010879E+005  0.1043930E+01  0.7957747E-01            NaN
         13   -1    0    0    0    0  0.00000000000E+00  0.00000000000E+00  0.74505805969E-08  0.10566000000E+00  0.10566000000E+00 0. -1.
     999900   -1    0    0    0    0 -0.00000000000E+00 -0.00000000000E+00 -0.74505805969E-08  0.93827000000E+00  0.93827000000E+00 0. -1.
     999902    2    1    2    0    0  0.21364130606E-01  0.10375132149E-01  0.13948754526E-02  0.10201389277E+01  0.10198614694E+01 0.  0.
     999903    2    3    3    0    0  0.55428721036E-01  0.23281115925E-01 -0.11549577055E+00  0.13166248802E+00  0.19529062010E-01 0.  0.
         14    1    1    2    0    0 -0.21364130606E-01 -0.10375132149E-01 -0.13948754526E-02  0.23791072300E-01  0.00000000000E+00 0. -1.
     999901    1    3    3    0    0 -0.34064590429E-01 -0.12905983776E-01  0.11689064600E+00  0.88847643968E+00  0.88000000000E+00 0.  1.
        -11    1    4    4    0    0  0.29760042374E-01  0.44635119050E-02 -0.43004025651E-01  0.52489907638E-01  0.51100000000E-03 0. -1.
         11    1    4    4    0    0  0.25668678661E-01  0.18817604020E-01 -0.72491744899E-01  0.79172580385E-01  0.51100000000E-03 0.  1.
</event>
<event>
 8    1  0.1010879E+005  0.1043930E+01  0.7957747E-01            NaN
         13   -1    0    0    0    0  0.00000000000E+00  0.00000000000E+00  0.74505805969E-08  0.10566000000E+00  0.10566000000E+00 0. -1.
     999900   -1    0    0    0    0 -0.00000000000E+00 -0.00000000000E+00 -0.74505805969E-08  0.93827000000E+00  0.93827000000E+00 0. -1.
     999902    2    1    2    0    0 -0.22433003910E-01 -0.14538321768E-02 -0.72564433623E-02  0.10203077803E+01  0.10200342922E+01 0.  0.
     999903    2    3    3    0    0  0.15450765186E-01 -0.11923126298E+00  0.45336772540E-01  0.13009839510E+00  0.20380118893E-01 0.  0.
         14    1    1    2    0    0  0.22433003910E-01  0.14538321768E-02  0.72564433623E-02  0.23622219682E-01  0.00000000000E+00 0.  1.
     999901    1    3    3    0    0 -0.37883769096E-01  0.11777743081E+00 -0.52593215902E-01  0.89020938522E+00  0.88000000000E+00 0. -1.
        -11    1    4    4    0    0 -0.29354314810E-02 -0.52118804593E-01  0.22655486203E-01  0.56907984732E-01  0.51100000000E-03 0.  1.
         11    1    4    4    0    0  0.18386196667E-01 -0.67112458391E-01  0.22681286337E-01  0.73190410369E-01  0.51100000000E-03 0. -1.
</event>
<event>
 8    1  0.1010879E+005  0.1043930E+01  0.7957747E-01            NaN
         13   -1    0    0    0    0  0.00000000000E+00  0.00000000000E+00  0.74505805969E-08  0.10566000000E+00  0.10566000000E+00 0. -1.
     999900   -1    0    0    0    0 -0.00000000000E+00 -0.00000000000E+00 -0.74505805969E-08  0.93827000000E+00  0.93827000000E+00 0.  1.
     999902    2    1    2    0    0 -0.76794628479E-02 -0.22268031568E-02  0.22658559782E-01  0.10199020343E+01  0.10196189565E+01 0.  0.
     999903    2    3    3    0    0 -0.12513126285E+00 -0.16561326535E-01  0.33307270243E-01  0.13191903963E+00  0.19003901876E-01 0.  0.
         14    1    1    2    0    0  0.76794628479E-02  0.22268031568E-02 -0.22658559782E-01  0.24027965651E-01  0.00000000000E+00 0. -1.
     999901    1    3    3    0    0  0.11745180000E+00  0.14334523378E-01 -0.10648710461E-01  0.88798299472E+00  0.88000000000E+00 0.  1.
        -11    1    4    4    0    0 -0.73271560130E-01 -0.11100257957E-01  0.99359734040E-02  0.74772467788E-01  0.51100000000E-03 0.  1.
         11    1    4    4    0    0 -0.51859702716E-01 -0.54610685782E-02  0.23371296839E-01  0.57146571837E-01  0.51100000000E-03 0. -1.
</event>
<event>
 8    1  0.1010879E+005  0.1043930E+01  0.7957747E-01            NaN
         13   -1    0    0    0    0  0.00000000000E+00  0.00000000000E+00  0.74505805969E-08  0.10566000000E+00  0.10566000000E+00 0. -1.
     999900   -1    0    0    0    0 -0.00000000000E+00 -0.00000000000E+00 -0.74505805969E-08  0.93827000000E+00  0.93827000000E+00 0. -1.
     999902    2    1    2    0    0  0.16235696567E-01  0.12910087719E-01 -0.65948982178E-03  0.10231766115E+01  0.10229661163E+01 0.  0.
     999903    2    3    3    0    0  0.48814713160E-01 -0.11654098641E+00 -0.34413670059E-01  0.13246997202E+00  0.19982869251E-01 0.  0.
         14    1    1    2    0    0 -0.16235696567E-01 -0.12910087719E-01  0.65948982178E-03  0.20753388513E-01  0.00000000000E+00 0. -1.
     999901    1    3    3    0    0 -0.32579016594E-01  0.12945107413E+00  0.33754180237E-01  0.89070663947E+00  0.88000000000E+00 0.  1.
        -11    1    4    4    0    0  0.40575696977E-01 -0.73610699089E-01 -0.25673943894E-01  0.87888194439E-01  0.51100000000E-03 0.  1.
         11    1    4    4    0    0  0.82390161830E-02 -0.42930287325E-01 -0.87397261646E-02  0.44581777577E-01  0.51100000000E-03 0. -1.
</event>
<event>
 8    1  0.1010879E+005  0.1043930E+01  0.7957747E-01            NaN
         13   -1    0    0    0    0  0.00000000000E+00  0.00000000000E+00  0.74505805969E-08  0.10566000000E+00  0.10566000000E+00 0.  1.
     999900   -1    0    0    0    0 -0.00000000000E+00 -0.00000000000E+00 -0.74505805969E-08  0.93827000000E+00  0.93827000000E+00 0. -1.
     999902    2    1    2    0    0 -0.24010587314E-03  0.17504708351E-01  0.38258907130E-02  0.10260104602E+01  0.10258539636E+01 0.  0.
     999903    2    3    3    0    0 -0.64617012924E-01  0.19069331993E-01 -0.11442823849E+00  0.13576842951E+00  0.28288635633E-01 0.  0.
         14    1    1    2    0    0  0.24010587314E-03 -0.17504708351E-01 -0.38258907130E-02  0.17919539755E-01  0.00000000000E+00 0. -1.
     999901    1    3    3    0    0  0.64376907051E-01 -0.15646236423E-02  0.11825412921E+00  0.89024203073E+00  0.88000000000E+00 0.  1.
        -11    1    4    4    0    0 -0.41468584492E-01  0.35482336593E-03 -0.81031628643E-01  0.91028321751E-01  0.51100000000E-03 0.  1.
         11    1    4    4    0    0 -0.23148428433E-01  0.18714508627E-01 -0.33396609849E-01  0.44740107761E-01  0.51100000000E-03 0. -1.
</event>
<event>
 8    1  0.1010879E+005  0.1043930E+01  0.7957747E-01            NaN
         13   -1    0    0    0    0  0.00000000000E+00  0.00000000000E+00  0.74505805969E-08  0.10566000000E+00  0.10566000000E+00 0. -1.
     999900   -1    0    0    0    0 -0.00000000000E+00 -0.00000000000E+00 -0.74505805969E-08  0.93827000000E+00  0.93827000000E+00 0.  1.
     999902    2    1    2    0    0 -0.21158638133E-01  0.16129414198E-01 -0.44102393737E-02  0.10169615707E+01  0.10166039248E+01 0.  0.
     999903    2    3    3    0    0  0.63090467144E-01 -0.38213615786E-01  0.99031349608E-01  0.12524903907E+00  0.20962492884E-01 0.  0.
         14    1    1    2    0    0  0.21158638133E-01 -0.16129414198E-01  0.44102393737E-02  0.26968429345E-01  0.00000000000E+00 0. -1.
     999901    1    3    3    0    0 -0.84249105277E-01  0.54343029984E-01 -0.10344158898E+00  0.89171253158E+00  0.88000000000E+00 0.  1.
        -11    1    4    4    0    0  0.18403550476E-01 -0.18375081521E-01  0.47867445049E-01  0.54478323281E-01  0.51100000000E-03 0. -1.
         11    1    4    4    0    0  0.44686916668E-01 -0.19838534265E-01  0.51163904559E-01  0.70770715792E-01  0.51100000000E-03 0.  1.
</event>
<event>
 8    1  0.1125408E+005  0.1043930E+01  0.7957747E-01            NaN
         13   -1    0    0    0    0  0.00000000000E+00  0.00000000000E+00  0.74505805969E-08  0.10566000000E+00  0.10566000000E+00 0. -1.
     999900   -1    0    0    0    0 -0.00000000000E+00 -0.00000000000E+00 -0.74505805969E-08  0.93827000000E+00  0.93827000000E+00 0.  1.
     999902    2    1    2    0    0  0.23492635904E-01  0.18484153151E-02  0.58417416442E-02  0.10196514801E+01  0.10193623960E+01 0.  0.
     999903    2    3    3    0    0 -0.53829976694E-01 -0.85074461406E-02 -0.11419586157E+00  0.12808260649E+00  0.19859915806E-01 0.  0.
         14    1    1    2    0    0 -0.23492635904E-01 -0.18484153151E-02 -0.58417416442E-02  0.24278519855E-01  0.00000000000E+00 0. -1.
     999901    1    3    3    0    0  0.77322612599E-01  0.10355861456E-01  0.12003760321E+00  0.89156887365E+00  0.88000000000E+00 0. -1.
        -11    1    4    4    0    0 -0.17316257363E-01 -0.98733324924E-02 -0.55144198483E-01  0.58638547142E-01  0.51100000000E-03 0. -1.
         11    1    4    4    0    0 -0.36513719332E-01  0.13658863518E-02 -0.59051663083E-01  0.69444059348E-01  0.51100000000E-03 0.  1.
</event>
<event>
 8    1  0.1010879E+005  0.1043930E+01  0.7957747E-01            NaN
         13   -1    0    0    0    0  0.00000000000E+00  0.00000000000E+00  0.74505805969E-08  0.10566000000E+00  0.10566000000E+00 0.  1.
     999900   -1    0    0    0    0 -0.00000000000E+00 -0.00000000000E+00 -0.74505805969E-08  0.93827000000E+00  0.93827000000E+00 0. -1.
     999902    2    1    2    0    0  0.13323339224E-01 -0.63098463031E-02 -0.18560414970E-01  0.10202273729E+01  0.10199519978E+01 0.  0.
     999903    2    3    3    0    0 -0.61718370119E-02 -0.11875787029E+00 -0.54068289677E-01  0.13214774292E+00  0.19953011816E-01 0.  0.
         14    1    1    2    0    0 -0.13323339224E-01  0.63098463031E-02  0.18560414970E-01  0.23702627118E-01  0.00000000000E+00 0.  1.
     999901    1    3    3    0    0  0.19495176236E-01  0.11244802399E+00  0.35507874707E-01  0.88807962997E+00  0.88000000000E+00 0.  1.
        -11    1    4    4    0    0 -0.12016969311E-01 -0.83655877726E-01 -0.43317291365E-01  0.94970323164E-01  0.51100000000E-03 0.  1.
         11    1    4    4    0    0  0.58451322988E-02 -0.35101992566E-01 -0.10750998312E-01  0.37177419752E-01  0.51100000000E-03 0. -1.
</event>
<event>
 8    1  0.1010879E+005  0.1043930E+01  0.7957747E-01            NaN
         13   -1    0    0    0    0  0.00000000000E+00  0.00000000000E+00  0.74505805969E-08  0.10566000000E+00  0.10566000000E+00 0.  1.
     999900   -1    0    0    0    0 -0.00000000000E+00 -0.00000000000E+00 -0.74505805969E-08  0.93827000000E+00  0.93827000000E+00 0.  1.
     999902    2    1    2    0    0  0.19113352174E-01  0.14375527439E-01 -0.15063450920E-03  0.10200135055E+01  0.10197330791E+01 0.  0.
     999903    2    3    3    0    0 -0.17938513330E-01  0.12859421779E+00 -0.99641877654E-02  0.13180460222E+00  0.20369217444E-01 0.  0.
         14    1    1    2    0    0 -0.19113352174E-01 -0.14375527439E-01  0.15063450920E-03  0.23916494543E-01  0.00000000000E+00 0.  1.
     999901    1    3    3    0    0  0.37051865503E-01 -0.11421869035E+00  0.98135532562E-02  0.88820890324E+00  0.88000000000E+00 0. -1.
        -11    1    4    4    0    0 -0.22493283529E-01  0.10472606919E+00 -0.75720472326E-02  0.10738293343E+00  0.51100000000E-03 0. -1.
         11    1    4    4    0    0  0.45547701995E-02  0.23868148595E-01 -0.23921405328E-02  0.24421668785E-01  0.51100000000E-03 0.  1.
</event>
<event>
 8    1  0.1010879E+005  0.1043930E+01  0.7957747E-01            NaN
         13   -1    0    0    0    0  0.00000000000E+00  0.00000000000E+00  0.74505805969E-08  0.10566000000E+00  0.10566000000E+00 0.  1.
     999900   -1    0    0    0    0 -0.00000000000E+00 -0.00000000000E+00 -0.74505805969E-08  0.93827000000E+00  0.93827000000E+00 0.  1.
     999902    2    1    2    0    0 -0.74701640903E-02 -0.17630933360E-01  0.95123253689E-02  0.10225492260E+01  0.10223256732E+01 0.  0.
     999903    2    3    3    0    0  0.30101489752E-01  0.12082720944E+00 -0.32890986700E-01  0.12992370130E+00  0.17118321359E-01 0.  0.
         14    1    1    2    0    0  0.74701640903E-02  0.17630933360E-01 -0.95123253689E-02  0.21380773995E-01  0.00000000000E+00 0. -1.
     999901    1    3    3    0    0 -0.37571653842E-01 -0.13845814280E+00  0.42403312069E-01  0.89262552471E+00  0.88000000000E+00 0. -1.
        -11    1    4    4    0    0  0.22460415649E-01  0.54986797160E-01 -0.14818302985E-01  0.61219779136E-01  0.51100000000E-03 0.  1.
         11    1    4    4    0    0  0.76410741032E-02  0.65840412283E-01 -0.18072683715E-01  0.68703922164E-01  0.51100000000E-03 0. -1.
</event>
<event>
 8    1  0.1010879E+005  0.1043930E+01  0.7957747E-01            NaN
         13   -1    0    0    0    0  0.00000000000E+00  0.00000000000E+00  0.74505805969E-08  0.10566000000E+00  0.10566000000E+00 0.  1.
     999900   -1    0    0    0    0 -0.00000000000E+00 -0.00000000000E+00 -0.74505805969E-08  0.93827000000E+00  0.93827000000E+00 0. -1.
     999902    2    1    2    0    0  0.12036709209E-01 -0.14149248040E-01 -0.14241266813E-01  0.10205227945E+01  0.10202543197E+01 0.  0.
     999903    2    3    3    0    0  0.78466665184E-01 -0.91176339262E-01  0.51089186584E-01  0.13225809298E+00  0.20296693982E-01 0.  0.
         14    1    1    2    0    0 -0.12036709209E-01  0.14149248040E-01  0.14241266813E-01  0.23407205496E-01  0.00000000000E+00 0.  1.
     999901    1    3    3    0    0 -0.66429955975E-01  0.77027091222E-01 -0.65330453397E-01  0.88826470152E+00  0.88000000000E+00 0. -1.
        -11    1    4    4    0    0  0.28590004857E-01 -0.19766998653E-01  0.11885168203E-01  0.36737459870E-01  0.51100000000E-03 0.  1.
         11    1    4    4    0    0  0.49876660327E-01 -0.71409340609E-01  0.39204018381E-01  0.95520633110E-01  0.51100000000E-03 0. -1.
</event>
<event>
 8    1  0.1010879E+005  0.1043930E+01  0.7957747E-01            NaN
         13   -1    0    0    0    0  0.00000000000E+00  0.00000000000E+00  0.74505805969E-08  0.10566000000E+00  0.10566000000E+00 0.  1.
     999900   -1    0    0    0    0 -0.00000000000E+00 -0.00000000000E+00 -0.74505805969E-08  0.93827000000E+00  0.93827000000E+00 0.  1.
     999902    2    1    2    0    0 -0.91390181149E-02  0.12582661411E-01  0.19485906143E-01  0.10189991846E+01  0.10186941605E+01 0.  0.
     999903    2    3    3    0    0  0.70623400441E-02 -0.53247980015E-02 -0.12494864082E+00  0.12689801347E+00  0.20315335521E-01 0.  0.
         14    1    1    2    0    0  0.91390181149E-02 -0.12582661411E-01 -0.19485906143E-01  0.24930815440E-01  0.00000000000E+00 0. -1.
     999901    1    3    3    0    0 -0.16201358159E-01  0.17907459412E-01  0.14443454697E+00  0.89210117109E+00  0.88000000000E+00 0. -1.
        -11    1    4    4    0    0  0.98961295862E-02  0.36042532400E-02 -0.37713957088E-01  0.39160282206E-01  0.51100000000E-03 0. -1.
         11    1    4    4    0    0 -0.28337895421E-02 -0.89290512415E-02 -0.87234683736E-01  0.87737731261E-01  0.51100000000E-03 0.  1.
</event>
<event>
 8    1  0.1010879E+005  0.1043930E+01  0.7957747E-01            NaN
         13   -1    0    0    0    0  0.00000000000E+00  0.00000000000E+00  0.74505805969E-08  0.10566000000E+00  0.10566000000E+00 0. -1.
     999900   -1    0    0    0    0 -0.00000000000E+00 -0.00000000000E+00 -0.74505805969E-08  0.93827000000E+00  0.93827000000E+00 0.  1.
     999902    2    1    2    0    0 -0.38323622876E-02  0.19797540479E-01 -0.12523907234E-01  0.10201923114E+01  0.10199161114E+01 0.  0.
     999903    2    3    3    0    0 -0.10458972069E+00  0.42304203126E-02 -0.77470073948E-01  0.13192862017E+00  0.21133914309E-01 0.  0.
         14    1    1    2    0    0  0.38323622876E-02 -0.19797540479E-01  0.12523907234E-01  0.23737688643E-01  0.00000000000E+00 0.  1.
     999901    1    3    3    0    0  0.10075735840E+00  0.15567120166E-01  0.64946166713E-01  0.88826369118E+00  0.88000000000E+00 0. -1.
        -11    1    4    4    0    0 -0.34263752422E-01 -0.78288606327E-02 -0.21125339204E-01  0.41010204417E-01  0.51100000000E-03 0. -1.
         11    1    4    4    0    0 -0.70325968266E-01  0.12059280945E-01 -0.56344734743E-01  0.90918415757E-01  0.51100000000E-03 0.  1.
</event>
<event>
 8    1  0.1010879E+005  0.1043930E+01  0.7957747E-01            NaN
         13   -1    0    0    0    0  0.00000000000E+00  0.00000000000E+00  0.74505805969E-08  0.10566000000E+00  0.10566000000E+00 0. -1.
     999900   -1    0    0    0    0 -0.00000000000E+00 -0.00000000000E+00 -0.74505805969E-08  0.93827000000E+00  0.93827000000E+00 0.  1.
     999902    2    1    2    0    0  0.21287606365E-01 -0.12385207139E-02  0.10702624810E-01  0.10200712009E+01  0.10197921418E+01 0.  0.
     999903    2    3    3    0    0  0.40251638751E-01  0.39285833918E-01  0.11873771268E+00  0.13233619646E+00  0.15832034326E-01 0.  0.
         14    1    1    2    0    0 -0.21287606365E-01  0.12385207139E-02 -0.10702624810E-01  0.23858799134E-01  0.00000000000E+00 0.  1.
     999901    1    3    3    0    0 -0.18964032386E-01 -0.40524354632E-01 -0.10803508787E+00  0.88773500441E+00  0.88000000000E+00 0.  1.
        -11    1    4    4    0    0  0.39945532837E-02  0.36951236537E-02  0.26233527595E-01  0.26796818576E-01  0.51100000000E-03 0. -1.
         11    1    4    4    0    0  0.36257085467E-01  0.35590710265E-01  0.92504185086E-01  0.10553937788E+00  0.51100000000E-03 0.  1.
</event>
<event>
 8    1  0.1010879E+005  0.1043930E+01  0.7957747E-01            NaN
         13   -1    0    0    0    0  0.00000000000E+00  0.00000000000E+00  0.74505805969E-08  0.10566000000E+00  0.10566000000E+00 0.  1.
     999900   -1    0    0    0    0 -0.00000000000E+00 -0.00000000000E+00 -0.74505805969E-08  0.93827000000E+00  0.93827000000E+00 0. -1.
     999902    2    1    2    0    0  0.13496663842E-01  0.13798363699E-01  0.14529667130E-01  0.10197708195E+01  0.10194846042E+01 0.  0.
     999903    2    3    3    0    0  0.93899263380E-01 -0.55094892594E-01 -0.67499487501E-01  0.12963619991E+00  0.19920960360E-01 0.  0.
         14    1    1    2    0    0 -0.13496663842E-01 -0.13798363699E-01 -0.14529667130E-01  0.24159180502E-01  0.00000000000E+00 0. -1.
     999901    1    3    3    0    0 -0.80402599538E-01  0.68893256293E-01  0.82029154631E-01  0.89013461959E+00  0.88000000000E+00 0. -1.
        -11    1    4    4    0    0  0.72019374303E-01 -0.50012565290E-01 -0.48443897822E-01  0.10017544269E+00  0.51100000000E-03 0. -1.
         11    1    4    4    0    0  0.21879889077E-01 -0.50823273038E-02 -0.19055589679E-01  0.29460757218E-01  0.51100000000E-03 0.  1.
</event>
<event>
 8    1  0.1010879E+005  0.1043930E+01  0.7957747E-01            NaN
         13   -1    0    0    0    0  0.00000000000E+00  0.00000000000E+00  0.74505805969E-08  0.10566000000E+00  0.10566000000E+00 0. -1.
     999900   -1    0    0    0    0 -0.00000000000E+00 -0.00000000000E+00 -0.74505805969E-08  0.93827000000E+00  0.93827000000E+00 0.  1.
     999902    2    1    2    0    0 -0.11728880292E-01  0.21043745354E-01  0.20948623696E-03  0.10198374755E+01  0.10195528563E+01 0.  0.
     999903    2    3    3    0    0 -0.93020609791E-02 -0.18705973753E-01  0.12666769886E+00  0.12990623707E+00  0.19861588630E-01 0.  0.
         14    1    1    2    0    0  0.11728880292E-01 -0.21043745354E-01 -0.20948623696E-03  0.24092524482E-01  0.00000000000E+00 0.  1.
     999901    1    3    3    0    0 -0.24268193133E-02  0.39749719107E-01 -0.12645821262E+00  0.88993123845E+00  0.88000000000E+00 0.  1.
        -11    1    4    4    0    0  0.16980754508E-02  0.27445772090E-02  0.33865402271E-01  0.34022680028E-01  0.51100000000E-03 0. -1.
         11    1    4    4    0    0 -0.11000136430E-01 -0.21450550962E-01  0.92802296590E-01  0.95883557044E-01  0.51100000000E-03 0.  1.
</event>
<event>
 8    1  0.1010879E+005  0.1043930E+01  0.7957747E-01            NaN
         13   -1    0    0    0    0  0.00000000000E+00  0.00000000000E+00  0.74505805969E-08  0.10566000000E+00  0.10566000000E+00 0. -1.
     999900   -1    0    0    0    0 -0.00000000000E+00 -0.00000000000E+00 -0.74505805969E-08  0.93827000000E+00  0.93827000000E+00 0.  1.
     999902    2    1    2    0    0  0.14855727532E-01  0.17525158652E-01  0.66797450573E-02  0.10200042227E+01  0.10197235760E+01 0.  0.
     999903    2    3    3    0    0 -0.12436851750E+00 -0.12147711951E-01  0.23950433699E-01  0.12839772521E+00  0.17241157532E-01 0.  0.
         14    1    1    2    0    0 -0.14855727532E-01 -0.17525158652E-01 -0.66797450573E-02  0.23925777319E-01  0.00000000000E+00 0.  1.
     999901    1    3    3    0    0  0.13922424503E+00  0.29672870603E-01 -0.17270688642E-01  0.89160649748E+00  0.88000000000E+00 0.  1.
        -11    1    4    4    0    0 -0.63834154168E-01 -0.72504289835E-02  0.36104682563E-02  0.64347995779E-01  0.51100000000E-03 0.  1.
         11    1    4    4    0    0 -0.60534363332E-01 -0.48972829675E-02  0.20339965443E-01  0.64049729427E-01  0.51100000000E-03 0. -1.
</event>
<event>
 8    1  0.1010879E+005  0.1043930E+01  0.7957747E-01            NaN
         13   -1    0    0    0    0  0.00000000000E+00  0.00000000000E+00  0.74505805969E-08  0.10566000000E+00  0.10566000000E+00 0. -1.
     999900   -1    0    0    0    0 -0.00000000000E+00 -0.00000000000E+00 -0.74505805969E-08  0.93827000000E+00  0.93827000000E+00 0. -1.
     999902    2    1    2    0    0 -0.18618632294E-02  0.16313789938E-01  0.17606919129E-01  0.10198549117E+01  0.10195707092E+01 0.  0.
     999903    2    3    3    0    0 -0.10049750261E+00  0.78824447801E-01  0.27326289572E-01  0.13208746585E+00  0.19680724860E-01 0.  0.
         14    1    1    2    0    0  0.18618632294E-02 -0.16313789938E-01 -0.17606919129E-01  0.24075088328E-01  0.00000000000E+00 0. -1.
     999901    1    3    3    0    0  0.98635639378E-01 -0.62510657864E-01 -0.97193704437E-02  0.88776744582E+00  0.88000000000E+00 0.  1.
        -11    1    4    4    0    0 -0.73824822508E-01  0.46508780838E-01  0.16415136875E-01  0.88785634835E-01  0.51100000000E-03 0. -1.
         11    1    4    4    0    0 -0.26672680099E-01  0.32315666964E-01  0.10911152697E-01  0.43301831014E-01  0.51100000000E-03 0.  1.
</event>
<event>
 8    1  0.1010879E+005  0.1043930E+01  0.7957747E-01            NaN
         13   -1    0    0    0    0  0.00000000000E+00  0.00000000000E+00  0.74505805969E-08  0.10566000000E+00  0.10566000000E+00 0. -1.
     999900   -1    0    0    0    0 -0.00000000000E+00 -0.00000000000E+00 -0.74505805969E-08  0.93827000000E+00  0.93827000000E+00 0.  1.
     999902    2    1    2    0    0 -0.13203427626E-01  0.13027664773E-01  0.15273636504E-01  0.10199022135E+01  0.10196191400E+01 0.  0.
     999903    2    3    3    0    0 -0.76369493855E-01 -0.92487100625E-01 -0.44102185424E-01  0.12936933605E+00  0.20131045130E-01 0.  0.
         14    1    1    2    0    0  0.13203427626E-01 -0.13027664773E-01 -0.15273636504E-01  0.24027786468E-01  0.00000000000E+00 0.  1.
     999901    1    3    3    0    0  0.63166066230E-01  0.10551476540E+00  0.59375821929E-01  0.89053287748E+00  0.88000000000E+00 0.  1.
        -11    1    4    4    0    0 -0.28042683712E-01 -0.20914622842E-01 -0.16671737905E-01  0.38755922440E-01  0.51100000000E-03 0. -1.
         11    1    4    4    0    0 -0.48326810143E-01 -0.71572477783E-01 -0.27430447520E-01  0.90613413614E-01  0.51100000000E-03 0.  1.
</event>
<event>
 8    1  0.1010879E+005  0.1043930E+01  0.7957747E-01            NaN
         13   -1    0    0    0    0  0.00000000000E+00  0.00000000000E+00  0.74505805969E-08  0.10566000000E+00  0.10566000000E+00 0.  1.
     999900   -1    0    0    0    0 -0.00000000000E+00 -0.00000000000E+00 -0.74505805969E-08  0.93827000000E+00  0.93827000000E+00 0.  1.
     999902    2    1    2    0    0  0.12195807972E-01  0.10738688439E-01 -0.18108222056E-01  0.10195996719E+01  0.10193093377E+01 0.  0.
     999903    2    3    3    0    0  0.17889764818E-01 -0.98118848431E-01  0.77182717990E-01  0.12776855122E+00  0.20500698100E-01 0.  0.
         14    1    1    2    0    0 -0.12195807972E-01 -0.10738688439E-01  0.18108222056E-01  0.24330328142E-01  0.00000000000E+00 0.  1.
     999901    1    3    3    0    0 -0.56939568464E-02  0.10885753687E+00 -0.95290940046E-01  0.89183112063E+00  0.88000000000E+00 0. -1.
        -11    1    4    4    0    0  0.12913163138E-01 -0.56579531427E-01  0.32342937048E-01  0.66440348108E-01  0.51100000000E-03 0.  1.
         11    1    4    4    0    0  0.49766016805E-02 -0.41539317003E-01  0.44839780942E-01  0.61328203115E-01  0.51100000000E-03 0. -1.
</event>
<event>
 8    1  0.1010879E+005  0.1043930E+01  0.7957747E-01            NaN
         13   -1    0    0    0    0  0.00000000000E+00  0.00000000000E+00  0.74505805969E-08  0.10566000000E+00  0.10566000000E+00 0. -1.
     999900   -1    0    0    0    0 -0.00000000000E+00 -0.00000000000E+00 -0.74505805969E-08  0.93827000000E+00  0.93827000000E+00 0. -1.
     999902    2    1    2    0    0 -0.10570786878E-01 -0.17449655557E-01 -0.13822910389E-01  0.10192864437E+01  0.10189884933E+01 0.  0.
     999903    2    3    3    0    0  0.12310877838E+00  0.24753539312E-01 -0.19345539192E-02  0.12811156254E+00  0.25304563521E-01 0.  0.
         14    1    1    2    0    0  0.10570786878E-01  0.17449655557E-01  0.13822910389E-01  0.24643556275E-01  0.00000000000E+00 0.  1.
     999901    1    3    3    0    0 -0.13367956526E+00 -0.42203194869E-01 -0.11888356470E-01  0.89117488118E+00  0.88000000000E+00 0. -1.
        -11    1    4    4    0    0  0.75134248098E-01  0.24940914608E-01 -0.87614583167E-02  0.79650666862E-01  0.51100000000E-03 0. -1.
         11    1    4    4    0    0  0.47974530287E-01 -0.18737529595E-03  0.68269043975E-02  0.48460895683E-01  0.51100000000E-03 0.  1.
</event>
<event>
 8    1  0.1010879E+005  0.1043930E+01  0.7957747E-01            NaN
         13   -1    0    0    0    0  0.00000000000E+00  0.00000000000E+00  0.74505805969E-08  0.10566000000E+00  0.10566000000E+00 0.  1.
     999900   -1    0    0    0    0 -0.00000000000E+00 -0.00000000000E+00 -0.74505805969E-08  0.93827000000E+00  0.93827000000E+00 0.  1.
     999902    2    1    2    0    0 -0.18993245384E-01  0.98438803458E-02 -0.12412585154E-01  0.10191970742E+01  0.10188969322E+01 0.  0.
     999903    2    3    3    0    0  0.20266785846E-02 -0.12496428080E+00 -0.23058851115E-01  0.12861949725E+00  0.19775883203E-01 0.  0.
         14    1    1    2    0    0  0.18993245384E-01 -0.98438803458E-02  0.12412585154E-01  0.24732925842E-01  0.00000000000E+00 0.  1.
     999901    1    3    3    0    0 -0.21019923969E-01  0.13480816114E+00  0.10646265960E-01  0.89057757691E+00  0.88000000000E+00 0. -1.
        -11    1    4    4    0    0  0.10145298004E-01 -0.92916133010E-01 -0.17301944421E-01  0.95057631187E-01  0.51100000000E-03 0. -1.
         11    1    4    4    0    0 -0.81186194189E-02 -0.32048147788E-01 -0.57569066933E-02  0.33561866063E-01  0.51100000000E-03 0.  1.
</event>
<event>
 8    1  0.1010879E+005  0.1043930E+01  0.7957747E-01            NaN
         13   -1    0    0    0    0  0.00000000000E+00  0.00000000000E+00  0.74505805969E-08  0.10566000000E+00  0.10566000000E+00 0. -1.
     999900   -1    0    0    0    0 -0.00000000000E+00 -0.00000000000E+00 -0.74505805969E-08  0.93827000000E+00  0.93827000000E+00 0.  1.
     999902    2    1    2    0    0 -0.60603664419E-02 -0.44573541675E-02 -0.23315035220E-01  0.10194312875E+01  0.10191368716E+01 0.  0.
     999903    2    3    3    0    0 -0.43772133271E-01  0.62829521251E-02 -0.12375675711E+00  0.13285017386E+00  0.19441158081E-01 0.  0.
         14    1    1    2    0    0  0.60603664419E-02  0.44573541675E-02  0.23315035220E-01  0.24498712515E-01  0.00000000000E+00 0. -1.
     999901    1    3    3    0    0  0.37711766829E-01 -0.10740306293E-01  0.10044172189E+00  0.88658111362E+00  0.88000000000E+00 0. -1.
        -11    1    4    4    0    0 -0.38505389006E-02  0.16470220166E-02 -0.36947055050E-01  0.37187166190E-01  0.51100000000E-03 0.  1.
         11    1    4    4    0    0 -0.39921594370E-01  0.46359301086E-02 -0.86809702055E-01  0.95663007673E-01  0.51100000000E-03 0. -1.
</event>
<event>
 8    1  0.1010879E+005  0.1043930E+01  0.7957747E-01            NaN
         13   -1    0    0    0    0  0.00000000000E+00  0.00000000000E+00  0.74505805969E-08  0.10566000000E+00  0.10566000000E+00 0. -1.
     999900   -1    0    0    0    0 -0.00000000000E+00 -0.00000000000E+00 -0.74505805969E-08  0.93827000000E+00  0.93827000000E+00 0.  1.
     999902    2    1    2    0    0  0.14569219300E-01  0.99279211671E-02 -0.15519727014E-01  0.10204419670E+01  0.10201716131E+01 0.  0.
     999903    2    3    3    0    0  0.10450481526E-01 -0.12764630205E+00 -0.44766456045E-02  0.12967511724E+00  0.19819300801E-01 0.  0.
         14    1    1    2    0    0 -0.14569219300E-01 -0.99279211671E-02  0.15519727014E-01  0.23488033045E-01  0.00000000000E+00 0. -1.
     999901    1    3    3    0    0  0.41187377740E-02  0.13757422322E+00 -0.11043081410E-01  0.89076684971E+00  0.88000000000E+00 0. -1.
        -11    1    4    4    0    0 -0.40789374527E-02 -0.24331045986E-01 -0.57384441367E-02  0.25334332271E-01  0.51100000000E-03 0.  1.
         11    1    4    4    0    0  0.14529418979E-01 -0.10331525607E+00  0.12617985322E-02  0.10434078497E+00  0.51100000000E-03 0. -1.
</event>
<event>
 8    1  0.1010879E+005  0.1043930E+01  0.7957747E-01            NaN
         13   -1    0    0    0    0  0.00000000000E+00  0.00000000000E+00  0.74505805969E-08  0.10566000000E+00  0.10566000000E+00 0. -1.
     999900   -1    0    0    0    0 -0.00000000000E+00 -0.00000000000E+00 -0.74505805969E-08  0.93827000000E+00  0.93827000000E+00 0. -1.
     999902    2    1    2    0    0  0.19725688191E-01  0.11133158424E-01 -0.66275800666E-02  0.10203296863E+01  0.10200567111E+01 0.  0.
     999903    2    3    3    0    0 -0.27894154844E-01 -0.17103252627E-01  0.12322318094E+00  0.12907990954E+00  0.20175866818E-01 0.  0.
         14    1    1    2    0    0 -0.19725688191E-01 -0.11133158424E-01  0.66275800666E-02  0.23600313740E-01  0.00000000000E+00 0. -1.
     999901    1    3    3    0    0  0.47619843035E-01  0.28236411051E-01 -0.12985076101E+00  0.89124977671E+00  0.88000000000E+00 0. -1.
        -11    1    4    4    0    0  0.22752924197E-02 -0.48241969853E-02  0.11192622200E-01  0.12409099276E-01  0.51100000000E-03 0.  1.
         11    1    4    4    0    0 -0.30169447263E-01 -0.12279055642E-01  0.11203055874E+00  0.11667081027E+00  0.51100000000E-03 0. -1.
</event>
<event>
 8    1  0.1010879E+005  0.1043930E+01  0.7957747E-01            NaN
         13   -1    0    0    0    0  0.00000000000E+00  0.00000000000E+00  0.74505805969E-08  0.10566000000E+00  0.10566000000E+00 0.  1.
     999900   -1    0    0    0    0 -0.00000000000E+00 -0.00000000000E+00 -0.74505805969E-08  0.93827000000E+00  0.93827000000E+00 0. -1.
     999902    2    1    2    0    0 -0.75389482153E-02 -0.18088784311E-01  0.13856148847E-01  0.10199293184E+01  0.10196468907E+01 0.  0.
     999903    2    3    3    0    0  0.11137626455E+00 -0.43543941671E-01 -0.45875971380E-01  0.12956045152E+00  0.19507913446E-01 0.  0.
         14    1    1    2    0    0  0.75389482153E-02  0.18088784311E-01 -0.13856148847E-01  0.24000681634E-01  0.00000000000E+00 0. -1.
     999901    1    3    3    0    0 -0.11891521276E+00  0.25455157360E-01  0.59732120228E-01  0.89036886685E+00  0.88000000000E+00 0.  1.
        -11    1    4    4    0    0  0.43925923894E-01 -0.92314531592E-02 -0.10910296422E-01  0.46195261731E-01  0.51100000000E-03 0.  1.
         11    1    4    4    0    0  0.67450340653E-01 -0.34312488512E-01 -0.34965674959E-01  0.83365189788E-01  0.51100000000E-03 0. -1.
</event>
<event>
 8    1  0.1010879E+005  0.1043930E+01  0.7957747E-01            NaN
         13   -1    0    0    0    0  0.00000000000E+00  0.00000000000E+00  0.74505805969E-08  0.10566000000E+00  0.10566000000E+00 0. -1.
     999900   -1    0    0    0    0 -0.00000000000E+00 -0.00000000000E+00 -0.74505805969E-08  0.93827000000E+00  0.93827000000E+00 0.  1.
     999902    2    1    2    0    0  0.20260104464E-01  0.66186465444E-02  0.42619979087E-02  0.10221942474E+01  0.10219631287E+01 0.  0.
     999903    2    3    3    0    0  0.10997690934E+00  0.94629978165E-02 -0.73523302880E-01  0.13421465955E+00  0.20577411321E-01 0.  0.
         14    1    1    2    0    0 -0.20260104464E-01 -0.66186465444E-02 -0.42619979087E-02  0.21735752601E-01  0.00000000000E+00 0.  1.
     999901    1    3    3    0    0 -0.89716804878E-01 -0.28443512721E-02  0.77785300789E-01  0.88797958785E+00  0.88000000000E+00 0. -1.
        -11    1    4    4    0    0  0.70335532591E-01  0.57523543501E-02 -0.34853961471E-01  0.78709824524E-01  0.51100000000E-03 0. -1.
         11    1    4    4    0    0  0.39641376750E-01  0.37106434664E-02 -0.38669341409E-01  0.55504835029E-01  0.51100000000E-03 0.  1.
</event>
<event>
 8    1  0.1010879E+005  0.1043930E+01  0.7957747E-01            NaN
         13   -1    0    0    0    0  0.00000000000E+00  0.00000000000E+00  0.74505805969E-08  0.10566000000E+00  0.10566000000E+00 0. -1.
     999900   -1    0    0    0    0 -0.00000000000E+00 -0.00000000000E+00 -0.74505805969E-08  0.93827000000E+00  0.93827000000E+00 0. -1.
     999902    2    1    2    0    0  0.71648269789E-02 -0.15280477491E-01  0.16567969514E-01  0.10202799397E+01  0.10200057990E+01 0.  0.
     999903    2    3    3    0    0  0.60647628661E-01  0.87036872410E-01  0.73671446141E-01  0.13090372167E+00  0.21324876317E-01 0.  0.
         14    1    1    2    0    0 -0.71648269789E-02  0.15280477491E-01 -0.16567969514E-01  0.23650060291E-01  0.00000000000E+00 0. -1.
     999901    1    3    3    0    0 -0.53482801682E-01 -0.10231734990E+00 -0.57103476628E-01  0.88937621804E+00  0.88000000000E+00 0.  1.
        -11    1    4    4    0    0  0.45358434091E-01  0.75642315564E-01  0.66749907033E-01  0.11061174737E+00  0.51100000000E-03 0. -1.
         11    1    4    4    0    0  0.15289194570E-01  0.11394556846E-01  0.69215391083E-02  0.20291974299E-01  0.51100000000E-03 0.  1.
</event>
<event>
 8    1  0.1010879E+005  0.1043930E+01  0.7957747E-01            NaN
         13   -1    0    0    0    0  0.00000000000E+00  0.00000000000E+00  0.74505805969E-08  0.10566000000E+00  0.10566000000E+00 0. -1.
     999900   -1    0    0    0    0 -0.00000000000E+00 -0.00000000000E+00 -0.74505805969E-08  0.93827000000E+00  0.93827000000E+00 0. -1.
     999902    2    1    2    0    0  0.16807227414E-01 -0.16683718256E-01 -0.21531868129E-02  0.10201504802E+01  0.10198732944E+01 0.  0.
     999903    2    3    3    0    0 -0.11179162806E+00  0.45573509679E-01  0.40879839018E-01  0.12758929498E+00  0.57925871681E-02 0.  0.
         14    1    1    2    0    0 -0.16807227414E-01  0.16683718256E-01  0.21531868129E-02  0.23779519794E-01  0.00000000000E+00 0.  1.
     999901    1    3    3    0    0  0.12859885548E+00 -0.62257227935E-01 -0.43033025831E-01  0.89256118523E+00  0.88000000000E+00 0. -1.
        -11    1    4    4    0    0 -0.30275468800E-01  0.14177971799E-01  0.93331561969E-02  0.34712934492E-01  0.51100000000E-03 0. -1.
         11    1    4    4    0    0 -0.81516159261E-01  0.31395537880E-01  0.31546682821E-01  0.92876360488E-01  0.51100000000E-03 0.  1.
</event>
<event>
 8    1  0.1010879E+005  0.1043930E+01  0.7957747E-01            NaN
         13   -1    0    0    0    0  0.00000000000E+00  0.00000000000E+00  0.74505805969E-08  0.10566000000E+00  0.10566000000E+00 0. -1.
     999900   -1    0    0    0    0 -0.00000000000E+00 -0.00000000000E+00 -0.74505805969E-08  0.93827000000E+00  0.93827000000E+00 0.  1.
     999902    2    1    2    0    0 -0.15888229548E-01  0.14280872729E-01 -0.51491802622E-02  0.10219551685E+01  0.10217188816E+01 0.  0.
     999903    2    3    3    0    0 -0.10685312240E+00  0.57420984769E-01  0.55360590481E-01  0.13415050900E+00  0.14724293745E-01 0.  0.
         14    1    1    2    0    0  0.15888229548E-01 -0.14280872729E-01  0.51491802622E-02  0.21974831545E-01  0.00000000000E+00 0.  1.
     999901    1    3    3    0    0  0.90964892857E-01 -0.43140112039E-01 -0.60509770743E-01  0.88780465946E+00  0.88000000000E+00 0. -1.
        -11    1    4    4    0    0 -0.59828593972E-01  0.32460522204E-01  0.39012449460E-01  0.78456220227E-01  0.51100000000E-03 0.  1.
         11    1    4    4    0    0 -0.47024528433E-01  0.24960462565E-01  0.16348141021E-01  0.55694288770E-01  0.51100000000E-03 0. -1.
</event>
<event>
 8    1  0.1010879E+005  0.1043930E+01  0.7957747E-01            NaN
         13   -1    0    0    0    0  0.00000000000E+00  0.00000000000E+00  0.74505805969E-08  0.10566000000E+00  0.10566000000E+00 0. -1.
     999900   -1    0    0    0    0 -0.00000000000E+00 -0.00000000000E+00 -0.74505805969E-08  0.93827000000E+00  0.93827000000E+00 0.  1.
     999902    2    1    2    0    0 -0.10240746154E-01  0.15964833283E-01 -0.13917506742E-01  0.10204045717E+01  0.10201333463E+01 0.  0.
     999903    2    3    3    0    0  0.98004647343E-01  0.63602849110E-01 -0.56802921698E-01  0.13145822652E+00  0.20111193166E-01 0.  0.
         14    1    1    2    0    0  0.10240746154E-01 -0.15964833283E-01  0.13917506742E-01  0.23525428316E-01  0.00000000000E+00 0. -1.
     999901    1    3    3    0    0 -0.10824539350E+00 -0.47638015827E-01  0.42885414956E-01  0.88894634516E+00  0.88000000000E+00 0.  1.
        -11    1    4    4    0    0  0.75197906456E-01  0.53125007307E-01 -0.52500746139E-01  0.10598858902E+00  0.51100000000E-03 0.  1.
         11    1    4    4    0    0  0.22806740887E-01  0.10477841802E-01 -0.43021755595E-02  0.25469637498E-01  0.51100000000E-03 0. -1.
</event>
<event>
 8    1  0.1010879E+005  0.1043930E+01  0.7957747E-01            NaN
         13   -1    0    0    0    0  0.00000000000E+00  0.00000000000E+00  0.74505805969E-08  0.10566000000E+00  0.10566000000E+00 0.  1.
     999900   -1    0    0    0    0 -0.00000000000E+00 -0.00000000000E+00 -0.74505805969E-08  0.93827000000E+00  0.93827000000E+00 0. -1.
     999902    2    1    2    0    0 -0.15304246863E-01  0.30710984100E-02  0.18393299110E-01  0.10198060478E+01  0.10195206766E+01 0.  0.
     999903    2    3    3    0    0  0.89679383823E-02  0.80330630671E-01 -0.97933552451E-01  0.12846430038E+00  0.19459230043E-01 0.  0.
         14    1    1    2    0    0  0.15304246863E-01 -0.30710984100E-02 -0.18393299110E-01  0.24123952198E-01  0.00000000000E+00 0. -1.
     999901    1    3    3    0    0 -0.24272185245E-01 -0.77259532261E-01  0.11632685156E+00  0.89134174742E+00  0.88000000000E+00 0.  1.
        -11    1    4    4    0    0 -0.39773842201E-02  0.21076897530E-01 -0.35057047604E-01  0.41101251835E-01  0.51100000000E-03 0. -1.
         11    1    4    4    0    0  0.12945322602E-01  0.59253733141E-01 -0.62876504847E-01  0.87363048546E-01  0.51100000000E-03 0.  1.
</event>
<event>
 8    1  0.1010879E+005  0.1043930E+01  0.7957747E-01            NaN
         13   -1    0    0    0    0  0.00000000000E+00  0.00000000000E+00  0.74505805969E-08  0.10566000000E+00  0.10566000000E+00 0.  1.
     999900   -1    0    0    0    0 -0.00000000000E+00 -0.00000000000E+00 -0.74505805969E-08  0.93827000000E+00  0.93827000000E+00 0.  1.
     999902    2    1    2    0    0 -0.42480030132E-02 -0.62630546068E-02 -0.22208422784E-01  0.10204675742E+01  0.10201978164E+01 0.  0.
     999903    2    3    3    0    0 -0.10933338927E-01 -0.12623134256E+00 -0.21468566938E-01  0.13230225668E+00  0.31449928623E-01 0.  0.
         14    1    1    2    0    0  0.42480030132E-02  0.62630546068E-02  0.22208422784E-01  0.23462425816E-01  0.00000000000E+00 0.  1.
     999901    1    3    3    0    0  0.66853359133E-02  0.11996828796E+00 -0.73985584602E-03  0.88816531750E+00  0.88000000000E+00 0. -1.
        -11    1    4    4    0    0 -0.18974751732E-01 -0.67327163884E-01 -0.28789103506E-02  0.70010980894E-01  0.51100000000E-03 0.  1.
         11    1    4    4    0    0  0.80414128054E-02 -0.58904178680E-01 -0.18589656588E-01  0.62291275785E-01  0.51100000000E-03 0. -1.
</event>
<event>
 8    1  0.1010879E+005  0.1043930E+01  0.7957747E-01            NaN
         13   -1    0    0    0    0  0.00000000000E+00  0.00000000000E+00  0.74505805969E-08  0.10566000000E+00  0.10566000000E+00 0. -1.
     999900   -1    0    0    0    0 -0.00000000000E+00 -0.00000000000E+00 -0.74505805969E-08  0.93827000000E+00  0.93827000000E+00 0.  1.
     999902    2    1    2    0    0  0.17505858743E-02 -0.13010183048E-01 -0.19968617102E-01  0.10200328227E+01  0.10197528545E+01 0.  0.
     999903    2    3    3    0    0 -0.36004833516E-01 -0.11434576391E+00 -0.53546313596E-01  0.13277759823E+00  0.19783354930E-01 0.  0.
         14    1    1    2    0    0 -0.17505858743E-02  0.13010183048E-01  0.19968617102E-01  0.23897177298E-01  0.00000000000E+00 0. -1.
     999901    1    3    3    0    0  0.37755419390E-01  0.10133558086E+00  0.33577696493E-01  0.88725522447E+00  0.88000000000E+00 0. -1.
        -11    1    4    4    0    0 -0.37466402061E-01 -0.11126461214E+00 -0.49372160287E-01  0.12736332491E+00  0.51100000000E-03 0. -1.
         11    1    4    4    0    0  0.14615685453E-02 -0.30811517686E-02 -0.41741533086E-02  0.54142733286E-02  0.51100000000E-03 0.  1.
</event>
<event>
 8    1  0.1010879E+005  0.1043930E+01  0.7957747E-01            NaN
         13   -1    0    0    0    0  0.00000000000E+00  0.00000000000E+00  0.74505805969E-08  0.10566000000E+00  0.10566000000E+00 0.  1.
     999900   -1    0    0    0    0 -0.00000000000E+00 -0.00000000000E+00 -0.74505805969E-08  0.93827000000E+00  0.93827000000E+00 0. -1.
     999902    2    1    2    0    0  0.17213482355E-03  0.18314581774E-01 -0.15081203763E-01  0.10202045655E+01  0.10199286540E+01 0.  0.
     999903    2    3    3    0    0  0.88141922392E-01 -0.69627181363E-01  0.58464751824E-01  0.12841902803E+00  0.21362974684E-01 0.  0.
         14    1    1    2    0    0 -0.17213482355E-03 -0.18314581774E-01  0.15081203763E-01  0.23725434514E-01  0.00000000000E+00 0.  1.
     999901    1    3    3    0    0 -0.87969787568E-01  0.87941763137E-01 -0.73545955586E-01  0.89178553745E+00  0.88000000000E+00 0. -1.
        -11    1    4    4    0    0  0.10060212028E-01 -0.26115686294E-02  0.10864071235E-01  0.15043846635E-01  0.51100000000E-03 0. -1.
         11    1    4    4    0    0  0.78081710364E-01 -0.67015612734E-01  0.47600680588E-01  0.11337518140E+00  0.51100000000E-03 0.  1.
</event>
<event>
 8    1  0.1010879E+005  0.1043930E+01  0.7957747E-01            NaN
         13   -1    0    0    0    0  0.00000000000E+00  0.00000000000E+00  0.74505805969E-08  0.10566000000E+00  0.10566000000E+00 0.  1.
     999900   -1    0    0    0    0 -0.00000000000E+00 -0.00000000000E+00 -0.74505805969E-08  0.93827000000E+00  0.93827000000E+00 0.  1.
     999902    2    1    2    0    0  0.48185775434E-02  0.19522546875E-01  0.12609607544E-01  0.10201949894E+01  0.10199188525E+01 0.  0.
     999903    2    3    3    0    0  0.18156041389E-01 -0.11990796977E+00 -0.35265562695E-01  0.12783251325E+00  0.19746606742E-01 0.  0.
         14    1    1    2    0    0 -0.48185775434E-02 -0.19522546875E-01 -0.12609607544E-01  0.23735010606E-01  0.00000000000E+00 0. -1.
     999901    1    3    3    0    0 -0.13337463846E-01  0.13943051664E+00  0.47875170239E-01  0.89236247615E+00  0.88000000000E+00 0. -1.
        -11    1    4    4    0    0  0.19031323048E-01 -0.87298687049E-01 -0.18878050283E-01  0.91323019666E-01  0.51100000000E-03 0. -1.
         11    1    4    4    0    0 -0.87528165891E-03 -0.32609282718E-01 -0.16387512411E-01  0.36509493579E-01  0.51100000000E-03 0.  1.
</event>
<event>
 8    1  0.1010879E+005  0.1043930E+01  0.7957747E-01            NaN
         13   -1    0    0    0    0  0.00000000000E+00  0.00000000000E+00  0.74505805969E-08  0.10566000000E+00  0.10566000000E+00 0.  1.
     999900   -1    0    0    0    0 -0.00000000000E+00 -0.00000000000E+00 -0.74505805969E-08  0.93827000000E+00  0.93827000000E+00 0.  1.
     999902    2    1    2    0    0 -0.68528843424E-02 -0.59550203284E-02  0.20695646561E-01  0.10213305735E+01  0.10210805092E+01 0.  0.
     999903    2    3    3    0    0 -0.67019909202E-01 -0.54920113108E-01 -0.95397280240E-01  0.13032259440E+00  0.19376544600E-01 0.  0.
         14    1    1    2    0    0  0.68528843424E-02  0.59550203284E-02 -0.20695646561E-01  0.22599426487E-01  0.00000000000E+00 0. -1.
     999901    1    3    3    0    0  0.60167024859E-01  0.48965092780E-01  0.11609292680E+00  0.89100797911E+00  0.88000000000E+00 0. -1.
        -11    1    4    4    0    0 -0.78488785492E-02 -0.88667956467E-03 -0.43385587691E-02  0.90263673936E-02  0.51100000000E-03 0.  1.
         11    1    4    4    0    0 -0.59171030652E-01 -0.54033433543E-01 -0.91058721471E-01  0.12129622701E+00  0.51100000000E-03 0. -1.
</event>
<event>
 8    1  0.1010879E+005  0.1043930E+01  0.7957747E-01            NaN
         13   -1    0    0    0    0  0.00000000000E+00  0.00000000000E+00  0.74505805969E-08  0.10566000000E+00  0.10566000000E+00 0.  1.
     999900   -1    0    0    0    0 -0.00000000000E+00 -0.00000000000E+00 -0.74505805969E-08  0.93827000000E+00  0.93827000000E+00 0.  1.
     999902    2    1    2    0    0  0.17934129031E-01 -0.11409596301E-01  0.65810930689E-02  0.10216786482E+01  0.10214363110E+01 0.  0.
     999903    2    3    3    0    0  0.68691578534E-01  0.58062666658E-01 -0.94259855502E-01  0.13175077981E+00  0.19584213007E-01 0.  0.
         14    1    1    2    0    0 -0.17934129031E-01  0.11409596301E-01 -0.65810930689E-02  0.22251351820E-01  0.00000000000E+00 0.  1.
     999901    1    3    3    0    0 -0.50757449503E-01 -0.69472262958E-01  0.10084094857E+00  0.88992786837E+00  0.88000000000E+00 0. -1.
        -11    1    4    4    0    0  0.44614641243E-01  0.36515728255E-01 -0.73200955655E-01  0.93179963796E-01  0.51100000000E-03 0. -1.
         11    1    4    4    0    0  0.24076937291E-01  0.21546938403E-01 -0.21058899848E-01  0.38570816010E-01  0.51100000000E-03 0.  1.
</event>
<event>
 8    1  0.1010879E+005  0.1043930E+01  0.7957747E-01            NaN
         13   -1    0    0    0    0  0.00000000000E+00  0.00000000000E+00  0.74505805969E-08  0.10566000000E+00  0.10566000000E+00 0.  1.
     999900   -1    0    0    0    0 -0.00000000000E+00 -0.00000000000E+00 -0.74505805969E-08  0.93827000000E+00  0.93827000000E+00 0. -1.
     999902    2    1    2    0    0  0.57771232014E-02  0.17320555231E-01  0.17053373057E-02  0.10255919259E+01  0.10254279660E+01 0.  0.
     999903    2    3    3    0    0 -0.97883836661E-01 -0.46000255741E-01  0.76764794439E-01  0.13408250823E+00  0.19698130397E-01 0.  0.
         14    1    1    2    0    0 -0.57771232014E-02 -0.17320555231E-01 -0.17053373057E-02  0.18338074090E-01  0.00000000000E+00 0.  1.
     999901    1    3    3    0    0  0.10366095986E+00  0.63320810973E-01 -0.75059457133E-01  0.89150941768E+00  0.88000000000E+00 0. -1.
        -11    1    4    4    0    0 -0.89592260386E-01 -0.40525915039E-01  0.61893930260E-01  0.11619054452E+00  0.51100000000E-03 0.  1.
         11    1    4    4    0    0 -0.82915762751E-02 -0.54743407018E-02  0.14870864178E-01  0.17891963717E-01  0.51100000000E-03 0. -1.
</event>
<event>
 8    1  0.1010879E+005  0.1043930E+01  0.7957747E-01            NaN
         13   -1    0    0    0    0  0.00000000000E+00  0.00000000000E+00  0.74505805969E-08  0.10566000000E+00  0.10566000000E+00 0.  1.
     999900   -1    0    0    0    0 -0.00000000000E+00 -0.00000000000E+00 -0.74505805969E-08  0.93827000000E+00  0.93827000000E+00 0. -1.
     999902    2    1    2    0    0 -0.14636693759E-01  0.85515997560E-02 -0.17928465111E-01  0.10192562787E+01  0.10189575895E+01 0.  0.
     999903    2    3    3    0    0  0.36263488644E-01  0.56311327234E-01 -0.11138651149E+00  0.13155913068E+00  0.20367713154E-01 0.  0.
         14    1    1    2    0    0  0.14636693759E-01 -0.85515997560E-02  0.17928465111E-01  0.24673721321E-01  0.00000000000E+00 0.  1.
     999901    1    3    3    0    0 -0.50900182402E-01 -0.47759727478E-01  0.93458046380E-01  0.88769714800E+00  0.88000000000E+00 0.  1.
        -11    1    4    4    0    0  0.37500602240E-01  0.44983615874E-01 -0.94678764640E-01  0.11132901895E+00  0.51100000000E-03 0.  1.
         11    1    4    4    0    0 -0.12371135967E-02  0.11327711360E-01 -0.16707746851E-01  0.20230111728E-01  0.51100000000E-03 0. -1.
</event>
<event>
 8    1  0.1010879E+005  0.1043930E+01  0.7957747E-01            NaN
         13   -1    0    0    0    0  0.00000000000E+00  0.00000000000E+00  0.74505805969E-08  0.10566000000E+00  0.10566000000E+00 0.  1.
     999900   -1    0    0    0    0 -0.00000000000E+00 -0.00000000000E+00 -0.74505805969E-08  0.93827000000E+00  0.93827000000E+00 0.  1.
     999902    2    1    2    0    0  0.20606741349E-01 -0.73368012620E-02  0.75001691479E-02  0.10208060086E+01  0.10205440648E+01 0.  0.
     999903    2    3    3    0    0 -0.33016376197E-01  0.11073629667E+00  0.56178958342E-01  0.12997138886E+00  0.19592806442E-01 0.  0.
         14    1    1    2    0    0 -0.20606741349E-01  0.73368012620E-02 -0.75001691479E-02  0.23123991416E-01  0.00000000000E+00 0. -1.
     999901    1    3    3    0    0  0.53623117546E-01 -0.11807309793E+00 -0.48678789194E-01  0.89083461973E+00  0.88000000000E+00 0.  1.
        -11    1    4    4    0    0 -0.19272831135E-01  0.42312206687E-01  0.14617538396E-01  0.48741136676E-01  0.51100000000E-03 0. -1.
         11    1    4    4    0    0 -0.13743545062E-01  0.68424089978E-01  0.41561419946E-01  0.81230252179E-01  0.51100000000E-03 0.  1.
</event>
<event>
 8    1  0.1010879E+005  0.1043930E+01  0.7957747E-01            NaN
         13   -1    0    0    0    0  0.00000000000E+00  0.00000000000E+00  0.74505805969E-08  0.10566000000E+00  0.10566000000E+00 0.  1.
     999900   -1    0    0    0    0 -0.00000000000E+00 -0.00000000000E+00 -0.74505805969E-08  0.93827000000E+00  0.93827000000E+00 0.  1.
     999902    2    1    2    0    0 -0.20675025213E-01  0.68951396380E-02 -0.92449414791E-02  0.10202557828E+01  0.10199810752E+01 0.  0.
     999903    2    3    3    0    0  0.11074005346E+00  0.53707422566E-01 -0.33536243714E-01  0.12893576163E+00  0.18759112572E-01 0.  0.
         14    1    1    2    0    0  0.20675025213E-01 -0.68951396380E-02  0.92449414791E-02  0.23674217224E-01  0.00000000000E+00 0.  1.
     999901    1    3    3    0    0 -0.13141507868E+00 -0.46812282928E-01  0.24291302235E-01  0.89132002115E+00  0.88000000000E+00 0. -1.
        -11    1    4    4    0    0  0.49109832562E-01  0.32811476578E-01 -0.11100708932E-01  0.60098714706E-01  0.51100000000E-03 0. -1.
         11    1    4    4    0    0  0.61630220900E-01  0.20895945988E-01 -0.22435534783E-01  0.68837046922E-01  0.51100000000E-03 0.  1.
</event>
<event>
 8    1  0.1010879E+005  0.1043930E+01  0.7957747E-01            NaN
         13   -1    0    0    0    0  0.00000000000E+00  0.00000000000E+00  0.74505805969E-08  0.10566000000E+00  0.10566000000E+00 0.  1.
     999900   -1    0    0    0    0 -0.00000000000E+00 -0.00000000000E+00 -0.74505805969E-08  0.93827000000E+00  0.93827000000E+00 0.  1.
     999902    2    1    2    0    0 -0.28410087789E-02 -0.21190827371E-01  0.11156783798E-01  0.10198136918E+01  0.10195285036E+01 0.  0.
     999903    2    3    3    0    0 -0.24020484556E-01  0.12137305699E+00 -0.21679201748E-01  0.12748458590E+00  0.21769915335E-01 0.  0.
         14    1    1    2    0    0  0.28410087789E-02  0.21190827371E-01 -0.11156783798E-01  0.24116308180E-01  0.00000000000E+00 0.  1.
     999901    1    3    3    0    0  0.21179475777E-01 -0.14256388436E+00  0.32835985545E-01  0.89232910592E+00  0.88000000000E+00 0. -1.
        -11    1    4    4    0    0 -0.10923006299E-01  0.60546897283E-01 -0.21763405714E-01  0.65262131336E-01  0.51100000000E-03 0. -1.
         11    1    4    4    0    0 -0.13097478257E-01  0.60826159705E-01  0.84203966300E-04  0.62222454568E-01  0.51100000000E-03 0.  1.
</event>
<event>
 8    1  0.1076048E+005  0.1043930E+01  0.7957747E-01            NaN
         13   -1    0    0    0    0  0.00000000000E+00  0.00000000000E+00  0.74505805969E-08  0.10566000000E+00  0.10566000000E+00 0. -1.
     999900   -1    0    0    0    0 -0.00000000000E+00 -0.00000000000E+00 -0.74505805969E-08  0.93827000000E+00  0.93827000000E+00 0.  1.
     999902    2    1    2    0    0  0.11680604728E-02  0.28709043433E-01 -0.30816243800E-02  0.10150324231E+01  0.10146209884E+01 0.  0.
     999903    2    3    3    0    0  0.11988877843E+00  0.60197301130E-02  0.33136308834E-01  0.12603233736E+00  0.19405637151E-01 0.  0.
         14    1    1    2    0    0 -0.11680604728E-02 -0.28709043433E-01  0.30816243800E-02  0.28897576869E-01  0.00000000000E+00 0. -1.
     999901    1    3    3    0    0 -0.11872071796E+00  0.22689313320E-01 -0.36217933214E-01  0.88900008577E+00  0.88000000000E+00 0. -1.
        -11    1    4    4    0    0  0.55120327169E-01  0.98594927430E-02  0.22177254711E-01  0.60229160810E-01  0.51100000000E-03 0. -1.
         11    1    4    4    0    0  0.64768451263E-01 -0.38397626299E-02  0.10959054123E-01  0.65803176552E-01  0.51100000000E-03 0.  1.
</event>
<event>
 7    1  0.1010879E+005  0.1043930E+01  0.7957747E-01            NaN
         13   -1    0    0    0    0  0.00000000000E+00  0.00000000000E+00  0.74505805969E-08  0.10566000000E+00  0.10566000000E+00 0. -1.
     999900   -1    0    0    0    0 -0.00000000000E+00 -0.00000000000E+00 -0.74505805969E-08  0.93827000000E+00  0.93827000000E+00 0. -1.
     999903    2    1    2    0    0  0.66580564842E-02 -0.73982891853E-02  0.11435165506E+00  0.11643886608E+00  0.19561291421E-01 0.  0.
         14    1    1    2    0    0 -0.18823233296E-01 -0.34471358360E-01 -0.27532256891E-02  0.39372184478E-01  0.00000000000E+00 0. -1.
     999901    1    1    2    0    0  0.12165176811E-01  0.41869647545E-01 -0.11159842937E+00  0.88811894944E+00  0.88000000000E+00 0.  1.
        -11    1    3    3    0    0  0.29644397193E-02  0.63033879814E-02  0.24656597657E-01  0.25626734711E-01  0.51100000000E-03 0.  1.
         11    1    3    3    0    0  0.36936167648E-02 -0.13701677167E-01  0.89695057399E-01  0.90812131374E-01  0.51100000000E-03 0. -1.
</event>
<event>
 8    1  0.1010879E+005  0.1043930E+01  0.7957747E-01            NaN
         13   -1    0    0    0    0  0.00000000000E+00  0.00000000000E+00  0.74505805969E-08  0.10566000000E+00  0.10566000000E+00 0.  1.
     999900   -1    0    0    0    0 -0.00000000000E+00 -0.00000000000E+00 -0.74505805969E-08  0.93827000000E+00  0.93827000000E+00 0.  1.
     999902    2    1    2    0    0  0.37806666979E-02  0.60931771969E-02 -0.25656357985E-01  0.10172903875E+01  0.10169415242E+01 0.  0.
     999903    2    3    3    0    0 -0.97373418490E-01 -0.52370282598E-01 -0.62068291753E-01  0.12882206843E+00  0.22768911799E-01 0.  0.
         14    1    1    2    0    0 -0.37806666979E-02 -0.60931771969E-02  0.25656357985E-01  0.26639612498E-01  0.00000000000E+00 0.  1.
     999901    1    3    3    0    0  0.10115408519E+00  0.58463459795E-01  0.36411933768E-01  0.88846831908E+00  0.88000000000E+00 0.  1.
        -11    1    4    4    0    0 -0.48706960871E-01 -0.31637189983E-01 -0.20679314714E-01  0.61653669845E-01  0.51100000000E-03 0.  1.
         11    1    4    4    0    0 -0.48666457619E-01 -0.20733092614E-01 -0.41388977039E-01  0.67168398581E-01  0.51100000000E-03 0. -1.
</event>
<event>
 8    1  0.1010879E+005  0.1043930E+01  0.7957747E-01            NaN
         13   -1    0    0    0    0  0.00000000000E+00  0.00000000000E+00  0.74505805969E-08  0.10566000000E+00  0.10566000000E+00 0. -1.
     999900   -1    0    0    0    0 -0.00000000000E+00 -0.00000000000E+00 -0.74505805969E-08  0.93827000000E+00  0.93827000000E+00 0.  1.
     999902    2    1    2    0    0 -0.59278340536E-02  0.17351950553E-01 -0.15213462981E-01  0.10201039877E+01  0.10198257042E+01 0.  0.
     999903    2    3    3    0    0  0.10507547123E-01 -0.11477146425E+00 -0.55017007418E-01  0.12919936846E+00  0.19562928041E-01 0.  0.
         14    1    1    2    0    0  0.59278340536E-02 -0.17351950553E-01  0.15213462981E-01  0.23826012265E-01  0.00000000000E+00 0. -1.
     999901    1    3    3    0    0 -0.16435381177E-01  0.13212341480E+00  0.39803544437E-01  0.89090461927E+00  0.88000000000E+00 0. -1.
        -11    1    4    4    0    0  0.58778230264E-02 -0.52826864613E-01 -0.14725664877E-01  0.55157345435E-01  0.51100000000E-03 0. -1.
         11    1    4    4    0    0  0.46297240968E-02 -0.61944599634E-01 -0.40291342541E-01  0.74042023026E-01  0.51100000000E-03 0.  1.
</event>
<event>
 8    1  0.1010879E+005  0.1043930E+01  0.7957747E-01            NaN
         13   -1    0    0    0    0  0.00000000000E+00  0.00000000000E+00  0.74505805969E-08  0.10566000000E+00  0.10566000000E+00 0. -1.
     999900   -1    0    0    0    0 -0.00000000000E+00 -0.00000000000E+00 -0.74505805969E-08  0.93827000000E+00  0.93827000000E+00 0. -1.
     999902    2    1    2    0    0  0.16590106944E-01 -0.17409822057E-01  0.12286765056E-01  0.10169244793E+01  0.10165658358E+01 0.  0.
     999903    2    3    3    0    0  0.20900806167E-01 -0.73283369560E-01 -0.10070895632E+00  0.12793152743E+00  0.20417783285E-01 0.  0.
         14    1    1    2    0    0 -0.16590106944E-01  0.17409822057E-01 -0.12286765056E-01  0.27005520695E-01  0.00000000000E+00 0.  1.
     999901    1    3    3    0    0 -0.43106992226E-02  0.55873547503E-01  0.11299572138E+00  0.88899295188E+00  0.88000000000E+00 0.  1.
        -11    1    4    4    0    0  0.47228226720E-02 -0.41324824760E-01 -0.66239721208E-01  0.78217696093E-01  0.51100000000E-03 0.  1.
         11    1    4    4    0    0  0.16177983495E-01 -0.31958544800E-01 -0.34469235113E-01  0.49713831335E-01  0.51100000000E-03 0. -1.
</event>
<event>
 8    1  0.1010879E+005  0.1043930E+01  0.7957747E-01            NaN
         13   -1    0    0    0    0  0.00000000000E+00  0.00000000000E+00  0.74505805969E-08  0.10566000000E+00  0.10566000000E+00 0. -1.
     999900   -1    0    0    0    0 -0.00000000000E+00 -0.00000000000E+00 -0.74505805969E-08  0.93827000000E+00  0.93827000000E+00 0. -1.
     999902    2    1    2    0    0 -0.15349838428E-01  0.16865889300E-01 -0.69361969764E-02  0.10200933352E+01  0.10198147998E+01 0.  0.
     999903    2    3    3    0    0  0.79653256205E-01  0.10065940812E+00  0.14898132024E-01  0.13075443480E+00  0.19945180289E-01 0.  0.
         14    1    1    2    0    0  0.15349838428E-01 -0.16865889300E-01  0.69361969764E-02  0.23836664829E-01  0.00000000000E+00 0. -1.
     999901    1    3    3    0    0 -0.95003094633E-01 -0.83793518815E-01 -0.21834329000E-01  0.88933890037E+00  0.88000000000E+00 0.  1.
        -11    1    4    4    0    0  0.33370258609E-01  0.27171804570E-01  0.59348151110E-02  0.43443805941E-01  0.51100000000E-03 0. -1.
         11    1    4    4    0    0  0.46282997596E-01  0.73487603545E-01  0.89633169128E-02  0.87310628863E-01  0.51100000000E-03 0.  1.
</event>
<event>
 8    1  0.1010879E+005  0.1043930E+01  0.7957747E-01            NaN
         13   -1    0    0    0    0  0.00000000000E+00  0.00000000000E+00  0.74505805969E-08  0.10566000000E+00  0.10566000000E+00 0.  1.
     999900   -1    0    0    0    0 -0.00000000000E+00 -0.00000000000E+00 -0.74505805969E-08  0.93827000000E+00  0.93827000000E+00 0.  1.
     999902    2    1    2    0    0  0.22280677688E-02 -0.43818898667E-02  0.23568200535E-01  0.10198545909E+01  0.10195703808E+01 0.  0.
     999903    2    3    3    0    0  0.51553374043E-01  0.11163257075E+00  0.40761998063E-01  0.13070445312E+00  0.17393457206E-01 0.  0.
         14    1    1    2    0    0 -0.22280677688E-02  0.43818898667E-02 -0.23568200535E-01  0.24075409057E-01  0.00000000000E+00 0. -1.
     999901    1    3    3    0    0 -0.49325306274E-01 -0.11601446061E+00 -0.17193797528E-01  0.88915013782E+00  0.88000000000E+00 0.  1.
        -11    1    4    4    0    0  0.18349231716E-01  0.39287776200E-01  0.57560338575E-02  0.43744904961E-01  0.51100000000E-03 0. -1.
         11    1    4    4    0    0  0.33204142327E-01  0.72344794548E-01  0.35005964205E-01  0.86959548163E-01  0.51100000000E-03 0.  1.
</event>
<event>
 8    1  0.1010879E+005  0.1043930E+01  0.7957747E-01            NaN
         13   -1    0    0    0    0  0.00000000000E+00  0.00000000000E+00  0.74505805969E-08  0.10566000000E+00  0.10566000000E+00 0. -1.
     999900   -1    0    0    0    0 -0.00000000000E+00 -0.00000000000E+00 -0.74505805969E-08  0.93827000000E+00  0.93827000000E+00 0. -1.
     999902    2    1    2    0    0 -0.13190098086E-01 -0.70134698762E-02 -0.17361712992E-01  0.10210259278E+01  0.10207689987E+01 0.  0.
     999903    2    3    3    0    0  0.57649018636E-01  0.28592734823E-01  0.10930229608E+00  0.12842873223E+00  0.20149280386E-01 0.  0.
         14    1    1    2    0    0  0.13190098086E-01  0.70134698762E-02  0.17361712992E-01  0.22904072242E-01  0.00000000000E+00 0. -1.
     999901    1    3    3    0    0 -0.70839116722E-01 -0.35606204699E-01 -0.12666400907E+00  0.89259719553E+00  0.88000000000E+00 0. -1.
        -11    1    4    4    0    0  0.42893258504E-01  0.18734498387E-01  0.60475482616E-01  0.76474558995E-01  0.51100000000E-03 0.  1.
         11    1    4    4    0    0  0.14755760132E-01  0.98582364362E-02  0.48826813461E-01  0.51954173235E-01  0.51100000000E-03 0. -1.
</event>
<event>
 8    1  0.1010879E+005  0.1043930E+01  0.7957747E-01            NaN
         13   -1    0    0    0    0  0.00000000000E+00  0.00000000000E+00  0.74505805969E-08  0.10566000000E+00  0.10566000000E+00 0.  1.
     999900   -1    0    0    0    0 -0.00000000000E+00 -0.00000000000E+00 -0.74505805969E-08  0.93827000000E+00  0.93827000000E+00 0.  1.
     999902    2    1    2    0    0  0.76684245452E-02  0.21551283132E-01 -0.32012964985E-02  0.10208321464E+01  0.10205708013E+01 0.  0.
     999903    2    3    3    0    0  0.60896333123E-01 -0.78355285529E-01  0.81465399186E-01  0.12955049507E+00  0.17285987123E-01 0.  0.
         14    1    1    2    0    0 -0.76684245452E-02 -0.21551283132E-01  0.32012964985E-02  0.23097853557E-01  0.00000000000E+00 0. -1.
     999901    1    3    3    0    0 -0.53227908578E-01  0.99906568661E-01 -0.84666695684E-01  0.89128165137E+00  0.88000000000E+00 0.  1.
        -11    1    4    4    0    0  0.32240473057E-01 -0.37397223404E-01  0.29871857193E-01  0.57711258819E-01  0.51100000000E-03 0.  1.
         11    1    4    4    0    0  0.28655860066E-01 -0.40958062124E-01  0.51593541992E-01  0.71839236253E-01  0.51100000000E-03 0. -1.
</event>
<event>
 8    1  0.1010879E+005  0.1043930E+01  0.7957747E-01            NaN
         13   -1    0    0    0    0  0.00000000000E+00  0.00000000000E+00  0.74505805969E-08  0.10566000000E+00  0.10566000000E+00 0.  1.
     999900   -1    0    0    0    0 -0.00000000000E+00 -0.00000000000E+00 -0.74505805969E-08  0.93827000000E+00  0.93827000000E+00 0. -1.
     999902    2    1    2    0    0 -0.15235259293E-01 -0.72776142504E-02  0.18018038703E-01  0.10192373591E+01  0.10189382060E+01 0.  0.
     999903    2    3    3    0    0  0.78610427325E-01  0.96234690974E-01 -0.20322738607E-01  0.12738993639E+00  0.19351153905E-01 0.  0.
         14    1    1    2    0    0  0.15235259293E-01  0.72776142504E-02 -0.18018038703E-01  0.24692640880E-01  0.00000000000E+00 0. -1.
     999901    1    3    3    0    0 -0.93845686618E-01 -0.10351230522E+00  0.38340777310E-01  0.89184742273E+00  0.88000000000E+00 0.  1.
        -11    1    4    4    0    0  0.33031642443E-01  0.26092818082E-01 -0.60605152050E-02  0.42531347539E-01  0.51100000000E-03 0. -1.
         11    1    4    4    0    0  0.45578784882E-01  0.70141872892E-01 -0.14262223402E-01  0.84858588849E-01  0.51100000000E-03 0.  1.
</event>
<event>
 8    1  0.1010879E+005  0.1043930E+01  0.7957747E-01            NaN
         13   -1    0    0    0    0  0.00000000000E+00  0.00000000000E+00  0.74505805969E-08  0.10566000000E+00  0.10566000000E+00 0.  1.
     999900   -1    0    0    0    0 -0.00000000000E+00 -0.00000000000E+00 -0.74505805969E-08  0.93827000000E+00  0.93827000000E+00 0. -1.
     999902    2    1    2    0    0 -0.15793715661E-01  0.15409272320E-01 -0.16296454894E-02  0.10218043843E+01  0.10215648079E+01 0.  0.
     999903    2    3    3    0    0  0.11196716079E+00 -0.31099870605E-01  0.53630986489E-01  0.12964986884E+00  0.20711318911E-01 0.  0.
         14    1    1    2    0    0  0.15793715661E-01 -0.15409272320E-01  0.16296454894E-02  0.22125615748E-01  0.00000000000E+00 0.  1.
     999901    1    3    3    0    0 -0.12776087645E+00  0.46509142925E-01 -0.55260631979E-01  0.89215451541E+00  0.88000000000E+00 0. -1.
        -11    1    4    4    0    0  0.32952323422E-01  0.29296553939E-03  0.13208623171E-01  0.35505919152E-01  0.51100000000E-03 0. -1.
         11    1    4    4    0    0  0.79014837367E-01 -0.31392836144E-01  0.40422363318E-01  0.94143949686E-01  0.51100000000E-03 0.  1.
</event>
<event>
 8    1  0.1010879E+005  0.1043930E+01  0.7957747E-01            NaN
         13   -1    0    0    0    0  0.00000000000E+00  0.00000000000E+00  0.74505805969E-08  0.10566000000E+00  0.10566000000E+00 0. -1.
     999900   -1    0    0    0    0 -0.00000000000E+00 -0.00000000000E+00 -0.74505805969E-08  0.93827000000E+00  0.93827000000E+00 0.  1.
     999902    2    1    2    0    0  0.54298419959E-02  0.77046056657E-03  0.23213288575E-01  0.10200776718E+01  0.10197987659E+01 0.  0.
     999903    2    3    3    0    0  0.12984738435E+00  0.56092833779E-02  0.13464098077E-01  0.13125925067E+00  0.12486058869E-01 0.  0.
         14    1    1    2    0    0 -0.54298419959E-02 -0.77046056657E-03 -0.23213288575E-01  0.23852328189E-01  0.00000000000E+00 0.  1.
     999901    1    3    3    0    0 -0.12441754235E+00 -0.48388228113E-02  0.97491904977E-02  0.88881842114E+00  0.88000000000E+00 0. -1.
        -11    1    4    4    0    0  0.45766853027E-01 -0.38516174890E-02  0.59071958636E-02  0.46309781659E-01  0.51100000000E-03 0. -1.
         11    1    4    4    0    0  0.84080531321E-01  0.94609008669E-02  0.75569022138E-02  0.84949469007E-01  0.51100000000E-03 0.  1.
</event>
<event>
 8    1  0.1010879E+005  0.1043930E+01  0.7957747E-01            NaN
         13   -1    0    0    0    0  0.00000000000E+00  0.00000000000E+00  0.74505805969E-08  0.10566000000E+00  0.10566000000E+00 0.  1.
     999900   -1    0    0    0    0 -0.00000000000E+00 -0.00000000000E+00 -0.74505805969E-08  0.93827000000E+00  0.93827000000E+00 0.  1.
     999902    2    1    2    0    0 -0.44810728453E-03  0.95964503111E-02 -0.21102668379E-01  0.10207434679E+01  0.10204800890E+01 0.  0.
     999903    2    3    3    0    0 -0.79614855384E-01  0.96680657464E-01  0.33737583881E-01  0.13121635396E+00  0.19845207371E-01 0.  0.
         14    1    1    2    0    0  0.44810728453E-03 -0.95964503111E-02  0.21102668379E-01  0.23186532113E-01  0.00000000000E+00 0.  1.
     999901    1    3    3    0    0  0.79166748099E-01 -0.87084207153E-01 -0.54840252260E-01  0.88952711393E+00  0.88000000000E+00 0.  1.
        -11    1    4    4    0    0 -0.26221038056E-01  0.23765733204E-01  0.17159993574E-01  0.39332930375E-01  0.51100000000E-03 0. -1.
         11    1    4    4    0    0 -0.53393817328E-01  0.72914924260E-01  0.16577590307E-01  0.91883423587E-01  0.51100000000E-03 0.  1.
</event>
<event>
 8    1  0.1010879E+005  0.1043930E+01  0.7957747E-01            NaN
         13   -1    0    0    0    0  0.00000000000E+00  0.00000000000E+00  0.74505805969E-08  0.10566000000E+00  0.10566000000E+00 0. -1.
     999900   -1    0    0    0    0 -0.00000000000E+00 -0.00000000000E+00 -0.74505805969E-08  0.93827000000E+00  0.93827000000E+00 0.  1.
     999902    2    1    2    0    0  0.19609028770E-01  0.14858690974E-01 -0.23137830974E-02  0.10192187010E+01  0.10189190901E+01 0.  0.
     999903    2    3    3    0    0  0.10002627054E+00 -0.79728464905E-01 -0.15225132815E-01  0.13041030443E+00  0.20326335608E-01 0.  0.
         14    1    1    2    0    0 -0.19609028770E-01 -0.14858690974E-01  0.23137830974E-02  0.24711299014E-01  0.00000000000E+00 0. -1.
     999901    1    3    3    0    0 -0.80417241768E-01  0.94587155878E-01  0.12911349718E-01  0.88880839655E+00  0.88000000000E+00 0. -1.
        -11    1    4    4    0    0  0.21161512619E-01 -0.73507592325E-02 -0.42243515736E-02  0.22802402172E-01  0.51100000000E-03 0.  1.
         11    1    4    4    0    0  0.78864757920E-01 -0.72377705672E-01 -0.11000781242E-01  0.10760790226E+00  0.51100000000E-03 0. -1.
</event>
<event>
 8    1  0.1010879E+005  0.1043930E+01  0.7957747E-01            NaN
         13   -1    0    0    0    0  0.00000000000E+00  0.00000000000E+00  0.74505805969E-08  0.10566000000E+00  0.10566000000E+00 0.  1.
     999900   -1    0    0    0    0 -0.00000000000E+00 -0.00000000000E+00 -0.74505805969E-08  0.93827000000E+00  0.93827000000E+00 0. -1.
     999902    2    1    2    0    0  0.32586303453E-02  0.11043438404E-01 -0.18972485511E-01  0.10217369513E+01  0.10214958964E+01 0.  0.
     999903    2    3    3    0    0  0.26744627038E-01  0.12582786406E+00 -0.31518145581E-01  0.13388310636E+00  0.19579740016E-01 0.  0.
         14    1    1    2    0    0 -0.32586303453E-02 -0.11043438404E-01  0.18972485511E-01  0.22193048686E-01  0.00000000000E+00 0.  1.
     999901    1    3    3    0    0 -0.23485996692E-01 -0.11478442565E+00  0.12545660069E-01  0.88785384495E+00  0.88000000000E+00 0.  1.
        -11    1    4    4    0    0  0.10494110760E-01  0.84306775580E-01 -0.26579649512E-01  0.89019647598E-01  0.51100000000E-03 0.  1.
         11    1    4    4    0    0  0.16250516277E-01  0.41521088477E-01 -0.49384960684E-02  0.44863458761E-01  0.51100000000E-03 0. -1.
</event>
<event>
 8    1  0.1010879E+005  0.1043930E+01  0.7957747E-01            NaN
         13   -1    0    0    0    0  0.00000000000E+00  0.00000000000E+00  0.74505805969E-08  0.10566000000E+00  0.10566000000E+00 0.  1.
     999900   -1    0    0    0    0 -0.00000000000E+00 -0.00000000000E+00 -0.74505805969E-08  0.93827000000E+00  0.93827000000E+00 0.  1.
     999902    2    1    2    0    0  0.17375469152E-01  0.10341054716E-01 -0.12145726285E-01  0.10203426515E+01  0.10200699797E+01 0.  0.
     999903    2    3    3    0    0 -0.36796956864E-01 -0.63576038367E-01  0.10264275793E+00  0.12816846198E+00  0.22264101169E-01 0.  0.
         14    1    1    2    0    0 -0.17375469152E-01 -0.10341054716E-01  0.12145726285E-01  0.23587348471E-01  0.00000000000E+00 0. -1.
     999901    1    3    3    0    0  0.54172426016E-01  0.73917093083E-01 -0.11478848422E+00  0.89217418955E+00  0.88000000000E+00 0.  1.
        -11    1    4    4    0    0 -0.23101694460E-01 -0.56234317318E-01  0.86774073029E-01  0.10595276118E+00  0.51100000000E-03 0.  1.
         11    1    4    4    0    0 -0.13695262403E-01 -0.73417210493E-02  0.15868684905E-01  0.22215700796E-01  0.51100000000E-03 0. -1.
</event>
<event>
 8    1  0.1010879E+005  0.1043930E+01  0.7957747E-01            NaN
         13   -1    0    0    0    0  0.00000000000E+00  0.00000000000E+00  0.74505805969E-08  0.10566000000E+00  0.10566000000E+00 0.  1.
     999900   -1    0    0    0    0 -0.00000000000E+00 -0.00000000000E+00 -0.74505805969E-08  0.93827000000E+00  0.93827000000E+00 0. -1.
     999902    2    1    2    0    0 -0.18203026766E-01  0.13876533559E-01 -0.67034284516E-02  0.10200795426E+01  0.10198006809E+01 0.  0.
     999903    2    3    3    0    0 -0.16375760435E-02 -0.82164322825E-01  0.97163778696E-01  0.12862754892E+00  0.18724017970E-01 0.  0.
         14    1    1    2    0    0  0.18203026766E-01 -0.13876533559E-01  0.67034284516E-02  0.23850457439E-01  0.00000000000E+00 0. -1.
     999901    1    3    3    0    0 -0.16565450722E-01  0.96040856384E-01 -0.10386720715E+00  0.89145199364E+00  0.88000000000E+00 0.  1.
        -11    1    4    4    0    0 -0.70576255482E-03 -0.33052492851E-01  0.25552570018E-01  0.41787083411E-01  0.51100000000E-03 0. -1.
         11    1    4    4    0    0 -0.93181348865E-03 -0.49111829974E-01  0.71611208678E-01  0.86840465505E-01  0.51100000000E-03 0.  1.
</event>
<event>
 8    1  0.1010879E+005  0.1043930E+01  0.7957747E-01            NaN
         13   -1    0    0    0    0  0.00000000000E+00  0.00000000000E+00  0.74505805969E-08  0.10566000000E+00  0.10566000000E+00 0. -1.
     999900   -1    0    0    0    0 -0.00000000000E+00 -0.00000000000E+00 -0.74505805969E-08  0.93827000000E+00  0.93827000000E+00 0.  1.
     999902    2    1    2    0    0 -0.22180293998E-01  0.28381004136E-02  0.80190597283E-02  0.10201744622E+01  0.10198978419E+01 0.  0.
     999903    2    3    3    0    0  0.10258958253E+00 -0.72800966180E-01  0.11679442962E-01  0.12815305616E+00  0.21498681204E-01 0.  0.
         14    1    1    2    0    0  0.22180293998E-01 -0.28381004136E-02 -0.80190597283E-02  0.23755537769E-01  0.00000000000E+00 0. -1.
     999901    1    3    3    0    0 -0.12476987653E+00  0.75639066594E-01 -0.36603832342E-02  0.89202140607E+00  0.88000000000E+00 0. -1.
        -11    1    4    4    0    0  0.81135757551E-01 -0.46330307991E-01  0.62013002744E-02  0.93638805193E-01  0.51100000000E-03 0. -1.
         11    1    4    4    0    0  0.21453824984E-01 -0.26470658190E-01  0.54781426881E-02  0.34514250966E-01  0.51100000000E-03 0.  1.
</event>
<event>
 8    1  0.1010879E+005  0.1043930E+01  0.7957747E-01            NaN
         13   -1    0    0    0    0  0.00000000000E+00  0.00000000000E+00  0.74505805969E-08  0.10566000000E+00  0.10566000000E+00 0. -1.
     999900   -1    0    0    0    0 -0.00000000000E+00 -0.00000000000E+00 -0.74505805969E-08  0.93827000000E+00  0.93827000000E+00 0.  1.
     999902    2    1    2    0    0  0.14890021966E-01 -0.47409177946E-02 -0.17269931938E-01  0.10206396671E+01  0.10203738974E+01 0.  0.
     999903    2    3    3    0    0 -0.10281163094E+00  0.68645697846E-01  0.28573312539E-01  0.12859657540E+00  0.20932790675E-01 0.  0.
         14    1    1    2    0    0 -0.14890021966E-01  0.47409177946E-02  0.17269931938E-01  0.23290332862E-01  0.00000000000E+00 0. -1.
     999901    1    3    3    0    0  0.11770165291E+00 -0.73386615640E-01 -0.45843244477E-01  0.89204309174E+00  0.88000000000E+00 0. -1.
        -11    1    4    4    0    0 -0.53917929809E-01  0.40974754101E-01  0.57893926499E-02  0.67969491809E-01  0.51100000000E-03 0. -1.
         11    1    4    4    0    0 -0.48893701134E-01  0.27670943744E-01  0.22783919889E-01  0.60627083591E-01  0.51100000000E-03 0.  1.
</event>
<event>
 8    1  0.1010879E+005  0.1043930E+01  0.7957747E-01            NaN
         13   -1    0    0    0    0  0.00000000000E+00  0.00000000000E+00  0.74505805969E-08  0.10566000000E+00  0.10566000000E+00 0. -1.
     999900   -1    0    0    0    0 -0.00000000000E+00 -0.00000000000E+00 -0.74505805969E-08  0.93827000000E+00  0.93827000000E+00 0. -1.
     999902    2    1    2    0    0 -0.57050515705E-02  0.10065719640E-01  0.21002835970E-01  0.10199511459E+01  0.10196692378E+01 0.  0.
     999903    2    3    3    0    0  0.54426124758E-01 -0.58077966439E-01 -0.96733821423E-01  0.12747075910E+00  0.23581962965E-01 0.  0.
         14    1    1    2    0    0  0.57050515705E-02 -0.10065719640E-01 -0.21002835970E-01  0.23978854103E-01  0.00000000000E+00 0.  1.
     999901    1    3    3    0    0 -0.60131176328E-01  0.68143686079E-01  0.11773665739E+00  0.89248038679E+00  0.88000000000E+00 0.  1.
        -11    1    4    4    0    0  0.22688766592E-01 -0.13168192650E-01 -0.44291718212E-01  0.51480082074E-01  0.51100000000E-03 0. -1.
         11    1    4    4    0    0  0.31737358166E-01 -0.44909773789E-01 -0.52442103211E-01  0.75990677029E-01  0.51100000000E-03 0.  1.
</event>
<event>
 8    1  0.1010879E+005  0.1043930E+01  0.7957747E-01            NaN
         13   -1    0    0    0    0  0.00000000000E+00  0.00000000000E+00  0.74505805969E-08  0.10566000000E+00  0.10566000000E+00 0. -1.
     999900   -1    0    0    0    0 -0.00000000000E+00 -0.00000000000E+00 -0.74505805969E-08  0.93827000000E+00  0.93827000000E+00 0. -1.
     999902    2    1    2    0    0 -0.17358564351E-01 -0.80313189018E-02 -0.13902240461E-01  0.10202848286E+01  0.10200108026E+01 0.  0.
     999903    2    3    3    0    0 -0.11875745264E+00  0.21124314465E-01 -0.52787540335E-01  0.13312990864E+00  0.19684484790E-01 0.  0.
         14    1    1    2    0    0  0.17358564351E-01  0.80313189018E-02  0.13902240461E-01  0.23645171378E-01  0.00000000000E+00 0.  1.
     999901    1    3    3    0    0  0.10139888829E+00 -0.29155633367E-01  0.38885299874E-01  0.88715491998E+00  0.88000000000E+00 0. -1.
        -11    1    4    4    0    0 -0.98287799603E-01  0.18849737264E-01 -0.51331318498E-01  0.11247652878E+00  0.51100000000E-03 0. -1.
         11    1    4    4    0    0 -0.20469653034E-01  0.22745772016E-02 -0.14562218367E-02  0.20653379864E-01  0.51100000000E-03 0.  1.
</event>
<event>
 8    1  0.1010879E+005  0.1043930E+01  0.7957747E-01            NaN
         13   -1    0    0    0    0  0.00000000000E+00  0.00000000000E+00  0.74505805969E-08  0.10566000000E+00  0.10566000000E+00 0. -1.
     999900   -1    0    0    0    0 -0.00000000000E+00 -0.00000000000E+00 -0.74505805969E-08  0.93827000000E+00  0.93827000000E+00 0. -1.
     999902    2    1    2    0    0  0.16769589771E-01  0.15097839790E-01  0.48275992454E-02  0.10208546967E+01  0.10205938674E+01 0.  0.
     999903    2    3    3    0    0  0.35620558362E-01  0.63948701287E-01 -0.10717450025E+00  0.13221177856E+00  0.25205561114E-01 0.  0.
         14    1    1    2    0    0 -0.16769589771E-01 -0.15097839790E-01 -0.48275992454E-02  0.23075303289E-01  0.00000000000E+00 0.  1.
     999901    1    3    3    0    0 -0.18850968591E-01 -0.48850861498E-01  0.11200209950E+00  0.88864291815E+00  0.88000000000E+00 0.  1.
        -11    1    4    4    0    0  0.86634622285E-02  0.62595792065E-02 -0.49829859735E-02  0.11803778202E-01  0.51100000000E-03 0.  1.
         11    1    4    4    0    0  0.26957096134E-01  0.57689122081E-01 -0.10219151428E+00  0.12040800036E+00  0.51100000000E-03 0. -1.
</event>
<event>
 8    1  0.1010879E+005  0.1043930E+01  0.7957747E-01            NaN
         13   -1    0    0    0    0  0.00000000000E+00  0.00000000000E+00  0.74505805969E-08  0.10566000000E+00  0.10566000000E+00 0.  1.
     999900   -1    0    0    0    0 -0.00000000000E+00 -0.00000000000E+00 -0.74505805969E-08  0.93827000000E+00  0.93827000000E+00 0. -1.
     999902    2    1    2    0    0 -0.15992884007E-01  0.86609469974E-02  0.15316781249E-01  0.10201521084E+01  0.10198749610E+01 0.  0.
     999903    2    3    3    0    0  0.11462766699E+00  0.46739724528E-01  0.34317797573E-01  0.12949349800E+00  0.16332510625E-01 0.  0.
         14    1    1    2    0    0  0.15992884007E-01 -0.86609469974E-02 -0.15316781249E-01  0.23777891613E-01  0.00000000000E+00 0. -1.
     999901    1    3    3    0    0 -0.13062055100E+00 -0.38078777531E-01 -0.19001016324E-01  0.89065861039E+00  0.88000000000E+00 0.  1.
        -11    1    4    4    0    0  0.82278079153E-01  0.39358647284E-01  0.30070427919E-01  0.96037894508E-01  0.51100000000E-03 0. -1.
         11    1    4    4    0    0  0.32349587841E-01  0.73810772440E-02  0.42473696540E-02  0.33455603488E-01  0.51100000000E-03 0.  1.
</event>
<event>
 8    1  0.1010879E+005  0.1043930E+01  0.7957747E-01            NaN
         13   -1    0    0    0    0  0.00000000000E+00  0.00000000000E+00  0.74505805969E-08  0.10566000000E+00  0.10566000000E+00 0.  1.
     999900   -1    0    0    0    0 -0.00000000000E+00 -0.00000000000E+00 -0.74505805969E-08  0.93827000000E+00  0.93827000000E+00 0. -1.
     999902    2    1    2    0    0  0.21649559960E-01 -0.11662668246E-01 -0.20181268944E-02  0.10192562465E+01  0.10189575565E+01 0.  0.
     999903    2    3    3    0    0 -0.83030066288E-01  0.88134269933E-01  0.31785048725E-01  0.12681022138E+00  0.20221312497E-01 0.  0.
         14    1    1    2    0    0 -0.21649559960E-01  0.11662668246E-01  0.20181268944E-02  0.24673753530E-01  0.00000000000E+00 0.  1.
     999901    1    3    3    0    0  0.10467962625E+00 -0.99796938179E-01 -0.33803175620E-01  0.89244602509E+00  0.88000000000E+00 0.  1.
        -11    1    4    4    0    0 -0.16762919141E-01  0.21985043622E-01  0.15721861883E-01  0.31808421263E-01  0.51100000000E-03 0.  1.
         11    1    4    4    0    0 -0.66267147148E-01  0.66149226310E-01  0.16063186842E-01  0.95001800115E-01  0.51100000000E-03 0. -1.
</event>
<event>
 8    1  0.1010879E+005  0.1043930E+01  0.7957747E-01            NaN
         13   -1    0    0    0    0  0.00000000000E+00  0.00000000000E+00  0.74505805969E-08  0.10566000000E+00  0.10566000000E+00 0.  1.
     999900   -1    0    0    0    0 -0.00000000000E+00 -0.00000000000E+00 -0.74505805969E-08  0.93827000000E+00  0.93827000000E+00 0. -1.
     999902    2    1    2    0    0 -0.14595018892E-01 -0.10580686086E-01 -0.11851862875E-01  0.10223561235E+01  0.10221284709E+01 0.  0.
     999903    2    3    3    0    0 -0.10707538525E+00  0.25485309888E-01  0.71647462292E-01  0.13284754481E+00  0.20011800597E-01 0.  0.
         14    1    1    2    0    0  0.14595018892E-01  0.10580686086E-01  0.11851862875E-01  0.21573876520E-01  0.00000000000E+00 0. -1.
     999901    1    3    3    0    0  0.92480366354E-01 -0.36065995973E-01 -0.83499325166E-01  0.88950857867E+00  0.88000000000E+00 0. -1.
        -11    1    4    4    0    0 -0.77557278439E-01  0.21184925901E-01  0.41681267370E-01  0.90562253146E-01  0.51100000000E-03 0.  1.
         11    1    4    4    0    0 -0.29518106807E-01  0.43003839866E-02  0.29966194921E-01  0.42285291662E-01  0.51100000000E-03 0. -1.
</event>
<event>
 8    1  0.1010879E+005  0.1043930E+01  0.7957747E-01            NaN
         13   -1    0    0    0    0  0.00000000000E+00  0.00000000000E+00  0.74505805969E-08  0.10566000000E+00  0.10566000000E+00 0.  1.
     999900   -1    0    0    0    0 -0.00000000000E+00 -0.00000000000E+00 -0.74505805969E-08  0.93827000000E+00  0.93827000000E+00 0. -1.
     999902    2    1    2    0    0 -0.22685330452E-01 -0.75914389074E-02 -0.34415209717E-02  0.10197618758E+01  0.10194754460E+01 0.  0.
     999903    2    3    3    0    0  0.10944596700E+00  0.50564429006E-01 -0.35691717117E-01  0.12741616928E+00  0.20634930312E-01 0.  0.
         14    1    1    2    0    0  0.22685330452E-01  0.75914389074E-02  0.34415209717E-02  0.24168124235E-01  0.00000000000E+00 0.  1.
     999901    1    3    3    0    0 -0.13213129745E+00 -0.58155867913E-01  0.32250196145E-01  0.89234570649E+00  0.88000000000E+00 0.  1.
        -11    1    4    4    0    0  0.76750406399E-01  0.40826100576E-01 -0.33703689031E-01  0.93239450588E-01  0.51100000000E-03 0.  1.
         11    1    4    4    0    0  0.32695560600E-01  0.97383284301E-02 -0.19880280857E-02  0.34176718687E-01  0.51100000000E-03 0. -1.
</event>
<event>
 8    1  0.1010879E+005  0.1043930E+01  0.7957747E-01            NaN
         13   -1    0    0    0    0  0.00000000000E+00  0.00000000000E+00  0.74505805969E-08  0.10566000000E+00  0.10566000000E+00 0.  1.
     999900   -1    0    0    0    0 -0.00000000000E+00 -0.00000000000E+00 -0.74505805969E-08  0.93827000000E+00  0.93827000000E+00 0. -1.
     999902    2    1    2    0    0  0.14125084301E-01 -0.97379993274E-02 -0.15702871036E-01  0.10206721670E+01  0.10204071470E+01 0.  0.
     999903    2    3    3    0    0 -0.22158607224E-01 -0.12858089129E+00 -0.48905353727E-02  0.13187688919E+00  0.18535023291E-01 0.  0.
         14    1    1    2    0    0 -0.14125084301E-01  0.97379993274E-02  0.15702871036E-01  0.23257833007E-01  0.00000000000E+00 0. -1.
     999901    1    3    3    0    0  0.36283691525E-01  0.11884289196E+00 -0.10812335664E-01  0.88879527780E+00  0.88000000000E+00 0. -1.
        -11    1    4    4    0    0 -0.85544085721E-02 -0.66569455710E-01 -0.11309737545E-01  0.68064980892E-01  0.51100000000E-03 0.  1.
         11    1    4    4    0    0 -0.13604198652E-01 -0.62011435576E-01  0.64192021724E-02  0.63811908299E-01  0.51100000000E-03 0. -1.
</event>
<event>
 8    1  0.1010879E+005  0.1043930E+01  0.7957747E-01            NaN
         13   -1    0    0    0    0  0.00000000000E+00  0.00000000000E+00  0.74505805969E-08  0.10566000000E+00  0.10566000000E+00 0. -1.
     999900   -1    0    0    0    0 -0.00000000000E+00 -0.00000000000E+00 -0.74505805969E-08  0.93827000000E+00  0.93827000000E+00 0.  1.
     999902    2    1    2    0    0 -0.19232841844E-01  0.33755841091E-02  0.12679216153E-01  0.10206478331E+01  0.10203822519E+01 0.  0.
     999903    2    3    3    0    0  0.79374355590E-01  0.15382724805E-01 -0.97475409908E-01  0.12823448018E+00  0.20142239786E-01 0.  0.
         14    1    1    2    0    0  0.19232841844E-01 -0.33755841091E-02 -0.12679216153E-01  0.23282166904E-01  0.00000000000E+00 0. -1.
     999901    1    3    3    0    0 -0.98607197434E-01 -0.12007140696E-01  0.11015462606E+00  0.89241335291E+00  0.88000000000E+00 0.  1.
        -11    1    4    4    0    0  0.47261529125E-01  0.18891328964E-01 -0.62874489723E-01  0.80894975271E-01  0.51100000000E-03 0. -1.
         11    1    4    4    0    0  0.32112826465E-01 -0.35086041590E-02 -0.34600920185E-01  0.47339504912E-01  0.51100000000E-03 0.  1.
</event>
<event>
 8    1  0.1010879E+005  0.1043930E+01  0.7957747E-01            NaN
         13   -1    0    0    0    0  0.00000000000E+00  0.00000000000E+00  0.74505805969E-08  0.10566000000E+00  0.10566000000E+00 0.  1.
     999900   -1    0    0    0    0 -0.00000000000E+00 -0.00000000000E+00 -0.74505805969E-08  0.93827000000E+00  0.93827000000E+00 0. -1.
     999902    2    1    2    0    0 -0.13748768031E-01  0.15232979054E-01  0.11014736077E-01  0.10206405886E+01  0.10203748401E+01 0.  0.
     999903    2    3    3    0    0 -0.12716943684E+00 -0.16914613272E-01  0.28735440631E-01  0.13260244798E+00  0.17306468544E-01 0.  0.
         14    1    1    2    0    0  0.13748768031E-01 -0.15232979054E-01 -0.11014736077E-01  0.23289411416E-01  0.00000000000E+00 0. -1.
     999901    1    3    3    0    0  0.11342066881E+00  0.32147592326E-01 -0.17720704554E-01  0.88803814061E+00  0.88000000000E+00 0. -1.
        -11    1    4    4    0    0 -0.46940706136E-01 -0.17628479505E-04  0.16195442916E-01  0.49658671907E-01  0.51100000000E-03 0.  1.
         11    1    4    4    0    0 -0.80228730701E-01 -0.16896984792E-01  0.12539997716E-01  0.82943776069E-01  0.51100000000E-03 0. -1.
</event>
<event>
 8    1  0.1010879E+005  0.1043930E+01  0.7957747E-01            NaN
         13   -1    0    0    0    0  0.00000000000E+00  0.00000000000E+00  0.74505805969E-08  0.10566000000E+00  0.10566000000E+00 0.  1.
     999900   -1    0    0    0    0 -0.00000000000E+00 -0.00000000000E+00 -0.74505805969E-08  0.93827000000E+00  0.93827000000E+00 0. -1.
     999902    2    1    2    0    0 -0.19081957333E-01 -0.73099440119E-02  0.12424330417E-01  0.10200151435E+01  0.10197347560E+01 0.  0.
     999903    2    3    3    0    0 -0.41703396215E-01  0.42357379965E-01  0.11628601348E+00  0.13222810718E+00  0.20700591911E-01 0.  0.
         14    1    1    2    0    0  0.19081957333E-01  0.73099440119E-02 -0.12424330417E-01  0.23914856542E-01  0.00000000000E+00 0.  1.
     999901    1    3    3    0    0  0.22621438882E-01 -0.49667323977E-01 -0.10386168306E+00  0.88778703627E+00  0.88000000000E+00 0. -1.
        -11    1    4    4    0    0 -0.17018613833E-02  0.66135940399E-02  0.28804441785E-01  0.29607312371E-01  0.51100000000E-03 0. -1.
         11    1    4    4    0    0 -0.40001534832E-01  0.35743785926E-01  0.87481571693E-01  0.10262079481E+00  0.51100000000E-03 0.  1.
</event>
<event>
 8    1  0.1010879E+005  0.1043930E+01  0.7957747E-01            NaN
         13   -1    0    0    0    0  0.00000000000E+00  0.00000000000E+00  0.74505805969E-08  0.10566000000E+00  0.10566000000E+00 0.  1.
     999900   -1    0    0    0    0 -0.00000000000E+00 -0.00000000000E+00 -0.74505805969E-08  0.93827000000E+00  0.93827000000E+00 0.  1.
     999902    2    1    2    0    0  0.23582851606E-01  0.37166424494E-02  0.32684961389E-02  0.10198333739E+01  0.10195486566E+01 0.  0.
     999903    2    3    3    0    0  0.65958185603E-01  0.10894450973E+00  0.29243709537E-01  0.13217167897E+00  0.19868812926E-01 0.  0.
         14    1    1    2    0    0 -0.23582851606E-01 -0.37166424494E-02 -0.32684961389E-02  0.24096626070E-01  0.00000000000E+00 0. -1.
     999901    1    3    3    0    0 -0.42375333997E-01 -0.10522786728E+00 -0.25975213398E-01  0.88766169496E+00  0.88000000000E+00 0.  1.
        -11    1    4    4    0    0  0.56854494580E-01  0.79415833106E-01  0.26162812174E-01  0.10111410368E+00  0.51100000000E-03 0. -1.
         11    1    4    4    0    0  0.91036910227E-02  0.29528676621E-01  0.30808973628E-02  0.31057575288E-01  0.51100000000E-03 0.  1.
</event>
<event>
 8    1  0.1010879E+005  0.1043930E+01  0.7957747E-01            NaN
         13   -1    0    0    0    0  0.00000000000E+00  0.00000000000E+00  0.74505805969E-08  0.10566000000E+00  0.10566000000E+00 0.  1.
     999900   -1    0    0    0    0 -0.00000000000E+00 -0.00000000000E+00 -0.74505805969E-08  0.93827000000E+00  0.93827000000E+00 0.  1.
     999902    2    1    2    0    0  0.21419868282E-01 -0.80274503616E-02 -0.71266023596E-02  0.10199708853E+01  0.10196894467E+01 0.  0.
     999903    2    3    3    0    0 -0.27430477461E-01 -0.66748941211E-01  0.10558478339E+00  0.12949998389E+00  0.20353061128E-01 0.  0.
         14    1    1    2    0    0 -0.21419868282E-01  0.80274503616E-02  0.71266023596E-02  0.23959114711E-01  0.00000000000E+00 0. -1.
     999901    1    3    3    0    0  0.48850345743E-01  0.58721490849E-01 -0.11271138575E+00  0.89047090140E+00  0.88000000000E+00 0. -1.
        -11    1    4    4    0    0 -0.29909949582E-01 -0.57115768916E-01  0.85546168938E-01  0.10712247329E+00  0.51100000000E-03 0. -1.
         11    1    4    4    0    0  0.24794721210E-02 -0.96331722948E-02  0.20038614449E-01  0.22377510597E-01  0.51100000000E-03 0.  1.
</event>
<event>
 8    1  0.1010879E+005  0.1043930E+01  0.7957747E-01            NaN
         13   -1    0    0    0    0  0.00000000000E+00  0.00000000000E+00  0.74505805969E-08  0.10566000000E+00  0.10566000000E+00 0.  1.
     999900   -1    0    0    0    0 -0.00000000000E+00 -0.00000000000E+00 -0.74505805969E-08  0.93827000000E+00  0.93827000000E+00 0. -1.
     999902    2    1    2    0    0 -0.37542997920E-02  0.17781376337E-01  0.15752556670E-01  0.10198797369E+01  0.10195961272E+01 0.  0.
     999903    2    3    3    0    0 -0.93026838597E-01  0.67943980063E-01  0.63128815968E-01  0.13267604954E+00  0.18636243995E-01 0.  0.
         14    1    1    2    0    0  0.37542997920E-02 -0.17781376337E-01 -0.15752556670E-01  0.24050263055E-01  0.00000000000E+00 0. -1.
     999901    1    3    3    0    0  0.89272538805E-01 -0.50162603726E-01 -0.47376259298E-01  0.88720368740E+00  0.88000000000E+00 0. -1.
        -11    1    4    4    0    0 -0.52264253715E-01  0.36519546652E-01  0.45256120271E-01  0.78189558427E-01  0.51100000000E-03 0. -1.
         11    1    4    4    0    0 -0.40762584882E-01  0.31424433411E-01  0.17872695697E-01  0.54486491115E-01  0.51100000000E-03 0.  1.
</event>
<event>
 8    1  0.1010879E+005  0.1043930E+01  0.7957747E-01            NaN
         13   -1    0    0    0    0  0.00000000000E+00  0.00000000000E+00  0.74505805969E-08  0.10566000000E+00  0.10566000000E+00 0. -1.
     999900   -1    0    0    0    0 -0.00000000000E+00 -0.00000000000E+00 -0.74505805969E-08  0.93827000000E+00  0.93827000000E+00 0. -1.
     999902    2    1    2    0    0 -0.10062589891E-01  0.14022757226E-01  0.16614806705E-01  0.10199728458E+01  0.10196914538E+01 0.  0.
     999903    2    3    3    0    0  0.22358776586E-01 -0.52572334249E-01  0.11731237837E+00  0.13113874871E+00  0.13092443467E-01 0.  0.
         14    1    1    2    0    0  0.10062589891E-01 -0.14022757226E-01 -0.16614806705E-01  0.23957154201E-01  0.00000000000E+00 0.  1.
     999901    1    3    3    0    0 -0.32421366477E-01  0.66595091475E-01 -0.10069757166E+00  0.88883409709E+00  0.88000000000E+00 0. -1.
        -11    1    4    4    0    0  0.13393359790E-02 -0.94671414728E-02  0.30395898282E-01  0.31868359573E-01  0.51100000000E-03 0.  1.
         11    1    4    4    0    0  0.21019440607E-01 -0.43105192776E-01  0.86916480085E-01  0.99270389135E-01  0.51100000000E-03 0. -1.
</event>
<event>
 8    1  0.1010879E+005  0.1043930E+01  0.7957747E-01            NaN
         13   -1    0    0    0    0  0.00000000000E+00  0.00000000000E+00  0.74505805969E-08  0.10566000000E+00  0.10566000000E+00 0. -1.
     999900   -1    0    0    0    0 -0.00000000000E+00 -0.00000000000E+00 -0.74505805969E-08  0.93827000000E+00  0.93827000000E+00 0.  1.
     999902    2    1    2    0    0  0.71414504416E-03  0.18283554478E-01 -0.14191710981E-01  0.10207739419E+01  0.10205112627E+01 0.  0.
     999903    2    3    3    0    0 -0.63556721816E-01 -0.84757822293E-01 -0.73466830694E-01  0.13045837452E+00  0.19966645733E-01 0.  0.
         14    1    1    2    0    0 -0.71414504416E-03 -0.18283554478E-01  0.14191710981E-01  0.23156058129E-01  0.00000000000E+00 0.  1.
     999901    1    3    3    0    0  0.64270866860E-01  0.10304137677E+00  0.59275119713E-01  0.89031556735E+00  0.88000000000E+00 0. -1.
        -11    1    4    4    0    0 -0.35614717140E-01 -0.31107470307E-01 -0.33562781729E-01  0.57989690672E-01  0.51100000000E-03 0.  1.
         11    1    4    4    0    0 -0.27942004675E-01 -0.53650351986E-01 -0.39904048965E-01  0.72468683846E-01  0.51100000000E-03 0. -1.
</event>
<event>
 8    1  0.1010879E+005  0.1043930E+01  0.7957747E-01            NaN
         13   -1    0    0    0    0  0.00000000000E+00  0.00000000000E+00  0.74505805969E-08  0.10566000000E+00  0.10566000000E+00 0.  1.
     999900   -1    0    0    0    0 -0.00000000000E+00 -0.00000000000E+00 -0.74505805969E-08  0.93827000000E+00  0.93827000000E+00 0.  1.
     999902    2    1    2    0    0  0.19508230041E-01 -0.12808730360E-01 -0.90679514947E-02  0.10188927806E+01  0.10185851147E+01 0.  0.
     999903    2    3    3    0    0 -0.12048749457E+00 -0.47517150663E-02  0.34618393474E-01  0.12672003096E+00  0.17880658147E-01 0.  0.
         14    1    1    2    0    0 -0.19508230041E-01  0.12808730360E-01  0.90679514947E-02  0.25037219436E-01  0.00000000000E+00 0.  1.
     999901    1    3    3    0    0  0.13999572461E+00 -0.80570152936E-02 -0.43686344969E-01  0.89217274961E+00  0.88000000000E+00 0.  1.
        -11    1    4    4    0    0 -0.81874887946E-01  0.50307743050E-02  0.21916325433E-01  0.84908140998E-01  0.51100000000E-03 0. -1.
         11    1    4    4    0    0 -0.38612606623E-01 -0.97824893712E-02  0.12702068041E-01  0.41811889960E-01  0.51100000000E-03 0.  1.
</event>
<event>
 8    1  0.1010879E+005  0.1043930E+01  0.7957747E-01            NaN
         13   -1    0    0    0    0  0.00000000000E+00  0.00000000000E+00  0.74505805969E-08  0.10566000000E+00  0.10566000000E+00 0. -1.
     999900   -1    0    0    0    0 -0.00000000000E+00 -0.00000000000E+00 -0.74505805969E-08  0.93827000000E+00  0.93827000000E+00 0. -1.
     999902    2    1    2    0    0  0.21348083556E-01 -0.11209431363E-01  0.95425866260E-03  0.10197990524E+01  0.10195135137E+01 0.  0.
     999903    2    3    3    0    0 -0.51494289915E-01  0.71960101403E-01  0.90045330963E-01  0.12841787595E+00  0.23517464713E-01 0.  0.
         14    1    1    2    0    0 -0.21348083556E-01  0.11209431363E-01 -0.95425866260E-03  0.24130947610E-01  0.00000000000E+00 0.  1.
     999901    1    3    3    0    0  0.72842373471E-01 -0.83169532766E-01 -0.89091072301E-01  0.89138117644E+00  0.88000000000E+00 0. -1.
        -11    1    4    4    0    0 -0.35822962532E-01  0.61617786508E-01  0.60931786562E-01  0.93770890970E-01  0.51100000000E-03 0. -1.
         11    1    4    4    0    0 -0.15671327383E-01  0.10342314895E-01  0.29113544402E-01  0.34646984977E-01  0.51100000000E-03 0.  1.
</event>
<event>
 8    1  0.1010879E+005  0.1043930E+01  0.7957747E-01            NaN
         13   -1    0    0    0    0  0.00000000000E+00  0.00000000000E+00  0.74505805969E-08  0.10566000000E+00  0.10566000000E+00 0.  1.
     999900   -1    0    0    0    0 -0.00000000000E+00 -0.00000000000E+00 -0.74505805969E-08  0.93827000000E+00  0.93827000000E+00 0.  1.
     999902    2    1    2    0    0 -0.13910861512E-01 -0.13710918871E-01 -0.13786605846E-01  0.10200224308E+01  0.10197422162E+01 0.  0.
     999903    2    3    3    0    0  0.27631372213E-01  0.44253045466E-01  0.11492225037E+00  0.12780522181E+00  0.20130234228E-01 0.  0.
         14    1    1    2    0    0  0.13910861512E-01  0.13710918871E-01  0.13786605846E-01  0.23907569200E-01  0.00000000000E+00 0.  1.
     999901    1    3    3    0    0 -0.41542233725E-01 -0.57963964337E-01 -0.12870885621E+00  0.89221720899E+00  0.88000000000E+00 0. -1.
        -11    1    4    4    0    0  0.24177633890E-01  0.43987083045E-01  0.93723280146E-01  0.10631902848E+00  0.51100000000E-03 0.  1.
         11    1    4    4    0    0  0.34537383230E-02  0.26596242127E-03  0.21198970220E-01  0.21486193330E-01  0.51100000000E-03 0. -1.
</event>
<event>
 8    1  0.1010879E+005  0.1043930E+01  0.7957747E-01            NaN
         13   -1    0    0    0    0  0.00000000000E+00  0.00000000000E+00  0.74505805969E-08  0.10566000000E+00  0.10566000000E+00 0.  1.
     999900   -1    0    0    0    0 -0.00000000000E+00 -0.00000000000E+00 -0.74505805969E-08  0.93827000000E+00  0.93827000000E+00 0. -1.
     999902    2    1    2    0    0 -0.52384244727E-02  0.12914252074E-01  0.34430626330E-01  0.10067858615E+01  0.10061004343E+01 0.  0.
     999903    2    3    3    0    0 -0.16730778031E-01  0.11306382812E+00 -0.26559992876E-01  0.11893347092E+00  0.19400750540E-01 0.  0.
         14    1    1    2    0    0  0.52384244727E-02 -0.12914252074E-01 -0.34430626330E-01  0.37144138529E-01  0.00000000000E+00 0. -1.
     999901    1    3    3    0    0  0.11492353558E-01 -0.10014957605E+00  0.60990619206E-01  0.88785239055E+00  0.88000000000E+00 0.  1.
        -11    1    4    4    0    0 -0.17516654935E-01  0.53139759152E-01 -0.11191426046E-01  0.57062915636E-01  0.51100000000E-03 0.  1.
         11    1    4    4    0    0  0.78587690409E-03  0.59924068967E-01 -0.15368566830E-01  0.61870555287E-01  0.51100000000E-03 0. -1.
</event>
<event>
 8    1  0.1010879E+005  0.1043930E+01  0.7957747E-01            NaN
         13   -1    0    0    0    0  0.00000000000E+00  0.00000000000E+00  0.74505805969E-08  0.10566000000E+00  0.10566000000E+00 0.  1.
     999900   -1    0    0    0    0 -0.00000000000E+00 -0.00000000000E+00 -0.74505805969E-08  0.93827000000E+00  0.93827000000E+00 0. -1.
     999902    2    1    2    0    0  0.20841251314E-01 -0.95387031821E-02  0.50218920970E-02  0.10204658994E+01  0.10201961027E+01 0.  0.
     999903    2    3    3    0    0 -0.42355432137E-01  0.64930911355E-01  0.10220233353E+00  0.12974507759E+00  0.19454107476E-01 0.  0.
         14    1    1    2    0    0 -0.20841251314E-01  0.95387031821E-02 -0.50218920970E-02  0.23464100557E-01  0.00000000000E+00 0.  1.
     999901    1    3    3    0    0  0.63196683451E-01 -0.74469614537E-01 -0.97180441437E-01  0.89072082186E+00  0.88000000000E+00 0. -1.
        -11    1    4    4    0    0 -0.81398437523E-02  0.50986489200E-02  0.57842846942E-02  0.11223740355E-01  0.51100000000E-03 0.  1.
         11    1    4    4    0    0 -0.34215588385E-01  0.59832262435E-01  0.96418048839E-01  0.11852133723E+00  0.51100000000E-03 0. -1.
</event>
<event>
 8    1  0.1010879E+005  0.1043930E+01  0.7957747E-01            NaN
         13   -1    0    0    0    0  0.00000000000E+00  0.00000000000E+00  0.74505805969E-08  0.10566000000E+00  0.10566000000E+00 0.  1.
     999900   -1    0    0    0    0 -0.00000000000E+00 -0.00000000000E+00 -0.74505805969E-08  0.93827000000E+00  0.93827000000E+00 0. -1.
     999902    2    1    2    0    0  0.92777330132E-02 -0.15296771823E-01 -0.16609986421E-01  0.10195177243E+01  0.10192254073E+01 0.  0.
     999903    2    3    3    0    0  0.32264800949E-01  0.90542806246E-01 -0.85442863287E-01  0.13020991111E+00  0.20374516503E-01 0.  0.
         14    1    1    2    0    0 -0.92777330132E-02  0.15296771823E-01  0.16609986421E-01  0.24412275743E-01  0.00000000000E+00 0.  1.
     999901    1    3    3    0    0 -0.22987067935E-01 -0.10583957807E+00  0.68832876866E-01  0.88930781314E+00  0.88000000000E+00 0.  1.
        -11    1    4    4    0    0  0.24518197346E-01  0.40704384491E-01 -0.46494999750E-01  0.66483344084E-01  0.51100000000E-03 0. -1.
         11    1    4    4    0    0  0.77466036025E-02  0.49838421755E-01 -0.38947863537E-01  0.63726567030E-01  0.51100000000E-03 0.  1.
</event>
<event>
 8    1  0.1010879E+005  0.1043930E+01  0.7957747E-01            NaN
         13   -1    0    0    0    0  0.00000000000E+00  0.00000000000E+00  0.74505805969E-08  0.10566000000E+00  0.10566000000E+00 0. -1.
     999900   -1    0    0    0    0 -0.00000000000E+00 -0.00000000000E+00 -0.74505805969E-08  0.93827000000E+00  0.93827000000E+00 0. -1.
     999902    2    1    2    0    0  0.27043599575E-02 -0.86660136358E-02  0.22309073597E-01  0.10198445662E+01  0.10195601165E+01 0.  0.
     999903    2    3    3    0    0 -0.17446100585E-01 -0.12328044159E+00  0.39330175009E-01  0.13202013198E+00  0.19494072918E-01 0.  0.
         14    1    1    2    0    0 -0.27043599575E-02  0.86660136358E-02 -0.22309073597E-01  0.24085433770E-01  0.00000000000E+00 0.  1.
     999901    1    3    3    0    0  0.20150460542E-01  0.11461442795E+00 -0.17021101412E-01  0.88782443425E+00  0.88000000000E+00 0. -1.
        -11    1    4    4    0    0 -0.13304675472E-01 -0.65941609379E-01  0.11883199809E-01  0.68313847759E-01  0.51100000000E-03 0. -1.
         11    1    4    4    0    0 -0.41414251129E-02 -0.57338832208E-01  0.27446975201E-01  0.63706284223E-01  0.51100000000E-03 0.  1.
</event>
<event>
 8    1  0.1010879E+005  0.1043930E+01  0.7957747E-01            NaN
         13   -1    0    0    0    0  0.00000000000E+00  0.00000000000E+00  0.74505805969E-08  0.10566000000E+00  0.10566000000E+00 0.  1.
     999900   -1    0    0    0    0 -0.00000000000E+00 -0.00000000000E+00 -0.74505805969E-08  0.93827000000E+00  0.93827000000E+00 0.  1.
     999902    2    1    2    0    0  0.64250341253E-02 -0.16589017250E-01  0.15680015226E-01  0.10202163028E+01  0.10199406674E+01 0.  0.
     999903    2    3    3    0    0  0.26783238344E-01 -0.12641946215E+00 -0.21390927093E-01  0.13238104902E+00  0.19181973646E-01 0.  0.
         14    1    1    2    0    0 -0.64250341253E-02  0.16589017250E-01 -0.15680015226E-01  0.23713697188E-01  0.00000000000E+00 0. -1.
     999901    1    3    3    0    0 -0.20358204219E-01  0.10983044490E+00  0.37070942320E-01  0.88783525379E+00  0.88000000000E+00 0.  1.
        -11    1    4    4    0    0  0.17432805710E-01 -0.40791340071E-01 -0.10176358172E-01  0.45515442724E-01  0.51100000000E-03 0. -1.
         11    1    4    4    0    0  0.93504326340E-02 -0.85628122076E-01 -0.11214568921E-01  0.86865606299E-01  0.51100000000E-03 0.  1.
</event>
<event>
 8    1  0.1010879E+005  0.1043930E+01  0.7957747E-01            NaN
         13   -1    0    0    0    0  0.00000000000E+00  0.00000000000E+00  0.74505805969E-08  0.10566000000E+00  0.10566000000E+00 0.  1.
     999900   -1    0    0    0    0 -0.00000000000E+00 -0.00000000000E+00 -0.74505805969E-08  0.93827000000E+00  0.93827000000E+00 0. -1.
     999902    2    1    2    0    0 -0.21438009758E-01  0.91713409470E-02 -0.42402003145E-02  0.10202301887E+01  0.10199548798E+01 0.  0.
     999903    2    3    3    0    0  0.13327323037E-02 -0.25189930898E-01 -0.12644365386E+00  0.13082989200E+00  0.22184549709E-01 0.  0.
         14    1    1    2    0    0  0.21438009758E-01 -0.91713409470E-02  0.42402003145E-02  0.23699811304E-01  0.00000000000E+00 0. -1.
     999901    1    3    3    0    0 -0.22770742061E-01  0.34361271845E-01  0.12220345355E+00  0.88940029669E+00  0.88000000000E+00 0.  1.
        -11    1    4    4    0    0  0.30954712158E-02 -0.14566858846E-01 -0.27300178756E-01  0.31102028869E-01  0.51100000000E-03 0. -1.
         11    1    4    4    0    0 -0.17627389121E-02 -0.10623072052E-01 -0.99143475107E-01  0.99727863135E-01  0.51100000000E-03 0.  1.
</event>
<event>
 8    1  0.1010879E+005  0.1043930E+01  0.7957747E-01            NaN
         13   -1    0    0    0    0  0.00000000000E+00  0.00000000000E+00  0.74505805969E-08  0.10566000000E+00  0.10566000000E+00 0.  1.
     999900   -1    0    0    0    0 -0.00000000000E+00 -0.00000000000E+00 -0.74505805969E-08  0.93827000000E+00  0.93827000000E+00 0. -1.
     999902    2    1    2    0    0 -0.60469660911E-02 -0.70663314556E-02 -0.21430461224E-01  0.10205684181E+01  0.10203010010E+01 0.  0.
     999903    2    3    3    0    0  0.55755460486E-02  0.11569256393E+00  0.52928190384E-01  0.12886553137E+00  0.19725003811E-01 0.  0.
         14    1    1    2    0    0  0.60469660911E-02  0.70663314556E-02  0.21430461224E-01  0.23361581869E-01  0.00000000000E+00 0.  1.
     999901    1    3    3    0    0 -0.11622512140E-01 -0.12275889539E+00 -0.74358651608E-01  0.89170288676E+00  0.88000000000E+00 0. -1.
        -11    1    4    4    0    0  0.69855231322E-02  0.10505893196E+00  0.53513589260E-01  0.11811071956E+00  0.51100000000E-03 0.  1.
         11    1    4    4    0    0 -0.14099770836E-02  0.10633631973E-01 -0.58539887595E-03  0.10754811814E-01  0.51100000000E-03 0. -1.
</event>
<event>
 8    1  0.1010879E+005  0.1043930E+01  0.7957747E-01            NaN
         13   -1    0    0    0    0  0.00000000000E+00  0.00000000000E+00  0.74505805969E-08  0.10566000000E+00  0.10566000000E+00 0. -1.
     999900   -1    0    0    0    0 -0.00000000000E+00 -0.00000000000E+00 -0.74505805969E-08  0.93827000000E+00  0.93827000000E+00 0. -1.
     999902    2    1    2    0    0 -0.18653472423E-01 -0.79040166937E-02 -0.15565570712E-01  0.10183817612E+01  0.10180612452E+01 0.  0.
     999903    2    3    3    0    0 -0.76072916522E-01  0.97318050626E-01 -0.35932564434E-01  0.13002176074E+00  0.18884318196E-01 0.  0.
         14    1    1    2    0    0  0.18653472423E-01  0.79040166937E-02  0.15565570712E-01  0.25548238783E-01  0.00000000000E+00 0. -1.
     999901    1    3    3    0    0  0.57419444099E-01 -0.10522206732E+00  0.20366993722E-01  0.88836000048E+00  0.88000000000E+00 0. -1.
        -11    1    4    4    0    0 -0.49614923236E-02  0.14142229224E-01 -0.83639744410E-02  0.17170796224E-01  0.51100000000E-03 0.  1.
         11    1    4    4    0    0 -0.71111424198E-01  0.83175821402E-01 -0.27568589993E-01  0.11285096452E+00  0.51100000000E-03 0. -1.
</event>
<event>
 8    1  0.1010879E+005  0.1043930E+01  0.7957747E-01            NaN
         13   -1    0    0    0    0  0.00000000000E+00  0.00000000000E+00  0.74505805969E-08  0.10566000000E+00  0.10566000000E+00 0.  1.
     999900   -1    0    0    0    0 -0.00000000000E+00 -0.00000000000E+00 -0.74505805969E-08  0.93827000000E+00  0.93827000000E+00 0. -1.
     999902    2    1    2    0    0 -0.34878751515E-02 -0.23609615745E-01  0.50360659384E-02  0.10195385837E+01  0.10192467721E+01 0.  0.
     999903    2    3    3    0    0 -0.10346939348E+00 -0.28142100818E-01  0.72907829122E-01  0.13126867897E+00  0.20445569347E-01 0.  0.
         14    1    1    2    0    0  0.34878751515E-02  0.23609615745E-01 -0.50360659384E-02  0.24391416294E-01  0.00000000000E+00 0.  1.
     999901    1    3    3    0    0  0.99981518324E-01  0.45324850733E-02 -0.67871763183E-01  0.88826990474E+00  0.88000000000E+00 0.  1.
        -11    1    4    4    0    0 -0.38674493323E-01 -0.20639873293E-01  0.26705964848E-01  0.51334106428E-01  0.51100000000E-03 0. -1.
         11    1    4    4    0    0 -0.64794900153E-01 -0.75022275255E-02  0.46201864274E-01  0.79934572539E-01  0.51100000000E-03 0.  1.
</event>
<event>
 8    1  0.1010879E+005  0.1043930E+01  0.7957747E-01            NaN
         13   -1    0    0    0    0  0.00000000000E+00  0.00000000000E+00  0.74505805969E-08  0.10566000000E+00  0.10566000000E+00 0. -1.
     999900   -1    0    0    0    0 -0.00000000000E+00 -0.00000000000E+00 -0.74505805969E-08  0.93827000000E+00  0.93827000000E+00 0.  1.
     999902    2    1    2    0    0  0.33185563935E-02  0.20675919825E-01  0.12063595247E-01  0.10197631465E+01  0.10194767472E+01 0.  0.
     999903    2    3    3    0    0  0.30170101083E-01 -0.44123939847E-02  0.12632427435E+00  0.13161567468E+00  0.20860472445E-01 0.  0.
         14    1    1    2    0    0 -0.33185563935E-02 -0.20675919825E-01 -0.12063595247E-01  0.24166853486E-01  0.00000000000E+00 0.  1.
     999901    1    3    3    0    0 -0.26851544689E-01  0.25088313810E-01 -0.11426067910E+00  0.88814747184E+00  0.88000000000E+00 0.  1.
        -11    1    4    4    0    0  0.16865199242E-01 -0.33546234478E-02  0.10537966786E+00  0.10677464101E+00  0.51100000000E-03 0. -1.
         11    1    4    4    0    0  0.13304901841E-01 -0.10577705369E-02  0.20944606486E-01  0.24841033662E-01  0.51100000000E-03 0.  1.
</event>
<event>
 8    1  0.1010879E+005  0.1043930E+01  0.7957747E-01            NaN
         13   -1    0    0    0    0  0.00000000000E+00  0.00000000000E+00  0.74505805969E-08  0.10566000000E+00  0.10566000000E+00 0.  1.
     999900   -1    0    0    0    0 -0.00000000000E+00 -0.00000000000E+00 -0.74505805969E-08  0.93827000000E+00  0.93827000000E+00 0. -1.
     999902    2    1    2    0    0 -0.18565753927E-01 -0.10817745108E-01  0.18614176276E-03  0.10224417363E+01  0.10222159061E+01 0.  0.
     999903    2    3    3    0    0 -0.10053314865E+00 -0.17935870743E-01 -0.84800320878E-01  0.13452731455E+00  0.21860798327E-01 0.  0.
         14    1    1    2    0    0  0.18565753927E-01  0.10817745108E-01 -0.18614176276E-03  0.21488263700E-01  0.00000000000E+00 0.  1.
     999901    1    3    3    0    0  0.81967394724E-01  0.71181256350E-02  0.84986462640E-01  0.88791442174E+00  0.88000000000E+00 0.  1.
        -11    1    4    4    0    0 -0.73179317283E-01 -0.90139441896E-02 -0.48718290669E-01  0.88375316885E-01  0.51100000000E-03 0.  1.
         11    1    4    4    0    0 -0.27353831368E-01 -0.89219265534E-02 -0.36082030209E-01  0.46151997670E-01  0.51100000000E-03 0. -1.
</event>
<event>
 8    1  0.1010879E+005  0.1043930E+01  0.7957747E-01            NaN
         13   -1    0    0    0    0  0.00000000000E+00  0.00000000000E+00  0.74505805969E-08  0.10566000000E+00  0.10566000000E+00 0.  1.
     999900   -1    0    0    0    0 -0.00000000000E+00 -0.00000000000E+00 -0.74505805969E-08  0.93827000000E+00  0.93827000000E+00 0.  1.
     999902    2    1    2    0    0  0.12376558931E-01  0.12983749970E-03  0.19992905468E-01  0.10204159119E+01  0.10201449510E+01 0.  0.
     999903    2    3    3    0    0  0.10101631132E+00  0.82576562083E-01 -0.26238663860E-02  0.13184065543E+00  0.18758731067E-01 0.  0.
         14    1    1    2    0    0 -0.12376558931E-01 -0.12983749970E-03 -0.19992905468E-01  0.23514088071E-01  0.00000000000E+00 0. -1.
     999901    1    3    3    0    0 -0.88639752386E-01 -0.82446724584E-01  0.22616771854E-01  0.88857525650E+00  0.88000000000E+00 0. -1.
        -11    1    4    4    0    0  0.35944676282E-02  0.32931267874E-02 -0.38415935111E-02  0.62276675628E-02  0.51100000000E-03 0.  1.
         11    1    4    4    0    0  0.97421843689E-01  0.79283435296E-01  0.12177271250E-02  0.12561298786E+00  0.51100000000E-03 0. -1.
</event>
<event>
 8    1  0.1010879E+005  0.1043930E+01  0.7957747E-01            NaN
         13   -1    0    0    0    0  0.00000000000E+00  0.00000000000E+00  0.74505805969E-08  0.10566000000E+00  0.10566000000E+00 0. -1.
     999900   -1    0    0    0    0 -0.00000000000E+00 -0.00000000000E+00 -0.74505805969E-08  0.93827000000E+00  0.93827000000E+00 0.  1.
     999902    2    1    2    0    0 -0.12678687749E-02  0.37300003368E-02  0.23148858451E-01  0.10204483041E+01  0.10201780979E+01 0.  0.
     999903    2    3    3    0    0 -0.31676901938E-01 -0.76591399059E-01  0.10225024878E+00  0.13273592590E+00  0.17147714792E-01 0.  0.
         14    1    1    2    0    0  0.12678687749E-02 -0.37300003368E-02 -0.23148858451E-01  0.23481695879E-01  0.00000000000E+00 0.  1.
     999901    1    3    3    0    0  0.30409033163E-01  0.80321399395E-01 -0.79101390328E-01  0.88771237822E+00  0.88000000000E+00 0.  1.
        -11    1    4    4    0    0 -0.30912617957E-01 -0.60357191526E-01  0.75993800665E-01  0.10185234106E+00  0.51100000000E-03 0.  1.
         11    1    4    4    0    0 -0.76428398064E-03 -0.16234207532E-01  0.26256448113E-01  0.30883584843E-01  0.51100000000E-03 0. -1.
</event>
<event>
 8    1  0.1010879E+005  0.1043930E+01  0.7957747E-01            NaN
         13   -1    0    0    0    0  0.00000000000E+00  0.00000000000E+00  0.74505805969E-08  0.10566000000E+00  0.10566000000E+00 0.  1.
     999900   -1    0    0    0    0 -0.00000000000E+00 -0.00000000000E+00 -0.74505805969E-08  0.93827000000E+00  0.93827000000E+00 0. -1.
     999902    2    1    2    0    0  0.20586478954E-01  0.67976304570E-02 -0.37569496813E-02  0.10219271464E+01  0.10216902500E+01 0.  0.
     999903    2    3    3    0    0  0.24119677111E-01 -0.93028919445E-01 -0.88523342904E-01  0.13222879023E+00  0.20296109227E-01 0.  0.
         14    1    1    2    0    0 -0.20586478954E-01 -0.67976304570E-02  0.37569496813E-02  0.22002853599E-01  0.00000000000E+00 0. -1.
     999901    1    3    3    0    0 -0.35331981562E-02  0.99826549902E-01  0.84766393222E-01  0.88969835617E+00  0.88000000000E+00 0.  1.
        -11    1    4    4    0    0  0.16200464763E-01 -0.75656468193E-01 -0.80060500663E-01  0.11133867758E+00  0.51100000000E-03 0.  1.
         11    1    4    4    0    0  0.79192123472E-02 -0.17372451252E-01 -0.84628422407E-02  0.20890112649E-01  0.51100000000E-03 0. -1.
</event>
<event>
 8    1  0.1010879E+005  0.1043930E+01  0.7957747E-01            NaN
         13   -1    0    0    0    0  0.00000000000E+00  0.00000000000E+00  0.74505805969E-08  0.10566000000E+00  0.10566000000E+00 0.  1.
     999900   -1    0    0    0    0 -0.00000000000E+00 -0.00000000000E+00 -0.74505805969E-08  0.93827000000E+00  0.93827000000E+00 0.  1.
     999902    2    1    2    0    0 -0.14859612508E-01  0.18005171710E-01  0.29883556288E-02  0.10203943980E+01  0.10201229352E+01 0.  0.
     999903    2    3    3    0    0  0.68310964482E-01  0.10894495657E+00 -0.18372299793E-01  0.13155039203E+00  0.20798384853E-01 0.  0.
         14    1    1    2    0    0  0.14859612508E-01 -0.18005171710E-01 -0.29883556288E-02  0.23535602001E-01  0.00000000000E+00 0.  1.
     999901    1    3    3    0    0 -0.83170576990E-01 -0.90939784863E-01  0.21360655422E-01  0.88884400597E+00  0.88000000000E+00 0. -1.
        -11    1    4    4    0    0  0.50369625557E-01  0.79461356911E-01 -0.40194876270E-02  0.94168061585E-01  0.51100000000E-03 0. -1.
         11    1    4    4    0    0  0.17941338925E-01  0.29483599662E-01 -0.14352812166E-01  0.37382330445E-01  0.51100000000E-03 0.  1.
</event>
<event>
 8    1  0.1010879E+005  0.1043930E+01  0.7957747E-01            NaN
         13   -1    0    0    0    0  0.00000000000E+00  0.00000000000E+00  0.74505805969E-08  0.10566000000E+00  0.10566000000E+00 0. -1.
     999900   -1    0    0    0    0 -0.00000000000E+00 -0.00000000000E+00 -0.74505805969E-08  0.93827000000E+00  0.93827000000E+00 0. -1.
     999902    2    1    2    0    0 -0.24310025224E-01  0.41615647521E-02  0.16730711047E-02  0.10192096619E+01  0.10189098291E+01 0.  0.
     999903    2    3    3    0    0 -0.57437022879E-01 -0.93723831853E-01  0.67818997667E-01  0.13069729148E+00  0.19979922429E-01 0.  0.
         14    1    1    2    0    0  0.24310025224E-01 -0.41615647521E-02 -0.16730711047E-02  0.24720338074E-01  0.00000000000E+00 0. -1.
     999901    1    3    3    0    0  0.33126997655E-01  0.97885396605E-01 -0.66145926562E-01  0.88851237045E+00  0.88000000000E+00 0. -1.
        -11    1    4    4    0    0 -0.21172226195E-01 -0.47353515025E-01  0.40430739093E-01  0.65768718490E-01  0.51100000000E-03 0.  1.
         11    1    4    4    0    0 -0.36264796684E-01 -0.46370316828E-01  0.27388258574E-01  0.64928572986E-01  0.51100000000E-03 0. -1.
</event>
<event>
 8    1  0.1010879E+005  0.1043930E+01  0.7957747E-01            NaN
         13   -1    0    0    0    0  0.00000000000E+00  0.00000000000E+00  0.74505805969E-08  0.10566000000E+00  0.10566000000E+00 0. -1.
     999900   -1    0    0    0    0 -0.00000000000E+00 -0.00000000000E+00 -0.74505805969E-08  0.93827000000E+00  0.93827000000E+00 0.  1.
     999902    2    1    2    0    0 -0.46403541089E-02  0.13775167053E-01 -0.17335072352E-01  0.10213071609E+01  0.10210565725E+01 0.  0.
     999903    2    3    3    0    0 -0.10775898809E+00  0.11626391093E-01 -0.75133781297E-01  0.13340020598E+00  0.20083759079E-01 0.  0.
         14    1    1    2    0    0  0.46403541089E-02 -0.13775167053E-01  0.17335072352E-01  0.22622839058E-01  0.00000000000E+00 0. -1.
     999901    1    3    3    0    0  0.10311863399E+00  0.21487759604E-02  0.57798708944E-01  0.88790695496E+00  0.88000000000E+00 0. -1.
        -11    1    4    4    0    0 -0.10302968047E+00  0.71536036494E-02 -0.67622919889E-01  0.12344800330E+00  0.51100000000E-03 0. -1.
         11    1    4    4    0    0 -0.47293076202E-02  0.44727874437E-02 -0.75108614075E-02  0.99522026791E-02  0.51100000000E-03 0.  1.
</event>
<event>
 7    1  0.1010879E+005  0.1043930E+01  0.7957747E-01            NaN
         13   -1    0    0    0    0  0.00000000000E+00  0.00000000000E+00  0.74505805969E-08  0.10566000000E+00  0.10566000000E+00 0. -1.
     999900   -1    0    0    0    0 -0.00000000000E+00 -0.00000000000E+00 -0.74505805969E-08  0.93827000000E+00  0.93827000000E+00 0. -1.
     999903    2    1    2    0    0  0.64816498474E-01  0.65209725612E-01 -0.28501898495E-01  0.98055941710E-01  0.18684825341E-01 0.  0.
         14    1    1    2    0    0 -0.12445684241E-01 -0.39563821500E-01  0.48374374114E-01  0.63720256581E-01  0.00000000000E+00 0. -1.
     999901    1    1    2    0    0 -0.52370814233E-01 -0.25645904112E-01 -0.19872475619E-01  0.88215380171E+00  0.88000000000E+00 0.  1.
        -11    1    3    3    0    0  0.33979281561E-01  0.39367326057E-01 -0.24894665414E-01  0.57657466328E-01  0.51100000000E-03 0.  1.
         11    1    3    3    0    0  0.30837216914E-01  0.25842399555E-01 -0.36072330810E-02  0.40398475383E-01  0.51100000000E-03 0. -1.
</event>
<event>
 7    1  0.1015988E+005  0.1043930E+01  0.7957747E-01            NaN
         13   -1    0    0    0    0  0.00000000000E+00  0.00000000000E+00  0.74505805969E-08  0.10566000000E+00  0.10566000000E+00 0.  1.
     999900   -1    0    0    0    0 -0.00000000000E+00 -0.00000000000E+00 -0.74505805969E-08  0.93827000000E+00  0.93827000000E+00 0. -1.
     999902    2    1    2    0    0  0.19878250301E-01  0.10150613315E-01 -0.90064491573E-02  0.10198614331E+01  0.10195773864E+01 0.  0.
         14    1    1    2    0    0 -0.19878250301E-01 -0.10150613315E-01  0.90064491573E-02  0.24068566890E-01  0.00000000000E+00 0.  1.
     999901    1    3    3    0    0 -0.53700551844E-01  0.11253583926E-01  0.95897202706E-01  0.88690848790E+00  0.88000000000E+00 0.  1.
        -11    1    3    3    0    0  0.36557372076E-01  0.16393370864E-01 -0.60333562218E-01  0.72426403419E-01  0.51100000000E-03 0. -1.
         11    1    3    3    0    0  0.37021430069E-01 -0.17496341474E-01 -0.44570089645E-01  0.60526541792E-01  0.51100000000E-03 0.  1.
</event>
<event>
 8    1  0.1010879E+005  0.1043930E+01  0.7957747E-01            NaN
         13   -1    0    0    0    0  0.00000000000E+00  0.00000000000E+00  0.74505805969E-08  0.10566000000E+00  0.10566000000E+00 0. -1.
     999900   -1    0    0    0    0 -0.00000000000E+00 -0.00000000000E+00 -0.74505805969E-08  0.93827000000E+00  0.93827000000E+00 0.  1.
     999902    2    1    2    0    0 -0.50310864759E-03  0.22758556633E-01 -0.89825448232E-03  0.10211481678E+01  0.10208940046E+01 0.  0.
     999903    2    3    3    0    0  0.97343065228E-01  0.39561458692E-01  0.77717613661E-01  0.13208311617E+00  0.19108656233E-01 0.  0.
         14    1    1    2    0    0  0.50310864759E-03 -0.22758556633E-01  0.89825448232E-03  0.22781832223E-01  0.00000000000E+00 0. -1.
     999901    1    3    3    0    0 -0.97846173875E-01 -0.16802902059E-01 -0.78615868143E-01  0.88906505160E+00  0.88000000000E+00 0.  1.
        -11    1    4    4    0    0  0.48955494097E-01  0.21349262946E-01  0.51149800818E-01  0.73952651578E-01  0.51100000000E-03 0. -1.
         11    1    4    4    0    0  0.48387571130E-01  0.18212195747E-01  0.26567812843E-01  0.58130464595E-01  0.51100000000E-03 0.  1.
</event>
<event>
 8    1  0.1010879E+005  0.1043930E+01  0.7957747E-01            NaN
         13   -1    0    0    0    0  0.00000000000E+00  0.00000000000E+00  0.74505805969E-08  0.10566000000E+00  0.10566000000E+00 0.  1.
     999900   -1    0    0    0    0 -0.00000000000E+00 -0.00000000000E+00 -0.74505805969E-08  0.93827000000E+00  0.93827000000E+00 0. -1.
     999902    2    1    2    0    0 -0.58372679521E-03 -0.91881518949E-02  0.21416119897E-01  0.10206187782E+01  0.10203525260E+01 0.  0.
     999903    2    3    3    0    0  0.31038081093E-01  0.67097647155E-01  0.10815014975E+00  0.13250715578E+00  0.19905645169E-01 0.  0.
         14    1    1    2    0    0  0.58372679521E-03  0.91881518949E-02 -0.21416119897E-01  0.23311221839E-01  0.00000000000E+00 0. -1.
     999901    1    3    3    0    0 -0.31621807888E-01 -0.76285799050E-01 -0.86734029857E-01  0.88811162238E+00  0.88000000000E+00 0. -1.
        -11    1    4    4    0    0  0.93727161731E-02  0.13380293849E-01  0.39100658617E-01  0.42379272024E-01  0.51100000000E-03 0. -1.
         11    1    4    4    0    0  0.21665364920E-01  0.53717353306E-01  0.69049491137E-01  0.90127883757E-01  0.51100000000E-03 0.  1.
</event>
<event>
 8    1  0.1010879E+005  0.1043930E+01  0.7957747E-01            NaN
         13   -1    0    0    0    0  0.00000000000E+00  0.00000000000E+00  0.74505805969E-08  0.10566000000E+00  0.10566000000E+00 0. -1.
     999900   -1    0    0    0    0 -0.00000000000E+00 -0.00000000000E+00 -0.74505805969E-08  0.93827000000E+00  0.93827000000E+00 0.  1.
     999902    2    1    2    0    0  0.91971529444E-02  0.18707863782E-01  0.10587303526E-01  0.10205491791E+01  0.10202813162E+01 0.  0.
     999903    2    3    3    0    0  0.14722443360E-01 -0.12504279743E+00 -0.14814889837E-01  0.12850654960E+00  0.21023815116E-01 0.  0.
         14    1    1    2    0    0 -0.91971529444E-02 -0.18707863782E-01 -0.10587303526E-01  0.23380820891E-01  0.00000000000E+00 0. -1.
     999901    1    3    3    0    0 -0.55252904158E-02  0.14375066121E+00  0.25402193363E-01  0.89204262951E+00  0.88000000000E+00 0. -1.
        -11    1    4    4    0    0  0.19721001799E-01 -0.92135530439E-01 -0.13556767967E-01  0.95194122507E-01  0.51100000000E-03 0. -1.
         11    1    4    4    0    0 -0.49985584385E-02 -0.32907266990E-01 -0.12581218704E-02  0.33312427094E-01  0.51100000000E-03 0.  1.
</event>
<event>
 8    1  0.1010879E+005  0.1043930E+01  0.7957747E-01            NaN
         13   -1    0    0    0    0  0.00000000000E+00  0.00000000000E+00  0.74505805969E-08  0.10566000000E+00  0.10566000000E+00 0. -1.
     999900   -1    0    0    0    0 -0.00000000000E+00 -0.00000000000E+00 -0.74505805969E-08  0.93827000000E+00  0.93827000000E+00 0. -1.
     999902    2    1    2    0    0  0.12555434177E-01  0.83399869281E-02  0.21295095617E-01  0.10178402433E+01  0.10175058159E+01 0.  0.
     999903    2    3    3    0    0  0.10799555489E+00 -0.50825373254E-01 -0.42018036385E-01  0.12844836722E+00  0.22072816273E-01 0.  0.
         14    1    1    2    0    0 -0.12555434177E-01 -0.83399869281E-02 -0.21295095617E-01  0.26089756739E-01  0.00000000000E+00 0.  1.
     999901    1    3    3    0    0 -0.95440120708E-01  0.59165360182E-01  0.63313132002E-01  0.88939187604E+00  0.88000000000E+00 0.  1.
        -11    1    4    4    0    0  0.43091561647E-01 -0.87385665280E-02 -0.13409482466E-01  0.45970866547E-01  0.51100000000E-03 0.  1.
         11    1    4    4    0    0  0.64903993239E-01 -0.42086806726E-01 -0.28608553919E-01  0.82477500672E-01  0.51100000000E-03 0. -1.
</event>
<event>
 8    1  0.1010879E+005  0.1043930E+01  0.7957747E-01            NaN
         13   -1    0    0    0    0  0.00000000000E+00  0.00000000000E+00  0.74505805969E-08  0.10566000000E+00  0.10566000000E+00 0. -1.
     999900   -1    0    0    0    0 -0.00000000000E+00 -0.00000000000E+00 -0.74505805969E-08  0.93827000000E+00  0.93827000000E+00 0.  1.
     999902    2    1    2    0    0  0.14489849546E-01 -0.37383911838E-02  0.16615201704E-01  0.10215694044E+01  0.10213246554E+01 0.  0.
     999903    2    3    3    0    0  0.12172913118E+00  0.17063318133E-01 -0.45720415635E-01  0.13262694066E+00  0.19758815191E-01 0.  0.
         14    1    1    2    0    0 -0.14489849546E-01  0.37383911838E-02 -0.16615201704E-01  0.22360595613E-01  0.00000000000E+00 0.  1.
     999901    1    3    3    0    0 -0.10723928164E+00 -0.20801709316E-01  0.62335617339E-01  0.88894246373E+00  0.88000000000E+00 0. -1.
        -11    1    4    4    0    0  0.92075158479E-01  0.53234505461E-02 -0.29440202922E-01  0.96815084588E-01  0.51100000000E-03 0. -1.
         11    1    4    4    0    0  0.29653972702E-01  0.11739867586E-01 -0.16280212713E-01  0.35811856067E-01  0.51100000000E-03 0.  1.
</event>
<event>
 8    1  0.1010879E+005  0.1043930E+01  0.7957747E-01            NaN
         13   -1    0    0    0    0  0.00000000000E+00  0.00000000000E+00  0.74505805969E-08  0.10566000000E+00  0.10566000000E+00 0.  1.
     999900   -1    0    0    0    0 -0.00000000000E+00 -0.00000000000E+00 -0.74505805969E-08  0.93827000000E+00  0.93827000000E+00 0. -1.
     999902    2    1    2    0    0  0.24666256909E-01  0.23212513362E-01  0.11938104406E-01  0.10080167247E+01  0.10073767686E+01 0.  0.
     999903    2    3    3    0    0  0.16588122943E-01  0.75825030369E-01  0.92803368237E-01  0.12270744309E+00  0.20495130661E-01 0.  0.
         14    1    1    2    0    0 -0.24666256909E-01 -0.23212513362E-01 -0.11938104406E-01  0.35913275307E-01  0.00000000000E+00 0. -1.
     999901    1    3    3    0    0  0.80781339664E-02 -0.52612517007E-01 -0.80865263831E-01  0.88530928160E+00  0.88000000000E+00 0. -1.
        -11    1    4    4    0    0  0.15221550913E-01  0.28589560048E-01  0.30353752214E-01  0.44392228491E-01  0.51100000000E-03 0.  1.
         11    1    4    4    0    0  0.13665720297E-02  0.47235470321E-01  0.62449616023E-01  0.78315214601E-01  0.51100000000E-03 0. -1.
</event>
<event>
 8    1  0.1010879E+005  0.1043930E+01  0.7957747E-01            NaN
         13   -1    0    0    0    0  0.00000000000E+00  0.00000000000E+00  0.74505805969E-08  0.10566000000E+00  0.10566000000E+00 0. -1.
     999900   -1    0    0    0    0 -0.00000000000E+00 -0.00000000000E+00 -0.74505805969E-08  0.93827000000E+00  0.93827000000E+00 0.  1.
     999902    2    1    2    0    0  0.13148894266E-01  0.19636810617E-01  0.16157311200E-02  0.10202422745E+01  0.10199672497E+01 0.  0.
     999903    2    3    3    0    0 -0.11410399024E+00  0.25446552570E-01 -0.51890342192E-01  0.12946174621E+00  0.20012208586E-01 0.  0.
         14    1    1    2    0    0 -0.13148894266E-01 -0.19636810617E-01 -0.16157311200E-02  0.23687725486E-01  0.00000000000E+00 0. -1.
     999901    1    3    3    0    0  0.12725288451E+00 -0.58097419525E-02  0.53506073312E-01  0.89078052830E+00  0.88000000000E+00 0. -1.
        -11    1    4    4    0    0 -0.99980836159E-02 -0.15383874257E-02 -0.94200949867E-02  0.13832122846E-01  0.51100000000E-03 0.  1.
         11    1    4    4    0    0 -0.10410590663E+00  0.26984939995E-01 -0.42470247205E-01  0.11562962337E+00  0.51100000000E-03 0. -1.
</event>
<event>
 7    1  0.1010879E+005  0.1043930E+01  0.7957747E-01            NaN
         13   -1    0    0    0    0  0.00000000000E+00  0.00000000000E+00  0.74505805969E-08  0.10566000000E+00  0.10566000000E+00 0. -1.
     999900   -1    0    0    0    0 -0.00000000000E+00 -0.00000000000E+00 -0.74505805969E-08  0.93827000000E+00  0.93827000000E+00 0. -1.
     999903    2    1    2    0    0  0.31193950947E-01 -0.80867644393E-01  0.55260140873E-01  0.10548927878E+00  0.23699499642E-01 0.  0.
         14    1    1    2    0    0  0.83708325717E-02 -0.17208062968E-01 -0.48439736296E-01  0.52082591348E-01  0.00000000000E+00 0.  1.
     999901    1    1    2    0    0 -0.39564783518E-01  0.98075707361E-01 -0.68204045770E-02  0.88635812987E+00  0.88000000000E+00 0. -1.
        -11    1    3    3    0    0  0.32053459978E-02  0.91460926924E-03  0.27323851425E-02  0.43402537538E-02  0.51100000000E-03 0. -1.
         11    1    3    3    0    0  0.27988604949E-01 -0.81782253662E-01  0.52527755730E-01  0.10114902503E+00  0.51100000000E-03 0.  1.
</event>
<event>
 8    1  0.1010879E+005  0.1043930E+01  0.7957747E-01            NaN
         13   -1    0    0    0    0  0.00000000000E+00  0.00000000000E+00  0.74505805969E-08  0.10566000000E+00  0.10566000000E+00 0.  1.
     999900   -1    0    0    0    0 -0.00000000000E+00 -0.00000000000E+00 -0.74505805969E-08  0.93827000000E+00  0.93827000000E+00 0. -1.
     999902    2    1    2    0    0  0.13793355797E-01  0.13030919841E-01  0.13303650357E-01  0.10207556899E+01  0.10204925917E+01 0.  0.
     999903    2    3    3    0    0  0.11083561393E+00 -0.37568495055E-01 -0.55965024644E-01  0.13127513924E+00  0.20128414339E-01 0.  0.
         14    1    1    2    0    0 -0.13793355797E-01 -0.13030919841E-01 -0.13303650357E-01  0.23174310105E-01  0.00000000000E+00 0. -1.
     999901    1    3    3    0    0 -0.97042258134E-01  0.50599414895E-01  0.69268675001E-01  0.88948055065E+00  0.88000000000E+00 0. -1.
        -11    1    4    4    0    0  0.62608595017E-01 -0.27137236922E-01 -0.41443379585E-01  0.79837839589E-01  0.51100000000E-03 0.  1.
         11    1    4    4    0    0  0.48227018913E-01 -0.10431258133E-01 -0.14521645059E-01  0.51437299654E-01  0.51100000000E-03 0. -1.
</event>
<event>
 8    1  0.1010879E+005  0.1043930E+01  0.7957747E-01            NaN
         13   -1    0    0    0    0  0.00000000000E+00  0.00000000000E+00  0.74505805969E-08  0.10566000000E+00  0.10566000000E+00 0.  1.
     999900   -1    0    0    0    0 -0.00000000000E+00 -0.00000000000E+00 -0.74505805969E-08  0.93827000000E+00  0.93827000000E+00 0. -1.
     999902    2    1    2    0    0  0.11104609098E-01  0.26935751661E-01  0.78352862634E-03  0.10147844861E+01  0.10143658572E+01 0.  0.
     999903    2    3    3    0    0  0.89031713155E-01  0.80785912061E-01 -0.41273362823E-01  0.12870251734E+00  0.20194998303E-01 0.  0.
         14    1    1    2    0    0 -0.11104609098E-01 -0.26935751661E-01 -0.78352862634E-03  0.29145513855E-01  0.00000000000E+00 0. -1.
     999901    1    3    3    0    0 -0.77927104057E-01 -0.53850160400E-01  0.42056891449E-01  0.88608196880E+00  0.88000000000E+00 0.  1.
        -11    1    4    4    0    0  0.45341365090E-01  0.38545949800E-01 -0.30877419551E-01  0.67047041645E-01  0.51100000000E-03 0. -1.
         11    1    4    4    0    0  0.43690348065E-01  0.42239962260E-01 -0.10395943272E-01  0.61655475696E-01  0.51100000000E-03 0.  1.
</event>
<event>
 8    1  0.1010879E+005  0.1043930E+01  0.7957747E-01            NaN
         13   -1    0    0    0    0  0.00000000000E+00  0.00000000000E+00  0.74505805969E-08  0.10566000000E+00  0.10566000000E+00 0.  1.
     999900   -1    0    0    0    0 -0.00000000000E+00 -0.00000000000E+00 -0.74505805969E-08  0.93827000000E+00  0.93827000000E+00 0.  1.
     999902    2    1    2    0    0 -0.75244138734E-02 -0.12235385318E-01  0.20601199129E-01  0.10188156443E+01  0.10185060560E+01 0.  0.
     999903    2    3    3    0    0 -0.78727001969E-02  0.10726642233E+00 -0.59133755533E-01  0.12716634868E+00  0.33262808454E-01 0.  0.
         14    1    1    2    0    0  0.75244138734E-02  0.12235385318E-01 -0.20601199129E-01  0.25114355727E-01  0.00000000000E+00 0. -1.
     999901    1    3    3    0    0  0.34828632346E-03 -0.11950180765E+00  0.79734954662E-01  0.89164929559E+00  0.88000000000E+00 0. -1.
        -11    1    4    4    0    0  0.69922738681E-02  0.68404938669E-01 -0.24399552898E-01  0.72963873463E-01  0.51100000000E-03 0.  1.
         11    1    4    4    0    0 -0.14864974065E-01  0.38861483659E-01 -0.34734202635E-01  0.54202475218E-01  0.51100000000E-03 0. -1.
</event>
