<event>
 8    1  0.1213322E+005  0.1043930E+01  0.7957747E-01            NaN
         13   -1    0    0    0    0  0.00000000000E+00  0.00000000000E+00  0.74505805969E-08  0.10566000000E+00  0.10566000000E+00 0. -1.
     999900   -1    0    0    0    0 -0.00000000000E+00 -0.00000000000E+00 -0.74505805969E-08  0.93827000000E+00  0.93827000000E+00 0.  1.
     999902    2    1    2    0    0  0.88513181605E-02  0.21102132365E-01  0.12700962714E-01  0.10177582542E+01  0.10174216942E+01 0.  0.
     999903    2    3    3    0    0  0.87323013494E-01  0.73430097731E-01 -0.58786529363E-01  0.12983568752E+00  0.19600045416E-01 0.  0.
         14    1    1    2    0    0 -0.88513181605E-02 -0.21102132365E-01 -0.12700962714E-01  0.26171745784E-01  0.00000000000E+00 0.  1.
     999901    1    3    3    0    0 -0.78471695334E-01 -0.52327965366E-01  0.71487492077E-01  0.88792256670E+00  0.88000000000E+00 0. -1.
        -11    1    4    4    0    0  0.42190565563E-01  0.26828270973E-01 -0.33602947947E-01  0.60243001068E-01  0.51100000000E-03 0. -1.
         11    1    4    4    0    0  0.45132447931E-01  0.46601826758E-01 -0.25183581415E-01  0.69592686450E-01  0.51100000000E-03 0.  1.
</event>
<event>
 8    1  0.1213322E+005  0.1043930E+01  0.7957747E-01            NaN
         13   -1    0    0    0    0  0.00000000000E+00  0.00000000000E+00  0.74505805969E-08  0.10566000000E+00  0.10566000000E+00 0.  1.
     999900   -1    0    0    0    0 -0.00000000000E+00 -0.00000000000E+00 -0.74505805969E-08  0.93827000000E+00  0.93827000000E+00 0.  1.
     999902    2    1    2    0    0 -0.20337248343E-02  0.11706280314E-01  0.19776143225E-01  0.10208590469E+01  0.10205983171E+01 0.  0.
     999903    2    3    3    0    0  0.86922644142E-01  0.53587290275E-01  0.82654724005E-01  0.13315359436E+00  0.21700980304E-01 0.  0.
         14    1    1    2    0    0  0.20337248343E-02 -0.11706280314E-01 -0.19776143225E-01  0.23070953087E-01  0.00000000000E+00 0.  1.
     999901    1    3    3    0    0 -0.88956368977E-01 -0.41881009961E-01 -0.62878580780E-01  0.88770545256E+00  0.88000000000E+00 0.  1.
        -11    1    4    4    0    0  0.18961134727E-01  0.21132677115E-01  0.16086594794E-01  0.32636702120E-01  0.51100000000E-03 0.  1.
         11    1    4    4    0    0  0.67961509416E-01  0.32454613159E-01  0.66568129211E-01  0.10051689224E+00  0.51100000000E-03 0. -1.
</event>
<event>
 8    1  0.1213322E+005  0.1043930E+01  0.7957747E-01            NaN
         13   -1    0    0    0    0  0.00000000000E+00  0.00000000000E+00  0.74505805969E-08  0.10566000000E+00  0.10566000000E+00 0.  1.
     999900   -1    0    0    0    0 -0.00000000000E+00 -0.00000000000E+00 -0.74505805969E-08  0.93827000000E+00  0.93827000000E+00 0.  1.
     999902    2    1    2    0    0 -0.89452262704E-02 -0.55635213722E-02  0.21470686888E-01  0.10200143098E+01  0.10197339025E+01 0.  0.
     999903    2    3    3    0    0 -0.11368548692E+00  0.27760792500E-01  0.58560551085E-01  0.13240139295E+00  0.20142968413E-01 0.  0.
         14    1    1    2    0    0  0.89452262704E-02  0.55635213722E-02 -0.21470686888E-01  0.23915690216E-01  0.00000000000E+00 0. -1.
     999901    1    3    3    0    0  0.10474026065E+00 -0.33324313872E-01 -0.37089864198E-01  0.88761291683E+00  0.88000000000E+00 0.  1.
        -11    1    4    4    0    0 -0.53560999597E-01  0.34098499646E-02  0.22658664628E-01  0.58258767223E-01  0.51100000000E-03 0. -1.
         11    1    4    4    0    0 -0.60124487322E-01  0.24350942535E-01  0.35901886458E-01  0.74142625731E-01  0.51100000000E-03 0.  1.
</event>
<event>
 8    1  0.1213322E+005  0.1043930E+01  0.7957747E-01            NaN
         13   -1    0    0    0    0  0.00000000000E+00  0.00000000000E+00  0.74505805969E-08  0.10566000000E+00  0.10566000000E+00 0.  1.
     999900   -1    0    0    0    0 -0.00000000000E+00 -0.00000000000E+00 -0.74505805969E-08  0.93827000000E+00  0.93827000000E+00 0. -1.
     999902    2    1    2    0    0 -0.10696751787E-01  0.11913419497E-01  0.17368040601E-01  0.10203079997E+01  0.10200345168E+01 0.  0.
     999903    2    3    3    0    0 -0.10951667193E+00  0.41236741763E-01 -0.56616267454E-01  0.13120794254E+00  0.17769415924E-01 0.  0.
         14    1    1    2    0    0  0.10696751787E-01 -0.11913419497E-01 -0.17368040601E-01  0.23622000280E-01  0.00000000000E+00 0. -1.
     999901    1    3    3    0    0  0.98819920144E-01 -0.29323322266E-01  0.73984308055E-01  0.88910005718E+00  0.88000000000E+00 0.  1.
        -11    1    4    4    0    0 -0.82938042114E-01  0.22833003056E-01 -0.40519905030E-01  0.95090423719E-01  0.51100000000E-03 0. -1.
         11    1    4    4    0    0 -0.26578629816E-01  0.18403738706E-01 -0.16096362423E-01  0.36117518818E-01  0.51100000000E-03 0.  1.
</event>
<event>
 8    1  0.1213322E+005  0.1043930E+01  0.7957747E-01            NaN
         13   -1    0    0    0    0  0.00000000000E+00  0.00000000000E+00  0.74505805969E-08  0.10566000000E+00  0.10566000000E+00 0. -1.
     999900   -1    0    0    0    0 -0.00000000000E+00 -0.00000000000E+00 -0.74505805969E-08  0.93827000000E+00  0.93827000000E+00 0.  1.
     999902    2    1    2    0    0  0.11052727495E-02 -0.21751688110E-01 -0.81866681821E-02  0.10206624453E+01  0.10203972012E+01 0.  0.
     999903    2    3    3    0    0  0.12600941870E-01 -0.50888880537E-02  0.12769737360E+00  0.13000298623E+00  0.20235530316E-01 0.  0.
         14    1    1    2    0    0 -0.11052727495E-02  0.21751688110E-01  0.81866681821E-02  0.23267554650E-01  0.00000000000E+00 0.  1.
     999901    1    3    3    0    0 -0.11495669120E-01 -0.16662800056E-01 -0.13588404178E+00  0.89065945912E+00  0.88000000000E+00 0.  1.
        -11    1    4    4    0    0  0.15373356454E-01 -0.10201461796E-01  0.92299417101E-01  0.94126794430E-01  0.51100000000E-03 0. -1.
         11    1    4    4    0    0 -0.27724145841E-02  0.51125737425E-02  0.35397956494E-01  0.35876191797E-01  0.51100000000E-03 0.  1.
</event>
<event>
 8    1  0.1213322E+005  0.1043930E+01  0.7957747E-01            NaN
         13   -1    0    0    0    0  0.00000000000E+00  0.00000000000E+00  0.74505805969E-08  0.10566000000E+00  0.10566000000E+00 0. -1.
     999900   -1    0    0    0    0 -0.00000000000E+00 -0.00000000000E+00 -0.74505805969E-08  0.93827000000E+00  0.93827000000E+00 0.  1.
     999902    2    1    2    0    0 -0.16307266236E-02  0.24401024085E-01 -0.10436132931E-01  0.10173408647E+01  0.10169933396E+01 0.  0.
     999903    2    3    3    0    0  0.42899912596E-02  0.74730199891E-01 -0.10586008262E+00  0.13073282784E+00  0.16784170580E-01 0.  0.
         14    1    1    2    0    0  0.16307266236E-02 -0.24401024085E-01  0.10436132931E-01  0.26589135305E-01  0.00000000000E+00 0. -1.
     999901    1    3    3    0    0 -0.59207178832E-02 -0.50329175806E-01  0.95423949691E-01  0.88660803685E+00  0.88000000000E+00 0. -1.
        -11    1    4    4    0    0  0.10480107238E-01  0.56059676572E-01 -0.78274658540E-01  0.96848868221E-01  0.51100000000E-03 0. -1.
         11    1    4    4    0    0 -0.61901159785E-02  0.18670523319E-01 -0.27585424081E-01  0.33883959621E-01  0.51100000000E-03 0.  1.
</event>
<event>
 8    1  0.1213322E+005  0.1043930E+01  0.7957747E-01            NaN
         13   -1    0    0    0    0  0.00000000000E+00  0.00000000000E+00  0.74505805969E-08  0.10566000000E+00  0.10566000000E+00 0. -1.
     999900   -1    0    0    0    0 -0.00000000000E+00 -0.00000000000E+00 -0.74505805969E-08  0.93827000000E+00  0.93827000000E+00 0.  1.
     999902    2    1    2    0    0 -0.41315372536E-02  0.11467661458E-01 -0.20136275975E-01  0.10203918083E+01  0.10201202850E+01 0.  0.
     999903    2    3    3    0    0  0.67769809217E-01 -0.56928545433E-01  0.90486238709E-01  0.12793162121E+00  0.18577781999E-01 0.  0.
         14    1    1    2    0    0  0.41315372536E-02 -0.11467661458E-01  0.20136275975E-01  0.23538191722E-01  0.00000000000E+00 0. -1.
     999901    1    3    3    0    0 -0.71901346470E-01  0.68396206891E-01 -0.11062251468E+00  0.89246018707E+00  0.88000000000E+00 0.  1.
        -11    1    4    4    0    0  0.16552464264E-01 -0.17817743898E-01  0.36496188872E-01  0.43859879093E-01  0.51100000000E-03 0.  1.
         11    1    4    4    0    0  0.51217344952E-01 -0.39110801535E-01  0.53990049837E-01  0.84071742120E-01  0.51100000000E-03 0. -1.
</event>
<event>
 8    1  0.1213322E+005  0.1043930E+01  0.7957747E-01            NaN
         13   -1    0    0    0    0  0.00000000000E+00  0.00000000000E+00  0.74505805969E-08  0.10566000000E+00  0.10566000000E+00 0.  1.
     999900   -1    0    0    0    0 -0.00000000000E+00 -0.00000000000E+00 -0.74505805969E-08  0.93827000000E+00  0.93827000000E+00 0. -1.
     999902    2    1    2    0    0  0.75524418821E-02  0.22102901241E-01 -0.58289454660E-02  0.10198560675E+01  0.10195718926E+01 0.  0.
     999903    2    3    3    0    0 -0.10005178166E+00 -0.76704106484E-01 -0.14852057726E-02  0.12780205467E+00  0.20911249993E-01 0.  0.
         14    1    1    2    0    0 -0.75524418821E-02 -0.22102901241E-01  0.58289454660E-02  0.24073932519E-01  0.00000000000E+00 0.  1.
     999901    1    3    3    0    0  0.10760422354E+00  0.98807007725E-01 -0.43437396934E-02  0.89205401281E+00  0.88000000000E+00 0. -1.
        -11    1    4    4    0    0 -0.33776857453E-01 -0.36088626052E-01  0.55986082462E-02  0.49748070967E-01  0.51100000000E-03 0.  1.
         11    1    4    4    0    0 -0.66274924209E-01 -0.40615480432E-01 -0.70838140188E-02  0.78053983702E-01  0.51100000000E-03 0. -1.
</event>
<event>
 8    1  0.1213322E+005  0.1043930E+01  0.7957747E-01            NaN
         13   -1    0    0    0    0  0.00000000000E+00  0.00000000000E+00  0.74505805969E-08  0.10566000000E+00  0.10566000000E+00 0.  1.
     999900   -1    0    0    0    0 -0.00000000000E+00 -0.00000000000E+00 -0.74505805969E-08  0.93827000000E+00  0.93827000000E+00 0. -1.
     999902    2    1    2    0    0 -0.72169231135E-02 -0.12916897781E-01 -0.19500961647E-01  0.10194510757E+01  0.10191571410E+01 0.  0.
     999903    2    3    3    0    0  0.65235856076E-01  0.10393646326E+00  0.28445927980E-01  0.12748525946E+00  0.19616708368E-01 0.  0.
         14    1    1    2    0    0  0.72169231135E-02  0.12916897781E-01  0.19500961647E-01  0.24478924255E-01  0.00000000000E+00 0.  1.
     999901    1    3    3    0    0 -0.72452779190E-01 -0.11685336104E+00 -0.47946889627E-01  0.89196581629E+00  0.88000000000E+00 0. -1.
        -11    1    4    4    0    0  0.32252936122E-01  0.45379134601E-01  0.22370741190E-01  0.60001907703E-01  0.51100000000E-03 0. -1.
         11    1    4    4    0    0  0.32982919955E-01  0.58557328661E-01  0.60751867893E-02  0.67483351755E-01  0.51100000000E-03 0.  1.
</event>
<event>
 8    1  0.1213322E+005  0.1043930E+01  0.7957747E-01            NaN
         13   -1    0    0    0    0  0.00000000000E+00  0.00000000000E+00  0.74505805969E-08  0.10566000000E+00  0.10566000000E+00 0. -1.
     999900   -1    0    0    0    0 -0.00000000000E+00 -0.00000000000E+00 -0.74505805969E-08  0.93827000000E+00  0.93827000000E+00 0. -1.
     999902    2    1    2    0    0 -0.15706589370E-01  0.17233530671E-01 -0.50531275711E-02  0.10200715502E+01  0.10197924994E+01 0.  0.
     999903    2    3    3    0    0 -0.10699206228E+00  0.22056664621E-01 -0.72308870058E-01  0.13278375298E+00  0.21659975103E-01 0.  0.
         14    1    1    2    0    0  0.15706589370E-01 -0.17233530671E-01  0.50531275711E-02  0.23858449809E-01  0.00000000000E+00 0.  1.
     999901    1    3    3    0    0  0.91285472908E-01 -0.48231339502E-02  0.67255742487E-01  0.88728779721E+00  0.88000000000E+00 0. -1.
        -11    1    4    4    0    0 -0.97250785437E-01  0.25397826945E-01 -0.61451665214E-01  0.11781058170E+00  0.51100000000E-03 0. -1.
         11    1    4    4    0    0 -0.97412768408E-02 -0.33411623239E-02 -0.10857204844E-01  0.14973171280E-01  0.51100000000E-03 0.  1.
</event>
<event>
 8    1  0.1213322E+005  0.1043930E+01  0.7957747E-01            NaN
         13   -1    0    0    0    0  0.00000000000E+00  0.00000000000E+00  0.74505805969E-08  0.10566000000E+00  0.10566000000E+00 0. -1.
     999900   -1    0    0    0    0 -0.00000000000E+00 -0.00000000000E+00 -0.74505805969E-08  0.93827000000E+00  0.93827000000E+00 0.  1.
     999902    2    1    2    0    0  0.42637159688E-02 -0.19926146482E-01  0.10719121685E-01  0.10209054445E+01  0.10206457742E+01 0.  0.
     999903    2    3    3    0    0  0.11534844168E+00  0.29232503614E-01  0.53119800798E-01  0.13154938150E+00  0.17992339199E-01 0.  0.
         14    1    1    2    0    0 -0.42637159688E-02  0.19926146482E-01 -0.10719121685E-01  0.23024555526E-01  0.00000000000E+00 0. -1.
     999901    1    3    3    0    0 -0.11108472571E+00 -0.49158650096E-01 -0.42400679113E-01  0.88935606298E+00  0.88000000000E+00 0. -1.
        -11    1    4    4    0    0  0.10542214215E+00  0.28424250240E-01  0.53456431177E-01  0.12157144900E+00  0.51100000000E-03 0.  1.
         11    1    4    4    0    0  0.99262995284E-02  0.80825337449E-03 -0.33663037857E-03  0.99779324941E-02  0.51100000000E-03 0. -1.
</event>
<event>
 8    1  0.1213322E+005  0.1043930E+01  0.7957747E-01            NaN
         13   -1    0    0    0    0  0.00000000000E+00  0.00000000000E+00  0.74505805969E-08  0.10566000000E+00  0.10566000000E+00 0.  1.
     999900   -1    0    0    0    0 -0.00000000000E+00 -0.00000000000E+00 -0.74505805969E-08  0.93827000000E+00  0.93827000000E+00 0. -1.
     999902    2    1    2    0    0  0.17549396885E-01 -0.30868828128E-02  0.15021748274E-01  0.10206241403E+01  0.10203580120E+01 0.  0.
     999903    2    3    3    0    0 -0.44491042385E-01  0.11321627532E+00 -0.38116167988E-01  0.12922126904E+00  0.21164032225E-01 0.  0.
         14    1    1    2    0    0 -0.17549396885E-01  0.30868828128E-02 -0.15021748274E-01  0.23305859730E-01  0.00000000000E+00 0. -1.
     999901    1    3    3    0    0  0.62040439270E-01 -0.11630315813E+00  0.53137916263E-01  0.89140287123E+00  0.88000000000E+00 0.  1.
        -11    1    4    4    0    0 -0.38591131619E-01  0.11007546944E+00 -0.37323773179E-01  0.12247126021E+00  0.51100000000E-03 0. -1.
         11    1    4    4    0    0 -0.58999107660E-02  0.31408058741E-02 -0.79239480962E-03  0.67500088237E-02  0.51100000000E-03 0.  1.
</event>
<event>
 8    1  0.1213322E+005  0.1043930E+01  0.7957747E-01            NaN
         13   -1    0    0    0    0  0.00000000000E+00  0.00000000000E+00  0.74505805969E-08  0.10566000000E+00  0.10566000000E+00 0.  1.
     999900   -1    0    0    0    0 -0.00000000000E+00 -0.00000000000E+00 -0.74505805969E-08  0.93827000000E+00  0.93827000000E+00 0.  1.
     999902    2    1    2    0    0 -0.98511889633E-02 -0.13229797956E-01  0.17777442837E-01  0.10196790010E+01  0.10193905798E+01 0.  0.
     999903    2    3    3    0    0 -0.88185092867E-01 -0.95221625718E-01 -0.16655041577E-01  0.13173505216E+00  0.15263189384E-01 0.  0.
         14    1    1    2    0    0  0.98511889633E-02  0.13229797956E-01 -0.17777442837E-01  0.24250998984E-01  0.00000000000E+00 0.  1.
     999901    1    3    3    0    0  0.78333903904E-01  0.81991827762E-01  0.34432484414E-01  0.88794394885E+00  0.88000000000E+00 0. -1.
        -11    1    4    4    0    0 -0.79251025152E-01 -0.87918561173E-01 -0.11006118525E-01  0.11887722302E+00  0.51100000000E-03 0. -1.
         11    1    4    4    0    0 -0.89340677151E-02 -0.73030645446E-02 -0.56489230526E-02  0.12857829145E-01  0.51100000000E-03 0.  1.
</event>
<event>
 8    1  0.1213322E+005  0.1043930E+01  0.7957747E-01            NaN
         13   -1    0    0    0    0  0.00000000000E+00  0.00000000000E+00  0.74505805969E-08  0.10566000000E+00  0.10566000000E+00 0.  1.
     999900   -1    0    0    0    0 -0.00000000000E+00 -0.00000000000E+00 -0.74505805969E-08  0.93827000000E+00  0.93827000000E+00 0. -1.
     999902    2    1    2    0    0  0.18473410111E-01 -0.71929788360E-02 -0.10488471592E-01  0.10215020295E+01  0.10212557869E+01 0.  0.
     999903    2    3    3    0    0 -0.72663259026E-01 -0.10341619831E+00  0.26707732436E-01  0.13080098085E+00  0.20511809599E-01 0.  0.
         14    1    1    2    0    0 -0.18473410111E-01  0.71929788360E-02  0.10488471592E-01  0.22427970528E-01  0.00000000000E+00 0.  1.
     999901    1    3    3    0    0  0.91136669137E-01  0.96223219477E-01 -0.37196204028E-01  0.89070104863E+00  0.88000000000E+00 0. -1.
        -11    1    4    4    0    0 -0.59265986570E-01 -0.92697590086E-01  0.17778503900E-01  0.11145239654E+00  0.51100000000E-03 0.  1.
         11    1    4    4    0    0 -0.13397272456E-01 -0.10718608227E-01  0.89292285357E-02  0.19348584310E-01  0.51100000000E-03 0. -1.
</event>
<event>
 8    1  0.1213322E+005  0.1043930E+01  0.7957747E-01            NaN
         13   -1    0    0    0    0  0.00000000000E+00  0.00000000000E+00  0.74505805969E-08  0.10566000000E+00  0.10566000000E+00 0.  1.
     999900   -1    0    0    0    0 -0.00000000000E+00 -0.00000000000E+00 -0.74505805969E-08  0.93827000000E+00  0.93827000000E+00 0. -1.
     999902    2    1    2    0    0 -0.22316454511E-01 -0.33472151322E-02 -0.72945550913E-02  0.10202142136E+01  0.10199385291E+01 0.  0.
     999903    2    3    3    0    0 -0.38007771350E-01  0.10104981169E+00 -0.72291864910E-01  0.13152438754E+00  0.20418022924E-01 0.  0.
         14    1    1    2    0    0  0.22316454511E-01  0.33472151322E-02  0.72945550913E-02  0.23715786411E-01  0.00000000000E+00 0. -1.
     999901    1    3    3    0    0  0.15691316839E-01 -0.10439702683E+00  0.64997309819E-01  0.88868982605E+00  0.88000000000E+00 0.  1.
        -11    1    4    4    0    0 -0.34253657380E-01  0.95977775344E-01 -0.61543247230E-01  0.11904990048E+00  0.51100000000E-03 0. -1.
         11    1    4    4    0    0 -0.37541139697E-02  0.50720363494E-02 -0.10748617680E-01  0.12474487062E-01  0.51100000000E-03 0.  1.
</event>
<event>
 8    1  0.1213322E+005  0.1043930E+01  0.7957747E-01            NaN
         13   -1    0    0    0    0  0.00000000000E+00  0.00000000000E+00  0.74505805969E-08  0.10566000000E+00  0.10566000000E+00 0.  1.
     999900   -1    0    0    0    0 -0.00000000000E+00 -0.00000000000E+00 -0.74505805969E-08  0.93827000000E+00  0.93827000000E+00 0.  1.
     999902    2    1    2    0    0 -0.66025901231E-02  0.22525764627E-01 -0.10562294387E-02  0.10204327685E+01  0.10201622004E+01 0.  0.
     999903    2    3    3    0    0 -0.70492613176E-02 -0.10135029104E+00 -0.76152324372E-01  0.12858922831E+00  0.20357788448E-01 0.  0.
         14    1    1    2    0    0  0.66025901231E-02 -0.22525764627E-01  0.10562294387E-02  0.23497231518E-01  0.00000000000E+00 0.  1.
     999901    1    3    3    0    0  0.44667119450E-03  0.12387605566E+00  0.75096094934E-01  0.89184354018E+00  0.88000000000E+00 0. -1.
        -11    1    4    4    0    0 -0.81011978093E-03 -0.20447904155E-01 -0.60190218927E-02  0.21336888807E-01  0.51100000000E-03 0. -1.
         11    1    4    4    0    0 -0.62391415367E-02 -0.80902386881E-01 -0.70133302480E-01  0.10725233950E+00  0.51100000000E-03 0.  1.
</event>
<event>
 8    1  0.1213322E+005  0.1043930E+01  0.7957747E-01            NaN
         13   -1    0    0    0    0  0.00000000000E+00  0.00000000000E+00  0.74505805969E-08  0.10566000000E+00  0.10566000000E+00 0. -1.
     999900   -1    0    0    0    0 -0.00000000000E+00 -0.00000000000E+00 -0.74505805969E-08  0.93827000000E+00  0.93827000000E+00 0.  1.
     999902    2    1    2    0    0  0.13107283153E-02 -0.30596793943E-02  0.22976566794E-01  0.10207135776E+01  0.10204495114E+01 0.  0.
     999903    2    3    3    0    0  0.66194351052E-01  0.74574089588E-01 -0.79393179978E-01  0.12902055216E+00  0.20000972582E-01 0.  0.
         14    1    1    2    0    0 -0.13107283153E-02  0.30596793943E-02 -0.22976566794E-01  0.23216422385E-01  0.00000000000E+00 0.  1.
     999901    1    3    3    0    0 -0.64883622737E-01 -0.77633768982E-01  0.10236974677E+00  0.89169302545E+00  0.88000000000E+00 0. -1.
        -11    1    4    4    0    0  0.26115277369E-01  0.44078294718E-01 -0.37179944173E-01  0.63304921981E-01  0.51100000000E-03 0. -1.
         11    1    4    4    0    0  0.40079073683E-01  0.30495794870E-01 -0.42213235805E-01  0.65715630181E-01  0.51100000000E-03 0.  1.
</event>
<event>
 8    1  0.1213322E+005  0.1043930E+01  0.7957747E-01            NaN
         13   -1    0    0    0    0  0.00000000000E+00  0.00000000000E+00  0.74505805969E-08  0.10566000000E+00  0.10566000000E+00 0.  1.
     999900   -1    0    0    0    0 -0.00000000000E+00 -0.00000000000E+00 -0.74505805969E-08  0.93827000000E+00  0.93827000000E+00 0.  1.
     999902    2    1    2    0    0  0.14869028996E-01 -0.13559168637E-01  0.82735212813E-02  0.10221724672E+01  0.10219408802E+01 0.  0.
     999903    2    3    3    0    0  0.32069922519E-01 -0.11964756480E+00 -0.46615216001E-01  0.13393635448E+00  0.20541397088E-01 0.  0.
         14    1    1    2    0    0 -0.14869028996E-01  0.13559168637E-01 -0.82735212813E-02  0.21757532760E-01  0.00000000000E+00 0. -1.
     999901    1    3    3    0    0 -0.17200893523E-01  0.10608839616E+00  0.54888737283E-01  0.88823611276E+00  0.88000000000E+00 0. -1.
        -11    1    4    4    0    0  0.27254193837E-01 -0.86036871311E-01 -0.42408534815E-01  0.99719001463E-01  0.51100000000E-03 0.  1.
         11    1    4    4    0    0  0.48157286826E-02 -0.33610693489E-01 -0.42066811866E-02  0.34217353012E-01  0.51100000000E-03 0. -1.
</event>
<event>
 8    1  0.1213322E+005  0.1043930E+01  0.7957747E-01            NaN
         13   -1    0    0    0    0  0.00000000000E+00  0.00000000000E+00  0.74505805969E-08  0.10566000000E+00  0.10566000000E+00 0.  1.
     999900   -1    0    0    0    0 -0.00000000000E+00 -0.00000000000E+00 -0.74505805969E-08  0.93827000000E+00  0.93827000000E+00 0. -1.
     999902    2    1    2    0    0 -0.17820460480E-01 -0.38480176481E-02 -0.98052909949E-02  0.10232292806E+01  0.10230198634E+01 0.  0.
     999903    2    3    3    0    0 -0.13246067120E+00  0.17588138000E-01 -0.11313579224E-01  0.13553329571E+00  0.19649558765E-01 0.  0.
         14    1    1    2    0    0  0.17820460480E-01  0.38480176481E-02  0.98052909949E-02  0.20700719385E-01  0.00000000000E+00 0.  1.
     999901    1    3    3    0    0  0.11464021072E+00 -0.21436155648E-01  0.15082882288E-02  0.88769598490E+00  0.88000000000E+00 0.  1.
        -11    1    4    4    0    0 -0.61627802582E-01  0.89520567267E-03 -0.11804199482E-01  0.62756574880E-01  0.51100000000E-03 0.  1.
         11    1    4    4    0    0 -0.70832868614E-01  0.16692932327E-01  0.49062025818E-03  0.72776720831E-01  0.51100000000E-03 0. -1.
</event>
<event>
 8    1  0.1213322E+005  0.1043930E+01  0.7957747E-01            NaN
         13   -1    0    0    0    0  0.00000000000E+00  0.00000000000E+00  0.74505805969E-08  0.10566000000E+00  0.10566000000E+00 0. -1.
     999900   -1    0    0    0    0 -0.00000000000E+00 -0.00000000000E+00 -0.74505805969E-08  0.93827000000E+00  0.93827000000E+00 0. -1.
     999902    2    1    2    0    0 -0.52066455592E-02  0.87389319097E-02  0.21574441724E-01  0.10200776495E+01  0.10197987431E+01 0.  0.
     999903    2    3    3    0    0  0.11155398317E+00 -0.39482329897E-01 -0.45965979443E-01  0.12849476327E+00  0.19871773650E-01 0.  0.
         14    1    1    2    0    0  0.52066455592E-02 -0.87389319097E-02 -0.21574441724E-01  0.23852350505E-01  0.00000000000E+00 0.  1.
     999901    1    3    3    0    0 -0.11676062873E+00  0.48221261807E-01  0.67540421168E-01  0.89158288622E+00  0.88000000000E+00 0.  1.
        -11    1    4    4    0    0  0.53082605760E-01 -0.10624669971E-01 -0.27509453757E-01  0.60726253081E-01  0.51100000000E-03 0. -1.
         11    1    4    4    0    0  0.58471377408E-01 -0.28857659926E-01 -0.18456525687E-01  0.67768510193E-01  0.51100000000E-03 0.  1.
</event>
<event>
 8    1  0.1213322E+005  0.1043930E+01  0.7957747E-01            NaN
         13   -1    0    0    0    0  0.00000000000E+00  0.00000000000E+00  0.74505805969E-08  0.10566000000E+00  0.10566000000E+00 0. -1.
     999900   -1    0    0    0    0 -0.00000000000E+00 -0.00000000000E+00 -0.74505805969E-08  0.93827000000E+00  0.93827000000E+00 0.  1.
     999902    2    1    2    0    0  0.11208303201E-01 -0.19057913707E-01  0.96579976153E-02  0.10198031052E+01  0.10195176636E+01 0.  0.
     999903    2    3    3    0    0  0.39480061312E-01  0.12028671628E+00  0.65663284946E-02  0.12838525892E+00  0.20299967616E-01 0.  0.
         14    1    1    2    0    0 -0.11208303201E-01  0.19057913707E-01 -0.96579976153E-02  0.24126894815E-01  0.00000000000E+00 0.  1.
     999901    1    3    3    0    0 -0.28271758111E-01 -0.13934462998E+00  0.30916691207E-02  0.89141784626E+00  0.88000000000E+00 0. -1.
        -11    1    4    4    0    0  0.85528123220E-02  0.24148409982E-01  0.95612493838E-02  0.27349130042E-01  0.51100000000E-03 0. -1.
         11    1    4    4    0    0  0.30927248990E-01  0.96138306296E-01 -0.29949208892E-02  0.10103612888E+00  0.51100000000E-03 0.  1.
</event>
<event>
 8    1  0.1213322E+005  0.1043930E+01  0.7957747E-01            NaN
         13   -1    0    0    0    0  0.00000000000E+00  0.00000000000E+00  0.74505805969E-08  0.10566000000E+00  0.10566000000E+00 0.  1.
     999900   -1    0    0    0    0 -0.00000000000E+00 -0.00000000000E+00 -0.74505805969E-08  0.93827000000E+00  0.93827000000E+00 0.  1.
     999902    2    1    2    0    0 -0.21230312937E-01  0.10562789516E-01  0.17778277245E-02  0.10201506102E+01  0.10198734275E+01 0.  0.
     999903    2    3    3    0    0  0.63802298648E-01 -0.10895050893E+00  0.14657812835E-02  0.12801044689E+00  0.21061322120E-01 0.  0.
         14    1    1    2    0    0  0.21230312937E-01 -0.10562789516E-01 -0.17778277245E-02  0.23779389840E-01  0.00000000000E+00 0. -1.
     999901    1    3    3    0    0 -0.85032611585E-01  0.11951329845E+00  0.31204644099E-03  0.89214016327E+00  0.88000000000E+00 0. -1.
        -11    1    4    4    0    0  0.50552377043E-01 -0.83164106973E-01 -0.76252630461E-02  0.97622831709E-01  0.51100000000E-03 0.  1.
         11    1    4    4    0    0  0.13249921605E-01 -0.25786401961E-01  0.90910443296E-02  0.30387615185E-01  0.51100000000E-03 0. -1.
</event>
<event>
 8    1  0.1213322E+005  0.1043930E+01  0.7957747E-01            NaN
         13   -1    0    0    0    0  0.00000000000E+00  0.00000000000E+00  0.74505805969E-08  0.10566000000E+00  0.10566000000E+00 0. -1.
     999900   -1    0    0    0    0 -0.00000000000E+00 -0.00000000000E+00 -0.74505805969E-08  0.93827000000E+00  0.93827000000E+00 0. -1.
     999902    2    1    2    0    0  0.22713786453E-03  0.22515280093E-01  0.80352566781E-02  0.10200227881E+01  0.10197425820E+01 0.  0.
     999903    2    3    3    0    0 -0.39658917509E-01 -0.42881481016E-01  0.11419401102E+00  0.13033895952E+00  0.23158606682E-01 0.  0.
         14    1    1    2    0    0 -0.22713786453E-03 -0.22515280093E-01 -0.80352566781E-02  0.23907211865E-01  0.00000000000E+00 0.  1.
     999901    1    3    3    0    0  0.39886055374E-01  0.65396761109E-01 -0.10615875434E+00  0.88968382862E+00  0.88000000000E+00 0. -1.
        -11    1    4    4    0    0 -0.78414728536E-02 -0.71518520596E-02  0.44843451786E-01  0.46085073217E-01  0.51100000000E-03 0. -1.
         11    1    4    4    0    0 -0.31817444656E-01 -0.35729628956E-01  0.69350559234E-01  0.84253886301E-01  0.51100000000E-03 0.  1.
</event>
<event>
 8    1  0.1213322E+005  0.1043930E+01  0.7957747E-01            NaN
         13   -1    0    0    0    0  0.00000000000E+00  0.00000000000E+00  0.74505805969E-08  0.10566000000E+00  0.10566000000E+00 0.  1.
     999900   -1    0    0    0    0 -0.00000000000E+00 -0.00000000000E+00 -0.74505805969E-08  0.93827000000E+00  0.93827000000E+00 0. -1.
     999902    2    1    2    0    0  0.20167767563E-01 -0.88100877163E-02 -0.68398006529E-02  0.10208835389E+01  0.10206233687E+01 0.  0.
     999903    2    3    3    0    0 -0.98857962405E-02  0.70767367921E-01 -0.10794819099E+00  0.13101911403E+00  0.20185315783E-01 0.  0.
         14    1    1    2    0    0 -0.20167767563E-01  0.88100877163E-02  0.68398006529E-02  0.23046461052E-01  0.00000000000E+00 0.  1.
     999901    1    3    3    0    0  0.30053563804E-01 -0.79577455637E-01  0.10110839033E+00  0.88986442492E+00  0.88000000000E+00 0.  1.
        -11    1    4    4    0    0  0.50373024916E-02  0.78648137465E-02 -0.10350542270E-01  0.13950790585E-01  0.51100000000E-03 0.  1.
         11    1    4    4    0    0 -0.14923098732E-01  0.62902554174E-01 -0.97597648718E-01  0.11706832344E+00  0.51100000000E-03 0. -1.
</event>
<event>
 8    1  0.1213322E+005  0.1043930E+01  0.7957747E-01            NaN
         13   -1    0    0    0    0  0.00000000000E+00  0.00000000000E+00  0.74505805969E-08  0.10566000000E+00  0.10566000000E+00 0. -1.
     999900   -1    0    0    0    0 -0.00000000000E+00 -0.00000000000E+00 -0.74505805969E-08  0.93827000000E+00  0.93827000000E+00 0. -1.
     999902    2    1    2    0    0 -0.17347631546E-02  0.65615880370E-02  0.20602803476E-01  0.10222380810E+01  0.10220079035E+01 0.  0.
     999903    2    3    3    0    0  0.10854029224E+00  0.41144482937E-01  0.63000622180E-01  0.13366949075E+00  0.20605602345E-01 0.  0.
         14    1    1    2    0    0  0.17347631546E-02 -0.65615880370E-02 -0.20602803476E-01  0.21691919045E-01  0.00000000000E+00 0.  1.
     999901    1    3    3    0    0 -0.11027505539E+00 -0.34582894900E-01 -0.42397818703E-01  0.88856859020E+00  0.88000000000E+00 0.  1.
        -11    1    4    4    0    0  0.44218237417E-01  0.26700941641E-01  0.32497109127E-01  0.61028813092E-01  0.51100000000E-03 0.  1.
         11    1    4    4    0    0  0.64322054821E-01  0.14443541296E-01  0.30503513052E-01  0.72640677661E-01  0.51100000000E-03 0. -1.
</event>
<event>
 8    1  0.1213322E+005  0.1043930E+01  0.7957747E-01            NaN
         13   -1    0    0    0    0  0.00000000000E+00  0.00000000000E+00  0.74505805969E-08  0.10566000000E+00  0.10566000000E+00 0. -1.
     999900   -1    0    0    0    0 -0.00000000000E+00 -0.00000000000E+00 -0.74505805969E-08  0.93827000000E+00  0.93827000000E+00 0.  1.
     999902    2    1    2    0    0 -0.15929248690E-01  0.15263201722E-01 -0.83091480143E-03  0.10218529370E+01  0.10216144225E+01 0.  0.
     999903    2    3    3    0    0 -0.15536879763E-01 -0.12189565640E+00  0.38764879932E-01  0.13034829133E+00  0.19698107926E-01 0.  0.
         14    1    1    2    0    0  0.15929248690E-01 -0.15263201722E-01  0.83091480143E-03  0.22077062985E-01  0.00000000000E+00 0.  1.
     999901    1    3    3    0    0 -0.39236892691E-03  0.13715885812E+00 -0.39595794734E-01  0.89150464568E+00  0.88000000000E+00 0. -1.
        -11    1    4    4    0    0  0.20282646493E-02 -0.61861293658E-01  0.19491505253E-01  0.64893092148E-01  0.51100000000E-03 0. -1.
         11    1    4    4    0    0 -0.17565144412E-01 -0.60034362739E-01  0.19273374679E-01  0.65455199184E-01  0.51100000000E-03 0.  1.
</event>
<event>
 8    1  0.1213322E+005  0.1043930E+01  0.7957747E-01            NaN
         13   -1    0    0    0    0  0.00000000000E+00  0.00000000000E+00  0.74505805969E-08  0.10566000000E+00  0.10566000000E+00 0. -1.
     999900   -1    0    0    0    0 -0.00000000000E+00 -0.00000000000E+00 -0.74505805969E-08  0.93827000000E+00  0.93827000000E+00 0. -1.
     999902    2    1    2    0    0 -0.17629868350E-01 -0.12245157762E-01 -0.10325825193E-01  0.10201102852E+01  0.10198321505E+01 0.  0.
     999903    2    3    3    0    0  0.15439871085E-01  0.11746543823E+00 -0.47513825370E-01  0.12921108006E+00  0.20035488792E-01 0.  0.
         14    1    1    2    0    0  0.17629868350E-01  0.12245157762E-01  0.10325825193E-01  0.23819714788E-01  0.00000000000E+00 0. -1.
     999901    1    3    3    0    0 -0.33069739435E-01 -0.12971059600E+00  0.37188000177E-01  0.89089920515E+00  0.88000000000E+00 0. -1.
        -11    1    4    4    0    0 -0.21790365002E-02  0.60125331928E-01 -0.24239622147E-01  0.64866201849E-01  0.51100000000E-03 0.  1.
         11    1    4    4    0    0  0.17618907585E-01  0.57340106305E-01 -0.23274203223E-01  0.64344878213E-01  0.51100000000E-03 0. -1.
</event>
<event>
 8    1  0.1213322E+005  0.1043930E+01  0.7957747E-01            NaN
         13   -1    0    0    0    0  0.00000000000E+00  0.00000000000E+00  0.74505805969E-08  0.10566000000E+00  0.10566000000E+00 0.  1.
     999900   -1    0    0    0    0 -0.00000000000E+00 -0.00000000000E+00 -0.74505805969E-08  0.93827000000E+00  0.93827000000E+00 0.  1.
     999902    2    1    2    0    0 -0.10140994809E-01 -0.21528964772E-01 -0.80538140222E-02  0.10188063056E+01  0.10184964842E+01 0.  0.
     999903    2    3    3    0    0  0.12026218138E+00  0.25744463847E-01 -0.26358818039E-01  0.12775364802E+00  0.22370462753E-01 0.  0.
         14    1    1    2    0    0  0.10140994809E-01  0.21528964772E-01  0.80538140222E-02  0.25123694398E-01  0.00000000000E+00 0.  1.
     999901    1    3    3    0    0 -0.13040317619E+00 -0.47273428619E-01  0.18305004017E-01  0.89105265758E+00  0.88000000000E+00 0. -1.
        -11    1    4    4    0    0  0.73302357231E-01  0.16222749481E-01 -0.48636493617E-02  0.75235160546E-01  0.51100000000E-03 0.  1.
         11    1    4    4    0    0  0.46959824153E-01  0.95217143659E-02 -0.21495168677E-01  0.52518487473E-01  0.51100000000E-03 0. -1.
</event>
<event>
 8    1  0.1213322E+005  0.1043930E+01  0.7957747E-01            NaN
         13   -1    0    0    0    0  0.00000000000E+00  0.00000000000E+00  0.74505805969E-08  0.10566000000E+00  0.10566000000E+00 0.  1.
     999900   -1    0    0    0    0 -0.00000000000E+00 -0.00000000000E+00 -0.74505805969E-08  0.93827000000E+00  0.93827000000E+00 0. -1.
     999902    2    1    2    0    0  0.88103003879E-03 -0.31748191243E-02 -0.23469048834E-01  0.10202308029E+01  0.10199555085E+01 0.  0.
     999903    2    3    3    0    0  0.40131556102E-02 -0.41042997701E-01 -0.12546767385E+00  0.13352480389E+00  0.19649503650E-01 0.  0.
         14    1    1    2    0    0 -0.88103003879E-03  0.31748191243E-02  0.23469048834E-01  0.23699197108E-01  0.00000000000E+00 0.  1.
     999901    1    3    3    0    0 -0.31321255714E-02  0.37868178576E-01  0.10199862502E+00  0.88670599900E+00  0.88000000000E+00 0.  1.
        -11    1    4    4    0    0 -0.60393986963E-02 -0.28983935275E-01 -0.89667078703E-01  0.94429809726E-01  0.51100000000E-03 0. -1.
         11    1    4    4    0    0  0.10052554306E-01 -0.12059062425E-01 -0.35800595149E-01  0.39094994164E-01  0.51100000000E-03 0.  1.
</event>
<event>
 8    1  0.1213322E+005  0.1043930E+01  0.7957747E-01            NaN
         13   -1    0    0    0    0  0.00000000000E+00  0.00000000000E+00  0.74505805969E-08  0.10566000000E+00  0.10566000000E+00 0.  1.
     999900   -1    0    0    0    0 -0.00000000000E+00 -0.00000000000E+00 -0.74505805969E-08  0.93827000000E+00  0.93827000000E+00 0.  1.
     999902    2    1    2    0    0  0.91966110353E-02 -0.62039788022E-02  0.12217758736E-01  0.10274272537E+01  0.10272947099E+01 0.  0.
     999903    2    3    3    0    0  0.86602114341E-01 -0.98833146340E-01  0.39826581587E-01  0.13875744902E+00  0.19988897753E-01 0.  0.
         14    1    1    2    0    0 -0.91966110353E-02  0.62039788022E-02 -0.12217758736E-01  0.16502746318E-01  0.00000000000E+00 0. -1.
     999901    1    3    3    0    0 -0.77405503306E-01  0.92629167538E-01 -0.27608822851E-01  0.88866980466E+00  0.88000000000E+00 0. -1.
        -11    1    4    4    0    0  0.37856522875E-01 -0.46736605140E-01  0.28347314870E-01  0.66492540676E-01  0.51100000000E-03 0. -1.
         11    1    4    4    0    0  0.48745591465E-01 -0.52096541200E-01  0.11479266717E-01  0.72264908342E-01  0.51100000000E-03 0.  1.
</event>
<event>
 8    1  0.1213322E+005  0.1043930E+01  0.7957747E-01            NaN
         13   -1    0    0    0    0  0.00000000000E+00  0.00000000000E+00  0.74505805969E-08  0.10566000000E+00  0.10566000000E+00 0. -1.
     999900   -1    0    0    0    0 -0.00000000000E+00 -0.00000000000E+00 -0.74505805969E-08  0.93827000000E+00  0.93827000000E+00 0.  1.
     999902    2    1    2    0    0  0.98317977015E-02 -0.20058295874E-01  0.87158000244E-02  0.10199515795E+01  0.10196696818E+01 0.  0.
     999903    2    3    3    0    0 -0.25740700302E-01  0.11515002818E+00  0.45910168203E-01  0.12813875467E+00  0.19740422072E-01 0.  0.
         14    1    1    2    0    0 -0.98317977015E-02  0.20058295874E-01 -0.87158000244E-02  0.23978420496E-01  0.00000000000E+00 0.  1.
     999901    1    3    3    0    0  0.35572498004E-01 -0.13520832405E+00 -0.37194368179E-01  0.89181282483E+00  0.88000000000E+00 0. -1.
        -11    1    4    4    0    0 -0.66863067329E-03  0.23676166676E-01  0.16368122273E-01  0.28795563602E-01  0.51100000000E-03 0. -1.
         11    1    4    4    0    0 -0.25072069629E-01  0.91473861502E-01  0.29542045930E-01  0.99343191071E-01  0.51100000000E-03 0.  1.
</event>
<event>
 8    1  0.1213322E+005  0.1043930E+01  0.7957747E-01            NaN
         13   -1    0    0    0    0  0.00000000000E+00  0.00000000000E+00  0.74505805969E-08  0.10566000000E+00  0.10566000000E+00 0.  1.
     999900   -1    0    0    0    0 -0.00000000000E+00 -0.00000000000E+00 -0.74505805969E-08  0.93827000000E+00  0.93827000000E+00 0.  1.
     999902    2    1    2    0    0 -0.19765535940E-02 -0.76446589559E-02  0.22364100204E-01  0.10202129059E+01  0.10199371906E+01 0.  0.
     999903    2    3    3    0    0  0.49393715407E-01  0.76797045213E-01 -0.87403117005E-01  0.12790233894E+00  0.19549377685E-01 0.  0.
         14    1    1    2    0    0  0.19765535940E-02  0.76446589559E-02 -0.22364100204E-01  0.23717094101E-01  0.00000000000E+00 0. -1.
     999901    1    3    3    0    0 -0.51370269001E-01 -0.84441704169E-01  0.10976721721E+00  0.89231056696E+00  0.88000000000E+00 0. -1.
        -11    1    4    4    0    0  0.42036826014E-01  0.55481386989E-01 -0.56558187823E-01  0.89690405141E-01  0.51100000000E-03 0. -1.
         11    1    4    4    0    0  0.73568893924E-02  0.21315658225E-01 -0.30844929182E-01  0.38211933795E-01  0.51100000000E-03 0.  1.
</event>
<event>
 8    1  0.1213322E+005  0.1043930E+01  0.7957747E-01            NaN
         13   -1    0    0    0    0  0.00000000000E+00  0.00000000000E+00  0.74505805969E-08  0.10566000000E+00  0.10566000000E+00 0. -1.
     999900   -1    0    0    0    0 -0.00000000000E+00 -0.00000000000E+00 -0.74505805969E-08  0.93827000000E+00  0.93827000000E+00 0.  1.
     999902    2    1    2    0    0  0.10904301787E-01  0.19998232829E-01  0.74330419522E-02  0.10199699661E+01  0.10196885056E+01 0.  0.
     999903    2    3    3    0    0 -0.11786669260E+00 -0.44796741445E-01  0.12798161520E-01  0.12822496765E+00  0.19456210331E-01 0.  0.
         14    1    1    2    0    0 -0.10904301787E-01 -0.19998232829E-01 -0.74330419522E-02  0.23960033940E-01  0.00000000000E+00 0.  1.
     999901    1    3    3    0    0  0.12877099439E+00  0.64794974274E-01 -0.53651195674E-02  0.89174499841E+00  0.88000000000E+00 0.  1.
        -11    1    4    4    0    0 -0.47751865803E-01 -0.12708954194E-01 -0.30203718481E-02  0.49509008993E-01  0.51100000000E-03 0.  1.
         11    1    4    4    0    0 -0.70114826800E-01 -0.32087787250E-01  0.15818533368E-01  0.78715958654E-01  0.51100000000E-03 0. -1.
</event>
<event>
 8    1  0.1213322E+005  0.1043930E+01  0.7957747E-01            NaN
         13   -1    0    0    0    0  0.00000000000E+00  0.00000000000E+00  0.74505805969E-08  0.10566000000E+00  0.10566000000E+00 0.  1.
     999900   -1    0    0    0    0 -0.00000000000E+00 -0.00000000000E+00 -0.74505805969E-08  0.93827000000E+00  0.93827000000E+00 0. -1.
     999902    2    1    2    0    0 -0.85650994409E-02  0.20786128288E-01 -0.62055713809E-02  0.10206076250E+01  0.10203411151E+01 0.  0.
     999903    2    3    3    0    0  0.78628716435E-01  0.10020204111E+00 -0.30069400804E-01  0.13241894515E+00  0.20191188099E-01 0.  0.
         14    1    1    2    0    0  0.85650994409E-02 -0.20786128288E-01  0.62055713809E-02  0.23322374961E-01  0.00000000000E+00 0.  1.
     999901    1    3    3    0    0 -0.87193815876E-01 -0.79415912827E-01  0.23863829423E-01  0.88818867989E+00  0.88000000000E+00 0.  1.
        -11    1    4    4    0    0  0.44568787005E-01  0.66337771526E-01 -0.10724553148E-01  0.80637174227E-01  0.51100000000E-03 0.  1.
         11    1    4    4    0    0  0.34059929430E-01  0.33864269589E-01 -0.19344847656E-01  0.51781770918E-01  0.51100000000E-03 0. -1.
</event>
<event>
 8    1  0.1213322E+005  0.1043930E+01  0.7957747E-01            NaN
         13   -1    0    0    0    0  0.00000000000E+00  0.00000000000E+00  0.74505805969E-08  0.10566000000E+00  0.10566000000E+00 0. -1.
     999900   -1    0    0    0    0 -0.00000000000E+00 -0.00000000000E+00 -0.74505805969E-08  0.93827000000E+00  0.93827000000E+00 0. -1.
     999902    2    1    2    0    0 -0.14984494431E-01 -0.72473926423E-02 -0.16880297078E-01  0.10202233722E+01  0.10199479030E+01 0.  0.
     999903    2    3    3    0    0 -0.11562468282E+00  0.60194043312E-01 -0.21977864117E-02  0.13180209208E+00  0.19353838978E-01 0.  0.
         14    1    1    2    0    0  0.14984494431E-01  0.72473926423E-02  0.16880297078E-01  0.23706627827E-01  0.00000000000E+00 0. -1.
     999901    1    3    3    0    0  0.10064018839E+00 -0.67441435954E-01 -0.14682510666E-01  0.88842128009E+00  0.88000000000E+00 0.  1.
        -11    1    4    4    0    0 -0.31038538522E-01  0.85578266354E-02  0.42992960782E-02  0.32486494702E-01  0.51100000000E-03 0. -1.
         11    1    4    4    0    0 -0.84586144302E-01  0.51636216677E-01 -0.64970824900E-02  0.99315597378E-01  0.51100000000E-03 0.  1.
</event>
<event>
 8    1  0.1213322E+005  0.1043930E+01  0.7957747E-01            NaN
         13   -1    0    0    0    0  0.00000000000E+00  0.00000000000E+00  0.74505805969E-08  0.10566000000E+00  0.10566000000E+00 0. -1.
     999900   -1    0    0    0    0 -0.00000000000E+00 -0.00000000000E+00 -0.74505805969E-08  0.93827000000E+00  0.93827000000E+00 0.  1.
     999902    2    1    2    0    0  0.14562588621E-01 -0.47514792804E-02 -0.17364231396E-01  0.10207748262E+01  0.10205121673E+01 0.  0.
     999903    2    3    3    0    0 -0.20039703845E-01  0.12682932294E+00 -0.11220598039E-01  0.13029822885E+00  0.19090828561E-01 0.  0.
         14    1    1    2    0    0 -0.14562588621E-01  0.47514792804E-02  0.17364231396E-01  0.23155173820E-01  0.00000000000E+00 0. -1.
     999901    1    3    3    0    0  0.34602292466E-01 -0.13158080222E+00 -0.61436333564E-02  0.89047659733E+00  0.88000000000E+00 0.  1.
        -11    1    4    4    0    0 -0.86639953036E-02  0.36403737718E-01  0.49010481723E-02  0.37743586590E-01  0.51100000000E-03 0.  1.
         11    1    4    4    0    0 -0.11375708542E-01  0.90425585218E-01 -0.16121646211E-01  0.92554642263E-01  0.51100000000E-03 0. -1.
</event>
<event>
 8    1  0.1213322E+005  0.1043930E+01  0.7957747E-01            NaN
         13   -1    0    0    0    0  0.00000000000E+00  0.00000000000E+00  0.74505805969E-08  0.10566000000E+00  0.10566000000E+00 0. -1.
     999900   -1    0    0    0    0 -0.00000000000E+00 -0.00000000000E+00 -0.74505805969E-08  0.93827000000E+00  0.93827000000E+00 0.  1.
     999902    2    1    2    0    0  0.97733405250E-02 -0.21303565594E-01 -0.16322018446E-01  0.10153683408E+01  0.10149665507E+01 0.  0.
     999903    2    3    3    0    0 -0.60002461402E-01  0.10574634885E+00  0.70579453704E-02  0.12320413727E+00  0.18624155785E-01 0.  0.
         14    1    1    2    0    0 -0.97733405250E-02  0.21303565594E-01  0.16322018446E-01  0.28561659234E-01  0.00000000000E+00 0. -1.
     999901    1    3    3    0    0  0.69775801927E-01 -0.12704991444E+00 -0.23379963816E-01  0.89216420350E+00  0.88000000000E+00 0.  1.
        -11    1    4    4    0    0 -0.21742287640E-01  0.25081379501E-01  0.69837861527E-02  0.33923989440E-01  0.51100000000E-03 0.  1.
         11    1    4    4    0    0 -0.38260173762E-01  0.80664969345E-01  0.74159217678E-04  0.89280147829E-01  0.51100000000E-03 0. -1.
</event>
<event>
 8    1  0.1213322E+005  0.1043930E+01  0.7957747E-01            NaN
         13   -1    0    0    0    0  0.00000000000E+00  0.00000000000E+00  0.74505805969E-08  0.10566000000E+00  0.10566000000E+00 0.  1.
     999900   -1    0    0    0    0 -0.00000000000E+00 -0.00000000000E+00 -0.74505805969E-08  0.93827000000E+00  0.93827000000E+00 0. -1.
     999902    2    1    2    0    0  0.25516067335E-02  0.24026799900E-01 -0.17469958875E-02  0.10197050169E+01  0.10194172216E+01 0.  0.
     999903    2    3    3    0    0 -0.90955144917E-01  0.44923750483E-01  0.80340647388E-01  0.13070638007E+00  0.18399902841E-01 0.  0.
         14    1    1    2    0    0 -0.25516067335E-02 -0.24026799900E-01  0.17469958875E-02  0.24224983075E-01  0.00000000000E+00 0. -1.
     999901    1    3    3    0    0  0.93506751650E-01 -0.20896950583E-01 -0.82087643275E-01  0.88899863685E+00  0.88000000000E+00 0.  1.
        -11    1    4    4    0    0 -0.78161488294E-01  0.32572397603E-01  0.60578797290E-01  0.10411643069E+00  0.51100000000E-03 0. -1.
         11    1    4    4    0    0 -0.12793656622E-01  0.12351352879E-01  0.19761850098E-01  0.26589949379E-01  0.51100000000E-03 0.  1.
</event>
<event>
 8    1  0.1213322E+005  0.1043930E+01  0.7957747E-01            NaN
         13   -1    0    0    0    0  0.00000000000E+00  0.00000000000E+00  0.74505805969E-08  0.10566000000E+00  0.10566000000E+00 0.  1.
     999900   -1    0    0    0    0 -0.00000000000E+00 -0.00000000000E+00 -0.74505805969E-08  0.93827000000E+00  0.93827000000E+00 0. -1.
     999902    2    1    2    0    0 -0.18836890394E-01 -0.21965272267E-03  0.14773273374E-01  0.10199899438E+01  0.10197089580E+01 0.  0.
     999903    2    3    3    0    0 -0.10122317254E+00 -0.82646420394E-01  0.53886079231E-02  0.13225702025E+00  0.19655046399E-01 0.  0.
         14    1    1    2    0    0  0.18836890394E-01  0.21965272267E-03 -0.14773273374E-01  0.23940056249E-01  0.00000000000E+00 0. -1.
     999901    1    3    3    0    0  0.82386282142E-01  0.82426767672E-01  0.93846654506E-02  0.88773292350E+00  0.88000000000E+00 0. -1.
        -11    1    4    4    0    0 -0.57923363664E-01 -0.34711534581E-01  0.38912666322E-02  0.67641775317E-01  0.51100000000E-03 0.  1.
         11    1    4    4    0    0 -0.43299808872E-01 -0.47934885813E-01  0.14973412909E-02  0.64615244937E-01  0.51100000000E-03 0. -1.
</event>
<event>
 8    1  0.1273455E+005  0.1043930E+01  0.7957747E-01            NaN
         13   -1    0    0    0    0  0.00000000000E+00  0.00000000000E+00  0.74505805969E-08  0.10566000000E+00  0.10566000000E+00 0. -1.
     999900   -1    0    0    0    0 -0.00000000000E+00 -0.00000000000E+00 -0.74505805969E-08  0.93827000000E+00  0.93827000000E+00 0.  1.
     999902    2    1    2    0    0  0.10263952762E-01  0.86382143131E-02  0.19646026268E-01  0.10201406364E+01  0.10198632184E+01 0.  0.
     999903    2    3    3    0    0  0.13343937913E-02 -0.10321389232E+00 -0.73434712262E-01  0.12814587482E+00  0.19334427712E-01 0.  0.
         14    1    1    2    0    0 -0.10263952762E-01 -0.86382143131E-02 -0.19646026268E-01  0.23789363609E-01  0.00000000000E+00 0. -1.
     999901    1    3    3    0    0  0.89295589707E-02  0.11185210663E+00  0.93080738530E-01  0.89199476157E+00  0.88000000000E+00 0.  1.
        -11    1    4    4    0    0  0.87200862869E-02 -0.31389658629E-01 -0.18965357553E-01  0.37700085966E-01  0.51100000000E-03 0. -1.
         11    1    4    4    0    0 -0.73856924956E-02 -0.71824233687E-01 -0.54469354709E-01  0.90445788856E-01  0.51100000000E-03 0.  1.
</event>
<event>
 7    1  0.1213322E+005  0.1043930E+01  0.7957747E-01            NaN
         13   -1    0    0    0    0  0.00000000000E+00  0.00000000000E+00  0.74505805969E-08  0.10566000000E+00  0.10566000000E+00 0. -1.
     999900   -1    0    0    0    0 -0.00000000000E+00 -0.00000000000E+00 -0.74505805969E-08  0.93827000000E+00  0.93827000000E+00 0. -1.
     999902    2    1    2    0    0 -0.21287454230E-01  0.95660667842E-02  0.34764401738E-02  0.10203344289E+01  0.10200615647E+01 0.  0.
         14    1    1    2    0    0  0.21287454230E-01 -0.95660667842E-02 -0.34764401738E-02  0.23595571143E-01  0.00000000000E+00 0.  1.
     999901    1    3    3    0    0  0.32948070794E-01 -0.91711634943E-01  0.57219214620E-01  0.88722637352E+00  0.88000000000E+00 0. -1.
        -11    1    3    3    0    0 -0.28064384109E-01  0.65480349053E-01 -0.12078606619E-01  0.72259529658E-01  0.51100000000E-03 0.  1.
         11    1    3    3    0    0 -0.26171140915E-01  0.35797352674E-01 -0.41664167826E-01  0.60848525676E-01  0.51100000000E-03 0. -1.
</event>
<event>
 8    1  0.1213322E+005  0.1043930E+01  0.7957747E-01            NaN
         13   -1    0    0    0    0  0.00000000000E+00  0.00000000000E+00  0.74505805969E-08  0.10566000000E+00  0.10566000000E+00 0.  1.
     999900   -1    0    0    0    0 -0.00000000000E+00 -0.00000000000E+00 -0.74505805969E-08  0.93827000000E+00  0.93827000000E+00 0.  1.
     999902    2    1    2    0    0 -0.52058767207E-02 -0.17921461485E-01  0.13836605490E-01  0.10206978760E+01  0.10204334483E+01 0.  0.
     999903    2    3    3    0    0 -0.10179619883E+00  0.19561797605E-01  0.79561135910E-01  0.13218541186E+00  0.19946897980E-01 0.  0.
         14    1    1    2    0    0  0.52058767207E-02  0.17921461485E-01 -0.13836605490E-01  0.23232124002E-01  0.00000000000E+00 0. -1.
     999901    1    3    3    0    0  0.96590322106E-01 -0.37483259090E-01 -0.65724530421E-01  0.88851246414E+00  0.88000000000E+00 0.  1.
        -11    1    4    4    0    0 -0.55330749165E-01  0.19898543548E-02  0.35422689383E-01  0.65730353473E-01  0.51100000000E-03 0. -1.
         11    1    4    4    0    0 -0.46465449662E-01  0.17571943250E-01  0.44138446527E-01  0.66455058383E-01  0.51100000000E-03 0.  1.
</event>
<event>
 8    1  0.1213322E+005  0.1043930E+01  0.7957747E-01            NaN
         13   -1    0    0    0    0  0.00000000000E+00  0.00000000000E+00  0.74505805969E-08  0.10566000000E+00  0.10566000000E+00 0.  1.
     999900   -1    0    0    0    0 -0.00000000000E+00 -0.00000000000E+00 -0.74505805969E-08  0.93827000000E+00  0.93827000000E+00 0. -1.
     999902    2    1    2    0    0  0.11518382911E-01 -0.13119805978E-01  0.16638859452E-01  0.10198124940E+01  0.10195272771E+01 0.  0.
     999903    2    3    3    0    0 -0.82759983797E-01  0.61610311851E-01 -0.71724706944E-01  0.12724254107E+00  0.20029608743E-01 0.  0.
         14    1    1    2    0    0 -0.11518382911E-01  0.13119805978E-01 -0.16638859452E-01  0.24117506041E-01  0.00000000000E+00 0.  1.
     999901    1    3    3    0    0  0.94278366708E-01 -0.74730117829E-01  0.88363566396E-01  0.89256995289E+00  0.88000000000E+00 0.  1.
        -11    1    4    4    0    0 -0.53379465360E-01  0.50737583192E-01 -0.47482164071E-01  0.87626974706E-01  0.51100000000E-03 0. -1.
         11    1    4    4    0    0 -0.29380518437E-01  0.10872728660E-01 -0.24242542874E-01  0.39615566361E-01  0.51100000000E-03 0.  1.
</event>
<event>
 7    1  0.1213322E+005  0.1043930E+01  0.7957747E-01            NaN
         13   -1    0    0    0    0  0.00000000000E+00  0.00000000000E+00  0.74505805969E-08  0.10566000000E+00  0.10566000000E+00 0.  1.
     999900   -1    0    0    0    0 -0.00000000000E+00 -0.00000000000E+00 -0.74505805969E-08  0.93827000000E+00  0.93827000000E+00 0.  1.
     999903    2    1    2    0    0  0.26662797225E-02  0.74456994225E-01 -0.11400336258E-01  0.77857593957E-01  0.19516255619E-01 0.  0.
         14    1    1    2    0    0  0.45431643371E-01  0.56158819778E-01  0.20495675995E-01  0.75086083882E-01  0.00000000000E+00 0.  1.
     999901    1    1    2    0    0 -0.48097923094E-01 -0.13061581400E+00 -0.90953397369E-02  0.89098632216E+00  0.88000000000E+00 0. -1.
        -11    1    3    3    0    0 -0.21216882697E-03  0.48607058510E-01 -0.16526276401E-01  0.51342673141E-01  0.51100000000E-03 0.  1.
         11    1    3    3    0    0  0.28784485494E-02  0.25849935715E-01  0.51259401426E-02  0.26514920816E-01  0.51100000000E-03 0. -1.
</event>
<event>
 8    1  0.1213322E+005  0.1043930E+01  0.7957747E-01            NaN
         13   -1    0    0    0    0  0.00000000000E+00  0.00000000000E+00  0.74505805969E-08  0.10566000000E+00  0.10566000000E+00 0. -1.
     999900   -1    0    0    0    0 -0.00000000000E+00 -0.00000000000E+00 -0.74505805969E-08  0.93827000000E+00  0.93827000000E+00 0. -1.
     999902    2    1    2    0    0 -0.91727069995E-02 -0.21584554231E-01  0.23828071101E-02  0.10203565127E+01  0.10200841650E+01 0.  0.
     999903    2    3    3    0    0 -0.24959067355E-01  0.87181960035E-01 -0.89268044255E-01  0.12879650776E+00  0.19902449293E-01 0.  0.
         14    1    1    2    0    0  0.91727069995E-02  0.21584554231E-01 -0.23828071101E-02  0.23573487328E-01  0.00000000000E+00 0.  1.
     999901    1    3    3    0    0  0.15786360356E-01 -0.10876651427E+00  0.91650851365E-01  0.89156000491E+00  0.88000000000E+00 0.  1.
        -11    1    4    4    0    0 -0.24510348696E-01  0.55332912675E-01 -0.64472475427E-01  0.88427651936E-01  0.51100000000E-03 0. -1.
         11    1    4    4    0    0 -0.44871865951E-03  0.31849047361E-01 -0.24795568828E-01  0.40368855826E-01  0.51100000000E-03 0.  1.
</event>
<event>
 8    1  0.1213322E+005  0.1043930E+01  0.7957747E-01            NaN
         13   -1    0    0    0    0  0.00000000000E+00  0.00000000000E+00  0.74505805969E-08  0.10566000000E+00  0.10566000000E+00 0.  1.
     999900   -1    0    0    0    0 -0.00000000000E+00 -0.00000000000E+00 -0.74505805969E-08  0.93827000000E+00  0.93827000000E+00 0.  1.
     999902    2    1    2    0    0  0.20219944107E-01 -0.73565862190E-02  0.44927833541E-02  0.10219493130E+01  0.10217128988E+01 0.  0.
     999903    2    3    3    0    0  0.55144083166E-01 -0.64526044294E-01  0.10173409692E+00  0.13406198030E+00  0.20452574095E-01 0.  0.
         14    1    1    2    0    0 -0.20219944107E-01  0.73565862190E-02 -0.44927833541E-02  0.21980687040E-01  0.00000000000E+00 0. -1.
     999901    1    3    3    0    0 -0.34924139059E-01  0.57169458075E-01 -0.97241313564E-01  0.88788733265E+00  0.88000000000E+00 0.  1.
        -11    1    4    4    0    0  0.23532055730E-01 -0.22141321282E-01  0.53432640158E-01  0.62444406557E-01  0.51100000000E-03 0. -1.
         11    1    4    4    0    0  0.31612027436E-01 -0.42384723011E-01  0.48301456759E-01  0.71617573747E-01  0.51100000000E-03 0.  1.
</event>
<event>
 8    1  0.1213322E+005  0.1043930E+01  0.7957747E-01            NaN
         13   -1    0    0    0    0  0.00000000000E+00  0.00000000000E+00  0.74505805969E-08  0.10566000000E+00  0.10566000000E+00 0.  1.
     999900   -1    0    0    0    0 -0.00000000000E+00 -0.00000000000E+00 -0.74505805969E-08  0.93827000000E+00  0.93827000000E+00 0. -1.
     999902    2    1    2    0    0 -0.86573382500E-02  0.37812235572E-02 -0.21951758180E-01  0.10200317397E+01  0.10197517459E+01 0.  0.
     999903    2    3    3    0    0 -0.13372327209E-01 -0.10458949853E+00 -0.76517586295E-01  0.13169403697E+00  0.19250870754E-01 0.  0.
         14    1    1    2    0    0  0.86573382500E-02 -0.37812235572E-02  0.21951758180E-01  0.23898260279E-01  0.00000000000E+00 0.  1.
     999901    1    3    3    0    0  0.47149889586E-02  0.10837072208E+00  0.54565828116E-01  0.88833770275E+00  0.88000000000E+00 0.  1.
        -11    1    4    4    0    0 -0.11668140780E-02 -0.48316646851E-01 -0.45052250977E-01  0.66074399408E-01  0.51100000000E-03 0. -1.
         11    1    4    4    0    0 -0.12205513131E-01 -0.56272851676E-01 -0.31465335318E-01  0.65619637565E-01  0.51100000000E-03 0.  1.
</event>
<event>
 8    1  0.1213322E+005  0.1043930E+01  0.7957747E-01            NaN
         13   -1    0    0    0    0  0.00000000000E+00  0.00000000000E+00  0.74505805969E-08  0.10566000000E+00  0.10566000000E+00 0. -1.
     999900   -1    0    0    0    0 -0.00000000000E+00 -0.00000000000E+00 -0.74505805969E-08  0.93827000000E+00  0.93827000000E+00 0. -1.
     999902    2    1    2    0    0 -0.21869935942E-01  0.11946147088E-01  0.67129490084E-02  0.10181217026E+01  0.10177945437E+01 0.  0.
     999903    2    3    3    0    0 -0.10324173702E+00  0.34496340090E-03  0.78260431538E-01  0.13140021326E+00  0.21962368646E-01 0.  0.
         14    1    1    2    0    0  0.21869935942E-01 -0.11946147088E-01 -0.67129490084E-02  0.25808297362E-01  0.00000000000E+00 0. -1.
     999901    1    3    3    0    0  0.81371801078E-01  0.11601183687E-01 -0.71547482530E-01  0.88672148938E+00  0.88000000000E+00 0. -1.
        -11    1    4    4    0    0 -0.77833865651E-01 -0.91767285945E-02  0.56544401842E-01  0.96642917436E-01  0.51100000000E-03 0.  1.
         11    1    4    4    0    0 -0.25407871370E-01  0.95216919954E-02  0.21716029697E-01  0.34757295821E-01  0.51100000000E-03 0. -1.
</event>
<event>
 8    1  0.1213322E+005  0.1043930E+01  0.7957747E-01            NaN
         13   -1    0    0    0    0  0.00000000000E+00  0.00000000000E+00  0.74505805969E-08  0.10566000000E+00  0.10566000000E+00 0. -1.
     999900   -1    0    0    0    0 -0.00000000000E+00 -0.00000000000E+00 -0.74505805969E-08  0.93827000000E+00  0.93827000000E+00 0.  1.
     999902    2    1    2    0    0  0.17940149893E-01  0.94634788094E-02 -0.11574609589E-01  0.10205766705E+01  0.10203094445E+01 0.  0.
     999903    2    3    3    0    0  0.77611232408E-01 -0.88050274182E-01  0.54275145807E-01  0.13074198905E+00  0.19269718967E-01 0.  0.
         14    1    1    2    0    0 -0.17940149893E-01 -0.94634788094E-02  0.11574609589E-01  0.23353329452E-01  0.00000000000E+00 0. -1.
     999901    1    3    3    0    0 -0.59671082514E-01  0.97513752991E-01 -0.65849755395E-01  0.88983468150E+00  0.88000000000E+00 0.  1.
        -11    1    4    4    0    0  0.75314194428E-01 -0.81258230650E-01  0.46510136068E-01  0.12016065000E+00  0.51100000000E-03 0. -1.
         11    1    4    4    0    0  0.22970379801E-02 -0.67920435314E-02  0.77650097391E-02  0.10581339049E-01  0.51100000000E-03 0.  1.
</event>
<event>
 8    1  0.1213322E+005  0.1043930E+01  0.7957747E-01            NaN
         13   -1    0    0    0    0  0.00000000000E+00  0.00000000000E+00  0.74505805969E-08  0.10566000000E+00  0.10566000000E+00 0.  1.
     999900   -1    0    0    0    0 -0.00000000000E+00 -0.00000000000E+00 -0.74505805969E-08  0.93827000000E+00  0.93827000000E+00 0.  1.
     999902    2    1    2    0    0 -0.19397422552E-02 -0.21042704349E-01 -0.44468057110E-02  0.10223352764E+01  0.10221071790E+01 0.  0.
     999903    2    3    3    0    0  0.55241569984E-01  0.10677994049E+00  0.45104846095E-01  0.12988712821E+00  0.19560986435E-01 0.  0.
         14    1    1    2    0    0  0.19397422552E-02  0.21042704349E-01  0.44468057110E-02  0.21594723601E-01  0.00000000000E+00 0.  1.
     999901    1    3    3    0    0 -0.57181312239E-01 -0.12782264483E+00 -0.49551651806E-01  0.89244814818E+00  0.88000000000E+00 0.  1.
        -11    1    4    4    0    0  0.45279355823E-01  0.69702417284E-01  0.34966755185E-01  0.90175285573E-01  0.51100000000E-03 0.  1.
         11    1    4    4    0    0  0.99622141611E-02  0.37077523201E-01  0.10138090910E-01  0.39711842642E-01  0.51100000000E-03 0. -1.
</event>
<event>
 8    1  0.1213322E+005  0.1043930E+01  0.7957747E-01            NaN
         13   -1    0    0    0    0  0.00000000000E+00  0.00000000000E+00  0.74505805969E-08  0.10566000000E+00  0.10566000000E+00 0. -1.
     999900   -1    0    0    0    0 -0.00000000000E+00 -0.00000000000E+00 -0.74505805969E-08  0.93827000000E+00  0.93827000000E+00 0. -1.
     999902    2    1    2    0    0 -0.59989910385E-02  0.23168043752E-01  0.76950870680E-03  0.10199855165E+01  0.10197044256E+01 0.  0.
     999903    2    3    3    0    0  0.93819947708E-01  0.40954684821E-01  0.78982679913E-01  0.13071756744E+00  0.19218478474E-01 0.  0.
         14    1    1    2    0    0  0.59989910385E-02 -0.23168043752E-01 -0.76950870680E-03  0.23944483465E-01  0.00000000000E+00 0.  1.
     999901    1    3    3    0    0 -0.99818938747E-01 -0.17786641069E-01 -0.78213171206E-01  0.88926794909E+00  0.88000000000E+00 0. -1.
        -11    1    4    4    0    0  0.44219317713E-01  0.29764965696E-01  0.40055892674E-01  0.66678609020E-01  0.51100000000E-03 0. -1.
         11    1    4    4    0    0  0.49600629995E-01  0.11189719125E-01  0.38926787239E-01  0.64038958422E-01  0.51100000000E-03 0.  1.
</event>
<event>
 8    1  0.1213322E+005  0.1043930E+01  0.7957747E-01            NaN
         13   -1    0    0    0    0  0.00000000000E+00  0.00000000000E+00  0.74505805969E-08  0.10566000000E+00  0.10566000000E+00 0. -1.
     999900   -1    0    0    0    0 -0.00000000000E+00 -0.00000000000E+00 -0.74505805969E-08  0.93827000000E+00  0.93827000000E+00 0. -1.
     999902    2    1    2    0    0  0.20382786094E-01  0.11920935270E-01 -0.55407389996E-02  0.10196757951E+01  0.10193872967E+01 0.  0.
     999903    2    3    3    0    0 -0.45991044219E-01  0.11345857820E+00  0.40215744374E-01  0.13017647860E+00  0.18454928035E-01 0.  0.
         14    1    1    2    0    0 -0.20382786094E-01 -0.11920935270E-01  0.55407389996E-02  0.24254204900E-01  0.00000000000E+00 0. -1.
     999901    1    3    3    0    0  0.66373830313E-01 -0.10153764293E+00 -0.45756483373E-01  0.88949931650E+00  0.88000000000E+00 0. -1.
        -11    1    4    4    0    0 -0.39782826551E-01  0.81615363777E-01  0.35021688333E-01  0.97316600164E-01  0.51100000000E-03 0. -1.
         11    1    4    4    0    0 -0.62082176676E-02  0.31843214428E-01  0.51940560409E-02  0.32859878436E-01  0.51100000000E-03 0.  1.
</event>
<event>
 8    1  0.1213322E+005  0.1043930E+01  0.7957747E-01            NaN
         13   -1    0    0    0    0  0.00000000000E+00  0.00000000000E+00  0.74505805969E-08  0.10566000000E+00  0.10566000000E+00 0. -1.
     999900   -1    0    0    0    0 -0.00000000000E+00 -0.00000000000E+00 -0.74505805969E-08  0.93827000000E+00  0.93827000000E+00 0.  1.
     999902    2    1    2    0    0 -0.52585800420E-02 -0.22707697542E-01  0.38600741237E-02  0.10203039050E+01  0.10200303261E+01 0.  0.
     999903    2    3    3    0    0 -0.60026701342E-01 -0.91220474330E-01  0.73615374267E-01  0.13319661185E+00  0.19943276296E-01 0.  0.
         14    1    1    2    0    0  0.52585800420E-02  0.22707697542E-01 -0.38600741237E-02  0.23626094979E-01  0.00000000000E+00 0.  1.
     999901    1    3    3    0    0  0.54768121300E-01  0.68512776788E-01 -0.69755300144E-01  0.88710729317E+00  0.88000000000E+00 0.  1.
        -11    1    4    4    0    0  0.61061943038E-03 -0.74625855064E-02  0.36458589232E-02  0.83436470933E-02  0.51100000000E-03 0.  1.
         11    1    4    4    0    0 -0.60637320773E-01 -0.83757888824E-01  0.69969515344E-01  0.12485296476E+00  0.51100000000E-03 0. -1.
</event>
<event>
 8    1  0.1213322E+005  0.1043930E+01  0.7957747E-01            NaN
         13   -1    0    0    0    0  0.00000000000E+00  0.00000000000E+00  0.74505805969E-08  0.10566000000E+00  0.10566000000E+00 0. -1.
     999900   -1    0    0    0    0 -0.00000000000E+00 -0.00000000000E+00 -0.74505805969E-08  0.93827000000E+00  0.93827000000E+00 0. -1.
     999902    2    1    2    0    0  0.53424846615E-02 -0.81039711205E-02 -0.21107820782E-01  0.10206973379E+01  0.10204328978E+01 0.  0.
     999903    2    3    3    0    0  0.16052326614E-01 -0.11081614483E+00 -0.69793808072E-01  0.13332209782E+00  0.19123571229E-01 0.  0.
         14    1    1    2    0    0 -0.53424846615E-02  0.81039711205E-02  0.21107820782E-01  0.23232662104E-01  0.00000000000E+00 0. -1.
     999901    1    3    3    0    0 -0.10709841953E-01  0.10271217371E+00  0.48685987290E-01  0.88737524008E+00  0.88000000000E+00 0. -1.
        -11    1    4    4    0    0  0.50407509792E-02 -0.54845176231E-01 -0.44985223224E-01  0.71114934829E-01  0.51100000000E-03 0. -1.
         11    1    4    4    0    0  0.11011575635E-01 -0.55970968601E-01 -0.24808584847E-01  0.62207162990E-01  0.51100000000E-03 0.  1.
</event>
<event>
 8    1  0.1213322E+005  0.1043930E+01  0.7957747E-01            NaN
         13   -1    0    0    0    0  0.00000000000E+00  0.00000000000E+00  0.74505805969E-08  0.10566000000E+00  0.10566000000E+00 0.  1.
     999900   -1    0    0    0    0 -0.00000000000E+00 -0.00000000000E+00 -0.74505805969E-08  0.93827000000E+00  0.93827000000E+00 0.  1.
     999902    2    1    2    0    0  0.71358853020E-02 -0.10971669099E-01  0.22493906786E-01  0.10179055072E+01  0.10175727725E+01 0.  0.
     999903    2    3    3    0    0  0.22021088300E-01  0.39299996365E-01  0.12120322256E+00  0.13083598422E+00  0.19960349817E-01 0.  0.
         14    1    1    2    0    0 -0.71358853020E-02  0.10971669099E-01 -0.22493906786E-01  0.26024492778E-01  0.00000000000E+00 0. -1.
     999901    1    3    3    0    0 -0.14885202998E-01 -0.50271665464E-01 -0.98709315770E-01  0.88706952300E+00  0.88000000000E+00 0.  1.
        -11    1    4    4    0    0  0.65592041608E-02  0.29163355198E-01  0.86356138169E-01  0.91384726110E-01  0.51100000000E-03 0. -1.
         11    1    4    4    0    0  0.15461884139E-01  0.10136641167E-01  0.34847084387E-01  0.39451258111E-01  0.51100000000E-03 0.  1.
</event>
<event>
 8    1  0.1213322E+005  0.1043930E+01  0.7957747E-01            NaN
         13   -1    0    0    0    0  0.00000000000E+00  0.00000000000E+00  0.74505805969E-08  0.10566000000E+00  0.10566000000E+00 0.  1.
     999900   -1    0    0    0    0 -0.00000000000E+00 -0.00000000000E+00 -0.74505805969E-08  0.93827000000E+00  0.93827000000E+00 0. -1.
     999902    2    1    2    0    0  0.12238884020E-01  0.99378512230E-02  0.18144244099E-01  0.10198932622E+01  0.10196099752E+01 0.  0.
     999903    2    3    3    0    0 -0.10460319157E+00  0.32747847139E-01  0.67676183354E-01  0.13049696161E+00  0.20860057944E-01 0.  0.
         14    1    1    2    0    0 -0.12238884020E-01 -0.99378512230E-02 -0.18144244099E-01  0.24036737776E-01  0.00000000000E+00 0. -1.
     999901    1    3    3    0    0  0.11684207559E+00 -0.22809995916E-01 -0.49531939255E-01  0.88939630062E+00  0.88000000000E+00 0. -1.
        -11    1    4    4    0    0 -0.46197860689E-01  0.67509215392E-02  0.37064632716E-01  0.59614305273E-01  0.51100000000E-03 0. -1.
         11    1    4    4    0    0 -0.58405330880E-01  0.25996925600E-01  0.30611550637E-01  0.70882656336E-01  0.51100000000E-03 0.  1.
</event>
<event>
 8    1  0.1213322E+005  0.1043930E+01  0.7957747E-01            NaN
         13   -1    0    0    0    0  0.00000000000E+00  0.00000000000E+00  0.74505805969E-08  0.10566000000E+00  0.10566000000E+00 0.  1.
     999900   -1    0    0    0    0 -0.00000000000E+00 -0.00000000000E+00 -0.74505805969E-08  0.93827000000E+00  0.93827000000E+00 0. -1.
     999902    2    1    2    0    0 -0.43643558543E-02 -0.22915601224E-01  0.10771843776E-03  0.10206022486E+01  0.10203356143E+01 0.  0.
     999903    2    3    3    0    0  0.12327095519E+00  0.32056841577E-01  0.15030918970E-01  0.12957169694E+00  0.18426248623E-01 0.  0.
         14    1    1    2    0    0  0.43643558543E-02  0.22915601224E-01 -0.10771843776E-03  0.23327751386E-01  0.00000000000E+00 0.  1.
     999901    1    3    3    0    0 -0.12763531105E+00 -0.54972442800E-01 -0.14923200532E-01  0.89103055167E+00  0.88000000000E+00 0.  1.
        -11    1    4    4    0    0  0.69537240818E-01  0.20070540585E-01 -0.45323154828E-03  0.72379009387E-01  0.51100000000E-03 0.  1.
         11    1    4    4    0    0  0.53733714374E-01  0.11986300992E-01  0.15484150518E-01  0.57192687558E-01  0.51100000000E-03 0. -1.
</event>
<event>
 8    1  0.1213322E+005  0.1043930E+01  0.7957747E-01            NaN
         13   -1    0    0    0    0  0.00000000000E+00  0.00000000000E+00  0.74505805969E-08  0.10566000000E+00  0.10566000000E+00 0.  1.
     999900   -1    0    0    0    0 -0.00000000000E+00 -0.00000000000E+00 -0.74505805969E-08  0.93827000000E+00  0.93827000000E+00 0.  1.
     999902    2    1    2    0    0 -0.21513832106E-01 -0.24349299210E-02 -0.69430271919E-02  0.10211928172E+01  0.10209396605E+01 0.  0.
     999903    2    3    3    0    0  0.11924004937E+00 -0.42285998998E-01  0.85425944810E-02  0.12898232222E+00  0.23604415696E-01 0.  0.
         14    1    1    2    0    0  0.21513832106E-01  0.24349299210E-02  0.69430271919E-02  0.22737182811E-01  0.00000000000E+00 0.  1.
     999901    1    3    3    0    0 -0.14075388147E+00  0.39851069077E-01 -0.15485621673E-01  0.89221049497E+00  0.88000000000E+00 0. -1.
        -11    1    4    4    0    0  0.31051787951E-01 -0.15699975128E-01 -0.72021282462E-02  0.35536383134E-01  0.51100000000E-03 0. -1.
         11    1    4    4    0    0  0.88188261415E-01 -0.26586023870E-01  0.15744722727E-01  0.93445939085E-01  0.51100000000E-03 0.  1.
</event>
<event>
 8    1  0.1213322E+005  0.1043930E+01  0.7957747E-01            NaN
         13   -1    0    0    0    0  0.00000000000E+00  0.00000000000E+00  0.74505805969E-08  0.10566000000E+00  0.10566000000E+00 0. -1.
     999900   -1    0    0    0    0 -0.00000000000E+00 -0.00000000000E+00 -0.74505805969E-08  0.93827000000E+00  0.93827000000E+00 0. -1.
     999902    2    1    2    0    0  0.20498073475E-01  0.78792789452E-02  0.92565929337E-02  0.10200985383E+01  0.10198201260E+01 0.  0.
     999903    2    3    3    0    0 -0.64208498197E-01  0.10939167201E+00  0.22917560714E-01  0.13011730747E+00  0.17777231735E-01 0.  0.
         14    1    1    2    0    0 -0.20498073475E-01 -0.78792789452E-02 -0.92565929337E-02  0.23831461676E-01  0.00000000000E+00 0.  1.
     999901    1    3    3    0    0  0.84706571672E-01 -0.10151239307E+00 -0.13660967780E-01  0.88998123085E+00  0.88000000000E+00 0.  1.
        -11    1    4    4    0    0 -0.26160878114E-01  0.50581245881E-01  0.18792200784E-02  0.56979352117E-01  0.51100000000E-03 0. -1.
         11    1    4    4    0    0 -0.38047620083E-01  0.58810426131E-01  0.21038340635E-01  0.73137955354E-01  0.51100000000E-03 0.  1.
</event>
<event>
 8    1  0.1213322E+005  0.1043930E+01  0.7957747E-01            NaN
         13   -1    0    0    0    0  0.00000000000E+00  0.00000000000E+00  0.74505805969E-08  0.10566000000E+00  0.10566000000E+00 0.  1.
     999900   -1    0    0    0    0 -0.00000000000E+00 -0.00000000000E+00 -0.74505805969E-08  0.93827000000E+00  0.93827000000E+00 0. -1.
     999902    2    1    2    0    0 -0.19954756527E-01  0.93489837224E-02  0.46682003441E-02  0.10214047275E+01  0.10211563198E+01 0.  0.
     999903    2    3    3    0    0  0.91282348603E-01  0.88909427796E-02  0.90255291478E-01  0.13028237145E+00  0.20395162205E-01 0.  0.
         14    1    1    2    0    0  0.19954756527E-01 -0.93489837224E-02 -0.46682003441E-02  0.22525272455E-01  0.00000000000E+00 0.  1.
     999901    1    3    3    0    0 -0.11123710513E+00  0.45804094281E-03 -0.85587091134E-01  0.89112235609E+00  0.88000000000E+00 0.  1.
        -11    1    4    4    0    0  0.84634289349E-01  0.33002160649E-02  0.77266060478E-01  0.11464798115E+00  0.51100000000E-03 0.  1.
         11    1    4    4    0    0  0.66480592540E-02  0.55907267147E-02  0.12989231001E-01  0.15634390299E-01  0.51100000000E-03 0. -1.
</event>
<event>
 8    1  0.1213322E+005  0.1043930E+01  0.7957747E-01            NaN
         13   -1    0    0    0    0  0.00000000000E+00  0.00000000000E+00  0.74505805969E-08  0.10566000000E+00  0.10566000000E+00 0.  1.
     999900   -1    0    0    0    0 -0.00000000000E+00 -0.00000000000E+00 -0.74505805969E-08  0.93827000000E+00  0.93827000000E+00 0. -1.
     999902    2    1    2    0    0  0.97798954172E-02 -0.14638029485E-01 -0.17009199231E-01  0.10194508023E+01  0.10191568609E+01 0.  0.
     999903    2    3    3    0    0 -0.10891716974E+00  0.59327014857E-01 -0.25763885300E-01  0.12836356438E+00  0.20755296130E-01 0.  0.
         14    1    1    2    0    0 -0.97798954172E-02  0.14638029485E-01  0.17009199231E-01  0.24479197700E-01  0.00000000000E+00 0. -1.
     999901    1    3    3    0    0  0.11869706516E+00 -0.73965044342E-01  0.87546860692E-02  0.89108723792E+00  0.88000000000E+00 0.  1.
        -11    1    4    4    0    0 -0.25434858300E-01  0.20712260959E-01  0.13329978859E-03  0.32805619345E-01  0.51100000000E-03 0.  1.
         11    1    4    4    0    0 -0.83482311441E-01  0.38614753898E-01 -0.25897185088E-01  0.95557945032E-01  0.51100000000E-03 0. -1.
</event>
<event>
 8    1  0.1213322E+005  0.1043930E+01  0.7957747E-01            NaN
         13   -1    0    0    0    0  0.00000000000E+00  0.00000000000E+00  0.74505805969E-08  0.10566000000E+00  0.10566000000E+00 0. -1.
     999900   -1    0    0    0    0 -0.00000000000E+00 -0.00000000000E+00 -0.74505805969E-08  0.93827000000E+00  0.93827000000E+00 0. -1.
     999902    2    1    2    0    0  0.16731960337E-01 -0.55906175760E-02 -0.14667912373E-01  0.10209874379E+01  0.10207296347E+01 0.  0.
     999903    2    3    3    0    0  0.57227024727E-01 -0.11549021564E+00 -0.26925090430E-01  0.13314285112E+00  0.19726531409E-01 0.  0.
         14    1    1    2    0    0 -0.16731960337E-01  0.55906175760E-02  0.14667912373E-01  0.22942562085E-01  0.00000000000E+00 0. -1.
     999901    1    3    3    0    0 -0.40495064389E-01  0.10989959806E+00  0.12257178057E-01  0.88784458680E+00  0.88000000000E+00 0. -1.
        -11    1    4    4    0    0  0.14049983886E-01 -0.14883221610E-01 -0.82799776235E-02  0.22084643605E-01  0.51100000000E-03 0. -1.
         11    1    4    4    0    0  0.43177040841E-01 -0.10060699403E+00 -0.18645112807E-01  0.11105820751E+00  0.51100000000E-03 0.  1.
</event>
<event>
 8    1  0.1213322E+005  0.1043930E+01  0.7957747E-01            NaN
         13   -1    0    0    0    0  0.00000000000E+00  0.00000000000E+00  0.74505805969E-08  0.10566000000E+00  0.10566000000E+00 0.  1.
     999900   -1    0    0    0    0 -0.00000000000E+00 -0.00000000000E+00 -0.74505805969E-08  0.93827000000E+00  0.93827000000E+00 0. -1.
     999902    2    1    2    0    0  0.12524878671E-01  0.13798687703E-01  0.14330754825E-01  0.10204215568E+01  0.10201507274E+01 0.  0.
     999903    2    3    3    0    0 -0.11794529578E+00  0.40436773006E-01  0.31638894082E-01  0.13023526972E+00  0.20346509570E-01 0.  0.
         14    1    1    2    0    0 -0.12524878671E-01 -0.13798687703E-01 -0.14330754825E-01  0.23508443204E-01  0.00000000000E+00 0. -1.
     999901    1    3    3    0    0  0.13047017446E+00 -0.26638085303E-01 -0.17308139258E-01  0.89018628707E+00  0.88000000000E+00 0.  1.
        -11    1    4    4    0    0 -0.35959291653E-01  0.22161760829E-01  0.82622035303E-02  0.43043459752E-01  0.51100000000E-03 0.  1.
         11    1    4    4    0    0 -0.81986004132E-01  0.18275012177E-01  0.23376690552E-01  0.87191809969E-01  0.51100000000E-03 0. -1.
</event>
<event>
 8    1  0.1213322E+005  0.1043930E+01  0.7957747E-01            NaN
         13   -1    0    0    0    0  0.00000000000E+00  0.00000000000E+00  0.74505805969E-08  0.10566000000E+00  0.10566000000E+00 0. -1.
     999900   -1    0    0    0    0 -0.00000000000E+00 -0.00000000000E+00 -0.74505805969E-08  0.93827000000E+00  0.93827000000E+00 0. -1.
     999902    2    1    2    0    0 -0.94247343861E-02 -0.50845679321E-02 -0.22383260697E-01  0.10191169226E+01  0.10188148081E+01 0.  0.
     999903    2    3    3    0    0  0.92932411437E-01 -0.68557947842E-02 -0.89484536919E-01  0.13064480499E+00  0.19420291087E-01 0.  0.
         14    1    1    2    0    0  0.94247343861E-02  0.50845679321E-02  0.22383260697E-01  0.24813077373E-01  0.00000000000E+00 0. -1.
     999901    1    3    3    0    0 -0.10235714582E+00  0.17712268521E-02  0.67101276222E-01  0.88847211764E+00  0.88000000000E+00 0.  1.
        -11    1    4    4    0    0  0.47540710212E-01 -0.79866677753E-02 -0.34231518207E-01  0.59126677138E-01  0.51100000000E-03 0. -1.
         11    1    4    4    0    0  0.45391701225E-01  0.11308729911E-02 -0.55253018712E-01  0.71518127853E-01  0.51100000000E-03 0.  1.
</event>
<event>
 8    1  0.1213322E+005  0.1043930E+01  0.7957747E-01            NaN
         13   -1    0    0    0    0  0.00000000000E+00  0.00000000000E+00  0.74505805969E-08  0.10566000000E+00  0.10566000000E+00 0.  1.
     999900   -1    0    0    0    0 -0.00000000000E+00 -0.00000000000E+00 -0.74505805969E-08  0.93827000000E+00  0.93827000000E+00 0.  1.
     999902    2    1    2    0    0  0.13828778650E-01  0.15088460517E-01 -0.12041018940E-01  0.10201837814E+01  0.10199073806E+01 0.  0.
     999903    2    3    3    0    0 -0.80085523021E-01  0.84625689684E-01  0.55709127396E-01  0.12987742705E+00  0.13763750598E-01 0.  0.
         14    1    1    2    0    0 -0.13828778650E-01 -0.15088460517E-01  0.12041018940E-01  0.23746218580E-01  0.00000000000E+00 0.  1.
     999901    1    3    3    0    0  0.93914301671E-01 -0.69537229167E-01 -0.67750146336E-01  0.89030635437E+00  0.88000000000E+00 0. -1.
        -11    1    4    4    0    0 -0.72511227925E-02  0.14394106859E-01  0.69160632798E-02  0.17546000864E-01  0.51100000000E-03 0.  1.
         11    1    4    4    0    0 -0.72834400228E-01  0.70231582825E-01  0.48793064116E-01  0.11233142619E+00  0.51100000000E-03 0. -1.
</event>
<event>
 8    1  0.1213322E+005  0.1043930E+01  0.7957747E-01            NaN
         13   -1    0    0    0    0  0.00000000000E+00  0.00000000000E+00  0.74505805969E-08  0.10566000000E+00  0.10566000000E+00 0. -1.
     999900   -1    0    0    0    0 -0.00000000000E+00 -0.00000000000E+00 -0.74505805969E-08  0.93827000000E+00  0.93827000000E+00 0. -1.
     999902    2    1    2    0    0 -0.18076305701E-01  0.76863781122E-02  0.89902202231E-02  0.10223277479E+01  0.10220994897E+01 0.  0.
     999903    2    3    3    0    0 -0.21020696707E-01 -0.11959075642E+00 -0.46505408771E-01  0.13143611405E+00  0.19206257376E-01 0.  0.
         14    1    1    2    0    0  0.18076305701E-01 -0.76863781122E-02 -0.89902202231E-02  0.21602252104E-01  0.00000000000E+00 0.  1.
     999901    1    3    3    0    0  0.29443910053E-02  0.12727713453E+00  0.55495628995E-01  0.89089163384E+00  0.88000000000E+00 0. -1.
        -11    1    4    4    0    0 -0.15295605758E-01 -0.47500866638E-01 -0.12104809650E-01  0.51352462692E-01  0.51100000000E-03 0. -1.
         11    1    4    4    0    0 -0.57250909489E-02 -0.72089889779E-01 -0.34400599121E-01  0.80083651362E-01  0.51100000000E-03 0.  1.
</event>
<event>
 8    1  0.1213322E+005  0.1043930E+01  0.7957747E-01            NaN
         13   -1    0    0    0    0  0.00000000000E+00  0.00000000000E+00  0.74505805969E-08  0.10566000000E+00  0.10566000000E+00 0.  1.
     999900   -1    0    0    0    0 -0.00000000000E+00 -0.00000000000E+00 -0.74505805969E-08  0.93827000000E+00  0.93827000000E+00 0. -1.
     999902    2    1    2    0    0 -0.79343480222E-02  0.20851474131E-02 -0.22371937320E-01  0.10201013345E+01  0.10198229883E+01 0.  0.
     999903    2    3    3    0    0  0.92465904451E-01 -0.25767694699E-01 -0.87310001215E-01  0.13157843463E+00  0.21815833068E-01 0.  0.
         14    1    1    2    0    0  0.79343480222E-02 -0.20851474131E-02  0.22371937320E-01  0.23828665463E-01  0.00000000000E+00 0.  1.
     999901    1    3    3    0    0 -0.10040025247E+00  0.27852842113E-01  0.64938063895E-01  0.88852289990E+00  0.88000000000E+00 0.  1.
        -11    1    4    4    0    0  0.55661539542E-01 -0.25499221577E-01 -0.48687812689E-01  0.78225197415E-01  0.51100000000E-03 0. -1.
         11    1    4    4    0    0  0.36804364909E-01 -0.26847312287E-03 -0.38622188526E-01  0.53353237219E-01  0.51100000000E-03 0.  1.
</event>
<event>
 8    1  0.1213322E+005  0.1043930E+01  0.7957747E-01            NaN
         13   -1    0    0    0    0  0.00000000000E+00  0.00000000000E+00  0.74505805969E-08  0.10566000000E+00  0.10566000000E+00 0. -1.
     999900   -1    0    0    0    0 -0.00000000000E+00 -0.00000000000E+00 -0.74505805969E-08  0.93827000000E+00  0.93827000000E+00 0. -1.
     999902    2    1    2    0    0  0.56350372748E-02 -0.19611495825E-01  0.12094919896E-01  0.10202097238E+01  0.10199339337E+01 0.  0.
     999903    2    3    3    0    0 -0.31392660309E-01  0.34561890732E-01 -0.11770848935E+00  0.12827097525E+00  0.20448256953E-01 0.  0.
         14    1    1    2    0    0 -0.56350372748E-02  0.19611495825E-01 -0.12094919896E-01  0.23720276155E-01  0.00000000000E+00 0.  1.
     999901    1    3    3    0    0  0.37027697584E-01 -0.54173386557E-01  0.12980340925E+00  0.89193874860E+00  0.88000000000E+00 0.  1.
        -11    1    4    4    0    0 -0.21500974511E-01  0.30208924339E-01 -0.68564410622E-01  0.77950051569E-01  0.51100000000E-03 0.  1.
         11    1    4    4    0    0 -0.98916857979E-02  0.43529663930E-02 -0.49144078731E-01  0.50320923677E-01  0.51100000000E-03 0. -1.
</event>
<event>
 8    1  0.1213322E+005  0.1043930E+01  0.7957747E-01            NaN
         13   -1    0    0    0    0  0.00000000000E+00  0.00000000000E+00  0.74505805969E-08  0.10566000000E+00  0.10566000000E+00 0.  1.
     999900   -1    0    0    0    0 -0.00000000000E+00 -0.00000000000E+00 -0.74505805969E-08  0.93827000000E+00  0.93827000000E+00 0. -1.
     999902    2    1    2    0    0  0.65350883494E-02  0.19896090593E-02  0.21836053873E-01  0.10210503328E+01  0.10207939571E+01 0.  0.
     999903    2    3    3    0    0 -0.36808469119E-01 -0.11129545865E+00  0.57243568509E-01  0.13202510105E+00  0.20304153670E-01 0.  0.
         14    1    1    2    0    0 -0.65350883494E-02 -0.19896090593E-02 -0.21836053873E-01  0.22879667233E-01  0.00000000000E+00 0. -1.
     999901    1    3    3    0    0  0.43343557468E-01  0.11328506771E+00 -0.35407514636E-01  0.88902523172E+00  0.88000000000E+00 0. -1.
        -11    1    4    4    0    0 -0.10279240888E-01 -0.25033906408E-01  0.43420509954E-02  0.27413022291E-01  0.51100000000E-03 0.  1.
         11    1    4    4    0    0 -0.26529228231E-01 -0.86261552241E-01  0.52901517514E-01  0.10461207876E+00  0.51100000000E-03 0. -1.
</event>
<event>
 8    1  0.1213322E+005  0.1043930E+01  0.7957747E-01            NaN
         13   -1    0    0    0    0  0.00000000000E+00  0.00000000000E+00  0.74505805969E-08  0.10566000000E+00  0.10566000000E+00 0. -1.
     999900   -1    0    0    0    0 -0.00000000000E+00 -0.00000000000E+00 -0.74505805969E-08  0.93827000000E+00  0.93827000000E+00 0.  1.
     999902    2    1    2    0    0 -0.11639547533E-01 -0.42162448984E-02  0.19536776672E-01  0.10208011991E+01  0.10205391451E+01 0.  0.
     999903    2    3    3    0    0 -0.20297823041E-01 -0.10487321556E-01 -0.12499875798E+00  0.12894649519E+00  0.21920848302E-01 0.  0.
         14    1    1    2    0    0  0.11639547533E-01  0.42162448984E-02 -0.19536776672E-01  0.23128800888E-01  0.00000000000E+00 0.  1.
     999901    1    3    3    0    0  0.86582755080E-02  0.62710766574E-02  0.14453553465E+00  0.89185470393E+00  0.88000000000E+00 0. -1.
        -11    1    4    4    0    0 -0.17891607006E-01  0.18823824428E-02 -0.89024746317E-01  0.90825764751E-01  0.51100000000E-03 0. -1.
         11    1    4    4    0    0 -0.24062160345E-02 -0.12369703999E-01 -0.35974011665E-01  0.38120730435E-01  0.51100000000E-03 0.  1.
</event>
<event>
 7    1  0.1213322E+005  0.1043930E+01  0.7957747E-01            NaN
         13   -1    0    0    0    0  0.00000000000E+00  0.00000000000E+00  0.74505805969E-08  0.10566000000E+00  0.10566000000E+00 0.  1.
     999900   -1    0    0    0    0 -0.00000000000E+00 -0.00000000000E+00 -0.74505805969E-08  0.93827000000E+00  0.93827000000E+00 0. -1.
     999903    2    1    2    0    0 -0.39099101183E-01 -0.27902096322E-01  0.16963480754E-01  0.55037145743E-01  0.20834131606E-01 0.  0.
         14    1    1    2    0    0  0.75893955029E-01  0.68785005025E-01  0.27502923394E-01  0.10605508060E+00  0.00000000000E+00 0. -1.
     999901    1    1    2    0    0 -0.36794853846E-01 -0.40882908703E-01 -0.44466404148E-01  0.88283777365E+00  0.88000000000E+00 0.  1.
        -11    1    3    3    0    0 -0.33897027929E-01 -0.26828584552E-01  0.70844505875E-02  0.43809040307E-01  0.51100000000E-03 0. -1.
         11    1    3    3    0    0 -0.52020732538E-02 -0.10735117698E-02  0.98790301662E-02  0.11228105436E-01  0.51100000000E-03 0.  1.
</event>
<event>
 8    1  0.1213322E+005  0.1043930E+01  0.7957747E-01            NaN
         13   -1    0    0    0    0  0.00000000000E+00  0.00000000000E+00  0.74505805969E-08  0.10566000000E+00  0.10566000000E+00 0.  1.
     999900   -1    0    0    0    0 -0.00000000000E+00 -0.00000000000E+00 -0.74505805969E-08  0.93827000000E+00  0.93827000000E+00 0. -1.
     999902    2    1    2    0    0 -0.11389701847E-01 -0.18351484799E-01  0.93623903085E-02  0.10203894678E+01  0.10201178900E+01 0.  0.
     999903    2    3    3    0    0  0.21150614680E-01 -0.87454129581E-01 -0.93303341680E-01  0.13113455486E+00  0.19879251198E-01 0.  0.
         14    1    1    2    0    0  0.11389701847E-01  0.18351484799E-01 -0.93623903085E-02  0.23540532169E-01  0.00000000000E+00 0. -1.
     999901    1    3    3    0    0 -0.32540316526E-01  0.69102644781E-01  0.10266573199E+00  0.88925491297E+00  0.88000000000E+00 0.  1.
        -11    1    4    4    0    0  0.20755412690E-01 -0.43655144407E-01 -0.49237202636E-01  0.69000884295E-01  0.51100000000E-03 0.  1.
         11    1    4    4    0    0  0.39520198999E-03 -0.43798985174E-01 -0.44066139044E-01  0.62133670567E-01  0.51100000000E-03 0. -1.
</event>
<event>
 8    1  0.1213322E+005  0.1043930E+01  0.7957747E-01            NaN
         13   -1    0    0    0    0  0.00000000000E+00  0.00000000000E+00  0.74505805969E-08  0.10566000000E+00  0.10566000000E+00 0.  1.
     999900   -1    0    0    0    0 -0.00000000000E+00 -0.00000000000E+00 -0.74505805969E-08  0.93827000000E+00  0.93827000000E+00 0. -1.
     999902    2    1    2    0    0 -0.92977826841E-02  0.21177984881E-01  0.74813496587E-03  0.10207887919E+01  0.10205264534E+01 0.  0.
     999903    2    3    3    0    0  0.12788033010E+00 -0.27713901080E-02 -0.86768015615E-02  0.12978922028E+00  0.20221161850E-01 0.  0.
         14    1    1    2    0    0  0.92977826841E-02 -0.21177984881E-01 -0.74813496587E-03  0.23141208101E-01  0.00000000000E+00 0. -1.
     999901    1    3    3    0    0 -0.13717811279E+00  0.23949374989E-01  0.94249365274E-02  0.89099957162E+00  0.88000000000E+00 0. -1.
        -11    1    4    4    0    0  0.33289636591E-01 -0.94142400242E-02 -0.42748883801E-02  0.34862065505E-01  0.51100000000E-03 0.  1.
         11    1    4    4    0    0  0.94590693510E-01  0.66428499162E-02 -0.44019131814E-02  0.94927154779E-01  0.51100000000E-03 0. -1.
</event>
<event>
 8    1  0.1213322E+005  0.1043930E+01  0.7957747E-01            NaN
         13   -1    0    0    0    0  0.00000000000E+00  0.00000000000E+00  0.74505805969E-08  0.10566000000E+00  0.10566000000E+00 0. -1.
     999900   -1    0    0    0    0 -0.00000000000E+00 -0.00000000000E+00 -0.74505805969E-08  0.93827000000E+00  0.93827000000E+00 0. -1.
     999902    2    1    2    0    0 -0.22572204046E-01  0.84323786279E-02  0.16142745467E-02  0.10197801493E+01  0.10194941578E+01 0.  0.
     999903    2    3    3    0    0 -0.81305709150E-01  0.30784702856E-01  0.97659020222E-01  0.13232657636E+00  0.20364731996E-01 0.  0.
         14    1    1    2    0    0  0.22572204046E-01 -0.84323786279E-02 -0.16142745467E-02  0.24149850665E-01  0.00000000000E+00 0. -1.
     999901    1    3    3    0    0  0.58733505103E-01 -0.22352324228E-01 -0.96044745675E-01  0.88745357298E+00  0.88000000000E+00 0. -1.
        -11    1    4    4    0    0 -0.46759746193E-01  0.84991216372E-02  0.44366274943E-01  0.65017969870E-01  0.51100000000E-03 0.  1.
         11    1    4    4    0    0 -0.34545962957E-01  0.22285581219E-01  0.53292745279E-01  0.67308606487E-01  0.51100000000E-03 0. -1.
</event>
<event>
 8    1  0.1213322E+005  0.1043930E+01  0.7957747E-01            NaN
         13   -1    0    0    0    0  0.00000000000E+00  0.00000000000E+00  0.74505805969E-08  0.10566000000E+00  0.10566000000E+00 0. -1.
     999900   -1    0    0    0    0 -0.00000000000E+00 -0.00000000000E+00 -0.74505805969E-08  0.93827000000E+00  0.93827000000E+00 0.  1.
     999902    2    1    2    0    0 -0.65862649211E-02  0.22685990196E-01 -0.42534763916E-02  0.10199273939E+01  0.10196449204E+01 0.  0.
     999903    2    3    3    0    0 -0.87259769673E-01 -0.90915968980E-01 -0.17391220987E-01  0.12886834996E+00  0.20606218387E-01 0.  0.
         14    1    1    2    0    0  0.65862649211E-02 -0.22685990196E-01  0.42534763916E-02  0.24002606071E-01  0.00000000000E+00 0. -1.
     999901    1    3    3    0    0  0.80673504752E-01  0.11360195918E+00  0.13137744596E-01  0.89105904396E+00  0.88000000000E+00 0. -1.
        -11    1    4    4    0    0 -0.70159830376E-01 -0.82871765051E-01 -0.12217721560E-01  0.10926877451E+00  0.51100000000E-03 0.  1.
         11    1    4    4    0    0 -0.17099939297E-01 -0.80442039290E-02 -0.51734994270E-02  0.19599575458E-01  0.51100000000E-03 0. -1.
</event>
<event>
 8    1  0.1213322E+005  0.1043930E+01  0.7957747E-01            NaN
         13   -1    0    0    0    0  0.00000000000E+00  0.00000000000E+00  0.74505805969E-08  0.10566000000E+00  0.10566000000E+00 0.  1.
     999900   -1    0    0    0    0 -0.00000000000E+00 -0.00000000000E+00 -0.74505805969E-08  0.93827000000E+00  0.93827000000E+00 0.  1.
     999902    2    1    2    0    0  0.12735880957E-01 -0.15663512719E-01 -0.89572428299E-02  0.10218442468E+01  0.10216055424E+01 0.  0.
     999903    2    3    3    0    0  0.30576278101E-01  0.12236354685E+00  0.26018449248E-01  0.13022042032E+00  0.19304190956E-01 0.  0.
         14    1    1    2    0    0 -0.12735880957E-01  0.15663512719E-01  0.89572428299E-02  0.22085753181E-01  0.00000000000E+00 0. -1.
     999901    1    3    3    0    0 -0.17840397144E-01 -0.13802705956E+00 -0.34975692078E-01  0.89162382650E+00  0.88000000000E+00 0.  1.
        -11    1    4    4    0    0  0.39246265587E-02  0.53812968220E-01  0.86604135227E-02  0.54648898668E-01  0.51100000000E-03 0. -1.
         11    1    4    4    0    0  0.26651651542E-01  0.68550578625E-01  0.17358035725E-01  0.75571521654E-01  0.51100000000E-03 0.  1.
</event>
<event>
 8    1  0.1213322E+005  0.1043930E+01  0.7957747E-01            NaN
         13   -1    0    0    0    0  0.00000000000E+00  0.00000000000E+00  0.74505805969E-08  0.10566000000E+00  0.10566000000E+00 0. -1.
     999900   -1    0    0    0    0 -0.00000000000E+00 -0.00000000000E+00 -0.74505805969E-08  0.93827000000E+00  0.93827000000E+00 0.  1.
     999902    2    1    2    0    0 -0.11435375948E-01  0.57985842624E-02 -0.19497494840E-01  0.10205945397E+01  0.10203277271E+01 0.  0.
     999903    2    3    3    0    0  0.12491639511E+00  0.18175643715E-01 -0.24053356252E-01  0.12999600335E+00  0.19645283135E-01 0.  0.
         14    1    1    2    0    0  0.11435375948E-01 -0.57985842624E-02  0.19497494840E-01  0.23335460303E-01  0.00000000000E+00 0. -1.
     999901    1    3    3    0    0 -0.13635177105E+00 -0.12377059453E-01  0.45558614122E-02  0.89059853635E+00  0.88000000000E+00 0. -1.
        -11    1    4    4    0    0  0.75931685527E-01  0.18440806774E-01 -0.85172731197E-02  0.78603366873E-01  0.51100000000E-03 0.  1.
         11    1    4    4    0    0  0.48984709579E-01 -0.26516305905E-03 -0.15536083132E-01  0.51392636477E-01  0.51100000000E-03 0. -1.
</event>
<event>
 8    1  0.1213322E+005  0.1043930E+01  0.7957747E-01            NaN
         13   -1    0    0    0    0  0.00000000000E+00  0.00000000000E+00  0.74505805969E-08  0.10566000000E+00  0.10566000000E+00 0.  1.
     999900   -1    0    0    0    0 -0.00000000000E+00 -0.00000000000E+00 -0.74505805969E-08  0.93827000000E+00  0.93827000000E+00 0. -1.
     999902    2    1    2    0    0 -0.38603247414E-02 -0.14014878703E-01 -0.19150793444E-01  0.10198868758E+01  0.10196034364E+01 0.  0.
     999903    2    3    3    0    0  0.89442173004E-01  0.26946382923E-01  0.85107025827E-01  0.12789311241E+00  0.19683304889E-01 0.  0.
         14    1    1    2    0    0  0.38603247414E-02  0.14014878703E-01  0.19150793444E-01  0.24043124208E-01  0.00000000000E+00 0.  1.
     999901    1    3    3    0    0 -0.93302497746E-01 -0.40961261626E-01 -0.10425781927E+00  0.89199376339E+00  0.88000000000E+00 0.  1.
        -11    1    4    4    0    0  0.72752538866E-01  0.29236367766E-01  0.73109407048E-01  0.10720514741E+00  0.51100000000E-03 0. -1.
         11    1    4    4    0    0  0.16689634138E-01 -0.22899848425E-02  0.11997618779E-01  0.20687964994E-01  0.51100000000E-03 0.  1.
</event>
<event>
 8    1  0.1213322E+005  0.1043930E+01  0.7957747E-01            NaN
         13   -1    0    0    0    0  0.00000000000E+00  0.00000000000E+00  0.74505805969E-08  0.10566000000E+00  0.10566000000E+00 0. -1.
     999900   -1    0    0    0    0 -0.00000000000E+00 -0.00000000000E+00 -0.74505805969E-08  0.93827000000E+00  0.93827000000E+00 0. -1.
     999902    2    1    2    0    0 -0.64765626604E-02 -0.18326123406E-01  0.13548121031E-01  0.10202372955E+01  0.10199621537E+01 0.  0.
     999903    2    3    3    0    0  0.65608562755E-01  0.73140653126E-01  0.82514698062E-01  0.12988970873E+00  0.20214410508E-01 0.  0.
         14    1    1    2    0    0  0.64765626604E-02  0.18326123406E-01 -0.13548121031E-01  0.23692704499E-01  0.00000000000E+00 0. -1.
     999901    1    3    3    0    0 -0.72085125416E-01 -0.91466776532E-01 -0.68966577032E-01  0.89034758677E+00  0.88000000000E+00 0.  1.
        -11    1    4    4    0    0  0.17190639949E-01  0.10945294362E-01  0.25304211990E-01  0.32494335444E-01  0.51100000000E-03 0.  1.
         11    1    4    4    0    0  0.48417922806E-01  0.62195358763E-01  0.57210486072E-01  0.97395373290E-01  0.51100000000E-03 0. -1.
</event>
<event>
 8    1  0.1213322E+005  0.1043930E+01  0.7957747E-01            NaN
         13   -1    0    0    0    0  0.00000000000E+00  0.00000000000E+00  0.74505805969E-08  0.10566000000E+00  0.10566000000E+00 0. -1.
     999900   -1    0    0    0    0 -0.00000000000E+00 -0.00000000000E+00 -0.74505805969E-08  0.93827000000E+00  0.93827000000E+00 0. -1.
     999902    2    1    2    0    0 -0.17171122544E-01  0.66336013522E-02  0.13801761180E-01  0.10209225941E+01  0.10206633149E+01 0.  0.
     999903    2    3    3    0    0  0.24324902128E-02  0.83553346100E-01 -0.97725633568E-01  0.13033890426E+00  0.21233272332E-01 0.  0.
         14    1    1    2    0    0  0.17171122544E-01 -0.66336013522E-02 -0.13801761180E-01  0.23007405938E-01  0.00000000000E+00 0. -1.
     999901    1    3    3    0    0 -0.19603612757E-01 -0.76919744748E-01  0.11152739475E+00  0.89058368980E+00  0.88000000000E+00 0.  1.
        -11    1    4    4    0    0 -0.89564640493E-02  0.24827941006E-01 -0.31309887244E-01  0.40953816221E-01  0.51100000000E-03 0. -1.
         11    1    4    4    0    0  0.11388954262E-01  0.58725405095E-01 -0.66415746324E-01  0.89385088037E-01  0.51100000000E-03 0.  1.
</event>
<event>
 8    1  0.1213322E+005  0.1043930E+01  0.7957747E-01            NaN
         13   -1    0    0    0    0  0.00000000000E+00  0.00000000000E+00  0.74505805969E-08  0.10566000000E+00  0.10566000000E+00 0. -1.
     999900   -1    0    0    0    0 -0.00000000000E+00 -0.00000000000E+00 -0.74505805969E-08  0.93827000000E+00  0.93827000000E+00 0. -1.
     999902    2    1    2    0    0  0.44910803485E-03 -0.45255937980E-02  0.24003246230E-01  0.10194997211E+01  0.10192069676E+01 0.  0.
     999903    2    3    3    0    0  0.39208368763E-01 -0.11999294004E+00 -0.23251619052E-01  0.12985484216E+00  0.19647910940E-01 0.  0.
         14    1    1    2    0    0 -0.44910803485E-03  0.45255937980E-02 -0.24003246230E-01  0.24430278894E-01  0.00000000000E+00 0.  1.
     999901    1    3    3    0    0 -0.38759260728E-01  0.11546734624E+00  0.47254865283E-01  0.88964487894E+00  0.88000000000E+00 0.  1.
        -11    1    4    4    0    0  0.34777922705E-01 -0.11067734366E+00 -0.15724269336E-01  0.11707472859E+00  0.51100000000E-03 0. -1.
         11    1    4    4    0    0  0.44304460575E-02 -0.93155963775E-02 -0.75273497163E-02  0.12780113571E-01  0.51100000000E-03 0.  1.
</event>
<event>
 8    1  0.1213322E+005  0.1043930E+01  0.7957747E-01            NaN
         13   -1    0    0    0    0  0.00000000000E+00  0.00000000000E+00  0.74505805969E-08  0.10566000000E+00  0.10566000000E+00 0.  1.
     999900   -1    0    0    0    0 -0.00000000000E+00 -0.00000000000E+00 -0.74505805969E-08  0.93827000000E+00  0.93827000000E+00 0.  1.
     999902    2    1    2    0    0  0.27941352495E-01 -0.47908054977E-02  0.60404446855E-02  0.10149445214E+01  0.10145305434E+01 0.  0.
     999903    2    3    3    0    0 -0.30180297045E-02  0.75223514627E-01 -0.96953710329E-01  0.12479365177E+00  0.22488839879E-01 0.  0.
         14    1    1    2    0    0 -0.27941352495E-01  0.47908054977E-02 -0.60404446855E-02  0.28985478581E-01  0.00000000000E+00 0.  1.
     999901    1    3    3    0    0  0.30959382199E-01 -0.80014320125E-01  0.10299415501E+00  0.89015086965E+00  0.88000000000E+00 0. -1.
        -11    1    4    4    0    0  0.85312004324E-02  0.16068782699E-01 -0.19930075158E-01  0.26989927289E-01  0.51100000000E-03 0.  1.
         11    1    4    4    0    0 -0.11549230137E-01  0.59154731928E-01 -0.77023635171E-01  0.97803724480E-01  0.51100000000E-03 0. -1.
</event>
<event>
 8    1  0.1213322E+005  0.1043930E+01  0.7957747E-01            NaN
         13   -1    0    0    0    0  0.00000000000E+00  0.00000000000E+00  0.74505805969E-08  0.10566000000E+00  0.10566000000E+00 0.  1.
     999900   -1    0    0    0    0 -0.00000000000E+00 -0.00000000000E+00 -0.74505805969E-08  0.93827000000E+00  0.93827000000E+00 0.  1.
     999902    2    1    2    0    0  0.14711789426E-01 -0.17760794457E-01 -0.21313270005E-02  0.10207691468E+01  0.10205063576E+01 0.  0.
     999903    2    3    3    0    0  0.96830849815E-02 -0.33497483944E-01 -0.12526743571E+00  0.13204228629E+00  0.22965002771E-01 0.  0.
         14    1    1    2    0    0 -0.14711789426E-01  0.17760794457E-01  0.21313270005E-02  0.23160853237E-01  0.00000000000E+00 0.  1.
     999901    1    3    3    0    0  0.50287044445E-02  0.15736689487E-01  0.12313610871E+00  0.88872686048E+00  0.88000000000E+00 0. -1.
        -11    1    4    4    0    0 -0.71898738749E-02 -0.15299035057E-01 -0.52668609613E-01  0.55317251555E-01  0.51100000000E-03 0.  1.
         11    1    4    4    0    0  0.16872958856E-01 -0.18198448887E-01 -0.72598826100E-01  0.76725034732E-01  0.51100000000E-03 0. -1.
</event>
<event>
 8    1  0.1213322E+005  0.1043930E+01  0.7957747E-01            NaN
         13   -1    0    0    0    0  0.00000000000E+00  0.00000000000E+00  0.74505805969E-08  0.10566000000E+00  0.10566000000E+00 0. -1.
     999900   -1    0    0    0    0 -0.00000000000E+00 -0.00000000000E+00 -0.74505805969E-08  0.93827000000E+00  0.93827000000E+00 0.  1.
     999902    2    1    2    0    0  0.19131066965E-01  0.14433372959E-01 -0.23651368517E-02  0.10198485995E+01  0.10195642462E+01 0.  0.
     999903    2    3    3    0    0  0.64802681787E-01  0.47754296279E-01 -0.10311359543E+00  0.13229779405E+00  0.19759361550E-01 0.  0.
         14    1    1    2    0    0 -0.19131066965E-01 -0.14433372959E-01  0.23651368517E-02  0.24081400510E-01  0.00000000000E+00 0. -1.
     999901    1    3    3    0    0 -0.45671614822E-01 -0.33320923321E-01  0.10074845858E+00  0.88755080544E+00  0.88000000000E+00 0. -1.
        -11    1    4    4    0    0  0.42689779837E-01  0.31085562752E-01 -0.81727631052E-01  0.97305684893E-01  0.51100000000E-03 0.  1.
         11    1    4    4    0    0  0.22112901950E-01  0.16668733527E-01 -0.21385964375E-01  0.34992109158E-01  0.51100000000E-03 0. -1.
</event>
<event>
 8    1  0.1213322E+005  0.1043930E+01  0.7957747E-01            NaN
         13   -1    0    0    0    0  0.00000000000E+00  0.00000000000E+00  0.74505805969E-08  0.10566000000E+00  0.10566000000E+00 0.  1.
     999900   -1    0    0    0    0 -0.00000000000E+00 -0.00000000000E+00 -0.74505805969E-08  0.93827000000E+00  0.93827000000E+00 0.  1.
     999902    2    1    2    0    0 -0.54368768182E-03 -0.23613199923E-01  0.14824869974E-02  0.10202640630E+01  0.10199895498E+01 0.  0.
     999903    2    3    3    0    0  0.12451425532E+00 -0.30278870896E-02  0.33701642078E-01  0.13060046467E+00  0.20191899775E-01 0.  0.
         14    1    1    2    0    0  0.54368768182E-03  0.23613199923E-01 -0.14824869974E-02  0.23665937011E-01  0.00000000000E+00 0. -1.
     999901    1    3    3    0    0 -0.12505794300E+00 -0.20585312834E-01 -0.32219155080E-01  0.88966359831E+00  0.88000000000E+00 0.  1.
        -11    1    4    4    0    0  0.51825737692E-01 -0.13499345368E-02  0.24392305143E-01  0.57297251956E-01  0.51100000000E-03 0.  1.
         11    1    4    4    0    0  0.72688517627E-01 -0.16779525528E-02  0.93093369350E-02  0.73303212718E-01  0.51100000000E-03 0. -1.
</event>
<event>
 7    1  0.1213322E+005  0.1043930E+01  0.7957747E-01            NaN
         13   -1    0    0    0    0  0.00000000000E+00  0.00000000000E+00  0.74505805969E-08  0.10566000000E+00  0.10566000000E+00 0.  1.
     999900   -1    0    0    0    0 -0.00000000000E+00 -0.00000000000E+00 -0.74505805969E-08  0.93827000000E+00  0.93827000000E+00 0.  1.
     999903    2    1    2    0    0  0.49124696638E-01 -0.32507441895E-01  0.99431155926E-01  0.11717504220E+00  0.19325272242E-01 0.  0.
         14    1    1    2    0    0  0.13843760747E-01 -0.27235522031E-01 -0.24782022779E-01  0.39339191971E-01  0.00000000000E+00 0. -1.
     999901    1    1    2    0    0 -0.62968457385E-01  0.59742963925E-01 -0.74649133146E-01  0.88741576583E+00  0.88000000000E+00 0.  1.
        -11    1    3    3    0    0  0.31055981444E-01 -0.21606193530E-01  0.44990302708E-01  0.58785117514E-01  0.51100000000E-03 0.  1.
         11    1    3    3    0    0  0.18068715193E-01 -0.10901248364E-01  0.54440853218E-01  0.58389924685E-01  0.51100000000E-03 0. -1.
</event>
<event>
 8    1  0.1213322E+005  0.1043930E+01  0.7957747E-01            NaN
         13   -1    0    0    0    0  0.00000000000E+00  0.00000000000E+00  0.74505805969E-08  0.10566000000E+00  0.10566000000E+00 0. -1.
     999900   -1    0    0    0    0 -0.00000000000E+00 -0.00000000000E+00 -0.74505805969E-08  0.93827000000E+00  0.93827000000E+00 0.  1.
     999902    2    1    2    0    0  0.23050245634E-01  0.65449907681E-02 -0.21313558690E-02  0.10198739528E+01  0.10195902051E+01 0.  0.
     999903    2    3    3    0    0 -0.12235276123E+00 -0.27495582466E-01 -0.79331384484E-02  0.12727412327E+00  0.20237651382E-01 0.  0.
         14    1    1    2    0    0 -0.23050245634E-01 -0.65449907681E-02  0.21313558690E-02  0.24056047177E-01  0.00000000000E+00 0.  1.
     999901    1    3    3    0    0  0.14540300686E+00  0.34040573234E-01  0.58017825795E-02  0.89259982955E+00  0.88000000000E+00 0. -1.
        -11    1    4    4    0    0 -0.91338091879E-01 -0.27622809813E-01 -0.11215439556E-01  0.96081808140E-01  0.51100000000E-03 0. -1.
         11    1    4    4    0    0 -0.31014669352E-01  0.12722734743E-03  0.32823011080E-02  0.31192315133E-01  0.51100000000E-03 0.  1.
</event>
<event>
 8    1  0.1213322E+005  0.1043930E+01  0.7957747E-01            NaN
         13   -1    0    0    0    0  0.00000000000E+00  0.00000000000E+00  0.74505805969E-08  0.10566000000E+00  0.10566000000E+00 0. -1.
     999900   -1    0    0    0    0 -0.00000000000E+00 -0.00000000000E+00 -0.74505805969E-08  0.93827000000E+00  0.93827000000E+00 0.  1.
     999902    2    1    2    0    0 -0.80128423235E-02 -0.20577366932E-01  0.12978525050E-01  0.10183160237E+01  0.10179938351E+01 0.  0.
     999903    2    3    3    0    0 -0.50604766951E-01  0.69362085406E-02 -0.11522126739E+00  0.12758247446E+00  0.19808934903E-01 0.  0.
         14    1    1    2    0    0  0.80128423235E-02  0.20577366932E-01 -0.12978525050E-01  0.25613976349E-01  0.00000000000E+00 0. -1.
     999901    1    3    3    0    0  0.42591924628E-01 -0.27513575472E-01  0.12819979244E+00  0.89073354919E+00  0.88000000000E+00 0. -1.
        -11    1    4    4    0    0 -0.23459089874E-01  0.12835746433E-01 -0.50382990599E-01  0.57042020887E-01  0.51100000000E-03 0.  1.
         11    1    4    4    0    0 -0.27145677077E-01 -0.58995378920E-02 -0.64838276792E-01  0.70540453569E-01  0.51100000000E-03 0. -1.
</event>
<event>
 8    1  0.1213322E+005  0.1043930E+01  0.7957747E-01            NaN
         13   -1    0    0    0    0  0.00000000000E+00  0.00000000000E+00  0.74505805969E-08  0.10566000000E+00  0.10566000000E+00 0. -1.
     999900   -1    0    0    0    0 -0.00000000000E+00 -0.00000000000E+00 -0.74505805969E-08  0.93827000000E+00  0.93827000000E+00 0. -1.
     999902    2    1    2    0    0 -0.16124364374E-01 -0.14617598344E-01  0.95530381895E-02  0.10201617471E+01  0.10198848270E+01 0.  0.
     999903    2    3    3    0    0 -0.57953341207E-01 -0.20350809009E-01  0.11597005118E+00  0.13274577154E+00  0.19991045647E-01 0.  0.
         14    1    1    2    0    0  0.16124364374E-01  0.14617598344E-01 -0.95530381895E-02  0.23768252911E-01  0.00000000000E+00 0. -1.
     999901    1    3    3    0    0  0.41828976833E-01  0.57332106652E-02 -0.10641701299E+00  0.88741597555E+00  0.88000000000E+00 0. -1.
        -11    1    4    4    0    0 -0.40922410143E-01 -0.23607767543E-01  0.85040038829E-01  0.97283295922E-01  0.51100000000E-03 0.  1.
         11    1    4    4    0    0 -0.17030931064E-01  0.32569585341E-02  0.30930012352E-01  0.35462475617E-01  0.51100000000E-03 0. -1.
</event>
<event>
 8    1  0.1213322E+005  0.1043930E+01  0.7957747E-01            NaN
         13   -1    0    0    0    0  0.00000000000E+00  0.00000000000E+00  0.74505805969E-08  0.10566000000E+00  0.10566000000E+00 0. -1.
     999900   -1    0    0    0    0 -0.00000000000E+00 -0.00000000000E+00 -0.74505805969E-08  0.93827000000E+00  0.93827000000E+00 0. -1.
     999902    2    1    2    0    0 -0.23644304390E-01  0.98530052181E-03  0.18952154024E-02  0.10201894063E+01  0.10199131380E+01 0.  0.
     999903    2    3    3    0    0  0.11179899771E+00  0.36979473152E-01  0.46517831162E-01  0.12798335030E+00  0.18690425781E-01 0.  0.
         14    1    1    2    0    0  0.23644304390E-01 -0.98530052181E-03 -0.18952154024E-02  0.23740593687E-01  0.00000000000E+00 0.  1.
     999901    1    3    3    0    0 -0.13544330210E+00 -0.35994172630E-01 -0.44622615760E-01  0.89220605601E+00  0.88000000000E+00 0. -1.
        -11    1    4    4    0    0  0.38788474689E-01  0.38789182655E-02  0.13034915144E-01  0.41106713678E-01  0.51100000000E-03 0.  1.
         11    1    4    4    0    0  0.73010523017E-01  0.33100554887E-01  0.33482916018E-01  0.86876636624E-01  0.51100000000E-03 0. -1.
</event>
<event>
 8    1  0.1213322E+005  0.1043930E+01  0.7957747E-01            NaN
         13   -1    0    0    0    0  0.00000000000E+00  0.00000000000E+00  0.74505805969E-08  0.10566000000E+00  0.10566000000E+00 0.  1.
     999900   -1    0    0    0    0 -0.00000000000E+00 -0.00000000000E+00 -0.74505805969E-08  0.93827000000E+00  0.93827000000E+00 0. -1.
     999902    2    1    2    0    0 -0.10049733832E-02 -0.17270489628E-01  0.16587918758E-01  0.10199625464E+01  0.10196809095E+01 0.  0.
     999903    2    3    3    0    0  0.77332120353E-01 -0.48706233799E-01 -0.89629810302E-01  0.12956538095E+00  0.20028254975E-01 0.  0.
         14    1    1    2    0    0  0.10049733832E-02  0.17270489628E-01 -0.16587918758E-01  0.23967453603E-01  0.00000000000E+00 0. -1.
     999901    1    3    3    0    0 -0.78337093736E-01  0.31435744171E-01  0.10621772906E+00  0.89039716545E+00  0.88000000000E+00 0.  1.
        -11    1    4    4    0    0  0.53521069337E-01 -0.40222021156E-01 -0.74223721885E-01  0.99958680765E-01  0.51100000000E-03 0.  1.
         11    1    4    4    0    0  0.23811051015E-01 -0.84842126432E-02 -0.15406088416E-01  0.29606700186E-01  0.51100000000E-03 0. -1.
</event>
<event>
 8    1  0.1213322E+005  0.1043930E+01  0.7957747E-01            NaN
         13   -1    0    0    0    0  0.00000000000E+00  0.00000000000E+00  0.74505805969E-08  0.10566000000E+00  0.10566000000E+00 0.  1.
     999900   -1    0    0    0    0 -0.00000000000E+00 -0.00000000000E+00 -0.74505805969E-08  0.93827000000E+00  0.93827000000E+00 0.  1.
     999902    2    1    2    0    0  0.10414573618E-02 -0.14864699612E-01  0.18598893759E-01  0.10200980304E+01  0.10198196060E+01 0.  0.
     999903    2    3    3    0    0 -0.78039022867E-02 -0.72852676793E-02  0.13092327554E+00  0.13288190397E+00  0.20067892491E-01 0.  0.
         14    1    1    2    0    0 -0.10414573618E-02  0.14864699612E-01 -0.18598893759E-01  0.23831969643E-01  0.00000000000E+00 0. -1.
     999901    1    3    3    0    0  0.88453596484E-02 -0.75794319331E-02 -0.11232438178E+00  0.88721612639E+00  0.88000000000E+00 0.  1.
        -11    1    4    4    0    0 -0.10235415065E-01 -0.12859693907E-01  0.87484040522E-01  0.89016031792E-01  0.51100000000E-03 0.  1.
         11    1    4    4    0    0  0.24315127788E-02  0.55744262276E-02  0.43439235017E-01  0.43865872179E-01  0.51100000000E-03 0. -1.
</event>
<event>
 8    1  0.1213322E+005  0.1043930E+01  0.7957747E-01            NaN
         13   -1    0    0    0    0  0.00000000000E+00  0.00000000000E+00  0.74505805969E-08  0.10566000000E+00  0.10566000000E+00 0. -1.
     999900   -1    0    0    0    0 -0.00000000000E+00 -0.00000000000E+00 -0.74505805969E-08  0.93827000000E+00  0.93827000000E+00 0.  1.
     999902    2    1    2    0    0 -0.33601216002E-02  0.78483549202E-02  0.21922888751E-01  0.10204034162E+01  0.10201321639E+01 0.  0.
     999903    2    3    3    0    0 -0.55700208894E-01  0.77409073380E-01  0.91111805649E-01  0.13340551066E+00  0.20024765482E-01 0.  0.
         14    1    1    2    0    0  0.33601216002E-02 -0.78483549202E-02 -0.21922888751E-01  0.23526583758E-01  0.00000000000E+00 0.  1.
     999901    1    3    3    0    0  0.52340087294E-01 -0.69560718460E-01 -0.69188916897E-01  0.88699790558E+00  0.88000000000E+00 0.  1.
        -11    1    4    4    0    0 -0.46355298610E-01  0.53513752801E-01  0.74816329129E-01  0.10300621182E+00  0.51100000000E-03 0.  1.
         11    1    4    4    0    0 -0.93449102846E-02  0.23895320579E-01  0.16295476520E-01  0.30399298838E-01  0.51100000000E-03 0. -1.
</event>
<event>
 8    1  0.1213322E+005  0.1043930E+01  0.7957747E-01            NaN
         13   -1    0    0    0    0  0.00000000000E+00  0.00000000000E+00  0.74505805969E-08  0.10566000000E+00  0.10566000000E+00 0.  1.
     999900   -1    0    0    0    0 -0.00000000000E+00 -0.00000000000E+00 -0.74505805969E-08  0.93827000000E+00  0.93827000000E+00 0.  1.
     999902    2    1    2    0    0  0.21977702133E-02 -0.24712377574E-01 -0.11121637996E-02  0.10190951715E+01  0.10187925205E+01 0.  0.
     999903    2    3    3    0    0  0.64699756269E-01  0.30837585385E-01  0.10512829795E+00  0.12876976335E+00  0.19816099262E-01 0.  0.
         14    1    1    2    0    0 -0.21977702133E-02  0.24712377574E-01  0.11121637996E-02  0.24834828520E-01  0.00000000000E+00 0.  1.
     999901    1    3    3    0    0 -0.62501986055E-01 -0.55549962959E-01 -0.10624046175E+00  0.89032540813E+00  0.88000000000E+00 0.  1.
        -11    1    4    4    0    0  0.40169124233E-01  0.24328977992E-01  0.53169408851E-01  0.70941559543E-01  0.51100000000E-03 0.  1.
         11    1    4    4    0    0  0.24530632036E-01  0.65086073926E-02  0.51958889100E-01  0.57828203809E-01  0.51100000000E-03 0. -1.
</event>
<event>
 8    1  0.1213322E+005  0.1043930E+01  0.7957747E-01            NaN
         13   -1    0    0    0    0  0.00000000000E+00  0.00000000000E+00  0.74505805969E-08  0.10566000000E+00  0.10566000000E+00 0. -1.
     999900   -1    0    0    0    0 -0.00000000000E+00 -0.00000000000E+00 -0.74505805969E-08  0.93827000000E+00  0.93827000000E+00 0. -1.
     999902    2    1    2    0    0  0.71796760828E-02 -0.20586384302E-01  0.10231355201E-01  0.10198462379E+01  0.10195618281E+01 0.  0.
     999903    2    3    3    0    0 -0.49747308545E-01 -0.40394854903E-01  0.11346870551E+00  0.13176346722E+00  0.19491668849E-01 0.  0.
         14    1    1    2    0    0 -0.71796760828E-02  0.20586384302E-01 -0.10231355201E-01  0.24083762092E-01  0.00000000000E+00 0.  1.
     999901    1    3    3    0    0  0.56926984628E-01  0.19808470602E-01 -0.10323735031E+00  0.88808277068E+00  0.88000000000E+00 0. -1.
        -11    1    4    4    0    0 -0.50386284282E-02 -0.14250407456E-01  0.28094914307E-01  0.31906852243E-01  0.51100000000E-03 0. -1.
         11    1    4    4    0    0 -0.44708680117E-01 -0.26144447447E-01  0.85373791203E-01  0.99856614981E-01  0.51100000000E-03 0.  1.
</event>
<event>
 8    1  0.1213322E+005  0.1043930E+01  0.7957747E-01            NaN
         13   -1    0    0    0    0  0.00000000000E+00  0.00000000000E+00  0.74505805969E-08  0.10566000000E+00  0.10566000000E+00 0.  1.
     999900   -1    0    0    0    0 -0.00000000000E+00 -0.00000000000E+00 -0.74505805969E-08  0.93827000000E+00  0.93827000000E+00 0. -1.
     999902    2    1    2    0    0  0.25941267331E-02  0.44508580764E-02  0.23107692076E-01  0.10202550118E+01  0.10199802861E+01 0.  0.
     999903    2    3    3    0    0  0.31534803537E-01 -0.11760183258E+00 -0.38786796088E-01  0.12920767879E+00  0.19119985539E-01 0.  0.
         14    1    1    2    0    0 -0.25941267331E-02 -0.44508580764E-02 -0.23107692076E-01  0.23674988156E-01  0.00000000000E+00 0. -1.
     999901    1    3    3    0    0 -0.28940676804E-01  0.12205269066E+00  0.61894488163E-01  0.89104733305E+00  0.88000000000E+00 0.  1.
        -11    1    4    4    0    0  0.25200798623E-01 -0.71440579636E-01 -0.16397054024E-01  0.77511039030E-01  0.51100000000E-03 0.  1.
         11    1    4    4    0    0  0.63340049138E-02 -0.46161252949E-01 -0.22389742064E-01  0.51696639763E-01  0.51100000000E-03 0. -1.
</event>
<event>
 8    1  0.1213322E+005  0.1043930E+01  0.7957747E-01            NaN
         13   -1    0    0    0    0  0.00000000000E+00  0.00000000000E+00  0.74505805969E-08  0.10566000000E+00  0.10566000000E+00 0.  1.
     999900   -1    0    0    0    0 -0.00000000000E+00 -0.00000000000E+00 -0.74505805969E-08  0.93827000000E+00  0.93827000000E+00 0. -1.
     999902    2    1    2    0    0  0.11269062258E-01 -0.86553815685E-02  0.18439993271E-01  0.10206503792E+01  0.10203848567E+01 0.  0.
     999903    2    3    3    0    0 -0.11102007324E+00 -0.51505249548E-01  0.42184357867E-01  0.13084447972E+00  0.19039706664E-01 0.  0.
         14    1    1    2    0    0 -0.11269062258E-01  0.86553815685E-02 -0.18439993271E-01  0.23279620832E-01  0.00000000000E+00 0. -1.
     999901    1    3    3    0    0  0.12228913550E+00  0.42849867980E-01 -0.23744364596E-01  0.88980589945E+00  0.88000000000E+00 0. -1.
        -11    1    4    4    0    0 -0.19909087324E-01 -0.16794283552E-02  0.77821611182E-02  0.21447969376E-01  0.51100000000E-03 0.  1.
         11    1    4    4    0    0 -0.91110985919E-01 -0.49825821193E-01  0.34402196749E-01  0.10939651034E+00  0.51100000000E-03 0. -1.
</event>
<event>
 8    1  0.1213322E+005  0.1043930E+01  0.7957747E-01            NaN
         13   -1    0    0    0    0  0.00000000000E+00  0.00000000000E+00  0.74505805969E-08  0.10566000000E+00  0.10566000000E+00 0.  1.
     999900   -1    0    0    0    0 -0.00000000000E+00 -0.00000000000E+00 -0.74505805969E-08  0.93827000000E+00  0.93827000000E+00 0.  1.
     999902    2    1    2    0    0  0.19856972676E-01 -0.11729244453E-01 -0.14686663451E-02  0.10208208780E+01  0.10205592748E+01 0.  0.
     999903    2    3    3    0    0  0.83217763837E-01  0.95436785674E-01  0.28855642286E-01  0.13154099428E+00  0.20904755620E-01 0.  0.
         14    1    1    2    0    0 -0.19856972676E-01  0.11729244453E-01  0.14686663451E-02  0.23109122011E-01  0.00000000000E+00 0. -1.
     999901    1    3    3    0    0 -0.63360791162E-01 -0.10716603013E+00 -0.30324308631E-01  0.88927988371E+00  0.88000000000E+00 0.  1.
        -11    1    4    4    0    0  0.37528480882E-01  0.29683788090E-01  0.15934779647E-01  0.50435032230E-01  0.51100000000E-03 0. -1.
         11    1    4    4    0    0  0.45689282955E-01  0.65752997584E-01  0.12920862639E-01  0.81105962053E-01  0.51100000000E-03 0.  1.
</event>
<event>
 8    1  0.1213322E+005  0.1043930E+01  0.7957747E-01            NaN
         13   -1    0    0    0    0  0.00000000000E+00  0.00000000000E+00  0.74505805969E-08  0.10566000000E+00  0.10566000000E+00 0.  1.
     999900   -1    0    0    0    0 -0.00000000000E+00 -0.00000000000E+00 -0.74505805969E-08  0.93827000000E+00  0.93827000000E+00 0.  1.
     999902    2    1    2    0    0  0.14312072907E-01 -0.18131298719E-01 -0.63395043464E-02  0.10199765297E+01  0.10196952252E+01 0.  0.
     999903    2    3    3    0    0  0.19912836213E-01  0.81934411227E-01 -0.96516278091E-01  0.12970894892E+00  0.19981258839E-01 0.  0.
         14    1    1    2    0    0 -0.14312072907E-01  0.18131298719E-01  0.63395043464E-02  0.23953470302E-01  0.00000000000E+00 0. -1.
     999901    1    3    3    0    0 -0.56007633063E-02 -0.10006570995E+00  0.90176773745E-01  0.89026758078E+00  0.88000000000E+00 0. -1.
        -11    1    4    4    0    0 -0.52178555314E-03  0.39155767983E-02 -0.69070120713E-04  0.39837034915E-02  0.51100000000E-03 0. -1.
         11    1    4    4    0    0  0.20434621767E-01  0.78018834429E-01 -0.96447207970E-01  0.12572524543E+00  0.51100000000E-03 0.  1.
</event>
<event>
 8    1  0.1213322E+005  0.1043930E+01  0.7957747E-01            NaN
         13   -1    0    0    0    0  0.00000000000E+00  0.00000000000E+00  0.74505805969E-08  0.10566000000E+00  0.10566000000E+00 0.  1.
     999900   -1    0    0    0    0 -0.00000000000E+00 -0.00000000000E+00 -0.74505805969E-08  0.93827000000E+00  0.93827000000E+00 0. -1.
     999902    2    1    2    0    0 -0.25772573054E-01 -0.13121768718E-01 -0.71764229006E-02  0.10141322252E+01  0.10136943636E+01 0.  0.
     999903    2    3    3    0    0  0.87494546043E-01  0.67518718572E-02 -0.82420527616E-01  0.12346613900E+00  0.27383585324E-01 0.  0.
         14    1    1    2    0    0  0.25772573054E-01  0.13121768718E-01  0.71764229006E-02  0.29797774779E-01  0.00000000000E+00 0.  1.
     999901    1    3    3    0    0 -0.11326711910E+00 -0.19873640575E-01  0.75244104715E-01  0.89066608623E+00  0.88000000000E+00 0.  1.
        -11    1    4    4    0    0  0.46147451274E-01 -0.78763025152E-02 -0.32381367964E-01  0.56924840910E-01  0.51100000000E-03 0. -1.
         11    1    4    4    0    0  0.41347094769E-01  0.14628174372E-01 -0.50039159651E-01  0.66541298086E-01  0.51100000000E-03 0.  1.
</event>
<event>
 8    1  0.1213322E+005  0.1043930E+01  0.7957747E-01            NaN
         13   -1    0    0    0    0  0.00000000000E+00  0.00000000000E+00  0.74505805969E-08  0.10566000000E+00  0.10566000000E+00 0. -1.
     999900   -1    0    0    0    0 -0.00000000000E+00 -0.00000000000E+00 -0.74505805969E-08  0.93827000000E+00  0.93827000000E+00 0.  1.
     999902    2    1    2    0    0  0.18182116909E-01 -0.13680790126E-01 -0.32969456968E-03  0.10211734165E+01  0.10209198228E+01 0.  0.
     999903    2    3    3    0    0 -0.10421762624E+00  0.54550242597E-01 -0.48520353102E-01  0.12878364151E+00  0.19848402203E-01 0.  0.
         14    1    1    2    0    0 -0.18182116909E-01  0.13680790126E-01  0.32969456968E-03  0.22756583493E-01  0.00000000000E+00 0. -1.
     999901    1    3    3    0    0  0.12239974314E+00 -0.68231032723E-01  0.48190658532E-01  0.89238977500E+00  0.88000000000E+00 0.  1.
        -11    1    4    4    0    0 -0.56521670699E-01  0.33225242198E-01 -0.16888904145E-01  0.67706071972E-01  0.51100000000E-03 0.  1.
         11    1    4    4    0    0 -0.47695955537E-01  0.21325000399E-01 -0.31631448957E-01  0.61077569538E-01  0.51100000000E-03 0. -1.
</event>
<event>
 8    1  0.1213322E+005  0.1043930E+01  0.7957747E-01            NaN
         13   -1    0    0    0    0  0.00000000000E+00  0.00000000000E+00  0.74505805969E-08  0.10566000000E+00  0.10566000000E+00 0. -1.
     999900   -1    0    0    0    0 -0.00000000000E+00 -0.00000000000E+00 -0.74505805969E-08  0.93827000000E+00  0.93827000000E+00 0.  1.
     999902    2    1    2    0    0  0.19307503060E-01  0.67968397356E-02 -0.10840831866E-01  0.10207675230E+01  0.10205046966E+01 0.  0.
     999903    2    3    3    0    0  0.91882649525E-01 -0.88338557440E-02  0.91785426283E-01  0.13169856090E+00  0.19987200250E-01 0.  0.
         14    1    1    2    0    0 -0.19307503060E-01 -0.67968397356E-02  0.10840831866E-01  0.23162476991E-01  0.00000000000E+00 0. -1.
     999901    1    3    3    0    0 -0.72575146465E-01  0.15630695480E-01 -0.10262625815E+00  0.88906896211E+00  0.88000000000E+00 0.  1.
        -11    1    4    4    0    0  0.17044277765E-01  0.39372688606E-02  0.10217894942E-01  0.20265142206E-01  0.51100000000E-03 0.  1.
         11    1    4    4    0    0  0.74838371760E-01 -0.12771124605E-01  0.81567531342E-01  0.11143341869E+00  0.51100000000E-03 0. -1.
</event>
<event>
 8    1  0.1213322E+005  0.1043930E+01  0.7957747E-01            NaN
         13   -1    0    0    0    0  0.00000000000E+00  0.00000000000E+00  0.74505805969E-08  0.10566000000E+00  0.10566000000E+00 0.  1.
     999900   -1    0    0    0    0 -0.00000000000E+00 -0.00000000000E+00 -0.74505805969E-08  0.93827000000E+00  0.93827000000E+00 0.  1.
     999902    2    1    2    0    0  0.18961898058E-01  0.13986646550E-01  0.98710306615E-03  0.10203470775E+01  0.10200745092E+01 0.  0.
     999903    2    3    3    0    0 -0.23098051406E-01  0.37428755623E-01 -0.12156383344E+00  0.13055086274E+00  0.18202484306E-01 0.  0.
         14    1    1    2    0    0 -0.18961898058E-01 -0.13986646550E-01 -0.98710306615E-03  0.23582922468E-01  0.00000000000E+00 0. -1.
     999901    1    3    3    0    0  0.42059949464E-01 -0.23442109073E-01  0.12255093650E+00  0.88979621480E+00  0.88000000000E+00 0. -1.
        -11    1    4    4    0    0 -0.23640786597E-01  0.32900802317E-01 -0.90576227508E-01  0.99225317810E-01  0.51100000000E-03 0.  1.
         11    1    4    4    0    0  0.54273519173E-03  0.45279533058E-02 -0.30987605930E-01  0.31325544926E-01  0.51100000000E-03 0. -1.
</event>
<event>
 8    1  0.1213322E+005  0.1043930E+01  0.7957747E-01            NaN
         13   -1    0    0    0    0  0.00000000000E+00  0.00000000000E+00  0.74505805969E-08  0.10566000000E+00  0.10566000000E+00 0.  1.
     999900   -1    0    0    0    0 -0.00000000000E+00 -0.00000000000E+00 -0.74505805969E-08  0.93827000000E+00  0.93827000000E+00 0.  1.
     999902    2    1    2    0    0 -0.10979467926E-01  0.62887150999E-02 -0.19770364354E-01  0.10204573785E+01  0.10201873835E+01 0.  0.
     999903    2    3    3    0    0 -0.95116447072E-01  0.97226008505E-02  0.86116189075E-01  0.13011879962E+00  0.19319330323E-01 0.  0.
         14    1    1    2    0    0  0.10979467926E-01 -0.62887150999E-02  0.19770364354E-01  0.23472621503E-01  0.00000000000E+00 0.  1.
     999901    1    3    3    0    0  0.84136979146E-01 -0.34338857506E-02 -0.10588655343E+00  0.89033857887E+00  0.88000000000E+00 0.  1.
        -11    1    4    4    0    0 -0.62068215023E-01  0.56610481067E-02  0.67868715499E-01  0.92146266589E-01  0.51100000000E-03 0. -1.
         11    1    4    4    0    0 -0.33048232049E-01  0.40615527439E-02  0.18247473576E-01  0.37972533036E-01  0.51100000000E-03 0.  1.
</event>
<event>
 8    1  0.1213322E+005  0.1043930E+01  0.7957747E-01            NaN
         13   -1    0    0    0    0  0.00000000000E+00  0.00000000000E+00  0.74505805969E-08  0.10566000000E+00  0.10566000000E+00 0.  1.
     999900   -1    0    0    0    0 -0.00000000000E+00 -0.00000000000E+00 -0.74505805969E-08  0.93827000000E+00  0.93827000000E+00 0. -1.
     999902    2    1    2    0    0  0.10186399226E-01 -0.83619004408E-02 -0.19475615726E-01  0.10204143942E+01  0.10201433979E+01 0.  0.
     999903    2    3    3    0    0 -0.91313157749E-01  0.67710634343E-02  0.86830541025E-01  0.12809597255E+00  0.22024877976E-01 0.  0.
         14    1    1    2    0    0 -0.10186399226E-01  0.83619004408E-02  0.19475615726E-01  0.23515605799E-01  0.00000000000E+00 0.  1.
     999901    1    3    3    0    0  0.10149955697E+00 -0.15132963875E-01 -0.10630615675E+00  0.89231842165E+00  0.88000000000E+00 0. -1.
        -11    1    4    4    0    0 -0.82482473258E-01  0.21771002492E-02  0.68542149280E-01  0.10726782141E+00  0.51100000000E-03 0.  1.
         11    1    4    4    0    0 -0.88306844910E-02  0.45939631851E-02  0.18288391745E-01  0.20828151140E-01  0.51100000000E-03 0. -1.
</event>
<event>
 8    1  0.1213322E+005  0.1043930E+01  0.7957747E-01            NaN
         13   -1    0    0    0    0  0.00000000000E+00  0.00000000000E+00  0.74505805969E-08  0.10566000000E+00  0.10566000000E+00 0.  1.
     999900   -1    0    0    0    0 -0.00000000000E+00 -0.00000000000E+00 -0.74505805969E-08  0.93827000000E+00  0.93827000000E+00 0.  1.
     999902    2    1    2    0    0 -0.41620845185E-02  0.17724363727E-01  0.14904010004E-01  0.10204011766E+01  0.10201298720E+01 0.  0.
     999903    2    3    3    0    0  0.35112851184E-01  0.12181847918E+00 -0.31647293961E-01  0.13217534418E+00  0.19902668306E-01 0.  0.
         14    1    1    2    0    0  0.41620845185E-02 -0.17724363727E-01 -0.14904010004E-01  0.23528823415E-01  0.00000000000E+00 0. -1.
     999901    1    3    3    0    0 -0.39274935702E-01 -0.10409411546E+00  0.46551303965E-01  0.88822583240E+00  0.88000000000E+00 0. -1.
        -11    1    4    4    0    0  0.18587274375E-01  0.32486251279E-01 -0.75617179662E-02  0.38187484736E-01  0.51100000000E-03 0. -1.
         11    1    4    4    0    0  0.16525576809E-01  0.89332227905E-01 -0.24085575995E-01  0.93987859447E-01  0.51100000000E-03 0.  1.
</event>
<event>
 8    1  0.1213322E+005  0.1043930E+01  0.7957747E-01            NaN
         13   -1    0    0    0    0  0.00000000000E+00  0.00000000000E+00  0.74505805969E-08  0.10566000000E+00  0.10566000000E+00 0.  1.
     999900   -1    0    0    0    0 -0.00000000000E+00 -0.00000000000E+00 -0.74505805969E-08  0.93827000000E+00  0.93827000000E+00 0.  1.
     999902    2    1    2    0    0 -0.19504197363E-01 -0.79159758188E-02 -0.10945457782E-01  0.10202049197E+01  0.10199290165E+01 0.  0.
     999903    2    3    3    0    0  0.30235263640E-01  0.12359507532E+00  0.78106205449E-02  0.12884586692E+00  0.18717313327E-01 0.  0.
         14    1    1    2    0    0  0.19504197363E-01  0.79159758188E-02  0.10945457782E-01  0.23725080274E-01  0.00000000000E+00 0. -1.
     999901    1    3    3    0    0 -0.49739461003E-01 -0.13151105114E+00 -0.18756078327E-01  0.89135905281E+00  0.88000000000E+00 0. -1.
        -11    1    4    4    0    0  0.21762563048E-01  0.10905040047E+00  0.26532145130E-02  0.11123353658E+00  0.51100000000E-03 0. -1.
         11    1    4    4    0    0  0.84727005922E-02  0.14544674850E-01  0.51574060319E-02  0.17612330334E-01  0.51100000000E-03 0.  1.
</event>
<event>
 8    1  0.1213322E+005  0.1043930E+01  0.7957747E-01            NaN
         13   -1    0    0    0    0  0.00000000000E+00  0.00000000000E+00  0.74505805969E-08  0.10566000000E+00  0.10566000000E+00 0.  1.
     999900   -1    0    0    0    0 -0.00000000000E+00 -0.00000000000E+00 -0.74505805969E-08  0.93827000000E+00  0.93827000000E+00 0. -1.
     999902    2    1    2    0    0 -0.90569476176E-02 -0.22214210305E-01 -0.64321803516E-04  0.10199403444E+01  0.10196581793E+01 0.  0.
     999903    2    3    3    0    0  0.57484640807E-01 -0.11350539778E+00  0.29756356507E-01  0.13221790084E+00  0.20203299137E-01 0.  0.
         14    1    1    2    0    0  0.90569476176E-02  0.22214210305E-01  0.64321803516E-04  0.23989655623E-01  0.00000000000E+00 0. -1.
     999901    1    3    3    0    0 -0.66541588425E-01  0.91291187478E-01 -0.29820678311E-01  0.88772244354E+00  0.88000000000E+00 0.  1.
        -11    1    4    4    0    0  0.22870014702E-01 -0.41481212105E-01  0.12937095469E-02  0.47388430397E-01  0.51100000000E-03 0.  1.
         11    1    4    4    0    0  0.34614626106E-01 -0.72024185678E-01  0.28462646960E-01  0.84829470445E-01  0.51100000000E-03 0. -1.
</event>
<event>
 8    1  0.1213322E+005  0.1043930E+01  0.7957747E-01            NaN
         13   -1    0    0    0    0  0.00000000000E+00  0.00000000000E+00  0.74505805969E-08  0.10566000000E+00  0.10566000000E+00 0. -1.
     999900   -1    0    0    0    0 -0.00000000000E+00 -0.00000000000E+00 -0.74505805969E-08  0.93827000000E+00  0.93827000000E+00 0. -1.
     999902    2    1    2    0    0  0.22149093764E-01  0.64693859584E-02 -0.20994206298E-02  0.10207601300E+01  0.10204971338E+01 0.  0.
     999903    2    3    3    0    0 -0.18669236148E-01 -0.24481085113E-01  0.12467114538E+00  0.13020140418E+00  0.21485978037E-01 0.  0.
         14    1    1    2    0    0 -0.22149093764E-01 -0.64693859584E-02  0.20994206298E-02  0.23169870009E-01  0.00000000000E+00 0.  1.
     999901    1    3    3    0    0  0.40818329912E-01  0.30950471071E-01 -0.12677056601E+00  0.89055872581E+00  0.88000000000E+00 0. -1.
        -11    1    4    4    0    0 -0.21443318911E-01 -0.24119702862E-01  0.12233372514E+00  0.12652026485E+00  0.51100000000E-03 0.  1.
         11    1    4    4    0    0  0.27740827633E-02 -0.36138225082E-03  0.23374202454E-02  0.36811393226E-02  0.51100000000E-03 0. -1.
</event>
<event>
 8    1  0.1213322E+005  0.1043930E+01  0.7957747E-01            NaN
         13   -1    0    0    0    0  0.00000000000E+00  0.00000000000E+00  0.74505805969E-08  0.10566000000E+00  0.10566000000E+00 0. -1.
     999900   -1    0    0    0    0 -0.00000000000E+00 -0.00000000000E+00 -0.74505805969E-08  0.93827000000E+00  0.93827000000E+00 0.  1.
     999902    2    1    2    0    0 -0.12407026205E-01  0.14734913259E-01 -0.15014944106E-01  0.10195066400E+01  0.10192140543E+01 0.  0.
     999903    2    3    3    0    0 -0.77239040842E-01  0.88853600486E-01  0.50343446699E-01  0.13160546915E+00  0.30408964716E-01 0.  0.
         14    1    1    2    0    0  0.12407026205E-01 -0.14734913259E-01  0.15014944106E-01  0.24423360017E-01  0.00000000000E+00 0. -1.
     999901    1    3    3    0    0  0.64832014637E-01 -0.74118687228E-01 -0.65358390805E-01  0.88790117083E+00  0.88000000000E+00 0.  1.
        -11    1    4    4    0    0 -0.30405862992E-01  0.53899701941E-01  0.35351437724E-01  0.71271871336E-01  0.51100000000E-03 0. -1.
         11    1    4    4    0    0 -0.46833177850E-01  0.34953898545E-01  0.14992008975E-01  0.60333597814E-01  0.51100000000E-03 0.  1.
</event>
<event>
 8    1  0.1213322E+005  0.1043930E+01  0.7957747E-01            NaN
         13   -1    0    0    0    0  0.00000000000E+00  0.00000000000E+00  0.74505805969E-08  0.10566000000E+00  0.10566000000E+00 0. -1.
     999900   -1    0    0    0    0 -0.00000000000E+00 -0.00000000000E+00 -0.74505805969E-08  0.93827000000E+00  0.93827000000E+00 0. -1.
     999902    2    1    2    0    0  0.94076898594E-02  0.14889550447E-01  0.15286250124E-01  0.10206089198E+01  0.10203424397E+01 0.  0.
     999903    2    3    3    0    0  0.30745281804E-01 -0.12346321985E+00  0.15321196889E-01  0.12954394844E+00  0.18932947362E-01 0.  0.
         14    1    1    2    0    0 -0.94076898594E-02 -0.14889550447E-01 -0.15286250124E-01  0.23321080246E-01  0.00000000000E+00 0.  1.
     999901    1    3    3    0    0 -0.21337591944E-01  0.13835277029E+00 -0.34946764575E-04  0.89106497131E+00  0.88000000000E+00 0. -1.
        -11    1    4    4    0    0  0.13931721721E-01 -0.31542096240E-01 -0.18356434709E-02  0.34534438077E-01  0.51100000000E-03 0. -1.
         11    1    4    4    0    0  0.16813560083E-01 -0.91921123606E-01  0.17156840359E-01  0.95009510365E-01  0.51100000000E-03 0.  1.
</event>
<event>
 8    1  0.1213322E+005  0.1043930E+01  0.7957747E-01            NaN
         13   -1    0    0    0    0  0.00000000000E+00  0.00000000000E+00  0.74505805969E-08  0.10566000000E+00  0.10566000000E+00 0. -1.
     999900   -1    0    0    0    0 -0.00000000000E+00 -0.00000000000E+00 -0.74505805969E-08  0.93827000000E+00  0.93827000000E+00 0.  1.
     999902    2    1    2    0    0  0.89416486946E-02 -0.26945576841E-02  0.22176796587E-01  0.10198670819E+01  0.10195831700E+01 0.  0.
     999903    2    3    3    0    0 -0.62326543160E-01 -0.51140903634E-01  0.10246284566E+00  0.13202021822E+00  0.20753632714E-01 0.  0.
         14    1    1    2    0    0 -0.89416486946E-02  0.26945576841E-02 -0.22176796587E-01  0.24062918139E-01  0.00000000000E+00 0.  1.
     999901    1    3    3    0    0  0.71268191855E-01  0.48446345950E-01 -0.80286049072E-01  0.88784686364E+00  0.88000000000E+00 0.  1.
        -11    1    4    4    0    0 -0.24617488255E-01 -0.32661735068E-01  0.44506169577E-01  0.60447249045E-01  0.51100000000E-03 0.  1.
         11    1    4    4    0    0 -0.37709054905E-01 -0.18479168565E-01  0.57956676082E-01  0.71572969173E-01  0.51100000000E-03 0. -1.
</event>
<event>
 8    1  0.1278583E+005  0.1043930E+01  0.7957747E-01            NaN
         13   -1    0    0    0    0  0.00000000000E+00  0.00000000000E+00  0.74505805969E-08  0.10566000000E+00  0.10566000000E+00 0.  1.
     999900   -1    0    0    0    0 -0.00000000000E+00 -0.00000000000E+00 -0.74505805969E-08  0.93827000000E+00  0.93827000000E+00 0. -1.
     999902    2    1    2    0    0 -0.14383838327E-01 -0.16317864766E-01  0.49549419957E-02  0.10216203840E+01  0.10213767620E+01 0.  0.
     999903    2    3    3    0    0 -0.96876817807E-01  0.44807860093E-01 -0.74806181841E-01  0.13206809056E+00  0.21287403502E-01 0.  0.
         14    1    1    2    0    0  0.14383838327E-01  0.16317864766E-01 -0.49549419957E-02  0.22309615992E-01  0.00000000000E+00 0. -1.
     999901    1    3    3    0    0  0.82492979481E-01 -0.61125724860E-01  0.79761123836E-01  0.88955229345E+00  0.88000000000E+00 0.  1.
        -11    1    4    4    0    0 -0.36731971438E-01  0.14869246971E-01 -0.15851431963E-01  0.42683266598E-01  0.51100000000E-03 0.  1.
         11    1    4    4    0    0 -0.60144846369E-01  0.29938613122E-01 -0.58954749878E-01  0.89384823961E-01  0.51100000000E-03 0. -1.
</event>
<event>
 8    1  0.1213322E+005  0.1043930E+01  0.7957747E-01            NaN
         13   -1    0    0    0    0  0.00000000000E+00  0.00000000000E+00  0.74505805969E-08  0.10566000000E+00  0.10566000000E+00 0.  1.
     999900   -1    0    0    0    0 -0.00000000000E+00 -0.00000000000E+00 -0.74505805969E-08  0.93827000000E+00  0.93827000000E+00 0.  1.
     999902    2    1    2    0    0 -0.10014872874E-01  0.26148356874E-02 -0.21405414363E-01  0.10201533979E+01  0.10198762809E+01 0.  0.
     999903    2    3    3    0    0  0.12318191296E+00 -0.33167397167E-01  0.35358627955E-03  0.12914542594E+00  0.20113580097E-01 0.  0.
         14    1    1    2    0    0  0.10014872874E-01 -0.26148356874E-02  0.21405414363E-01  0.23776602121E-01  0.00000000000E+00 0.  1.
     999901    1    3    3    0    0 -0.13319678583E+00  0.35782232855E-01 -0.21759000643E-01  0.89100797194E+00  0.88000000000E+00 0. -1.
        -11    1    4    4    0    0  0.10664068285E+00 -0.31908789766E-01 -0.57499894103E-02  0.11146178539E+00  0.51100000000E-03 0. -1.
         11    1    4    4    0    0  0.16541230103E-01 -0.12586074017E-02  0.61035756898E-02  0.17683640550E-01  0.51100000000E-03 0.  1.
</event>
<event>
 8    1  0.1213322E+005  0.1043930E+01  0.7957747E-01            NaN
         13   -1    0    0    0    0  0.00000000000E+00  0.00000000000E+00  0.74505805969E-08  0.10566000000E+00  0.10566000000E+00 0. -1.
     999900   -1    0    0    0    0 -0.00000000000E+00 -0.00000000000E+00 -0.74505805969E-08  0.93827000000E+00  0.93827000000E+00 0. -1.
     999902    2    1    2    0    0 -0.10736051278E-01  0.18070907403E-02 -0.20241132174E-01  0.10209467059E+01  0.10206879761E+01 0.  0.
     999903    2    3    3    0    0  0.12467013322E-03 -0.24325710599E-01  0.12471930262E+00  0.12863823561E+00  0.20028366805E-01 0.  0.
         14    1    1    2    0    0  0.10736051278E-01 -0.18070907403E-02  0.20241132174E-01  0.22983294056E-01  0.00000000000E+00 0. -1.
     999901    1    3    3    0    0 -0.10860721411E-01  0.26132801340E-01 -0.14496043479E+00  0.89230847033E+00  0.88000000000E+00 0. -1.
        -11    1    4    4    0    0  0.37580454617E-02 -0.13350294960E-01  0.28226174640E-01  0.31453637898E-01  0.51100000000E-03 0. -1.
         11    1    4    4    0    0 -0.36333753285E-02 -0.10975415639E-01  0.96493127976E-01  0.97184597711E-01  0.51100000000E-03 0.  1.
</event>
<event>
 8    1  0.1213322E+005  0.1043930E+01  0.7957747E-01            NaN
         13   -1    0    0    0    0  0.00000000000E+00  0.00000000000E+00  0.74505805969E-08  0.10566000000E+00  0.10566000000E+00 0. -1.
     999900   -1    0    0    0    0 -0.00000000000E+00 -0.00000000000E+00 -0.74505805969E-08  0.93827000000E+00  0.93827000000E+00 0. -1.
     999902    2    1    2    0    0  0.14703906194E-01 -0.18165194522E-02 -0.17846906016E-01  0.10207348140E+01  0.10204712362E+01 0.  0.
     999903    2    3    3    0    0  0.51411865136E-01 -0.91654617731E-02  0.11699152893E+00  0.12967764143E+00  0.20052114093E-01 0.  0.
         14    1    1    2    0    0 -0.14703906194E-01  0.18165194522E-02  0.17846906016E-01  0.23195186023E-01  0.00000000000E+00 0. -1.
     999901    1    3    3    0    0 -0.36707958943E-01  0.73489423209E-02 -0.13483843495E+00  0.89105717254E+00  0.88000000000E+00 0. -1.
        -11    1    4    4    0    0  0.92634875085E-02 -0.38662908029E-02  0.84945871761E-02  0.13159769667E-01  0.51100000000E-03 0.  1.
         11    1    4    4    0    0  0.42148377628E-01 -0.52991709702E-02  0.10849694176E+00  0.11651787177E+00  0.51100000000E-03 0. -1.
</event>
<event>
 7    1  0.1380366E+005  0.1043930E+01  0.7957747E-01            NaN
         13   -1    0    0    0    0  0.00000000000E+00  0.00000000000E+00  0.74505805969E-08  0.10566000000E+00  0.10566000000E+00 0. -1.
     999900   -1    0    0    0    0 -0.00000000000E+00 -0.00000000000E+00 -0.74505805969E-08  0.93827000000E+00  0.93827000000E+00 0. -1.
     999903    2    1    2    0    0  0.41154887551E-01 -0.74387063302E-01 -0.67059654917E-01  0.10932500491E+00  0.15093025676E-01 0.  0.
         14    1    1    2    0    0 -0.29335430698E-01 -0.31090436164E-01 -0.12843153396E-01  0.44633275751E-01  0.00000000000E+00 0.  1.
     999901    1    1    2    0    0 -0.11819456854E-01  0.10547749947E+00  0.79902808313E-01  0.88997171934E+00  0.88000000000E+00 0. -1.
        -11    1    3    3    0    0  0.15001830912E-01 -0.41666139174E-01 -0.37814919198E-01  0.58235309902E-01  0.51100000000E-03 0. -1.
         11    1    3    3    0    0  0.26153056640E-01 -0.32720924128E-01 -0.29244735718E-01  0.51089695004E-01  0.51100000000E-03 0.  1.
</event>
<event>
 8    1  0.1213322E+005  0.1043930E+01  0.7957747E-01            NaN
         13   -1    0    0    0    0  0.00000000000E+00  0.00000000000E+00  0.74505805969E-08  0.10566000000E+00  0.10566000000E+00 0.  1.
     999900   -1    0    0    0    0 -0.00000000000E+00 -0.00000000000E+00 -0.74505805969E-08  0.93827000000E+00  0.93827000000E+00 0. -1.
     999902    2    1    2    0    0  0.75528956489E-02 -0.15569779034E-02  0.23008682033E-01  0.10196633591E+01  0.10193745612E+01 0.  0.
     999903    2    3    3    0    0  0.93609346166E-01 -0.10717435674E-01  0.89822012729E-01  0.13289752312E+00  0.26761624825E-01 0.  0.
         14    1    1    2    0    0 -0.75528956489E-02  0.15569779034E-02 -0.23008682033E-01  0.24266640924E-01  0.00000000000E+00 0. -1.
     999901    1    3    3    0    0 -0.86056450517E-01  0.91604577707E-02 -0.66813330696E-01  0.88676583596E+00  0.88000000000E+00 0.  1.
        -11    1    4    4    0    0  0.35498593841E-01  0.72287002299E-02  0.25058518617E-01  0.44052182102E-01  0.51100000000E-03 0. -1.
         11    1    4    4    0    0  0.58110752325E-01 -0.17946135904E-01  0.64763494112E-01  0.88845341016E-01  0.51100000000E-03 0.  1.
</event>
<event>
 8    1  0.1213322E+005  0.1043930E+01  0.7957747E-01            NaN
         13   -1    0    0    0    0  0.00000000000E+00  0.00000000000E+00  0.74505805969E-08  0.10566000000E+00  0.10566000000E+00 0.  1.
     999900   -1    0    0    0    0 -0.00000000000E+00 -0.00000000000E+00 -0.74505805969E-08  0.93827000000E+00  0.93827000000E+00 0. -1.
     999902    2    1    2    0    0 -0.54425502006E-03  0.50923539603E-02  0.22590717474E-01  0.10207660453E+01  0.10205031849E+01 0.  0.
     999903    2    3    3    0    0  0.11635480082E+00 -0.25355320444E-01  0.51243555195E-01  0.13205156062E+00  0.25107384670E-01 0.  0.
         14    1    1    2    0    0  0.54425502006E-03 -0.50923539603E-02 -0.22590717474E-01  0.23163954722E-01  0.00000000000E+00 0. -1.
     999901    1    3    3    0    0 -0.11689905584E+00  0.30447674405E-01 -0.28652837721E-01  0.88871448466E+00  0.88000000000E+00 0. -1.
        -11    1    4    4    0    0  0.35929819386E-01 -0.17238107336E-01  0.90579221940E-02  0.40870666022E-01  0.51100000000E-03 0. -1.
         11    1    4    4    0    0  0.80424981432E-01 -0.81172131086E-02  0.42185633001E-01  0.91180894598E-01  0.51100000000E-03 0.  1.
</event>
<event>
 8    1  0.1213322E+005  0.1043930E+01  0.7957747E-01            NaN
         13   -1    0    0    0    0  0.00000000000E+00  0.00000000000E+00  0.74505805969E-08  0.10566000000E+00  0.10566000000E+00 0.  1.
     999900   -1    0    0    0    0 -0.00000000000E+00 -0.00000000000E+00 -0.74505805969E-08  0.93827000000E+00  0.93827000000E+00 0. -1.
     999902    2    1    2    0    0  0.98602575344E-02  0.17515168520E-01 -0.12216711769E-01  0.10204086511E+01  0.10201375208E+01 0.  0.
     999903    2    3    3    0    0  0.99281352205E-01  0.80374478542E-01  0.29670348774E-01  0.13265758754E+00  0.20021544405E-01 0.  0.
         14    1    1    2    0    0 -0.98602575344E-02 -0.17515168520E-01  0.12216711769E-01  0.23521348885E-01  0.00000000000E+00 0. -1.
     999901    1    3    3    0    0 -0.89421094671E-01 -0.62859310022E-01 -0.41887060543E-01  0.88775106357E+00  0.88000000000E+00 0.  1.
        -11    1    4    4    0    0  0.62965579612E-01  0.39843904971E-01  0.12251484045E-01  0.75515302830E-01  0.51100000000E-03 0.  1.
         11    1    4    4    0    0  0.36315772593E-01  0.40530573570E-01  0.17418864729E-01  0.57142284715E-01  0.51100000000E-03 0. -1.
</event>
<event>
 8    1  0.1213322E+005  0.1043930E+01  0.7957747E-01            NaN
         13   -1    0    0    0    0  0.00000000000E+00  0.00000000000E+00  0.74505805969E-08  0.10566000000E+00  0.10566000000E+00 0. -1.
     999900   -1    0    0    0    0 -0.00000000000E+00 -0.00000000000E+00 -0.74505805969E-08  0.93827000000E+00  0.93827000000E+00 0.  1.
     999902    2    1    2    0    0  0.19903940662E-01  0.26985075573E-02  0.13366010592E-01  0.10198032713E+01  0.10195178337E+01 0.  0.
     999903    2    3    3    0    0 -0.45603118043E-02  0.30113269946E-01  0.12658941622E+00  0.13178885229E+00  0.20391562418E-01 0.  0.
         14    1    1    2    0    0 -0.19903940662E-01 -0.26985075573E-02 -0.13366010592E-01  0.24126728665E-01  0.00000000000E+00 0.  1.
     999901    1    3    3    0    0  0.24464252466E-01 -0.27414762388E-01 -0.11322340563E+00  0.88801441904E+00  0.88000000000E+00 0.  1.
        -11    1    4    4    0    0 -0.87234702148E-04  0.83684236700E-02  0.76992523812E-01  0.77447711190E-01  0.51100000000E-03 0. -1.
         11    1    4    4    0    0 -0.44730771021E-02  0.21744846276E-01  0.49596892412E-01  0.54341141102E-01  0.51100000000E-03 0.  1.
</event>
<event>
 8    1  0.1213322E+005  0.1043930E+01  0.7957747E-01            NaN
         13   -1    0    0    0    0  0.00000000000E+00  0.00000000000E+00  0.74505805969E-08  0.10566000000E+00  0.10566000000E+00 0.  1.
     999900   -1    0    0    0    0 -0.00000000000E+00 -0.00000000000E+00 -0.74505805969E-08  0.93827000000E+00  0.93827000000E+00 0.  1.
     999902    2    1    2    0    0  0.53989003387E-03 -0.49489241269E-02  0.22786047093E-01  0.10206064652E+01  0.10203399285E+01 0.  0.
     999903    2    3    3    0    0 -0.58355138353E-01  0.63882169149E-01  0.98058856145E-01  0.13275944039E+00  0.22875227560E-01 0.  0.
         14    1    1    2    0    0 -0.53989003387E-03  0.49489241269E-02 -0.22786047093E-01  0.23323534753E-01  0.00000000000E+00 0. -1.
     999901    1    3    3    0    0  0.58895028387E-01 -0.68831093276E-01 -0.75272809053E-01  0.88784702486E+00  0.88000000000E+00 0.  1.
        -11    1    4    4    0    0 -0.55632505933E-01  0.54120702004E-01  0.93816574415E-01  0.12176139313E+00  0.51100000000E-03 0.  1.
         11    1    4    4    0    0 -0.27226324194E-02  0.97614671447E-02  0.42422817308E-02  0.10998047254E-01  0.51100000000E-03 0. -1.
</event>
<event>
 8    1  0.1213322E+005  0.1043930E+01  0.7957747E-01            NaN
         13   -1    0    0    0    0  0.00000000000E+00  0.00000000000E+00  0.74505805969E-08  0.10566000000E+00  0.10566000000E+00 0. -1.
     999900   -1    0    0    0    0 -0.00000000000E+00 -0.00000000000E+00 -0.74505805969E-08  0.93827000000E+00  0.93827000000E+00 0.  1.
     999902    2    1    2    0    0 -0.92889159309E-03 -0.20339033120E-01  0.14959765239E-01  0.10186647336E+01  0.10183513666E+01 0.  0.
     999903    2    3    3    0    0  0.71914287620E-01 -0.95893673207E-01 -0.45420791023E-01  0.13037399072E+00  0.23813186980E-01 0.  0.
         14    1    1    2    0    0  0.92889159309E-03  0.20339033120E-01 -0.14959765239E-01  0.25265266352E-01  0.00000000000E+00 0.  1.
     999901    1    3    3    0    0 -0.72843179213E-01  0.75554640088E-01  0.60380556262E-01  0.88829074293E+00  0.88000000000E+00 0. -1.
        -11    1    4    4    0    0  0.42646662920E-01 -0.65071225088E-01 -0.18217109351E-01  0.79906985844E-01  0.51100000000E-03 0.  1.
         11    1    4    4    0    0  0.29267624700E-01 -0.30822448120E-01 -0.27203681672E-01  0.50467004876E-01  0.51100000000E-03 0. -1.
</event>
<event>
 8    1  0.1213322E+005  0.1043930E+01  0.7957747E-01            NaN
         13   -1    0    0    0    0  0.00000000000E+00  0.00000000000E+00  0.74505805969E-08  0.10566000000E+00  0.10566000000E+00 0. -1.
     999900   -1    0    0    0    0 -0.00000000000E+00 -0.00000000000E+00 -0.74505805969E-08  0.93827000000E+00  0.93827000000E+00 0. -1.
     999902    2    1    2    0    0 -0.83240328477E-03 -0.19209586261E-01  0.15223786296E-01  0.10194052213E+01  0.10191101709E+01 0.  0.
     999903    2    3    3    0    0 -0.74470474716E-01 -0.10621082510E+00  0.14451421869E-01  0.13205389425E+00  0.20069788747E-01 0.  0.
         14    1    1    2    0    0  0.83240328477E-03  0.19209586261E-01 -0.15223786296E-01  0.24524778668E-01  0.00000000000E+00 0. -1.
     999901    1    3    3    0    0  0.73638071431E-01  0.87001238839E-01  0.77236442687E-03  0.88735132708E+00  0.88000000000E+00 0.  1.
        -11    1    4    4    0    0 -0.25739447585E-01 -0.21594582978E-01  0.29256958210E-02  0.33729304662E-01  0.51100000000E-03 0. -1.
         11    1    4    4    0    0 -0.48731027131E-01 -0.84616242122E-01  0.11525726048E-01  0.98324589590E-01  0.51100000000E-03 0.  1.
</event>
<event>
 8    1  0.1213322E+005  0.1043930E+01  0.7957747E-01            NaN
         13   -1    0    0    0    0  0.00000000000E+00  0.00000000000E+00  0.74505805969E-08  0.10566000000E+00  0.10566000000E+00 0.  1.
     999900   -1    0    0    0    0 -0.00000000000E+00 -0.00000000000E+00 -0.74505805969E-08  0.93827000000E+00  0.93827000000E+00 0.  1.
     999902    2    1    2    0    0 -0.79631713011E-02 -0.77981371898E-02  0.20574650795E-01  0.10205304424E+01  0.10202621450E+01 0.  0.
     999903    2    3    3    0    0 -0.33724215749E-01  0.12246842811E+00 -0.17360844568E-01  0.12975992691E+00  0.20010024924E-01 0.  0.
         14    1    1    2    0    0  0.79631713011E-02  0.77981371898E-02 -0.20574650795E-01  0.23399557605E-01  0.00000000000E+00 0. -1.
     999901    1    3    3    0    0  0.25761044448E-01 -0.13026656530E+00  0.37935495363E-01  0.89077051548E+00  0.88000000000E+00 0. -1.
        -11    1    4    4    0    0 -0.22079639957E-01  0.63853921723E-01 -0.13838281730E-03  0.67565628028E-01  0.51100000000E-03 0.  1.
         11    1    4    4    0    0 -0.11644575792E-01  0.58614506383E-01 -0.17222461751E-01  0.62194298884E-01  0.51100000000E-03 0. -1.
</event>
<event>
 8    1  0.1213322E+005  0.1043930E+01  0.7957747E-01            NaN
         13   -1    0    0    0    0  0.00000000000E+00  0.00000000000E+00  0.74505805969E-08  0.10566000000E+00  0.10566000000E+00 0.  1.
     999900   -1    0    0    0    0 -0.00000000000E+00 -0.00000000000E+00 -0.74505805969E-08  0.93827000000E+00  0.93827000000E+00 0.  1.
     999902    2    1    2    0    0  0.90839955103E-02  0.18251734843E-01 -0.40772274748E-02  0.10231389302E+01  0.10229276621E+01 0.  0.
     999903    2    3    3    0    0  0.38608173629E-02 -0.77873198373E-01  0.10345693932E+00  0.13138174274E+00  0.21878827567E-01 0.  0.
         14    1    1    2    0    0 -0.90839955103E-02 -0.18251734843E-01  0.40772274748E-02  0.20791069792E-01  0.00000000000E+00 0. -1.
     999901    1    3    3    0    0  0.52231781474E-02  0.96124933217E-01 -0.10753416680E+00  0.89175718747E+00  0.88000000000E+00 0.  1.
        -11    1    4    4    0    0 -0.79582279927E-02 -0.20727028689E-01  0.34693987620E-01  0.41193167019E-01  0.51100000000E-03 0. -1.
         11    1    4    4    0    0  0.11819045356E-01 -0.57146169684E-01  0.68762951701E-01  0.90188575719E-01  0.51100000000E-03 0.  1.
</event>
<event>
 8    1  0.1213322E+005  0.1043930E+01  0.7957747E-01            NaN
         13   -1    0    0    0    0  0.00000000000E+00  0.00000000000E+00  0.74505805969E-08  0.10566000000E+00  0.10566000000E+00 0.  1.
     999900   -1    0    0    0    0 -0.00000000000E+00 -0.00000000000E+00 -0.74505805969E-08  0.93827000000E+00  0.93827000000E+00 0. -1.
     999902    2    1    2    0    0 -0.14905344035E-01 -0.51512884072E-02  0.15621176231E-01  0.10217325632E+01  0.10214914119E+01 0.  0.
     999903    2    3    3    0    0  0.26953818775E-01 -0.12260198101E+00  0.36688282381E-01  0.13269337529E+00  0.22444324139E-01 0.  0.
         14    1    1    2    0    0  0.14905344035E-01  0.51512884072E-02 -0.15621176231E-01  0.22197436787E-01  0.00000000000E+00 0. -1.
     999901    1    3    3    0    0 -0.41859162810E-01  0.11745069261E+00 -0.21067106150E-01  0.88903918793E+00  0.88000000000E+00 0. -1.
        -11    1    4    4    0    0  0.11407874872E-01 -0.86424964067E-01  0.17613514662E-01  0.88937680669E-01  0.51100000000E-03 0.  1.
         11    1    4    4    0    0  0.15545943903E-01 -0.36177016948E-01  0.19074767719E-01  0.43755694619E-01  0.51100000000E-03 0. -1.
</event>
<event>
 8    1  0.1213322E+005  0.1043930E+01  0.7957747E-01            NaN
         13   -1    0    0    0    0  0.00000000000E+00  0.00000000000E+00  0.74505805969E-08  0.10566000000E+00  0.10566000000E+00 0.  1.
     999900   -1    0    0    0    0 -0.00000000000E+00 -0.00000000000E+00 -0.74505805969E-08  0.93827000000E+00  0.93827000000E+00 0.  1.
     999902    2    1    2    0    0 -0.88585322543E-02  0.34329956828E-02 -0.21930197646E-01  0.10200303636E+01  0.10197503371E+01 0.  0.
     999903    2    3    3    0    0 -0.26856136503E-01  0.80139983158E-02 -0.12899074034E+00  0.13334729778E+00  0.18905409136E-01 0.  0.
         14    1    1    2    0    0  0.88585322543E-02 -0.34329956828E-02  0.21930197646E-01  0.23899636438E-01  0.00000000000E+00 0.  1.
     999901    1    3    3    0    0  0.17997604249E-01 -0.45810026330E-02  0.10706054269E+00  0.88668306578E+00  0.88000000000E+00 0. -1.
        -11    1    4    4    0    0 -0.23671603773E-01  0.74194141742E-02 -0.70035515844E-01  0.74300922823E-01  0.51100000000E-03 0.  1.
         11    1    4    4    0    0 -0.31845327302E-02  0.59458414161E-03 -0.58955224497E-01  0.59046374956E-01  0.51100000000E-03 0. -1.
</event>
<event>
 8    1  0.1213322E+005  0.1043930E+01  0.7957747E-01            NaN
         13   -1    0    0    0    0  0.00000000000E+00  0.00000000000E+00  0.74505805969E-08  0.10566000000E+00  0.10566000000E+00 0.  1.
     999900   -1    0    0    0    0 -0.00000000000E+00 -0.00000000000E+00 -0.74505805969E-08  0.93827000000E+00  0.93827000000E+00 0. -1.
     999902    2    1    2    0    0  0.16358218058E-01  0.10091688231E-01 -0.13599034651E-01  0.10203849960E+01  0.10201133137E+01 0.  0.
     999903    2    3    3    0    0  0.43549519046E-01 -0.84517061618E-01  0.85551077543E-01  0.12936259049E+00  0.19390684241E-01 0.  0.
         14    1    1    2    0    0 -0.16358218058E-01 -0.10091688231E-01  0.13599034651E-01  0.23545003989E-01  0.00000000000E+00 0.  1.
     999901    1    3    3    0    0 -0.27191300988E-01  0.94608749849E-01 -0.99150112193E-01  0.89102240552E+00  0.88000000000E+00 0. -1.
        -11    1    4    4    0    0  0.17619094740E-01 -0.54805231436E-01  0.49312364618E-01  0.75802482265E-01  0.51100000000E-03 0. -1.
         11    1    4    4    0    0  0.25930424307E-01 -0.29711830181E-01  0.36238712925E-01  0.53560108223E-01  0.51100000000E-03 0.  1.
</event>
<event>
 8    1  0.1213322E+005  0.1043930E+01  0.7957747E-01            NaN
         13   -1    0    0    0    0  0.00000000000E+00  0.00000000000E+00  0.74505805969E-08  0.10566000000E+00  0.10566000000E+00 0.  1.
     999900   -1    0    0    0    0 -0.00000000000E+00 -0.00000000000E+00 -0.74505805969E-08  0.93827000000E+00  0.93827000000E+00 0. -1.
     999902    2    1    2    0    0  0.10585563310E-02  0.22144983387E-01  0.11698373919E-02  0.10217288885E+01  0.10214876565E+01 0.  0.
     999903    2    3    3    0    0 -0.46895129854E-01 -0.23932720926E-01 -0.11849714967E+00  0.13114318315E+00  0.19622223926E-01 0.  0.
         14    1    1    2    0    0 -0.10585563310E-02 -0.22144983387E-01 -0.11698373919E-02  0.22201111464E-01  0.00000000000E+00 0. -1.
     999901    1    3    3    0    0  0.47953686185E-01  0.46077704313E-01  0.11966698706E+00  0.89058570539E+00  0.88000000000E+00 0.  1.
        -11    1    4    4    0    0 -0.32882360407E-01 -0.11761257610E-01 -0.56484097946E-01  0.66410023704E-01  0.51100000000E-03 0.  1.
         11    1    4    4    0    0 -0.14012769447E-01 -0.12171463317E-01 -0.62013051720E-01  0.64733159443E-01  0.51100000000E-03 0. -1.
</event>
<event>
 8    1  0.1213322E+005  0.1043930E+01  0.7957747E-01            NaN
         13   -1    0    0    0    0  0.00000000000E+00  0.00000000000E+00  0.74505805969E-08  0.10566000000E+00  0.10566000000E+00 0. -1.
     999900   -1    0    0    0    0 -0.00000000000E+00 -0.00000000000E+00 -0.74505805969E-08  0.93827000000E+00  0.93827000000E+00 0. -1.
     999902    2    1    2    0    0  0.28475035626E-02  0.22242140960E-01  0.83437041304E-02  0.10200043128E+01  0.10197236682E+01 0.  0.
     999903    2    3    3    0    0 -0.11733317231E+00 -0.47488403798E-01  0.59747997955E-02  0.12909951682E+00  0.24673167435E-01 0.  0.
         14    1    1    2    0    0 -0.28475035626E-02 -0.22242140960E-01 -0.83437041304E-02  0.23925687235E-01  0.00000000000E+00 0.  1.
     999901    1    3    3    0    0  0.12018067587E+00  0.69730544758E-01  0.23689043350E-02  0.89090479594E+00  0.88000000000E+00 0. -1.
        -11    1    4    4    0    0 -0.41330062981E-01 -0.15931919258E-01  0.13890539706E-01  0.46424221820E-01  0.51100000000E-03 0. -1.
         11    1    4    4    0    0 -0.76003109330E-01 -0.31556484540E-01 -0.79157399110E-02  0.82675295002E-01  0.51100000000E-03 0.  1.
</event>
<event>
 8    1  0.1213322E+005  0.1043930E+01  0.7957747E-01            NaN
         13   -1    0    0    0    0  0.00000000000E+00  0.00000000000E+00  0.74505805969E-08  0.10566000000E+00  0.10566000000E+00 0.  1.
     999900   -1    0    0    0    0 -0.00000000000E+00 -0.00000000000E+00 -0.74505805969E-08  0.93827000000E+00  0.93827000000E+00 0. -1.
     999902    2    1    2    0    0 -0.22261958000E-01 -0.24705040123E-02 -0.74153531929E-02  0.10203358137E+01  0.10200629819E+01 0.  0.
     999903    2    3    3    0    0 -0.75879171418E-01 -0.70244548325E-01 -0.81247194976E-01  0.13302568330E+00  0.20069392143E-01 0.  0.
         14    1    1    2    0    0  0.22261958000E-01  0.24705040123E-02  0.74153531929E-02  0.23594186298E-01  0.00000000000E+00 0. -1.
     999901    1    3    3    0    0  0.53617213418E-01  0.67774044313E-01  0.73831841783E-01  0.88731013040E+00  0.88000000000E+00 0.  1.
        -11    1    4    4    0    0 -0.23433249583E-01 -0.28970851127E-01 -0.39496801332E-01  0.54301803262E-01  0.51100000000E-03 0.  1.
         11    1    4    4    0    0 -0.52445921835E-01 -0.41273697198E-01 -0.41750393644E-01  0.78723880036E-01  0.51100000000E-03 0. -1.
</event>
<event>
 8    1  0.1213322E+005  0.1043930E+01  0.7957747E-01            NaN
         13   -1    0    0    0    0  0.00000000000E+00  0.00000000000E+00  0.74505805969E-08  0.10566000000E+00  0.10566000000E+00 0.  1.
     999900   -1    0    0    0    0 -0.00000000000E+00 -0.00000000000E+00 -0.74505805969E-08  0.93827000000E+00  0.93827000000E+00 0.  1.
     999902    2    1    2    0    0  0.21214418342E-01 -0.85674015388E-02 -0.46198632586E-02  0.10205891549E+01  0.10203222177E+01 0.  0.
     999903    2    3    3    0    0 -0.19726322037E-01  0.38395162708E-01 -0.12166515738E+00  0.13065588348E+00  0.20130401515E-01 0.  0.
         14    1    1    2    0    0 -0.21214418342E-01  0.85674015388E-02  0.46198632586E-02  0.23340845127E-01  0.00000000000E+00 0. -1.
     999901    1    3    3    0    0  0.40940740379E-01 -0.46962564247E-01  0.11704529412E+00  0.88993327140E+00  0.88000000000E+00 0. -1.
        -11    1    4    4    0    0 -0.16162511899E-02  0.19121169400E-01 -0.33523983202E-01  0.38630945599E-01  0.51100000000E-03 0.  1.
         11    1    4    4    0    0 -0.18110070847E-01  0.19273993308E-01 -0.88141174181E-01  0.92024937876E-01  0.51100000000E-03 0. -1.
</event>
<event>
 8    1  0.1213322E+005  0.1043930E+01  0.7957747E-01            NaN
         13   -1    0    0    0    0  0.00000000000E+00  0.00000000000E+00  0.74505805969E-08  0.10566000000E+00  0.10566000000E+00 0.  1.
     999900   -1    0    0    0    0 -0.00000000000E+00 -0.00000000000E+00 -0.74505805969E-08  0.93827000000E+00  0.93827000000E+00 0. -1.
     999902    2    1    2    0    0 -0.63416035145E-03  0.94680021294E-02 -0.21860834887E-01  0.10200984804E+01  0.10198200667E+01 0.  0.
     999903    2    3    3    0    0 -0.69509628382E-01 -0.58769823990E-01 -0.91285120774E-01  0.13205570978E+00  0.28640121528E-01 0.  0.
         14    1    1    2    0    0  0.63416035145E-03 -0.94680021294E-02  0.21860834887E-01  0.23831519582E-01  0.00000000000E+00 0.  1.
     999901    1    3    3    0    0  0.68875468031E-01  0.68237826120E-01  0.69424285888E-01  0.88804277064E+00  0.88000000000E+00 0.  1.
        -11    1    4    4    0    0 -0.24586621075E-01 -0.39201369887E-01 -0.47975838003E-01  0.66657268846E-01  0.51100000000E-03 0.  1.
         11    1    4    4    0    0 -0.44923007307E-01 -0.19568454104E-01 -0.43309282771E-01  0.65398440934E-01  0.51100000000E-03 0. -1.
</event>
<event>
 8    1  0.1213322E+005  0.1043930E+01  0.7957747E-01            NaN
         13   -1    0    0    0    0  0.00000000000E+00  0.00000000000E+00  0.74505805969E-08  0.10566000000E+00  0.10566000000E+00 0. -1.
     999900   -1    0    0    0    0 -0.00000000000E+00 -0.00000000000E+00 -0.74505805969E-08  0.93827000000E+00  0.93827000000E+00 0. -1.
     999902    2    1    2    0    0 -0.23816430715E-01 -0.21745982234E-02 -0.52189397672E-04  0.10200144408E+01  0.10197340366E+01 0.  0.
     999903    2    3    3    0    0  0.66620372908E-01 -0.24587135346E-01 -0.10565551725E+00  0.12881681952E+00  0.19694754533E-01 0.  0.
         14    1    1    2    0    0  0.23816430715E-01  0.21745982234E-02  0.52189397672E-04  0.23915559227E-01  0.00000000000E+00 0.  1.
     999901    1    3    3    0    0 -0.90436803623E-01  0.22412537122E-01  0.10560332785E+00  0.89119762125E+00  0.88000000000E+00 0.  1.
        -11    1    4    4    0    0  0.34322374414E-02 -0.64775790238E-02 -0.16369226562E-01  0.17943020456E-01  0.51100000000E-03 0.  1.
         11    1    4    4    0    0  0.63188135467E-01 -0.18109556322E-01 -0.89286290685E-01  0.11087379907E+00  0.51100000000E-03 0. -1.
</event>
<event>
 8    1  0.1213322E+005  0.1043930E+01  0.7957747E-01            NaN
         13   -1    0    0    0    0  0.00000000000E+00  0.00000000000E+00  0.74505805969E-08  0.10566000000E+00  0.10566000000E+00 0. -1.
     999900   -1    0    0    0    0 -0.00000000000E+00 -0.00000000000E+00 -0.74505805969E-08  0.93827000000E+00  0.93827000000E+00 0.  1.
     999902    2    1    2    0    0  0.14853073371E-01 -0.75745035714E-02  0.17364316319E-01  0.10198570614E+01  0.10195729102E+01 0.  0.
     999903    2    3    3    0    0 -0.10156250649E+00 -0.76540636121E-01  0.13998347293E-01  0.12950867764E+00  0.20078151155E-01 0.  0.
         14    1    1    2    0    0 -0.14853073371E-01  0.75745035714E-02 -0.17364316319E-01  0.24072938628E-01  0.00000000000E+00 0. -1.
     999901    1    3    3    0    0  0.11641557986E+00  0.68966132550E-01  0.33659690262E-02  0.89034838374E+00  0.88000000000E+00 0.  1.
        -11    1    4    4    0    0 -0.54213320637E-01 -0.50738575567E-01  0.20899688003E-02  0.74284024364E-01  0.51100000000E-03 0. -1.
         11    1    4    4    0    0 -0.47349185853E-01 -0.25802060554E-01  0.11908378493E-01  0.55224653273E-01  0.51100000000E-03 0.  1.
</event>
<event>
 8    1  0.1213322E+005  0.1043930E+01  0.7957747E-01            NaN
         13   -1    0    0    0    0  0.00000000000E+00  0.00000000000E+00  0.74505805969E-08  0.10566000000E+00  0.10566000000E+00 0.  1.
     999900   -1    0    0    0    0 -0.00000000000E+00 -0.00000000000E+00 -0.74505805969E-08  0.93827000000E+00  0.93827000000E+00 0. -1.
     999902    2    1    2    0    0 -0.22041397893E-01  0.77798991897E-02 -0.53344337726E-02  0.10199548830E+01  0.10196730638E+01 0.  0.
     999903    2    3    3    0    0  0.27165871207E-01 -0.21191431140E-01  0.12242664368E+00  0.12889731681E+00  0.20956476030E-01 0.  0.
         14    1    1    2    0    0  0.22041397893E-01 -0.77798991897E-02  0.53344337726E-02  0.23975117021E-01  0.00000000000E+00 0. -1.
     999901    1    3    3    0    0 -0.49207269100E-01  0.28971330330E-01 -0.12776107745E+00  0.89105756617E+00  0.88000000000E+00 0. -1.
        -11    1    4    4    0    0  0.18124727689E-01 -0.24455509702E-01  0.98830836374E-01  0.10341360185E+00  0.51100000000E-03 0. -1.
         11    1    4    4    0    0  0.90411435179E-02  0.32640785624E-02  0.23595807301E-01  0.25483714960E-01  0.51100000000E-03 0.  1.
</event>
<event>
 8    1  0.1213322E+005  0.1043930E+01  0.7957747E-01            NaN
         13   -1    0    0    0    0  0.00000000000E+00  0.00000000000E+00  0.74505805969E-08  0.10566000000E+00  0.10566000000E+00 0.  1.
     999900   -1    0    0    0    0 -0.00000000000E+00 -0.00000000000E+00 -0.74505805969E-08  0.93827000000E+00  0.93827000000E+00 0. -1.
     999902    2    1    2    0    0 -0.16087267490E-01 -0.26686627514E-02  0.12401137011E-01  0.10234431717E+01  0.10232381030E+01 0.  0.
     999903    2    3    3    0    0 -0.50374302326E-01 -0.10757865203E+00  0.61463316069E-01  0.13519275426E+00  0.19713063528E-01 0.  0.
         14    1    1    2    0    0  0.16087267490E-01  0.26686627514E-02 -0.12401137011E-01  0.20486828338E-01  0.00000000000E+00 0. -1.
     999901    1    3    3    0    0  0.34287034836E-01  0.10490998928E+00 -0.49062179058E-01  0.88825041741E+00  0.88000000000E+00 0. -1.
        -11    1    4    4    0    0 -0.62973514107E-02 -0.24751635481E-01  0.20763901347E-01  0.32919611388E-01  0.51100000000E-03 0. -1.
         11    1    4    4    0    0 -0.44076950915E-01 -0.82827016550E-01  0.40699414722E-01  0.10227314287E+00  0.51100000000E-03 0.  1.
</event>
<event>
 8    1  0.1213322E+005  0.1043930E+01  0.7957747E-01            NaN
         13   -1    0    0    0    0  0.00000000000E+00  0.00000000000E+00  0.74505805969E-08  0.10566000000E+00  0.10566000000E+00 0. -1.
     999900   -1    0    0    0    0 -0.00000000000E+00 -0.00000000000E+00 -0.74505805969E-08  0.93827000000E+00  0.93827000000E+00 0.  1.
     999902    2    1    2    0    0 -0.31909502085E-02 -0.13437923877E-01  0.18488119117E-01  0.10208525108E+01  0.10205916315E+01 0.  0.
     999903    2    3    3    0    0  0.65030030556E-01 -0.10117224517E+00  0.53389516735E-01  0.13317603765E+00  0.20510690848E-01 0.  0.
         14    1    1    2    0    0  0.31909502085E-02  0.13437923877E-01 -0.18488119117E-01  0.23077489245E-01  0.00000000000E+00 0.  1.
     999901    1    3    3    0    0 -0.68220980764E-01  0.87734321298E-01 -0.34901397617E-01  0.88767647311E+00  0.88000000000E+00 0.  1.
        -11    1    4    4    0    0  0.21213818140E-01 -0.46463295631E-01  0.14894174922E-01  0.53206780476E-01  0.51100000000E-03 0.  1.
         11    1    4    4    0    0  0.43816212416E-01 -0.54708949543E-01  0.38495341812E-01  0.79969257173E-01  0.51100000000E-03 0. -1.
</event>
<event>
 8    1  0.1213322E+005  0.1043930E+01  0.7957747E-01            NaN
         13   -1    0    0    0    0  0.00000000000E+00  0.00000000000E+00  0.74505805969E-08  0.10566000000E+00  0.10566000000E+00 0.  1.
     999900   -1    0    0    0    0 -0.00000000000E+00 -0.00000000000E+00 -0.74505805969E-08  0.93827000000E+00  0.93827000000E+00 0.  1.
     999902    2    1    2    0    0 -0.12841998817E-01 -0.74892722615E-02  0.17073932252E-01  0.10212909785E+01  0.10210400273E+01 0.  0.
     999903    2    3    3    0    0  0.30212858891E-01 -0.64839589519E-01 -0.10734975949E+00  0.12964977557E+00  0.12965501594E-01 0.  0.
         14    1    1    2    0    0  0.12841998817E-01  0.74892722615E-02 -0.17073932252E-01  0.22639021515E-01  0.00000000000E+00 0. -1.
     999901    1    3    3    0    0 -0.43054857708E-01  0.57350317257E-01  0.12442369175E+00  0.89164120291E+00  0.88000000000E+00 0. -1.
        -11    1    4    4    0    0  0.28817534756E-01 -0.51157790071E-01 -0.82823457564E-01  0.10152613475E+00  0.51100000000E-03 0. -1.
         11    1    4    4    0    0  0.13953241354E-02 -0.13681799448E-01 -0.24526301929E-01  0.28123640819E-01  0.51100000000E-03 0.  1.
</event>
<event>
 8    1  0.1213322E+005  0.1043930E+01  0.7957747E-01            NaN
         13   -1    0    0    0    0  0.00000000000E+00  0.00000000000E+00  0.74505805969E-08  0.10566000000E+00  0.10566000000E+00 0. -1.
     999900   -1    0    0    0    0 -0.00000000000E+00 -0.00000000000E+00 -0.74505805969E-08  0.93827000000E+00  0.93827000000E+00 0.  1.
     999902    2    1    2    0    0  0.60976197518E-02 -0.20891936734E-01  0.10958298963E-01  0.10195632542E+01  0.10192720397E+01 0.  0.
     999903    2    3    3    0    0  0.43712226765E-01 -0.26846855304E-01  0.12001924215E+00  0.13201347580E+00  0.19784511624E-01 0.  0.
         14    1    1    2    0    0 -0.60976197518E-02  0.20891936734E-01 -0.10958298963E-01  0.24366745849E-01  0.00000000000E+00 0. -1.
     999901    1    3    3    0    0 -0.37614607013E-01  0.59549185704E-02 -0.10906094318E+00  0.88754977835E+00  0.88000000000E+00 0.  1.
        -11    1    4    4    0    0  0.18782659352E-01 -0.12957678100E-01  0.77590055557E-01  0.80877484855E-01  0.51100000000E-03 0. -1.
         11    1    4    4    0    0  0.24929567413E-01 -0.13889177204E-01  0.42429186588E-01  0.51135990949E-01  0.51100000000E-03 0.  1.
</event>
<event>
 8    1  0.1213322E+005  0.1043930E+01  0.7957747E-01            NaN
         13   -1    0    0    0    0  0.00000000000E+00  0.00000000000E+00  0.74505805969E-08  0.10566000000E+00  0.10566000000E+00 0. -1.
     999900   -1    0    0    0    0 -0.00000000000E+00 -0.00000000000E+00 -0.74505805969E-08  0.93827000000E+00  0.93827000000E+00 0. -1.
     999902    2    1    2    0    0 -0.76517798226E-02  0.13721577452E-01 -0.17609074464E-01  0.10203310397E+01  0.10200580962E+01 0.  0.
     999903    2    3    3    0    0 -0.65087678817E-02 -0.10436170585E+00  0.71406762153E-01  0.12799209771E+00  0.18690149510E-01 0.  0.
         14    1    1    2    0    0  0.76517798226E-02 -0.13721577452E-01  0.17609074464E-01  0.23598960268E-01  0.00000000000E+00 0. -1.
     999901    1    3    3    0    0 -0.11430119408E-02  0.11808328330E+00 -0.89015836617E-01  0.89233894202E+00  0.88000000000E+00 0. -1.
        -11    1    4    4    0    0 -0.54001709976E-02 -0.68918888444E-01  0.36267788901E-01  0.78067846543E-01  0.51100000000E-03 0.  1.
         11    1    4    4    0    0 -0.11085968842E-02 -0.35442817408E-01  0.35138973252E-01  0.49924251172E-01  0.51100000000E-03 0. -1.
</event>
<event>
 8    1  0.1213322E+005  0.1043930E+01  0.7957747E-01            NaN
         13   -1    0    0    0    0  0.00000000000E+00  0.00000000000E+00  0.74505805969E-08  0.10566000000E+00  0.10566000000E+00 0. -1.
     999900   -1    0    0    0    0 -0.00000000000E+00 -0.00000000000E+00 -0.74505805969E-08  0.93827000000E+00  0.93827000000E+00 0. -1.
     999902    2    1    2    0    0 -0.63194531689E-02 -0.11383605017E-01 -0.20508485836E-01  0.10196376155E+01  0.10193481972E+01 0.  0.
     999903    2    3    3    0    0 -0.50128418578E-01  0.94207283605E-01  0.67678833245E-01  0.12787213939E+00  0.19570102929E-01 0.  0.
         14    1    1    2    0    0  0.63194531689E-02  0.11383605017E-01  0.20508485836E-01  0.24292384461E-01  0.00000000000E+00 0. -1.
     999901    1    3    3    0    0  0.43808965409E-01 -0.10559088862E+00 -0.88187319081E-01  0.89176547615E+00  0.88000000000E+00 0. -1.
        -11    1    4    4    0    0 -0.36727621154E-01  0.69506158505E-01  0.59521041294E-01  0.98605475018E-01  0.51100000000E-03 0.  1.
         11    1    4    4    0    0 -0.13400797424E-01  0.24701125099E-01  0.81577919515E-02  0.29266664369E-01  0.51100000000E-03 0. -1.
</event>
<event>
 8    1  0.1213322E+005  0.1043930E+01  0.7957747E-01            NaN
         13   -1    0    0    0    0  0.00000000000E+00  0.00000000000E+00  0.74505805969E-08  0.10566000000E+00  0.10566000000E+00 0. -1.
     999900   -1    0    0    0    0 -0.00000000000E+00 -0.00000000000E+00 -0.74505805969E-08  0.93827000000E+00  0.93827000000E+00 0.  1.
     999902    2    1    2    0    0  0.23370899928E-01  0.28239718260E-02  0.27463402296E-02  0.10202294480E+01  0.10199541217E+01 0.  0.
     999903    2    3    3    0    0 -0.51060483131E-01 -0.43049007067E-01 -0.10845877598E+00  0.12893211330E+00  0.19994844473E-01 0.  0.
         14    1    1    2    0    0 -0.23370899928E-01 -0.28239718260E-02 -0.27463402296E-02  0.23700551997E-01  0.00000000000E+00 0.  1.
     999901    1    3    3    0    0  0.74431383059E-01  0.45872978893E-01  0.11120511621E+00  0.89129733470E+00  0.88000000000E+00 0. -1.
        -11    1    4    4    0    0 -0.31082346491E-01 -0.23974688872E-01 -0.44979941525E-01  0.59702212944E-01  0.51100000000E-03 0.  1.
         11    1    4    4    0    0 -0.19978136641E-01 -0.19074318195E-01 -0.63478834458E-01  0.69229900356E-01  0.51100000000E-03 0. -1.
</event>
<event>
 8    1  0.1213322E+005  0.1043930E+01  0.7957747E-01            NaN
         13   -1    0    0    0    0  0.00000000000E+00  0.00000000000E+00  0.74505805969E-08  0.10566000000E+00  0.10566000000E+00 0.  1.
     999900   -1    0    0    0    0 -0.00000000000E+00 -0.00000000000E+00 -0.74505805969E-08  0.93827000000E+00  0.93827000000E+00 0. -1.
     999902    2    1    2    0    0  0.48917832950E-02 -0.96072999209E-02  0.26845504299E-01  0.10150005884E+01  0.10145882335E+01 0.  0.
     999903    2    3    3    0    0  0.33983212735E-01 -0.91598330322E-01  0.82371095530E-01  0.12896902483E+00  0.17403997248E-01 0.  0.
         14    1    1    2    0    0 -0.48917832950E-02  0.96072999209E-02 -0.26845504299E-01  0.28929411619E-01  0.00000000000E+00 0. -1.
     999901    1    3    3    0    0 -0.29091429440E-01  0.81991030401E-01 -0.55525591231E-01  0.88603156355E+00  0.88000000000E+00 0. -1.
        -11    1    4    4    0    0  0.18802456115E-01 -0.49949671800E-01  0.33642520013E-01  0.63091856390E-01  0.51100000000E-03 0. -1.
         11    1    4    4    0    0  0.15180756621E-01 -0.41648658521E-01  0.48728575518E-01  0.65877168436E-01  0.51100000000E-03 0.  1.
</event>
<event>
 8    1  0.1213322E+005  0.1043930E+01  0.7957747E-01            NaN
         13   -1    0    0    0    0  0.00000000000E+00  0.00000000000E+00  0.74505805969E-08  0.10566000000E+00  0.10566000000E+00 0.  1.
     999900   -1    0    0    0    0 -0.00000000000E+00 -0.00000000000E+00 -0.74505805969E-08  0.93827000000E+00  0.93827000000E+00 0. -1.
     999902    2    1    2    0    0 -0.92991165811E-02  0.19324396111E-01  0.11302408393E-01  0.10196885007E+01  0.10194003081E+01 0.  0.
     999903    2    3    3    0    0 -0.70941670885E-01  0.11022853148E+00  0.66352755364E-02  0.13284852161E+00  0.20534190853E-01 0.  0.
         14    1    1    2    0    0  0.92991165811E-02 -0.19324396111E-01 -0.11302408393E-01  0.24241499329E-01  0.00000000000E+00 0.  1.
     999901    1    3    3    0    0  0.61642554304E-01 -0.90904135365E-01  0.46671328564E-02  0.88683997906E+00  0.88000000000E+00 0.  1.
        -11    1    4    4    0    0 -0.50283136744E-01  0.74096603257E-01 -0.48161517384E-02  0.89678073650E-01  0.51100000000E-03 0.  1.
         11    1    4    4    0    0 -0.20658534142E-01  0.36131928218E-01  0.11451427275E-01  0.43170447963E-01  0.51100000000E-03 0. -1.
</event>
<event>
 8    1  0.1213322E+005  0.1043930E+01  0.7957747E-01            NaN
         13   -1    0    0    0    0  0.00000000000E+00  0.00000000000E+00  0.74505805969E-08  0.10566000000E+00  0.10566000000E+00 0.  1.
     999900   -1    0    0    0    0 -0.00000000000E+00 -0.00000000000E+00 -0.74505805969E-08  0.93827000000E+00  0.93827000000E+00 0.  1.
     999902    2    1    2    0    0  0.87612316263E-02  0.21600870594E-01 -0.51978146529E-02  0.10200474945E+01  0.10197678741E+01 0.  0.
     999903    2    3    3    0    0 -0.97689677962E-01  0.64129773729E-01  0.54597847200E-01  0.13060046130E+00  0.20485470820E-01 0.  0.
         14    1    1    2    0    0 -0.87612316263E-02 -0.21600870594E-01  0.51978146529E-02  0.23882505463E-01  0.00000000000E+00 0.  1.
     999901    1    3    3    0    0  0.10645090959E+00 -0.42528903136E-01 -0.59795661853E-01  0.88944703323E+00  0.88000000000E+00 0.  1.
        -11    1    4    4    0    0 -0.90089906442E-01  0.52412582389E-01  0.44355620696E-01  0.11327379328E+00  0.51100000000E-03 0.  1.
         11    1    4    4    0    0 -0.75997715200E-02  0.11717191340E-01  0.10242226504E-01  0.17326668024E-01  0.51100000000E-03 0. -1.
</event>
<event>
 8    1  0.1213322E+005  0.1043930E+01  0.7957747E-01            NaN
         13   -1    0    0    0    0  0.00000000000E+00  0.00000000000E+00  0.74505805969E-08  0.10566000000E+00  0.10566000000E+00 0.  1.
     999900   -1    0    0    0    0 -0.00000000000E+00 -0.00000000000E+00 -0.74505805969E-08  0.93827000000E+00  0.93827000000E+00 0.  1.
     999902    2    1    2    0    0 -0.18427628656E-01 -0.14434433097E-01 -0.35959268273E-02  0.10202474949E+01  0.10199725927E+01 0.  0.
     999903    2    3    3    0    0  0.10069893610E+00  0.25072690609E-02  0.77035963688E-01  0.12840689175E+00  0.20179891420E-01 0.  0.
         14    1    1    2    0    0  0.18427628656E-01  0.14434433097E-01  0.35959268273E-02  0.23682505072E-01  0.00000000000E+00 0.  1.
     999901    1    3    3    0    0 -0.11912656476E+00 -0.16941702158E-01 -0.80631890515E-01  0.89184060318E+00  0.88000000000E+00 0.  1.
        -11    1    4    4    0    0  0.97368555087E-01 -0.74474582946E-03  0.69871133877E-01  0.11984751410E+00  0.51100000000E-03 0.  1.
         11    1    4    4    0    0  0.33303810174E-02  0.32520148904E-02  0.71648298102E-02  0.85593776513E-02  0.51100000000E-03 0. -1.
</event>
<event>
 8    1  0.1213322E+005  0.1043930E+01  0.7957747E-01            NaN
         13   -1    0    0    0    0  0.00000000000E+00  0.00000000000E+00  0.74505805969E-08  0.10566000000E+00  0.10566000000E+00 0. -1.
     999900   -1    0    0    0    0 -0.00000000000E+00 -0.00000000000E+00 -0.74505805969E-08  0.93827000000E+00  0.93827000000E+00 0.  1.
     999902    2    1    2    0    0 -0.23481836819E-01  0.86376053617E-02 -0.77320242551E-02  0.10177424250E+01  0.10174054524E+01 0.  0.
     999903    2    3    3    0    0 -0.77055139023E-01  0.71468880866E-01 -0.76226835223E-01  0.13122710812E+00  0.19097856275E-01 0.  0.
         14    1    1    2    0    0  0.23481836819E-01 -0.86376053617E-02  0.77320242551E-02  0.26187575028E-01  0.00000000000E+00 0.  1.
     999901    1    3    3    0    0  0.53573302205E-01 -0.62831275504E-01  0.68494810968E-01  0.88651531686E+00  0.88000000000E+00 0.  1.
        -11    1    4    4    0    0 -0.16883777532E-01  0.68300724949E-02 -0.95534693983E-02  0.20572839682E-01  0.51100000000E-03 0.  1.
         11    1    4    4    0    0 -0.60171361492E-01  0.64638808371E-01 -0.66673365825E-01  0.11065426843E+00  0.51100000000E-03 0. -1.
</event>
<event>
 8    1  0.1213322E+005  0.1043930E+01  0.7957747E-01            NaN
         13   -1    0    0    0    0  0.00000000000E+00  0.00000000000E+00  0.74505805969E-08  0.10566000000E+00  0.10566000000E+00 0.  1.
     999900   -1    0    0    0    0 -0.00000000000E+00 -0.00000000000E+00 -0.74505805969E-08  0.93827000000E+00  0.93827000000E+00 0.  1.
     999902    2    1    2    0    0 -0.12845638591E-01 -0.26038957216E-02 -0.19064707347E-01  0.10207944479E+01  0.10205322391E+01 0.  0.
     999903    2    3    3    0    0 -0.66442096361E-01 -0.48083058256E-01  0.98867311141E-01  0.13014923489E+00  0.20917587578E-01 0.  0.
         14    1    1    2    0    0  0.12845638591E-01  0.26038957216E-02  0.19064707347E-01  0.23135552078E-01  0.00000000000E+00 0.  1.
     999901    1    3    3    0    0  0.53596457771E-01  0.45479162534E-01 -0.11793201849E+00  0.89064521303E+00  0.88000000000E+00 0.  1.
        -11    1    4    4    0    0 -0.30594735160E-01 -0.29626328304E-01  0.63803540108E-01  0.76713167055E-01  0.51100000000E-03 0. -1.
         11    1    4    4    0    0 -0.35847361202E-01 -0.18456729952E-01  0.35063771033E-01  0.53436067835E-01  0.51100000000E-03 0.  1.
</event>
<event>
 8    1  0.1213322E+005  0.1043930E+01  0.7957747E-01            NaN
         13   -1    0    0    0    0  0.00000000000E+00  0.00000000000E+00  0.74505805969E-08  0.10566000000E+00  0.10566000000E+00 0. -1.
     999900   -1    0    0    0    0 -0.00000000000E+00 -0.00000000000E+00 -0.74505805969E-08  0.93827000000E+00  0.93827000000E+00 0. -1.
     999902    2    1    2    0    0  0.20394331156E-01  0.78142879093E-02  0.99919039816E-02  0.10199127149E+01  0.10196298917E+01 0.  0.
     999903    2    3    3    0    0  0.69008301158E-01  0.10986294694E+00 -0.16602277660E-01  0.13228413413E+00  0.19784938170E-01 0.  0.
         14    1    1    2    0    0 -0.20394331156E-01 -0.78142879093E-02 -0.99919039816E-02  0.24017285109E-01  0.00000000000E+00 0.  1.
     999901    1    3    3    0    0 -0.48613970002E-01 -0.10204865903E+00  0.26594181642E-01  0.88762858076E+00  0.88000000000E+00 0.  1.
        -11    1    4    4    0    0  0.21061872383E-01  0.39171821399E-01  0.32239059853E-02  0.44594716624E-01  0.51100000000E-03 0.  1.
         11    1    4    4    0    0  0.47946428775E-01  0.70691125545E-01 -0.19826183645E-01  0.87689417503E-01  0.51100000000E-03 0. -1.
</event>
<event>
 8    1  0.1213322E+005  0.1043930E+01  0.7957747E-01            NaN
         13   -1    0    0    0    0  0.00000000000E+00  0.00000000000E+00  0.74505805969E-08  0.10566000000E+00  0.10566000000E+00 0.  1.
     999900   -1    0    0    0    0 -0.00000000000E+00 -0.00000000000E+00 -0.74505805969E-08  0.93827000000E+00  0.93827000000E+00 0.  1.
     999902    2    1    2    0    0 -0.11207817985E-01  0.20421682976E-01 -0.93952303736E-03  0.10206159908E+01  0.10203496742E+01 0.  0.
     999903    2    3    3    0    0  0.51437370144E-01  0.62514218566E-01 -0.10192097930E+00  0.13163148273E+00  0.19624745975E-01 0.  0.
         14    1    1    2    0    0  0.11207817985E-01 -0.20421682976E-01  0.93952303736E-03  0.23314009159E-01  0.00000000000E+00 0. -1.
     999901    1    3    3    0    0 -0.62645188129E-01 -0.42092535591E-01  0.10098145626E+00  0.88898450811E+00  0.88000000000E+00 0. -1.
        -11    1    4    4    0    0  0.24434747050E-01  0.33206552981E-01 -0.66856440879E-01  0.78547926976E-01  0.51100000000E-03 0. -1.
         11    1    4    4    0    0  0.27002623095E-01  0.29307665585E-01 -0.35064538420E-01  0.53083555756E-01  0.51100000000E-03 0.  1.
</event>
<event>
 8    1  0.1213322E+005  0.1043930E+01  0.7957747E-01            NaN
         13   -1    0    0    0    0  0.00000000000E+00  0.00000000000E+00  0.74505805969E-08  0.10566000000E+00  0.10566000000E+00 0. -1.
     999900   -1    0    0    0    0 -0.00000000000E+00 -0.00000000000E+00 -0.74505805969E-08  0.93827000000E+00  0.93827000000E+00 0.  1.
     999902    2    1    2    0    0 -0.23132785516E-01  0.39656756745E-03  0.66870885270E-02  0.10198468070E+01  0.10195624108E+01 0.  0.
     999903    2    3    3    0    0 -0.79412406463E-01  0.96261517284E-01 -0.37400550217E-01  0.13175829554E+00  0.19718957300E-01 0.  0.
         14    1    1    2    0    0  0.23132785516E-01 -0.39656756745E-03 -0.66870885270E-02  0.24083192988E-01  0.00000000000E+00 0.  1.
     999901    1    3    3    0    0  0.56279620947E-01 -0.95864949717E-01  0.44087638744E-01  0.88808851147E+00  0.88000000000E+00 0. -1.
        -11    1    4    4    0    0 -0.74324769757E-01  0.92363062071E-01 -0.39550624725E-01  0.12497847683E+00  0.51100000000E-03 0. -1.
         11    1    4    4    0    0 -0.50876367061E-02  0.38984552133E-02  0.21500745078E-02  0.67798187064E-02  0.51100000000E-03 0.  1.
</event>
<event>
 8    1  0.1213322E+005  0.1043930E+01  0.7957747E-01            NaN
         13   -1    0    0    0    0  0.00000000000E+00  0.00000000000E+00  0.74505805969E-08  0.10566000000E+00  0.10566000000E+00 0. -1.
     999900   -1    0    0    0    0 -0.00000000000E+00 -0.00000000000E+00 -0.74505805969E-08  0.93827000000E+00  0.93827000000E+00 0.  1.
     999902    2    1    2    0    0  0.71755935749E-02  0.14731595488E-01  0.17090654984E-01  0.10202530167E+01  0.10199782442E+01 0.  0.
     999903    2    3    3    0    0 -0.15228205304E-01  0.67400228076E-02  0.13015254589E+00  0.13270088496E+00  0.19811954026E-01 0.  0.
         14    1    1    2    0    0 -0.71755935749E-02 -0.14731595488E-01 -0.17090654984E-01  0.23676983266E-01  0.00000000000E+00 0.  1.
     999901    1    3    3    0    0  0.22403798879E-01  0.79915726808E-02 -0.11306189091E+00  0.88755213177E+00  0.88000000000E+00 0.  1.
        -11    1    4    4    0    0  0.30047299493E-02  0.29726173573E-02  0.73505171197E-02  0.84944734355E-02  0.51100000000E-03 0.  1.
         11    1    4    4    0    0 -0.18232935254E-01  0.37674054503E-02  0.12280202878E+00  0.12420641153E+00  0.51100000000E-03 0. -1.
</event>
<event>
 8    1  0.1213322E+005  0.1043930E+01  0.7957747E-01            NaN
         13   -1    0    0    0    0  0.00000000000E+00  0.00000000000E+00  0.74505805969E-08  0.10566000000E+00  0.10566000000E+00 0. -1.
     999900   -1    0    0    0    0 -0.00000000000E+00 -0.00000000000E+00 -0.74505805969E-08  0.93827000000E+00  0.93827000000E+00 0. -1.
     999902    2    1    2    0    0  0.63635408662E-02 -0.22012710362E-01  0.62108955740E-02  0.10201891219E+01  0.10199128468E+01 0.  0.
     999903    2    3    3    0    0  0.44560608749E-01 -0.66235547196E-01  0.10413526885E+00  0.13283132586E+00  0.20669091544E-01 0.  0.
         14    1    1    2    0    0 -0.63635408662E-02  0.22012710362E-01 -0.62108955740E-02  0.23740878115E-01  0.00000000000E+00 0. -1.
     999901    1    3    3    0    0 -0.38197067882E-01  0.44222836834E-01 -0.97924373278E-01  0.88735779603E+00  0.88000000000E+00 0. -1.
        -11    1    4    4    0    0  0.78246863778E-02 -0.23260950737E-01  0.43343225930E-01  0.49811584006E-01  0.51100000000E-03 0.  1.
         11    1    4    4    0    0  0.36735922371E-01 -0.42974596459E-01  0.60792042922E-01  0.83019741850E-01  0.51100000000E-03 0. -1.
</event>
<event>
 8    1  0.1213322E+005  0.1043930E+01  0.7957747E-01            NaN
         13   -1    0    0    0    0  0.00000000000E+00  0.00000000000E+00  0.74505805969E-08  0.10566000000E+00  0.10566000000E+00 0. -1.
     999900   -1    0    0    0    0 -0.00000000000E+00 -0.00000000000E+00 -0.74505805969E-08  0.93827000000E+00  0.93827000000E+00 0. -1.
     999902    2    1    2    0    0 -0.13821986699E-02  0.23412496162E-01  0.20841492447E-02  0.10203843183E+01  0.10201126202E+01 0.  0.
     999903    2    3    3    0    0  0.70092826791E-01  0.18088259700E-01 -0.10706707823E+00  0.13074899006E+00  0.19792666676E-01 0.  0.
         14    1    1    2    0    0  0.13821986699E-02 -0.23412496162E-01 -0.20841492447E-02  0.23545681723E-01  0.00000000000E+00 0.  1.
     999901    1    3    3    0    0 -0.71475025460E-01  0.53242364621E-02  0.10915122747E+00  0.88963532822E+00  0.88000000000E+00 0.  1.
        -11    1    4    4    0    0  0.32237809120E-01 -0.99039838004E-03 -0.52978459078E-01  0.62026087037E-01  0.51100000000E-03 0.  1.
         11    1    4    4    0    0  0.37855017670E-01  0.19078658080E-01 -0.54088619151E-01  0.68722903021E-01  0.51100000000E-03 0. -1.
</event>
<event>
 8    1  0.1213322E+005  0.1043930E+01  0.7957747E-01            NaN
         13   -1    0    0    0    0  0.00000000000E+00  0.00000000000E+00  0.74505805969E-08  0.10566000000E+00  0.10566000000E+00 0.  1.
     999900   -1    0    0    0    0 -0.00000000000E+00 -0.00000000000E+00 -0.74505805969E-08  0.93827000000E+00  0.93827000000E+00 0. -1.
     999902    2    1    2    0    0 -0.22482859999E-01  0.59321829390E-02  0.14459602390E-02  0.10206327772E+01  0.10203668484E+01 0.  0.
     999903    2    3    3    0    0 -0.12023310513E+00  0.42107520352E-01  0.33159186052E-01  0.13391439230E+00  0.24586378482E-01 0.  0.
         14    1    1    2    0    0  0.22482859999E-01 -0.59321829390E-02 -0.14459602390E-02  0.23297222778E-01  0.00000000000E+00 0. -1.
     999901    1    3    3    0    0  0.97750245132E-01 -0.36175337413E-01 -0.31713225813E-01  0.88671838492E+00  0.88000000000E+00 0.  1.
        -11    1    4    4    0    0 -0.93899709818E-01  0.42915184033E-01  0.23798764365E-01  0.10595051123E+00  0.51100000000E-03 0.  1.
         11    1    4    4    0    0 -0.26333395313E-01 -0.80766368058E-03  0.93604216866E-02  0.27963881070E-01  0.51100000000E-03 0. -1.
</event>
<event>
 8    1  0.1213322E+005  0.1043930E+01  0.7957747E-01            NaN
         13   -1    0    0    0    0  0.00000000000E+00  0.00000000000E+00  0.74505805969E-08  0.10566000000E+00  0.10566000000E+00 0. -1.
     999900   -1    0    0    0    0 -0.00000000000E+00 -0.00000000000E+00 -0.74505805969E-08  0.93827000000E+00  0.93827000000E+00 0.  1.
     999902    2    1    2    0    0 -0.21460713544E-01  0.37338898972E-02  0.11578938390E-01  0.10192606673E+01  0.10189620857E+01 0.  0.
     999903    2    3    3    0    0  0.43856550775E-01 -0.49983122491E-01 -0.10718999060E+00  0.12726407490E+00  0.16874273147E-01 0.  0.
         14    1    1    2    0    0  0.21460713544E-01 -0.37338898972E-02 -0.11578938390E-01  0.24669332659E-01  0.00000000000E+00 0.  1.
     999901    1    3    3    0    0 -0.65317264319E-01  0.53717012388E-01  0.11876892899E+00  0.89199659244E+00  0.88000000000E+00 0. -1.
        -11    1    4    4    0    0  0.13707797869E-01 -0.12068954066E-01 -0.43995155775E-01  0.47638201344E-01  0.51100000000E-03 0. -1.
         11    1    4    4    0    0  0.30148752906E-01 -0.37914168425E-01 -0.63194834828E-01  0.79625873553E-01  0.51100000000E-03 0.  1.
</event>
<event>
 8    1  0.1213322E+005  0.1043930E+01  0.7957747E-01            NaN
         13   -1    0    0    0    0  0.00000000000E+00  0.00000000000E+00  0.74505805969E-08  0.10566000000E+00  0.10566000000E+00 0. -1.
     999900   -1    0    0    0    0 -0.00000000000E+00 -0.00000000000E+00 -0.74505805969E-08  0.93827000000E+00  0.93827000000E+00 0.  1.
     999902    2    1    2    0    0  0.14680141251E-01 -0.14567114501E-01 -0.11116242995E-01  0.10204506851E+01  0.10201805342E+01 0.  0.
     999903    2    3    3    0    0 -0.87909874093E-01 -0.42062228993E-01  0.82568145071E-01  0.12912725490E+00  0.18946564526E-01 0.  0.
         14    1    1    2    0    0 -0.14680141251E-01  0.14567114501E-01  0.11116242995E-01  0.23479314946E-01  0.00000000000E+00 0. -1.
     999901    1    3    3    0    0  0.10259001534E+00  0.27495114492E-01 -0.93684388066E-01  0.89132343015E+00  0.88000000000E+00 0.  1.
        -11    1    4    4    0    0 -0.63941710362E-01 -0.35901902829E-01  0.52538277730E-01  0.90210978815E-01  0.51100000000E-03 0. -1.
         11    1    4    4    0    0 -0.23968163731E-01 -0.61603261640E-02  0.30029867341E-01  0.38916276088E-01  0.51100000000E-03 0.  1.
</event>
<event>
 8    1  0.1213322E+005  0.1043930E+01  0.7957747E-01            NaN
         13   -1    0    0    0    0  0.00000000000E+00  0.00000000000E+00  0.74505805969E-08  0.10566000000E+00  0.10566000000E+00 0. -1.
     999900   -1    0    0    0    0 -0.00000000000E+00 -0.00000000000E+00 -0.74505805969E-08  0.93827000000E+00  0.93827000000E+00 0. -1.
     999902    2    1    2    0    0 -0.21379521805E-01 -0.16659530117E-01 -0.14785187632E-01  0.10130556471E+01  0.10125850672E+01 0.  0.
     999903    2    3    3    0    0 -0.25799592088E-01 -0.91543700275E-01 -0.82089617950E-01  0.12730338920E+00  0.20532401572E-01 0.  0.
         14    1    1    2    0    0  0.21379521805E-01  0.16659530117E-01  0.14785187632E-01  0.30874352943E-01  0.00000000000E+00 0. -1.
     999901    1    3    3    0    0  0.44200702831E-02  0.74884170157E-01  0.67304430319E-01  0.88575225786E+00  0.88000000000E+00 0.  1.
        -11    1    4    4    0    0  0.64535718151E-03 -0.33350697317E-01 -0.26994572362E-01  0.42914491205E-01  0.51100000000E-03 0. -1.
         11    1    4    4    0    0 -0.26444949269E-01 -0.58193002958E-01 -0.55095045589E-01  0.84388897993E-01  0.51100000000E-03 0.  1.
</event>
<event>
 8    1  0.1213322E+005  0.1043930E+01  0.7957747E-01            NaN
         13   -1    0    0    0    0  0.00000000000E+00  0.00000000000E+00  0.74505805969E-08  0.10566000000E+00  0.10566000000E+00 0.  1.
     999900   -1    0    0    0    0 -0.00000000000E+00 -0.00000000000E+00 -0.74505805969E-08  0.93827000000E+00  0.93827000000E+00 0.  1.
     999902    2    1    2    0    0  0.18132432101E-01  0.14891135161E-01  0.20989266002E-02  0.10203729099E+01  0.10201009454E+01 0.  0.
     999903    2    3    3    0    0  0.22807713140E-01 -0.11883205368E+00 -0.41028709736E-01  0.12921425822E+00  0.19280060779E-01 0.  0.
         14    1    1    2    0    0 -0.18132432101E-01 -0.14891135161E-01 -0.20989266002E-02  0.23557090083E-01  0.00000000000E+00 0. -1.
     999901    1    3    3    0    0 -0.46752810391E-02  0.13372318884E+00  0.43127636336E-01  0.89115865170E+00  0.88000000000E+00 0.  1.
        -11    1    4    4    0    0  0.11697658172E-01 -0.63957291454E-01 -0.11901017403E-01  0.66100421126E-01  0.51100000000E-03 0.  1.
         11    1    4    4    0    0  0.11110054968E-01 -0.54874762225E-01 -0.29127692333E-01  0.63113837090E-01  0.51100000000E-03 0. -1.
</event>
<event>
 8    1  0.1213322E+005  0.1043930E+01  0.7957747E-01            NaN
         13   -1    0    0    0    0  0.00000000000E+00  0.00000000000E+00  0.74505805969E-08  0.10566000000E+00  0.10566000000E+00 0. -1.
     999900   -1    0    0    0    0 -0.00000000000E+00 -0.00000000000E+00 -0.74505805969E-08  0.93827000000E+00  0.93827000000E+00 0.  1.
     999902    2    1    2    0    0  0.13520049492E-01  0.71902507755E-02  0.18545716023E-01  0.10198793238E+01  0.10195957042E+01 0.  0.
     999903    2    3    3    0    0  0.32375464009E-01  0.12569386050E+00 -0.34412031871E-02  0.13146384844E+00  0.20586022720E-01 0.  0.
         14    1    1    2    0    0 -0.13520049492E-01 -0.71902507755E-02 -0.18545716023E-01  0.24050676234E-01  0.00000000000E+00 0.  1.
     999901    1    3    3    0    0 -0.18855414517E-01 -0.11850360972E+00  0.21986919210E-01  0.88841547532E+00  0.88000000000E+00 0.  1.
        -11    1    4    4    0    0  0.13893255091E-01  0.91425902630E-01 -0.19433932374E-02  0.92497330270E-01  0.51100000000E-03 0. -1.
         11    1    4    4    0    0  0.18482208918E-01  0.34267957870E-01 -0.14978099497E-02  0.38966518175E-01  0.51100000000E-03 0.  1.
</event>
<event>
 8    1  0.1213322E+005  0.1043930E+01  0.7957747E-01            NaN
         13   -1    0    0    0    0  0.00000000000E+00  0.00000000000E+00  0.74505805969E-08  0.10566000000E+00  0.10566000000E+00 0.  1.
     999900   -1    0    0    0    0 -0.00000000000E+00 -0.00000000000E+00 -0.74505805969E-08  0.93827000000E+00  0.93827000000E+00 0.  1.
     999902    2    1    2    0    0 -0.19088369291E-01 -0.10175136882E-01 -0.10692553897E-01  0.10198005582E+01  0.10195150556E+01 0.  0.
     999903    2    3    3    0    0 -0.90608990221E-01 -0.39734093738E-02 -0.94980388021E-01  0.13286307471E+00  0.20138158338E-01 0.  0.
         14    1    1    2    0    0  0.19088369291E-01  0.10175136882E-01  0.10692553897E-01  0.24129441800E-01  0.00000000000E+00 0.  1.
     999901    1    3    3    0    0  0.71520620930E-01 -0.62017275078E-02  0.84287834123E-01  0.88693748349E+00  0.88000000000E+00 0. -1.
        -11    1    4    4    0    0 -0.20036967444E-01 -0.25273998065E-02 -0.10481614256E-01  0.22759463362E-01  0.51100000000E-03 0. -1.
         11    1    4    4    0    0 -0.70572022777E-01 -0.14460095673E-02 -0.84498773765E-01  0.11010361135E+00  0.51100000000E-03 0.  1.
</event>
<event>
 8    1  0.1213322E+005  0.1043930E+01  0.7957747E-01            NaN
         13   -1    0    0    0    0  0.00000000000E+00  0.00000000000E+00  0.74505805969E-08  0.10566000000E+00  0.10566000000E+00 0.  1.
     999900   -1    0    0    0    0 -0.00000000000E+00 -0.00000000000E+00 -0.74505805969E-08  0.93827000000E+00  0.93827000000E+00 0. -1.
     999902    2    1    2    0    0 -0.35957941212E-02  0.22637223130E-01 -0.13839880440E-02  0.10209672251E+01  0.10207089623E+01 0.  0.
     999903    2    3    3    0    0  0.63128648420E-01  0.88052732157E-01  0.74096457084E-01  0.13280697065E+00  0.20221192096E-01 0.  0.
         14    1    1    2    0    0  0.35957941212E-02 -0.22637223130E-01  0.13839880440E-02  0.22962774861E-01  0.00000000000E+00 0. -1.
     999901    1    3    3    0    0 -0.66724442541E-01 -0.65415509027E-01 -0.75480445128E-01  0.88816025449E+00  0.88000000000E+00 0. -1.
        -11    1    4    4    0    0  0.45968171530E-02  0.16853374396E-01  0.17016821437E-01  0.24392627766E-01  0.51100000000E-03 0. -1.
         11    1    4    4    0    0  0.58531831267E-01  0.71199357761E-01  0.57079635647E-01  0.10841434289E+00  0.51100000000E-03 0.  1.
</event>
<event>
 8    1  0.1213322E+005  0.1043930E+01  0.7957747E-01            NaN
         13   -1    0    0    0    0  0.00000000000E+00  0.00000000000E+00  0.74505805969E-08  0.10566000000E+00  0.10566000000E+00 0.  1.
     999900   -1    0    0    0    0 -0.00000000000E+00 -0.00000000000E+00 -0.74505805969E-08  0.93827000000E+00  0.93827000000E+00 0.  1.
     999902    2    1    2    0    0 -0.76677131953E-03 -0.21253603782E-01 -0.92069122131E-02  0.10207552110E+01  0.10204921019E+01 0.  0.
     999903    2    3    3    0    0 -0.80163269425E-01  0.67052835477E-01  0.73156261738E-01  0.12896738673E+00  0.18934510745E-01 0.  0.
         14    1    1    2    0    0  0.76677131953E-03  0.21253603782E-01  0.92069122131E-02  0.23174788985E-01  0.00000000000E+00 0. -1.
     999901    1    3    3    0    0  0.79396498106E-01 -0.88306439259E-01 -0.82363173951E-01  0.89178782429E+00  0.88000000000E+00 0.  1.
        -11    1    4    4    0    0 -0.39727809719E-01  0.44980987544E-01  0.38270155393E-01  0.71179027953E-01  0.51100000000E-03 0. -1.
         11    1    4    4    0    0 -0.40435459707E-01  0.22071847933E-01  0.34886106345E-01  0.57788358774E-01  0.51100000000E-03 0.  1.
</event>
<event>
 8    1  0.1213322E+005  0.1043930E+01  0.7957747E-01            NaN
         13   -1    0    0    0    0  0.00000000000E+00  0.00000000000E+00  0.74505805969E-08  0.10566000000E+00  0.10566000000E+00 0.  1.
     999900   -1    0    0    0    0 -0.00000000000E+00 -0.00000000000E+00 -0.74505805969E-08  0.93827000000E+00  0.93827000000E+00 0. -1.
     999902    2    1    2    0    0  0.20658780058E-01  0.39245308007E-02 -0.12879844042E-01  0.10192707722E+01  0.10189724380E+01 0.  0.
     999903    2    3    3    0    0 -0.43520914565E-01  0.95041494734E-01 -0.74783129672E-01  0.13008386768E+00  0.20058425176E-01 0.  0.
         14    1    1    2    0    0 -0.20658780058E-01 -0.39245308007E-02  0.12879844042E-01  0.24659227847E-01  0.00000000000E+00 0. -1.
     999901    1    3    3    0    0  0.64179694623E-01 -0.91116963933E-01  0.61903285630E-01  0.88918690448E+00  0.88000000000E+00 0.  1.
        -11    1    4    4    0    0 -0.29836748467E-01  0.53202747915E-01 -0.53715915006E-01  0.81279915051E-01  0.51100000000E-03 0.  1.
         11    1    4    4    0    0 -0.13684166099E-01  0.41838746819E-01 -0.21067214666E-01  0.48803952626E-01  0.51100000000E-03 0. -1.
</event>
<event>
 8    1  0.1213322E+005  0.1043930E+01  0.7957747E-01            NaN
         13   -1    0    0    0    0  0.00000000000E+00  0.00000000000E+00  0.74505805969E-08  0.10566000000E+00  0.10566000000E+00 0. -1.
     999900   -1    0    0    0    0 -0.00000000000E+00 -0.00000000000E+00 -0.74505805969E-08  0.93827000000E+00  0.93827000000E+00 0. -1.
     999902    2    1    2    0    0 -0.50277333466E-02 -0.91654739994E-02  0.22859378175E-01  0.10187936680E+01  0.10184835309E+01 0.  0.
     999903    2    3    3    0    0 -0.18386856739E-01 -0.12749321246E+00 -0.69737524261E-04  0.13047747192E+00  0.20779078199E-01 0.  0.
         14    1    1    2    0    0  0.50277333466E-02  0.91654739994E-02 -0.22859378175E-01  0.25136332008E-01  0.00000000000E+00 0.  1.
     999901    1    3    3    0    0  0.13359123392E-01  0.11832773846E+00  0.22929115700E-01  0.88831619608E+00  0.88000000000E+00 0. -1.
        -11    1    4    4    0    0 -0.11063565569E-01 -0.10589772634E+00  0.66971337224E-02  0.10668572373E+00  0.51100000000E-03 0. -1.
         11    1    4    4    0    0 -0.73232911694E-02 -0.21595486122E-01 -0.67668712467E-02  0.23791748188E-01  0.51100000000E-03 0.  1.
</event>
<event>
 8    1  0.1213322E+005  0.1043930E+01  0.7957747E-01            NaN
         13   -1    0    0    0    0  0.00000000000E+00  0.00000000000E+00  0.74505805969E-08  0.10566000000E+00  0.10566000000E+00 0. -1.
     999900   -1    0    0    0    0 -0.00000000000E+00 -0.00000000000E+00 -0.74505805969E-08  0.93827000000E+00  0.93827000000E+00 0. -1.
     999902    2    1    2    0    0 -0.85027036363E-02 -0.78730772100E-02  0.16053798999E-01  0.10241308643E+01  0.10239394618E+01 0.  0.
     999903    2    3    3    0    0  0.38826941760E-01 -0.11578481645E+00  0.55040427565E-01  0.13542112761E+00  0.19894170272E-01 0.  0.
         14    1    1    2    0    0  0.85027036363E-02  0.78730772100E-02 -0.16053798999E-01  0.19799135743E-01  0.00000000000E+00 0.  1.
     999901    1    3    3    0    0 -0.47329645396E-01  0.10791173924E+00 -0.38986628566E-01  0.88870973664E+00  0.88000000000E+00 0.  1.
        -11    1    4    4    0    0  0.39973882482E-01 -0.10588352140E+00  0.46780784599E-01  0.12246605372E+00  0.51100000000E-03 0.  1.
         11    1    4    4    0    0 -0.11469407226E-02 -0.99012950480E-02  0.82596429656E-02  0.12955073893E-01  0.51100000000E-03 0. -1.
</event>
<event>
 8    1  0.1213322E+005  0.1043930E+01  0.7957747E-01            NaN
         13   -1    0    0    0    0  0.00000000000E+00  0.00000000000E+00  0.74505805969E-08  0.10566000000E+00  0.10566000000E+00 0. -1.
     999900   -1    0    0    0    0 -0.00000000000E+00 -0.00000000000E+00 -0.74505805969E-08  0.93827000000E+00  0.93827000000E+00 0. -1.
     999902    2    1    2    0    0  0.15519430377E-01  0.22067059517E-02  0.17642146115E-01  0.10203298392E+01  0.10200568676E+01 0.  0.
     999903    2    3    3    0    0 -0.69668678159E-01 -0.58889459863E-01 -0.87580851776E-01  0.12788284660E+00  0.19024291231E-01 0.  0.
         14    1    1    2    0    0 -0.15519430377E-01 -0.22067059517E-02 -0.17642146115E-01  0.23600160803E-01  0.00000000000E+00 0. -1.
     999901    1    3    3    0    0  0.85188108536E-01  0.61096165815E-01  0.10522299789E+00  0.89244699260E+00  0.88000000000E+00 0. -1.
        -11    1    4    4    0    0 -0.48185289676E-01 -0.29454960226E-01 -0.57878425661E-01  0.80867732137E-01  0.51100000000E-03 0.  1.
         11    1    4    4    0    0 -0.21483388483E-01 -0.29434499638E-01 -0.29702426115E-01  0.47015114461E-01  0.51100000000E-03 0. -1.
</event>
<event>
 8    1  0.1213322E+005  0.1043930E+01  0.7957747E-01            NaN
         13   -1    0    0    0    0  0.00000000000E+00  0.00000000000E+00  0.74505805969E-08  0.10566000000E+00  0.10566000000E+00 0. -1.
     999900   -1    0    0    0    0 -0.00000000000E+00 -0.00000000000E+00 -0.74505805969E-08  0.93827000000E+00  0.93827000000E+00 0. -1.
     999902    2    1    2    0    0 -0.16886463139E-02 -0.13465771468E-01 -0.78231514850E-02  0.10282653830E+01  0.10281460585E+01 0.  0.
     999903    2    3    3    0    0  0.11721243856E+00 -0.53560379056E-01 -0.46578685522E-01  0.13851989298E+00  0.20266150292E-01 0.  0.
         14    1    1    2    0    0  0.16886463139E-02  0.13465771468E-01  0.78231514850E-02  0.15664617032E-01  0.00000000000E+00 0. -1.
     999901    1    3    3    0    0 -0.11890108487E+00  0.40094607588E-01  0.38755534037E-01  0.88974548999E+00  0.88000000000E+00 0.  1.
        -11    1    4    4    0    0  0.43137514953E-01 -0.29260243813E-01 -0.13610182058E-01  0.53874903629E-01  0.51100000000E-03 0. -1.
         11    1    4    4    0    0  0.74074923606E-01 -0.24300135243E-01 -0.32968503464E-01  0.84644989348E-01  0.51100000000E-03 0.  1.
</event>
<event>
 8    1  0.1213322E+005  0.1043930E+01  0.7957747E-01            NaN
         13   -1    0    0    0    0  0.00000000000E+00  0.00000000000E+00  0.74505805969E-08  0.10566000000E+00  0.10566000000E+00 0. -1.
     999900   -1    0    0    0    0 -0.00000000000E+00 -0.00000000000E+00 -0.74505805969E-08  0.93827000000E+00  0.93827000000E+00 0. -1.
     999902    2    1    2    0    0 -0.21837256445E-01  0.27955007182E-02  0.15862655298E-01  0.10167950700E+01  0.10164329343E+01 0.  0.
     999903    2    3    3    0    0 -0.21957347007E-03 -0.80135634433E-01 -0.94365697851E-01  0.12578710862E+00  0.22265301381E-01 0.  0.
         14    1    1    2    0    0  0.21837256445E-01 -0.27955007182E-02 -0.15862655298E-01  0.27134930006E-01  0.00000000000E+00 0. -1.
     999901    1    3    3    0    0 -0.21617682975E-01  0.82931135151E-01  0.11022835315E+00  0.89100796137E+00  0.88000000000E+00 0.  1.
        -11    1    4    4    0    0 -0.69187968527E-02 -0.64347442876E-01 -0.64683102984E-01  0.91502066027E-01  0.51100000000E-03 0. -1.
         11    1    4    4    0    0  0.66992233827E-02 -0.15788191558E-01 -0.29682594867E-01  0.34285042593E-01  0.51100000000E-03 0.  1.
</event>
<event>
 8    1  0.1213322E+005  0.1043930E+01  0.7957747E-01            NaN
         13   -1    0    0    0    0  0.00000000000E+00  0.00000000000E+00  0.74505805969E-08  0.10566000000E+00  0.10566000000E+00 0. -1.
     999900   -1    0    0    0    0 -0.00000000000E+00 -0.00000000000E+00 -0.74505805969E-08  0.93827000000E+00  0.93827000000E+00 0.  1.
     999902    2    1    2    0    0  0.20375182092E-01  0.89607488321E-02 -0.84315533767E-03  0.10216554860E+01  0.10214126385E+01 0.  0.
     999903    2    3    3    0    0 -0.11065500432E+00 -0.51804863187E-01 -0.37041920562E-01  0.12914681936E+00  0.19455673724E-01 0.  0.
         14    1    1    2    0    0 -0.20375182092E-01 -0.89607488321E-02  0.84315533767E-03  0.22274514043E-01  0.00000000000E+00 0.  1.
     999901    1    3    3    0    0  0.13103018641E+00  0.60765612019E-01  0.36198765225E-01  0.89250866660E+00  0.88000000000E+00 0. -1.
        -11    1    4    4    0    0 -0.39830078329E-01 -0.26660396803E-01 -0.81122843852E-02  0.48613600734E-01  0.51100000000E-03 0.  1.
         11    1    4    4    0    0 -0.70824925990E-01 -0.25144466385E-01 -0.28929636177E-01  0.80533218622E-01  0.51100000000E-03 0. -1.
</event>
<event>
 8    1  0.1213322E+005  0.1043930E+01  0.7957747E-01            NaN
         13   -1    0    0    0    0  0.00000000000E+00  0.00000000000E+00  0.74505805969E-08  0.10566000000E+00  0.10566000000E+00 0. -1.
     999900   -1    0    0    0    0 -0.00000000000E+00 -0.00000000000E+00 -0.74505805969E-08  0.93827000000E+00  0.93827000000E+00 0.  1.
     999902    2    1    2    0    0 -0.19582212808E-01  0.12497808812E-01 -0.94693521201E-03  0.10206801619E+01  0.10204153262E+01 0.  0.
     999903    2    3    3    0    0 -0.27640598933E-01 -0.12033535912E+00  0.35051536772E-01  0.12994704923E+00  0.20322992111E-01 0.  0.
         14    1    1    2    0    0  0.19582212808E-01 -0.12497808812E-01  0.94693521201E-03  0.23249838061E-01  0.00000000000E+00 0.  1.
     999901    1    3    3    0    0  0.80583861245E-02  0.13283316794E+00 -0.35998471984E-01  0.89073311271E+00  0.88000000000E+00 0.  1.
        -11    1    4    4    0    0 -0.12179303033E-01 -0.73434662410E-01  0.11829242096E-01  0.75373583935E-01  0.51100000000E-03 0. -1.
         11    1    4    4    0    0 -0.15461295900E-01 -0.46900696715E-01  0.23222294677E-01  0.54573465295E-01  0.51100000000E-03 0.  1.
</event>
<event>
 8    1  0.1213322E+005  0.1043930E+01  0.7957747E-01            NaN
         13   -1    0    0    0    0  0.00000000000E+00  0.00000000000E+00  0.74505805969E-08  0.10566000000E+00  0.10566000000E+00 0.  1.
     999900   -1    0    0    0    0 -0.00000000000E+00 -0.00000000000E+00 -0.74505805969E-08  0.93827000000E+00  0.93827000000E+00 0. -1.
     999902    2    1    2    0    0 -0.25787983035E-02 -0.91943814647E-02  0.18832011075E-01  0.10228152778E+01  0.10225973113E+01 0.  0.
     999903    2    3    3    0    0 -0.10218189282E+00 -0.53709689652E-01  0.64682720698E-01  0.13489372911E+00  0.26202935210E-01 0.  0.
         14    1    1    2    0    0  0.25787983035E-02  0.91943814647E-02 -0.18832011075E-01  0.21114722171E-01  0.00000000000E+00 0. -1.
     999901    1    3    3    0    0  0.99603094520E-01  0.44515308187E-01 -0.45850709623E-01  0.88792154872E+00  0.88000000000E+00 0.  1.
        -11    1    4    4    0    0 -0.64132717441E-01 -0.19174534338E-01  0.38472366293E-01  0.77207851302E-01  0.51100000000E-03 0. -1.
         11    1    4    4    0    0 -0.38049175383E-01 -0.34535155314E-01  0.26210354405E-01  0.57685877812E-01  0.51100000000E-03 0.  1.
</event>
<event>
 8    1  0.1213322E+005  0.1043930E+01  0.7957747E-01            NaN
         13   -1    0    0    0    0  0.00000000000E+00  0.00000000000E+00  0.74505805969E-08  0.10566000000E+00  0.10566000000E+00 0. -1.
     999900   -1    0    0    0    0 -0.00000000000E+00 -0.00000000000E+00 -0.74505805969E-08  0.93827000000E+00  0.93827000000E+00 0. -1.
     999902    2    1    2    0    0  0.18502779823E-01 -0.19622034572E-02 -0.12554298995E-01  0.10214842092E+01  0.10212375708E+01 0.  0.
     999903    2    3    3    0    0 -0.72882986601E-01 -0.45078000902E-01 -0.97871508276E-01  0.13160255607E+00  0.19910919876E-01 0.  0.
         14    1    1    2    0    0 -0.18502779823E-01  0.19622034572E-02  0.12554298995E-01  0.22445790849E-01  0.00000000000E+00 0.  1.
     999901    1    3    3    0    0  0.91385766424E-01  0.43115797445E-01  0.85317209281E-01  0.88988165308E+00  0.88000000000E+00 0.  1.
        -11    1    4    4    0    0 -0.15802319176E-01 -0.13140737315E-01 -0.36593500985E-01  0.41973059262E-01  0.51100000000E-03 0.  1.
         11    1    4    4    0    0 -0.57080667425E-01 -0.31937263587E-01 -0.61278007291E-01  0.89629496806E-01  0.51100000000E-03 0. -1.
</event>
<event>
 8    1  0.1213322E+005  0.1043930E+01  0.7957747E-01            NaN
         13   -1    0    0    0    0  0.00000000000E+00  0.00000000000E+00  0.74505805969E-08  0.10566000000E+00  0.10566000000E+00 0. -1.
     999900   -1    0    0    0    0 -0.00000000000E+00 -0.00000000000E+00 -0.74505805969E-08  0.93827000000E+00  0.93827000000E+00 0. -1.
     999902    2    1    2    0    0  0.16123066258E-01 -0.19480066184E-02 -0.17238784860E-01  0.10202461722E+01  0.10199712389E+01 0.  0.
     999903    2    3    3    0    0  0.24542803854E-01 -0.67092440768E-01  0.10591375477E+00  0.12924603905E+00  0.19572182570E-01 0.  0.
         14    1    1    2    0    0 -0.16123066258E-01  0.19480066184E-02  0.17238784860E-01  0.23683827790E-01  0.00000000000E+00 0. -1.
     999901    1    3    3    0    0 -0.84197375961E-02  0.65144434150E-01 -0.12315253963E+00  0.89100013316E+00  0.88000000000E+00 0. -1.
        -11    1    4    4    0    0  0.27813654780E-01 -0.57742282557E-01  0.93432881436E-01  0.11330372916E+00  0.51100000000E-03 0. -1.
         11    1    4    4    0    0 -0.32708509255E-02 -0.93501582110E-02  0.12480873333E-01  0.15942309886E-01  0.51100000000E-03 0.  1.
</event>
<event>
 8    1  0.1213322E+005  0.1043930E+01  0.7957747E-01            NaN
         13   -1    0    0    0    0  0.00000000000E+00  0.00000000000E+00  0.74505805969E-08  0.10566000000E+00  0.10566000000E+00 0. -1.
     999900   -1    0    0    0    0 -0.00000000000E+00 -0.00000000000E+00 -0.74505805969E-08  0.93827000000E+00  0.93827000000E+00 0. -1.
     999902    2    1    2    0    0 -0.23749511452E-01 -0.15525227162E-02  0.37803696207E-02  0.10198314354E+01  0.10195466717E+01 0.  0.
     999903    2    3    3    0    0  0.94318330624E-01  0.33249222076E-01  0.77845497082E-01  0.12818306308E+00  0.19222850556E-01 0.  0.
         14    1    1    2    0    0  0.23749511452E-01  0.15525227162E-02 -0.37803696207E-02  0.24098564593E-01  0.00000000000E+00 0.  1.
     999901    1    3    3    0    0 -0.11806784208E+00 -0.34801744792E-01 -0.74065127461E-01  0.89164837233E+00  0.88000000000E+00 0.  1.
        -11    1    4    4    0    0  0.18696211430E-01  0.15121278256E-01  0.19489393711E-01  0.30956404283E-01  0.51100000000E-03 0.  1.
         11    1    4    4    0    0  0.75622119194E-01  0.18127943819E-01  0.58356103371E-01  0.97226658794E-01  0.51100000000E-03 0. -1.
</event>
<event>
 8    1  0.1213322E+005  0.1043930E+01  0.7957747E-01            NaN
         13   -1    0    0    0    0  0.00000000000E+00  0.00000000000E+00  0.74505805969E-08  0.10566000000E+00  0.10566000000E+00 0.  1.
     999900   -1    0    0    0    0 -0.00000000000E+00 -0.00000000000E+00 -0.74505805969E-08  0.93827000000E+00  0.93827000000E+00 0.  1.
     999902    2    1    2    0    0  0.31770525469E-02  0.94674352504E-02  0.22282363616E-01  0.10195121843E+01  0.10192197331E+01 0.  0.
     999903    2    3    3    0    0  0.20889184642E-01  0.11317981665E+00 -0.56253033290E-01  0.12977189288E+00  0.20743950844E-01 0.  0.
         14    1    1    2    0    0 -0.31770525469E-02 -0.94674352504E-02 -0.22282363616E-01  0.24417815656E-01  0.00000000000E+00 0. -1.
     999901    1    3    3    0    0 -0.17712132095E-01 -0.10371238140E+00  0.78535396906E-01  0.88974029146E+00  0.88000000000E+00 0.  1.
        -11    1    4    4    0    0  0.76963457371E-02  0.54109325112E-01 -0.37941230454E-01  0.66534584174E-01  0.51100000000E-03 0. -1.
         11    1    4    4    0    0  0.13192838905E-01  0.59070491538E-01 -0.18311802835E-01  0.63237308711E-01  0.51100000000E-03 0.  1.
</event>
<event>
 8    1  0.1213322E+005  0.1043930E+01  0.7957747E-01            NaN
         13   -1    0    0    0    0  0.00000000000E+00  0.00000000000E+00  0.74505805969E-08  0.10566000000E+00  0.10566000000E+00 0.  1.
     999900   -1    0    0    0    0 -0.00000000000E+00 -0.00000000000E+00 -0.74505805969E-08  0.93827000000E+00  0.93827000000E+00 0.  1.
     999902    2    1    2    0    0 -0.23699036622E-02  0.22149151930E-01 -0.59613725462E-02  0.10208705261E+01  0.10206100586E+01 0.  0.
     999903    2    3    3    0    0  0.11827559119E-01  0.80845170914E-01  0.10210308602E+00  0.13220595618E+00  0.19430436427E-01 0.  0.
         14    1    1    2    0    0  0.23699036622E-02 -0.22149151930E-01  0.59613725462E-02  0.23059473914E-01  0.00000000000E+00 0. -1.
     999901    1    3    3    0    0 -0.14197462782E-01 -0.58696018984E-01 -0.10806445857E+00  0.88866456990E+00  0.88000000000E+00 0.  1.
        -11    1    4    4    0    0  0.75252107918E-02  0.92155060806E-02  0.18819505133E-01  0.22270815976E-01  0.51100000000E-03 0. -1.
         11    1    4    4    0    0  0.43023483276E-02  0.71629664833E-01  0.83283580892E-01  0.10993514021E+00  0.51100000000E-03 0.  1.
</event>
<event>
 8    1  0.1213322E+005  0.1043930E+01  0.7957747E-01            NaN
         13   -1    0    0    0    0  0.00000000000E+00  0.00000000000E+00  0.74505805969E-08  0.10566000000E+00  0.10566000000E+00 0. -1.
     999900   -1    0    0    0    0 -0.00000000000E+00 -0.00000000000E+00 -0.74505805969E-08  0.93827000000E+00  0.93827000000E+00 0. -1.
     999902    2    1    2    0    0 -0.18654388185E-01  0.42486727859E-02  0.14317082088E-01  0.10200340535E+01  0.10197541145E+01 0.  0.
     999903    2    3    3    0    0 -0.66331393697E-01 -0.11124902188E+00  0.56222940555E-02  0.13116487660E+00  0.19910198488E-01 0.  0.
         14    1    1    2    0    0  0.18654388185E-01 -0.42486727859E-02 -0.14317082088E-01  0.23895946487E-01  0.00000000000E+00 0.  1.
     999901    1    3    3    0    0  0.47677005512E-01  0.11549769467E+00  0.86947880321E-02  0.88886917691E+00  0.88000000000E+00 0. -1.
        -11    1    4    4    0    0 -0.50975473246E-01 -0.70939661722E-01 -0.18911718597E-02  0.87377183120E-01  0.51100000000E-03 0.  1.
         11    1    4    4    0    0 -0.15355920451E-01 -0.40309360158E-01  0.75134659152E-02  0.43787693480E-01  0.51100000000E-03 0. -1.
</event>
<event>
 8    1  0.1213322E+005  0.1043930E+01  0.7957747E-01            NaN
         13   -1    0    0    0    0  0.00000000000E+00  0.00000000000E+00  0.74505805969E-08  0.10566000000E+00  0.10566000000E+00 0.  1.
     999900   -1    0    0    0    0 -0.00000000000E+00 -0.00000000000E+00 -0.74505805969E-08  0.93827000000E+00  0.93827000000E+00 0.  1.
     999902    2    1    2    0    0 -0.16187502050E-01 -0.16030053551E-01 -0.53330928608E-02  0.10205325702E+01  0.10202643222E+01 0.  0.
     999903    2    3    3    0    0  0.62776145627E-01 -0.18905556557E-01 -0.11127284193E+00  0.13066361551E+00  0.19826006633E-01 0.  0.
         14    1    1    2    0    0  0.16187502050E-01  0.16030053551E-01  0.53330928608E-02  0.23397429750E-01  0.00000000000E+00 0.  1.
     999901    1    3    3    0    0 -0.78963647677E-01  0.28755030053E-02  0.10593974907E+00  0.88986895474E+00  0.88000000000E+00 0. -1.
        -11    1    4    4    0    0  0.18332138643E-01 -0.10582097258E-01 -0.21669696086E-01  0.30296615967E-01  0.51100000000E-03 0. -1.
         11    1    4    4    0    0  0.44444006984E-01 -0.83234592989E-02 -0.89603145845E-01  0.10036699955E+00  0.51100000000E-03 0.  1.
</event>
<event>
 8    1  0.1213322E+005  0.1043930E+01  0.7957747E-01            NaN
         13   -1    0    0    0    0  0.00000000000E+00  0.00000000000E+00  0.74505805969E-08  0.10566000000E+00  0.10566000000E+00 0. -1.
     999900   -1    0    0    0    0 -0.00000000000E+00 -0.00000000000E+00 -0.74505805969E-08  0.93827000000E+00  0.93827000000E+00 0.  1.
     999902    2    1    2    0    0  0.19075221090E-01 -0.12807554608E-01  0.68716464049E-02  0.10199484021E+01  0.10196664287E+01 0.  0.
     999903    2    3    3    0    0 -0.85819768158E-01 -0.15768079233E-01 -0.91692607075E-01  0.12824966621E+00  0.20658600198E-01 0.  0.
         14    1    1    2    0    0 -0.19075221090E-01  0.12807554608E-01 -0.68716464049E-02  0.23981597924E-01  0.00000000000E+00 0. -1.
     999901    1    3    3    0    0  0.10489498925E+00  0.29605246244E-02  0.98564253480E-01  0.89169873586E+00  0.88000000000E+00 0. -1.
        -11    1    4    4    0    0 -0.40755168342E-01  0.20873884133E-02 -0.47827830878E-01  0.62873710440E-01  0.51100000000E-03 0. -1.
         11    1    4    4    0    0 -0.45064599816E-01 -0.17855467646E-01 -0.43864776197E-01  0.65375955773E-01  0.51100000000E-03 0.  1.
</event>
<event>
 8    1  0.1213322E+005  0.1043930E+01  0.7957747E-01            NaN
         13   -1    0    0    0    0  0.00000000000E+00  0.00000000000E+00  0.74505805969E-08  0.10566000000E+00  0.10566000000E+00 0. -1.
     999900   -1    0    0    0    0 -0.00000000000E+00 -0.00000000000E+00 -0.74505805969E-08  0.93827000000E+00  0.93827000000E+00 0. -1.
     999902    2    1    2    0    0  0.69452434007E-02 -0.97247510669E-02  0.20166296169E-01  0.10204888676E+01  0.10202196048E+01 0.  0.
     999903    2    3    3    0    0 -0.44044964186E-01 -0.76175989743E-01  0.97816418945E-01  0.13310771497E+00  0.20171060608E-01 0.  0.
         14    1    1    2    0    0 -0.69452434007E-02  0.97247510669E-02 -0.20166296169E-01  0.23441132447E-01  0.00000000000E+00 0.  1.
     999901    1    3    3    0    0  0.50990207587E-01  0.66451238676E-01 -0.77650122776E-01  0.88738115258E+00  0.88000000000E+00 0.  1.
        -11    1    4    4    0    0 -0.36759705936E-01 -0.47212922901E-01  0.58014000854E-01  0.83343994897E-01  0.51100000000E-03 0. -1.
         11    1    4    4    0    0 -0.72852582502E-02 -0.28963066841E-01  0.39802418092E-01  0.49763720074E-01  0.51100000000E-03 0.  1.
</event>
<event>
 8    1  0.1213322E+005  0.1043930E+01  0.7957747E-01            NaN
         13   -1    0    0    0    0  0.00000000000E+00  0.00000000000E+00  0.74505805969E-08  0.10566000000E+00  0.10566000000E+00 0.  1.
     999900   -1    0    0    0    0 -0.00000000000E+00 -0.00000000000E+00 -0.74505805969E-08  0.93827000000E+00  0.93827000000E+00 0.  1.
     999902    2    1    2    0    0 -0.14835810793E-01 -0.16549931785E-01  0.86210014238E-02  0.10200904700E+01  0.10198118669E+01 0.  0.
     999903    2    3    3    0    0  0.69910748825E-01 -0.87527000004E-01  0.65593536955E-01  0.13134664114E+00  0.20023474139E-01 0.  0.
         14    1    1    2    0    0  0.14835810793E-01  0.16549931785E-01 -0.86210014238E-02  0.23839529977E-01  0.00000000000E+00 0. -1.
     999901    1    3    3    0    0 -0.84746559617E-01  0.70977068219E-01 -0.56972535532E-01  0.88874382889E+00  0.88000000000E+00 0.  1.
        -11    1    4    4    0    0  0.44252434279E-01 -0.49512118888E-01  0.28111080815E-01  0.72112563690E-01  0.51100000000E-03 0.  1.
         11    1    4    4    0    0  0.25658314546E-01 -0.38014881116E-01  0.37482456141E-01  0.59234077446E-01  0.51100000000E-03 0. -1.
</event>
<event>
 8    1  0.1213322E+005  0.1043930E+01  0.7957747E-01            NaN
         13   -1    0    0    0    0  0.00000000000E+00  0.00000000000E+00  0.74505805969E-08  0.10566000000E+00  0.10566000000E+00 0.  1.
     999900   -1    0    0    0    0 -0.00000000000E+00 -0.00000000000E+00 -0.74505805969E-08  0.93827000000E+00  0.93827000000E+00 0. -1.
     999902    2    1    2    0    0  0.49137650289E-02  0.21586286552E-01  0.90797667512E-02  0.10200018781E+01  0.10197211758E+01 0.  0.
     999903    2    3    3    0    0 -0.20116079931E-01 -0.10402687900E+00  0.69930533420E-01  0.12865010898E+00  0.20840412896E-01 0.  0.
         14    1    1    2    0    0 -0.49137650289E-02 -0.21586286552E-01 -0.90797667512E-02  0.23928121910E-01  0.00000000000E+00 0. -1.
     999901    1    3    3    0    0  0.25029844960E-01  0.12561316555E+00 -0.60850766669E-01  0.89135176911E+00  0.88000000000E+00 0. -1.
        -11    1    4    4    0    0 -0.13748037562E-02 -0.49255393716E-01  0.24331618222E-01  0.54957007395E-01  0.51100000000E-03 0. -1.
         11    1    4    4    0    0 -0.18741276175E-01 -0.54771485281E-01  0.45598915198E-01  0.73693101581E-01  0.51100000000E-03 0.  1.
</event>
<event>
 8    1  0.1213322E+005  0.1043930E+01  0.7957747E-01            NaN
         13   -1    0    0    0    0  0.00000000000E+00  0.00000000000E+00  0.74505805969E-08  0.10566000000E+00  0.10566000000E+00 0. -1.
     999900   -1    0    0    0    0 -0.00000000000E+00 -0.00000000000E+00 -0.74505805969E-08  0.93827000000E+00  0.93827000000E+00 0.  1.
     999902    2    1    2    0    0  0.91843212919E-02 -0.19024252859E-01  0.98578609688E-02  0.10206179564E+01  0.10203516852E+01 0.  0.
     999903    2    3    3    0    0 -0.11765300216E+00 -0.38711735723E-01  0.37268912076E-01  0.13088391224E+00  0.20019971921E-01 0.  0.
         14    1    1    2    0    0 -0.91843212919E-02  0.19024252859E-01 -0.98578609688E-02  0.23312043611E-01  0.00000000000E+00 0.  1.
     999901    1    3    3    0    0  0.12683732345E+00  0.19687482864E-01 -0.27411051107E-01  0.88973404415E+00  0.88000000000E+00 0.  1.
        -11    1    4    4    0    0 -0.43654054684E-01 -0.45180829337E-02  0.14924111327E-01  0.46358168467E-01  0.51100000000E-03 0.  1.
         11    1    4    4    0    0 -0.73998947473E-01 -0.34193652789E-01  0.22344800749E-01  0.84525743769E-01  0.51100000000E-03 0. -1.
</event>
<event>
 8    1  0.1213322E+005  0.1043930E+01  0.7957747E-01            NaN
         13   -1    0    0    0    0  0.00000000000E+00  0.00000000000E+00  0.74505805969E-08  0.10566000000E+00  0.10566000000E+00 0. -1.
     999900   -1    0    0    0    0 -0.00000000000E+00 -0.00000000000E+00 -0.74505805969E-08  0.93827000000E+00  0.93827000000E+00 0. -1.
     999902    2    1    2    0    0 -0.46688789660E-02 -0.14807171279E-01  0.18000315785E-01  0.10201589647E+01  0.10198819790E+01 0.  0.
     999903    2    3    3    0    0  0.10423855023E+00  0.72462189303E-01  0.10214895580E-01  0.12912732539E+00  0.21285625171E-01 0.  0.
         14    1    1    2    0    0  0.46688789660E-02  0.14807171279E-01 -0.18000315785E-01  0.23771035325E-01  0.00000000000E+00 0.  1.
     999901    1    3    3    0    0 -0.10890742920E+00 -0.87269360581E-01  0.77854202045E-02  0.89103163928E+00  0.88000000000E+00 0.  1.
        -11    1    4    4    0    0  0.63400798626E-01  0.56239597364E-01  0.79628716536E-02  0.85124743900E-01  0.51100000000E-03 0.  1.
         11    1    4    4    0    0  0.40837751606E-01  0.16222591939E-01  0.22520239264E-02  0.44002581495E-01  0.51100000000E-03 0. -1.
</event>
<event>
 8    1  0.1213322E+005  0.1043930E+01  0.7957747E-01            NaN
         13   -1    0    0    0    0  0.00000000000E+00  0.00000000000E+00  0.74505805969E-08  0.10566000000E+00  0.10566000000E+00 0.  1.
     999900   -1    0    0    0    0 -0.00000000000E+00 -0.00000000000E+00 -0.74505805969E-08  0.93827000000E+00  0.93827000000E+00 0. -1.
     999902    2    1    2    0    0 -0.11878797165E-02 -0.18207507960E-01 -0.15147865218E-01  0.10202154006E+01  0.10199397440E+01 0.  0.
     999903    2    3    3    0    0 -0.27185203618E-01  0.11718104259E+00  0.39152928122E-01  0.12782843485E+00  0.18350066393E-01 0.  0.
         14    1    1    2    0    0  0.11878797165E-02  0.18207507960E-01  0.15147865218E-01  0.23714599406E-01  0.00000000000E+00 0.  1.
     999901    1    3    3    0    0  0.25997323902E-01 -0.13538855055E+00 -0.54300793340E-01  0.89238696574E+00  0.88000000000E+00 0. -1.
        -11    1    4    4    0    0 -0.91310410843E-02  0.32997175836E-01  0.19895500211E-01  0.39601534997E-01  0.51100000000E-03 0.  1.
         11    1    4    4    0    0 -0.18054162534E-01  0.84183866758E-01  0.19257427912E-01  0.88226899854E-01  0.51100000000E-03 0. -1.
</event>
<event>
 8    1  0.1213322E+005  0.1043930E+01  0.7957747E-01            NaN
         13   -1    0    0    0    0  0.00000000000E+00  0.00000000000E+00  0.74505805969E-08  0.10566000000E+00  0.10566000000E+00 0.  1.
     999900   -1    0    0    0    0 -0.00000000000E+00 -0.00000000000E+00 -0.74505805969E-08  0.93827000000E+00  0.93827000000E+00 0.  1.
     999902    2    1    2    0    0 -0.14236483573E-01  0.15461397993E-01  0.19710279489E-01  0.10151163329E+01  0.10147073184E+01 0.  0.
     999903    2    3    3    0    0 -0.59552003682E-02  0.11214015801E+00  0.59831406485E-01  0.12887422881E+00  0.20442362818E-01 0.  0.
         14    1    1    2    0    0  0.14236483573E-01 -0.15461397993E-01 -0.19710279489E-01  0.28813667069E-01  0.00000000000E+00 0. -1.
     999901    1    3    3    0    0 -0.82812832049E-02 -0.96678760021E-01 -0.40121126996E-01  0.88624210412E+00  0.88000000000E+00 0.  1.
        -11    1    4    4    0    0  0.14076940806E-02  0.91899207227E-01  0.42686204106E-01  0.10134011562E+00  0.51100000000E-03 0.  1.
         11    1    4    4    0    0 -0.73628944488E-02  0.20240950788E-01  0.17145202379E-01  0.27534113189E-01  0.51100000000E-03 0. -1.
</event>
<event>
 8    1  0.1213322E+005  0.1043930E+01  0.7957747E-01            NaN
         13   -1    0    0    0    0  0.00000000000E+00  0.00000000000E+00  0.74505805969E-08  0.10566000000E+00  0.10566000000E+00 0.  1.
     999900   -1    0    0    0    0 -0.00000000000E+00 -0.00000000000E+00 -0.74505805969E-08  0.93827000000E+00  0.93827000000E+00 0. -1.
     999902    2    1    2    0    0  0.12134568576E-01 -0.17756647554E-01  0.91269512480E-02  0.10205666200E+01  0.10202991612E+01 0.  0.
     999903    2    3    3    0    0 -0.48220933986E-01 -0.64521322579E-02 -0.11825829466E+00  0.12927677956E+00  0.18988759661E-01 0.  0.
         14    1    1    2    0    0 -0.12134568576E-01  0.17756647554E-01 -0.91269512480E-02  0.23363380020E-01  0.00000000000E+00 0. -1.
     999901    1    3    3    0    0  0.60355502562E-01 -0.11304515296E-01  0.12738524591E+00  0.89128984042E+00  0.88000000000E+00 0.  1.
        -11    1    4    4    0    0 -0.25437015253E-01 -0.86072293740E-02 -0.83014593447E-01  0.87251418262E-01  0.51100000000E-03 0.  1.
         11    1    4    4    0    0 -0.22783918733E-01  0.21550971160E-02 -0.35243701212E-01  0.42025361301E-01  0.51100000000E-03 0. -1.
</event>
<event>
 8    1  0.1213322E+005  0.1043930E+01  0.7957747E-01            NaN
         13   -1    0    0    0    0  0.00000000000E+00  0.00000000000E+00  0.74505805969E-08  0.10566000000E+00  0.10566000000E+00 0.  1.
     999900   -1    0    0    0    0 -0.00000000000E+00 -0.00000000000E+00 -0.74505805969E-08  0.93827000000E+00  0.93827000000E+00 0. -1.
     999902    2    1    2    0    0  0.18115301110E-01 -0.10433606518E-01  0.11045486534E-01  0.10202862471E+01  0.10200122543E+01 0.  0.
     999903    2    3    3    0    0  0.10125274412E+00  0.39568154886E-01  0.73542259907E-01  0.13275153945E+00  0.19918588329E-01 0.  0.
         14    1    1    2    0    0 -0.18115301110E-01  0.10433606518E-01 -0.11045486534E-01  0.23643752918E-01  0.00000000000E+00 0. -1.
     999901    1    3    3    0    0 -0.83137443007E-01 -0.50001761404E-01 -0.62496773374E-01  0.88753470763E+00  0.88000000000E+00 0. -1.
        -11    1    4    4    0    0  0.52358904932E-01  0.19517376675E-01  0.49659491413E-01  0.74757669348E-01  0.51100000000E-03 0. -1.
         11    1    4    4    0    0  0.48893839185E-01  0.20050778211E-01  0.23882768494E-01  0.57993870099E-01  0.51100000000E-03 0.  1.
</event>
<event>
 8    1  0.1213322E+005  0.1043930E+01  0.7957747E-01            NaN
         13   -1    0    0    0    0  0.00000000000E+00  0.00000000000E+00  0.74505805969E-08  0.10566000000E+00  0.10566000000E+00 0.  1.
     999900   -1    0    0    0    0 -0.00000000000E+00 -0.00000000000E+00 -0.74505805969E-08  0.93827000000E+00  0.93827000000E+00 0. -1.
     999902    2    1    2    0    0  0.13268282900E-01  0.10647050581E-01  0.18205176324E-01  0.10190134300E+01  0.10187087587E+01 0.  0.
     999903    2    3    3    0    0  0.25025666495E-01  0.10943437107E+00 -0.61951427430E-01  0.12978778263E+00  0.20117743498E-01 0.  0.
         14    1    1    2    0    0 -0.13268282900E-01 -0.10647050581E-01 -0.18205176324E-01  0.24916570033E-01  0.00000000000E+00 0. -1.
     999901    1    3    3    0    0 -0.11757383595E-01 -0.98787320492E-01  0.80156603755E-01  0.88922564734E+00  0.88000000000E+00 0.  1.
        -11    1    4    4    0    0  0.10093653719E-01  0.17413437636E-01 -0.16706773165E-01  0.26162703345E-01  0.51100000000E-03 0.  1.
         11    1    4    4    0    0  0.14932012776E-01  0.92020933437E-01 -0.45244654265E-01  0.10362507928E+00  0.51100000000E-03 0. -1.
</event>
<event>
 8    1  0.1213322E+005  0.1043930E+01  0.7957747E-01            NaN
         13   -1    0    0    0    0  0.00000000000E+00  0.00000000000E+00  0.74505805969E-08  0.10566000000E+00  0.10566000000E+00 0. -1.
     999900   -1    0    0    0    0 -0.00000000000E+00 -0.00000000000E+00 -0.74505805969E-08  0.93827000000E+00  0.93827000000E+00 0.  1.
     999902    2    1    2    0    0 -0.21078139538E-01 -0.82259945449E-02  0.78703512415E-02  0.10199738446E+01  0.10196924763E+01 0.  0.
     999903    2    3    3    0    0  0.45542801067E-03  0.96842202769E-01 -0.80609103346E-01  0.12905766757E+00  0.27918351756E-01 0.  0.
         14    1    1    2    0    0  0.21078139538E-01  0.82259945449E-02 -0.78703512415E-02  0.23956155395E-01  0.00000000000E+00 0.  1.
     999901    1    3    3    0    0 -0.21533567548E-01 -0.10506819731E+00  0.88479454588E-01  0.89091617703E+00  0.88000000000E+00 0.  1.
        -11    1    4    4    0    0  0.12066132632E-01  0.56313089171E-01 -0.37314127100E-01  0.68624782483E-01  0.51100000000E-03 0. -1.
         11    1    4    4    0    0 -0.11610704621E-01  0.40529113598E-01 -0.43294976246E-01  0.60432885088E-01  0.51100000000E-03 0.  1.
</event>
<event>
 8    1  0.1213322E+005  0.1043930E+01  0.7957747E-01            NaN
         13   -1    0    0    0    0  0.00000000000E+00  0.00000000000E+00  0.74505805969E-08  0.10566000000E+00  0.10566000000E+00 0.  1.
     999900   -1    0    0    0    0 -0.00000000000E+00 -0.00000000000E+00 -0.74505805969E-08  0.93827000000E+00  0.93827000000E+00 0.  1.
     999902    2    1    2    0    0  0.73767250824E-02 -0.16497408539E-01  0.13211647520E-01  0.10215441073E+01  0.10212987981E+01 0.  0.
     999903    2    3    3    0    0 -0.12595760030E+00  0.26596867805E-01 -0.36049041457E-02  0.13029893599E+00  0.19801690223E-01 0.  0.
         14    1    1    2    0    0 -0.73767250824E-02  0.16497408539E-01 -0.13211647520E-01  0.22385892693E-01  0.00000000000E+00 0.  1.
     999901    1    3    3    0    0  0.13333432539E+00 -0.43094276344E-01  0.16816551666E-01  0.89124517131E+00  0.88000000000E+00 0.  1.
        -11    1    4    4    0    0 -0.13605896671E-01  0.50587732337E-02 -0.63853339720E-02  0.15866481078E-01  0.51100000000E-03 0. -1.
         11    1    4    4    0    0 -0.11235170363E+00  0.21538094571E-01  0.27804298264E-02  0.11443245492E+00  0.51100000000E-03 0.  1.
</event>
<event>
 8    1  0.1213322E+005  0.1043930E+01  0.7957747E-01            NaN
         13   -1    0    0    0    0  0.00000000000E+00  0.00000000000E+00  0.74505805969E-08  0.10566000000E+00  0.10566000000E+00 0. -1.
     999900   -1    0    0    0    0 -0.00000000000E+00 -0.00000000000E+00 -0.74505805969E-08  0.93827000000E+00  0.93827000000E+00 0.  1.
     999902    2    1    2    0    0  0.15619241783E-01 -0.53162265649E-02 -0.17692607832E-01  0.10197380313E+01  0.10194510293E+01 0.  0.
     999903    2    3    3    0    0 -0.23040549529E-02  0.12561760569E+00 -0.27342915539E-01  0.12981778686E+00  0.17886621443E-01 0.  0.
         14    1    1    2    0    0 -0.15619241783E-01  0.53162265649E-02  0.17692607832E-01  0.24191968722E-01  0.00000000000E+00 0. -1.
     999901    1    3    3    0    0  0.17923296735E-01 -0.13093383225E+00  0.96503077065E-02  0.88992024442E+00  0.88000000000E+00 0. -1.
        -11    1    4    4    0    0  0.64840822707E-02  0.85245082187E-01 -0.16114905656E-01  0.86998383118E-01  0.51100000000E-03 0.  1.
         11    1    4    4    0    0 -0.87881372237E-02  0.40372523498E-01 -0.11228009883E-01  0.42819403737E-01  0.51100000000E-03 0. -1.
</event>
<event>
 8    1  0.1213322E+005  0.1043930E+01  0.7957747E-01            NaN
         13   -1    0    0    0    0  0.00000000000E+00  0.00000000000E+00  0.74505805969E-08  0.10566000000E+00  0.10566000000E+00 0.  1.
     999900   -1    0    0    0    0 -0.00000000000E+00 -0.00000000000E+00 -0.74505805969E-08  0.93827000000E+00  0.93827000000E+00 0. -1.
     999902    2    1    2    0    0 -0.13997923181E-02  0.82475028160E-04 -0.23216775241E-01  0.10206709185E+01  0.10204058697E+01 0.  0.
     999903    2    3    3    0    0  0.18215516518E-01  0.12767220895E+00 -0.15797932431E-01  0.13122224667E+00  0.18376761762E-01 0.  0.
         14    1    1    2    0    0  0.13997923181E-02 -0.82475028160E-04  0.23216775241E-01  0.23259081523E-01  0.00000000000E+00 0.  1.
     999901    1    3    3    0    0 -0.19615308836E-01 -0.12758973392E+00 -0.74188428101E-02  0.88944867180E+00  0.88000000000E+00 0. -1.
        -11    1    4    4    0    0  0.18068215164E-01  0.88149728980E-01 -0.44252742813E-02  0.90092615080E-01  0.51100000000E-03 0. -1.
         11    1    4    4    0    0  0.14730135418E-03  0.39522479970E-01 -0.11372658150E-01  0.41129631594E-01  0.51100000000E-03 0.  1.
</event>
<event>
 8    1  0.1213322E+005  0.1043930E+01  0.7957747E-01            NaN
         13   -1    0    0    0    0  0.00000000000E+00  0.00000000000E+00  0.74505805969E-08  0.10566000000E+00  0.10566000000E+00 0.  1.
     999900   -1    0    0    0    0 -0.00000000000E+00 -0.00000000000E+00 -0.74505805969E-08  0.93827000000E+00  0.93827000000E+00 0.  1.
     999902    2    1    2    0    0  0.20465787727E-01  0.13331385701E-01 -0.34920182142E-02  0.10192567654E+01  0.10189580882E+01 0.  0.
     999903    2    3    3    0    0 -0.28498661802E-01  0.90046380194E-01  0.86999060711E-01  0.12994729003E+00  0.19923285681E-01 0.  0.
         14    1    1    2    0    0 -0.20465787727E-01 -0.13331385701E-01  0.34920182142E-02  0.24673234550E-01  0.00000000000E+00 0.  1.
     999901    1    3    3    0    0  0.48964449529E-01 -0.76714994493E-01 -0.90491078925E-01  0.88930947541E+00  0.88000000000E+00 0.  1.
        -11    1    4    4    0    0 -0.20523259612E-01  0.76301418695E-01  0.62518957091E-01  0.10075709303E+00  0.51100000000E-03 0.  1.
         11    1    4    4    0    0 -0.79754021900E-02  0.13744961498E-01  0.24480103619E-01  0.29190197000E-01  0.51100000000E-03 0. -1.
</event>
<event>
 7    1  0.1213322E+005  0.1043930E+01  0.7957747E-01            NaN
         13   -1    0    0    0    0  0.00000000000E+00  0.00000000000E+00  0.74505805969E-08  0.10566000000E+00  0.10566000000E+00 0. -1.
     999900   -1    0    0    0    0 -0.00000000000E+00 -0.00000000000E+00 -0.74505805969E-08  0.93827000000E+00  0.93827000000E+00 0. -1.
     999903    2    1    2    0    0 -0.49656391397E-01  0.12859335233E-01  0.89574800132E-01  0.10530460849E+00  0.20839770663E-01 0.  0.
         14    1    1    2    0    0  0.30107460733E-02  0.13351006347E-01  0.44777100697E-01  0.46822032305E-01  0.00000000000E+00 0. -1.
     999901    1    1    2    0    0  0.46645645323E-01 -0.26210341581E-01 -0.13435190083E+00  0.89180335921E+00  0.88000000000E+00 0. -1.
        -11    1    3    3    0    0 -0.45047047169E-01  0.16831787787E-01  0.71020492222E-01  0.85771306247E-01  0.51100000000E-03 0.  1.
         11    1    3    3    0    0 -0.46093442275E-02 -0.39724525540E-02  0.18554307910E-01  0.19533302243E-01  0.51100000000E-03 0. -1.
</event>
<event>
 8    1  0.1213322E+005  0.1043930E+01  0.7957747E-01            NaN
         13   -1    0    0    0    0  0.00000000000E+00  0.00000000000E+00  0.74505805969E-08  0.10566000000E+00  0.10566000000E+00 0.  1.
     999900   -1    0    0    0    0 -0.00000000000E+00 -0.00000000000E+00 -0.74505805969E-08  0.93827000000E+00  0.93827000000E+00 0.  1.
     999902    2    1    2    0    0 -0.42506614598E-02  0.75822747625E-02 -0.22338473261E-01  0.10199598853E+01  0.10196781851E+01 0.  0.
     999903    2    3    3    0    0 -0.10632882381E+00 -0.36760344292E-01 -0.65858029689E-01  0.13188321576E+00  0.19968996968E-01 0.  0.
         14    1    1    2    0    0  0.42506614598E-02 -0.75822747625E-02  0.22338473261E-01  0.23970114749E-01  0.00000000000E+00 0.  1.
     999901    1    3    3    0    0  0.10207816235E+00  0.44342619055E-01  0.43519556427E-01  0.88807666949E+00  0.88000000000E+00 0. -1.
        -11    1    4    4    0    0 -0.72487602730E-01 -0.23579371429E-01 -0.54917244143E-01  0.93950008685E-01  0.51100000000E-03 0.  1.
         11    1    4    4    0    0 -0.33841221083E-01 -0.13180972864E-01 -0.10940785546E-01  0.37933207080E-01  0.51100000000E-03 0. -1.
</event>
<event>
 8    1  0.1213322E+005  0.1043930E+01  0.7957747E-01            NaN
         13   -1    0    0    0    0  0.00000000000E+00  0.00000000000E+00  0.74505805969E-08  0.10566000000E+00  0.10566000000E+00 0. -1.
     999900   -1    0    0    0    0 -0.00000000000E+00 -0.00000000000E+00 -0.74505805969E-08  0.93827000000E+00  0.93827000000E+00 0.  1.
     999902    2    1    2    0    0 -0.23097308745E-01  0.35625971802E-02  0.26577580896E-02  0.10204089148E+01  0.10201377907E+01 0.  0.
     999903    2    3    3    0    0  0.43011482250E-01 -0.11664777325E+00  0.29472325014E-01  0.12937584787E+00  0.20317516089E-01 0.  0.
         14    1    1    2    0    0  0.23097308745E-01 -0.35625971802E-02 -0.26577580896E-02  0.23521085179E-01  0.00000000000E+00 0.  1.
     999901    1    3    3    0    0 -0.66108790995E-01  0.12021037043E+00 -0.26814566925E-01  0.89103306695E+00  0.88000000000E+00 0.  1.
        -11    1    4    4    0    0  0.35853793206E-01 -0.87080931053E-01  0.30331345894E-01  0.98938540039E-01  0.51100000000E-03 0. -1.
         11    1    4    4    0    0  0.71576890439E-02 -0.29566842197E-01 -0.85902087938E-03  0.30437307828E-01  0.51100000000E-03 0.  1.
</event>
<event>
 7    1  0.1213322E+005  0.1043930E+01  0.7957747E-01            NaN
         13   -1    0    0    0    0  0.00000000000E+00  0.00000000000E+00  0.74505805969E-08  0.10566000000E+00  0.10566000000E+00 0. -1.
     999900   -1    0    0    0    0 -0.00000000000E+00 -0.00000000000E+00 -0.74505805969E-08  0.93827000000E+00  0.93827000000E+00 0. -1.
     999903    2    1    2    0    0  0.95152161092E-01  0.10368822313E-02 -0.18061256685E-01  0.99103647919E-01  0.20983687771E-01 0.  0.
         14    1    1    2    0    0  0.12266443054E-01 -0.19710164921E-01 -0.50368692448E-01  0.55461350554E-01  0.00000000000E+00 0.  1.
     999901    1    1    2    0    0 -0.10741860415E+00  0.18673282689E-01  0.68429949133E-01  0.88936500153E+00  0.88000000000E+00 0.  1.
        -11    1    3    3    0    0  0.49383229975E-01 -0.96515237427E-02 -0.11801187937E-01  0.51685437707E-01  0.51100000000E-03 0.  1.
         11    1    3    3    0    0  0.45768931118E-01  0.10688405974E-01 -0.62600687479E-02  0.47418210211E-01  0.51100000000E-03 0. -1.
</event>
<event>
 8    1  0.1213322E+005  0.1043930E+01  0.7957747E-01            NaN
         13   -1    0    0    0    0  0.00000000000E+00  0.00000000000E+00  0.74505805969E-08  0.10566000000E+00  0.10566000000E+00 0.  1.
     999900   -1    0    0    0    0 -0.00000000000E+00 -0.00000000000E+00 -0.74505805969E-08  0.93827000000E+00  0.93827000000E+00 0.  1.
     999902    2    1    2    0    0 -0.32783045360E-01 -0.12421065002E-01  0.95178143282E-02  0.10076037050E+01  0.10069486713E+01 0.  0.
     999903    2    3    3    0    0  0.33657995701E-01 -0.40931940944E-01  0.10581812536E+00  0.11940269628E+00  0.15850670684E-01 0.  0.
         14    1    1    2    0    0  0.32783045360E-01  0.12421065002E-01 -0.95178143282E-02  0.36326295000E-01  0.00000000000E+00 0. -1.
     999901    1    3    3    0    0 -0.66441041061E-01  0.28510875942E-01 -0.96300311028E-01  0.88820100872E+00  0.88000000000E+00 0.  1.
        -11    1    4    4    0    0  0.26616762879E-01 -0.32135931221E-01  0.66590111453E-01  0.78585457981E-01  0.51100000000E-03 0.  1.
         11    1    4    4    0    0  0.70412328220E-02 -0.87960097230E-02  0.39228013903E-01  0.40817238301E-01  0.51100000000E-03 0. -1.
</event>
<event>
 8    1  0.1213322E+005  0.1043930E+01  0.7957747E-01            NaN
         13   -1    0    0    0    0  0.00000000000E+00  0.00000000000E+00  0.74505805969E-08  0.10566000000E+00  0.10566000000E+00 0.  1.
     999900   -1    0    0    0    0 -0.00000000000E+00 -0.00000000000E+00 -0.74505805969E-08  0.93827000000E+00  0.93827000000E+00 0. -1.
     999902    2    1    2    0    0 -0.19078201261E-02 -0.22246481710E-01 -0.73758446665E-02  0.10204151364E+01  0.10201441573E+01 0.  0.
     999903    2    3    3    0    0  0.12031935481E-01  0.12395066292E+00 -0.22445800995E-01  0.12811752602E+00  0.20043756693E-01 0.  0.
         14    1    1    2    0    0  0.19078201261E-02  0.22246481710E-01  0.73758446665E-02  0.23514863611E-01  0.00000000000E+00 0.  1.
     999901    1    3    3    0    0 -0.13939755607E-01 -0.14619714463E+00  0.15069956328E-01  0.89229761037E+00  0.88000000000E+00 0.  1.
        -11    1    4    4    0    0 -0.27204756022E-02  0.38036963074E-01 -0.14585844574E-03  0.38137828243E-01  0.51100000000E-03 0. -1.
         11    1    4    4    0    0  0.14752411084E-01  0.85913699844E-01 -0.22299942549E-01  0.89979697779E-01  0.51100000000E-03 0.  1.
</event>
<event>
 8    1  0.1213322E+005  0.1043930E+01  0.7957747E-01            NaN
         13   -1    0    0    0    0  0.00000000000E+00  0.00000000000E+00  0.74505805969E-08  0.10566000000E+00  0.10566000000E+00 0.  1.
     999900   -1    0    0    0    0 -0.00000000000E+00 -0.00000000000E+00 -0.74505805969E-08  0.93827000000E+00  0.93827000000E+00 0.  1.
     999902    2    1    2    0    0  0.93805506272E-02  0.15286526132E-01 -0.25316233160E-01  0.10129044577E+01  0.10124291858E+01 0.  0.
     999903    2    3    3    0    0 -0.32676065004E-01  0.11340091186E+00 -0.42145813259E-01  0.12629381807E+00  0.15696078228E-01 0.  0.
         14    1    1    2    0    0 -0.93805506272E-02 -0.15286526132E-01  0.25316233160E-01  0.31025542262E-01  0.00000000000E+00 0.  1.
     999901    1    3    3    0    0  0.42056615631E-01 -0.98114385731E-01  0.16829580099E-01  0.88661063967E+00  0.88000000000E+00 0. -1.
        -11    1    4    4    0    0 -0.11741764427E-01  0.65280945911E-01 -0.19501191576E-01  0.69137750359E-01  0.51100000000E-03 0. -1.
         11    1    4    4    0    0 -0.20934300577E-01  0.48119965952E-01 -0.22644621684E-01  0.57156067710E-01  0.51100000000E-03 0.  1.
</event>
<event>
 8    1  0.1213322E+005  0.1043930E+01  0.7957747E-01            NaN
         13   -1    0    0    0    0  0.00000000000E+00  0.00000000000E+00  0.74505805969E-08  0.10566000000E+00  0.10566000000E+00 0.  1.
     999900   -1    0    0    0    0 -0.00000000000E+00 -0.00000000000E+00 -0.74505805969E-08  0.93827000000E+00  0.93827000000E+00 0.  1.
     999902    2    1    2    0    0  0.38114068535E-02 -0.21729173942E-01 -0.17199390092E-02  0.10218021440E+01  0.10215625186E+01 0.  0.
     999903    2    3    3    0    0  0.37763031802E-01  0.10319817128E+00 -0.66574984720E-01  0.12996935057E+00  0.19593222556E-01 0.  0.
         14    1    1    2    0    0 -0.38114068535E-02  0.21729173942E-01  0.17199390092E-02  0.22127856033E-01  0.00000000000E+00 0. -1.
     999901    1    3    3    0    0 -0.33951624948E-01 -0.12492734523E+00  0.64855045711E-01  0.89183279340E+00  0.88000000000E+00 0. -1.
        -11    1    4    4    0    0  0.15680437741E-01  0.25201936306E-01 -0.25289634710E-01  0.38997954639E-01  0.51100000000E-03 0.  1.
         11    1    4    4    0    0  0.22082594060E-01  0.77996234979E-01 -0.41285350011E-01  0.90971395932E-01  0.51100000000E-03 0. -1.
</event>
<event>
 8    1  0.1213322E+005  0.1043930E+01  0.7957747E-01            NaN
         13   -1    0    0    0    0  0.00000000000E+00  0.00000000000E+00  0.74505805969E-08  0.10566000000E+00  0.10566000000E+00 0. -1.
     999900   -1    0    0    0    0 -0.00000000000E+00 -0.00000000000E+00 -0.74505805969E-08  0.93827000000E+00  0.93827000000E+00 0.  1.
     999902    2    1    2    0    0  0.48080902035E-02  0.36324921866E-02 -0.22945593085E-01  0.10202063204E+01  0.10199304502E+01 0.  0.
     999903    2    3    3    0    0  0.28863635133E-01  0.12137904821E+00 -0.37744023829E-01  0.13191474990E+00  0.20270844332E-01 0.  0.
         14    1    1    2    0    0 -0.48080902035E-02 -0.36324921866E-02  0.22945593085E-01  0.23723679582E-01  0.00000000000E+00 0. -1.
     999901    1    3    3    0    0 -0.24055544930E-01 -0.11774655602E+00  0.14798430743E-01  0.88829157052E+00  0.88000000000E+00 0.  1.
        -11    1    4    4    0    0  0.20046805228E-01  0.97525263074E-01 -0.37740792124E-01  0.10647854173E+00  0.51100000000E-03 0. -1.
         11    1    4    4    0    0  0.88168299054E-02  0.23853785134E-01 -0.32317050325E-05  0.25436208173E-01  0.51100000000E-03 0.  1.
</event>
<event>
 8    1  0.1213322E+005  0.1043930E+01  0.7957747E-01            NaN
         13   -1    0    0    0    0  0.00000000000E+00  0.00000000000E+00  0.74505805969E-08  0.10566000000E+00  0.10566000000E+00 0.  1.
     999900   -1    0    0    0    0 -0.00000000000E+00 -0.00000000000E+00 -0.74505805969E-08  0.93827000000E+00  0.93827000000E+00 0.  1.
     999902    2    1    2    0    0 -0.71718452376E-02  0.18441264648E-01 -0.20395215259E-01  0.10155138002E+01  0.10151161500E+01 0.  0.
     999903    2    3    3    0    0 -0.74157437110E-01  0.77782129469E-01 -0.69389807579E-01  0.12961940591E+00  0.20901192502E-01 0.  0.
         14    1    1    2    0    0  0.71718452376E-02 -0.18441264648E-01  0.20395215259E-01  0.28416199806E-01  0.00000000000E+00 0.  1.
     999901    1    3    3    0    0  0.66985591872E-01 -0.59340864821E-01  0.48994592320E-01  0.88589439429E+00  0.88000000000E+00 0. -1.
        -11    1    4    4    0    0 -0.11914803354E-01  0.22934749722E-01 -0.10599341607E-01  0.27938726658E-01  0.51100000000E-03 0.  1.
         11    1    4    4    0    0 -0.62242633756E-01  0.54847379746E-01 -0.58790465972E-01  0.10168067925E+00  0.51100000000E-03 0. -1.
</event>
<event>
 8    1  0.1213322E+005  0.1043930E+01  0.7957747E-01            NaN
         13   -1    0    0    0    0  0.00000000000E+00  0.00000000000E+00  0.74505805969E-08  0.10566000000E+00  0.10566000000E+00 0.  1.
     999900   -1    0    0    0    0 -0.00000000000E+00 -0.00000000000E+00 -0.74505805969E-08  0.93827000000E+00  0.93827000000E+00 0. -1.
     999902    2    1    2    0    0 -0.87636035178E-02  0.21642701753E-01 -0.46497534068E-03  0.10205756966E+01  0.10203084480E+01 0.  0.
     999903    2    3    3    0    0 -0.19145465508E-01  0.11047960842E+00 -0.69370295294E-01  0.13336223740E+00  0.20023880002E-01 0.  0.
         14    1    1    2    0    0  0.87636035178E-02 -0.21642701753E-01  0.46497534068E-03  0.23354303411E-01  0.00000000000E+00 0. -1.
     999901    1    3    3    0    0  0.10381861990E-01 -0.88836906663E-01  0.68905319954E-01  0.88721345919E+00  0.88000000000E+00 0.  1.
        -11    1    4    4    0    0  0.23872931361E-02  0.10955549737E-01 -0.12220767128E-01  0.16593116306E-01  0.51100000000E-03 0. -1.
         11    1    4    4    0    0 -0.21532758644E-01  0.99524058680E-01 -0.57149528166E-01  0.11676912110E+00  0.51100000000E-03 0.  1.
</event>
<event>
 8    1  0.1213322E+005  0.1043930E+01  0.7957747E-01            NaN
         13   -1    0    0    0    0  0.00000000000E+00  0.00000000000E+00  0.74505805969E-08  0.10566000000E+00  0.10566000000E+00 0. -1.
     999900   -1    0    0    0    0 -0.00000000000E+00 -0.00000000000E+00 -0.74505805969E-08  0.93827000000E+00  0.93827000000E+00 0. -1.
     999902    2    1    2    0    0 -0.22909181935E-01  0.48717478751E-02  0.47278131377E-02  0.10200361355E+01  0.10197562458E+01 0.  0.
     999903    2    3    3    0    0 -0.36835619800E-01  0.10236533673E+00 -0.70812240988E-01  0.13132625858E+00  0.19917019549E-01 0.  0.
         14    1    1    2    0    0  0.22909181935E-01 -0.48717478751E-02 -0.47278131377E-02  0.23893864512E-01  0.00000000000E+00 0.  1.
     999901    1    3    3    0    0  0.13926437865E-01 -0.97493588858E-01  0.75540054125E-01  0.88870987691E+00  0.88000000000E+00 0. -1.
        -11    1    4    4    0    0 -0.33897781261E-02  0.32706477247E-01 -0.15894001042E-01  0.36525123405E-01  0.51100000000E-03 0. -1.
         11    1    4    4    0    0 -0.33445841674E-01  0.69658859486E-01 -0.54918239946E-01  0.94801135172E-01  0.51100000000E-03 0.  1.
</event>
<event>
 8    1  0.1213322E+005  0.1043930E+01  0.7957747E-01            NaN
         13   -1    0    0    0    0  0.00000000000E+00  0.00000000000E+00  0.74505805969E-08  0.10566000000E+00  0.10566000000E+00 0. -1.
     999900   -1    0    0    0    0 -0.00000000000E+00 -0.00000000000E+00 -0.74505805969E-08  0.93827000000E+00  0.93827000000E+00 0.  1.
     999902    2    1    2    0    0  0.12125194122E-01  0.12822165913E-01  0.16378276133E-01  0.10198535343E+01  0.10195692989E+01 0.  0.
     999903    2    3    3    0    0  0.80035029617E-01  0.45514868976E-02 -0.99667965283E-01  0.12960251351E+00  0.20899430728E-01 0.  0.
         14    1    1    2    0    0 -0.12125194122E-01 -0.12822165913E-01 -0.16378276133E-01  0.24076465693E-01  0.00000000000E+00 0. -1.
     999901    1    3    3    0    0 -0.67909835495E-01  0.82706790155E-02  0.11604624142E+00  0.89025102080E+00  0.88000000000E+00 0. -1.
        -11    1    4    4    0    0  0.26954454560E-01  0.60105061958E-02 -0.48756321108E-01  0.56036673477E-01  0.51100000000E-03 0.  1.
         11    1    4    4    0    0  0.53080575057E-01 -0.14590192983E-02 -0.50911644175E-01  0.73565840030E-01  0.51100000000E-03 0. -1.
</event>
<event>
 8    1  0.1213322E+005  0.1043930E+01  0.7957747E-01            NaN
         13   -1    0    0    0    0  0.00000000000E+00  0.00000000000E+00  0.74505805969E-08  0.10566000000E+00  0.10566000000E+00 0.  1.
     999900   -1    0    0    0    0 -0.00000000000E+00 -0.00000000000E+00 -0.74505805969E-08  0.93827000000E+00  0.93827000000E+00 0. -1.
     999902    2    1    2    0    0  0.47475875393E-02 -0.70440646778E-02  0.24331479679E-01  0.10181583229E+01  0.10178321037E+01 0.  0.
     999903    2    3    3    0    0  0.26366402875E-01 -0.15356473781E-01 -0.12071777718E+00  0.12598358881E+00  0.19185266081E-01 0.  0.
         14    1    1    2    0    0 -0.47475875393E-02  0.70440646778E-02 -0.24331479679E-01  0.25771677050E-01  0.00000000000E+00 0. -1.
     999901    1    3    3    0    0 -0.21618815335E-01  0.83124091027E-02  0.14504925686E+00  0.89217473414E+00  0.88000000000E+00 0.  1.
        -11    1    4    4    0    0  0.16416657746E-01 -0.80986056764E-03 -0.78993594756E-01  0.80687122016E-01  0.51100000000E-03 0.  1.
         11    1    4    4    0    0  0.99497451284E-02 -0.14546613213E-01 -0.41724182425E-01  0.45296466795E-01  0.51100000000E-03 0. -1.
</event>
<event>
 8    1  0.1213322E+005  0.1043930E+01  0.7957747E-01            NaN
         13   -1    0    0    0    0  0.00000000000E+00  0.00000000000E+00  0.74505805969E-08  0.10566000000E+00  0.10566000000E+00 0.  1.
     999900   -1    0    0    0    0 -0.00000000000E+00 -0.00000000000E+00 -0.74505805969E-08  0.93827000000E+00  0.93827000000E+00 0.  1.
     999902    2    1    2    0    0 -0.13867064850E-01  0.54105804800E-02  0.13766686920E-01  0.10236546076E+01  0.10234537919E+01 0.  0.
     999903    2    3    3    0    0  0.10413706902E+00 -0.14477808959E-01 -0.75691190310E-01  0.13106106322E+00  0.19842124533E-01 0.  0.
         14    1    1    2    0    0  0.13867064850E-01 -0.54105804800E-02 -0.13766686920E-01  0.20275392411E-01  0.00000000000E+00 0. -1.
     999901    1    3    3    0    0 -0.11800413387E+00  0.19888389439E-01  0.89457877230E-01  0.89259354437E+00  0.88000000000E+00 0.  1.
        -11    1    4    4    0    0  0.24202421925E-01 -0.11156294338E-01 -0.23521826296E-01  0.35549367978E-01  0.51100000000E-03 0.  1.
         11    1    4    4    0    0  0.79934647096E-01 -0.33215146209E-02 -0.52169364014E-01  0.95511695244E-01  0.51100000000E-03 0. -1.
</event>
<event>
 8    1  0.1213322E+005  0.1043930E+01  0.7957747E-01            NaN
         13   -1    0    0    0    0  0.00000000000E+00  0.00000000000E+00  0.74505805969E-08  0.10566000000E+00  0.10566000000E+00 0. -1.
     999900   -1    0    0    0    0 -0.00000000000E+00 -0.00000000000E+00 -0.74505805969E-08  0.93827000000E+00  0.93827000000E+00 0. -1.
     999902    2    1    2    0    0  0.15680986882E-01  0.16619833746E-01 -0.39399313079E-03  0.10210768284E+01  0.10208210529E+01 0.  0.
     999903    2    3    3    0    0 -0.73045042962E-01 -0.97711191673E-01  0.35616593349E-01  0.12852954441E+00  0.19189757309E-01 0.  0.
         14    1    1    2    0    0 -0.15680986882E-01 -0.16619833746E-01  0.39399313079E-03  0.22853171639E-01  0.00000000000E+00 0.  1.
     999901    1    3    3    0    0  0.88726029844E-01  0.11433102542E+00 -0.36010586480E-01  0.89254728395E+00  0.88000000000E+00 0.  1.
        -11    1    4    4    0    0 -0.22720567563E-01 -0.34278680578E-01  0.30076202202E-02  0.41237834969E-01  0.51100000000E-03 0.  1.
         11    1    4    4    0    0 -0.50324475399E-01 -0.63432511095E-01  0.32608973129E-01  0.87291709443E-01  0.51100000000E-03 0. -1.
</event>
<event>
 8    1  0.1213322E+005  0.1043930E+01  0.7957747E-01            NaN
         13   -1    0    0    0    0  0.00000000000E+00  0.00000000000E+00  0.74505805969E-08  0.10566000000E+00  0.10566000000E+00 0.  1.
     999900   -1    0    0    0    0 -0.00000000000E+00 -0.00000000000E+00 -0.74505805969E-08  0.93827000000E+00  0.93827000000E+00 0.  1.
     999902    2    1    2    0    0 -0.98458566520E-02  0.14257407562E-02 -0.20453585132E-01  0.10211852693E+01  0.10209319426E+01 0.  0.
     999903    2    3    3    0    0  0.75916535870E-01  0.22846608597E-02 -0.10706199373E+00  0.13278392860E+00  0.20019018460E-01 0.  0.
         14    1    1    2    0    0  0.98458566520E-02 -0.14257407562E-02  0.20453585132E-01  0.22744730701E-01  0.00000000000E+00 0.  1.
     999901    1    3    3    0    0 -0.85762392522E-01 -0.85892010349E-03  0.86608408594E-01  0.88840134070E+00  0.88000000000E+00 0. -1.
        -11    1    4    4    0    0  0.33258707933E-01 -0.46745888506E-02 -0.33353525770E-01  0.47336162039E-01  0.51100000000E-03 0. -1.
         11    1    4    4    0    0  0.42657827938E-01  0.69592497103E-02 -0.73708467957E-01  0.85447766562E-01  0.51100000000E-03 0.  1.
</event>
<event>
 8    1  0.1213322E+005  0.1043930E+01  0.7957747E-01            NaN
         13   -1    0    0    0    0  0.00000000000E+00  0.00000000000E+00  0.74505805969E-08  0.10566000000E+00  0.10566000000E+00 0. -1.
     999900   -1    0    0    0    0 -0.00000000000E+00 -0.00000000000E+00 -0.74505805969E-08  0.93827000000E+00  0.93827000000E+00 0. -1.
     999902    2    1    2    0    0  0.14607987540E-01  0.65909926912E-02  0.16482776133E-01  0.10209405156E+01  0.10206816448E+01 0.  0.
     999903    2    3    3    0    0 -0.61666784683E-01 -0.69405516161E-01  0.90526435803E-01  0.13129127360E+00  0.20553465312E-01 0.  0.
         14    1    1    2    0    0 -0.14607987540E-01 -0.65909926912E-02 -0.16482776133E-01  0.22989484415E-01  0.00000000000E+00 0.  1.
     999901    1    3    3    0    0  0.76274772223E-01  0.75996508852E-01 -0.74043659670E-01  0.88964924199E+00  0.88000000000E+00 0. -1.
        -11    1    4    4    0    0 -0.25296831114E-01 -0.19782927464E-01  0.42329602836E-01  0.53135207543E-01  0.51100000000E-03 0.  1.
         11    1    4    4    0    0 -0.36369953569E-01 -0.49622588697E-01  0.48196832967E-01  0.78156066052E-01  0.51100000000E-03 0. -1.
</event>
<event>
 8    1  0.1213322E+005  0.1043930E+01  0.7957747E-01            NaN
         13   -1    0    0    0    0  0.00000000000E+00  0.00000000000E+00  0.74505805969E-08  0.10566000000E+00  0.10566000000E+00 0. -1.
     999900   -1    0    0    0    0 -0.00000000000E+00 -0.00000000000E+00 -0.74505805969E-08  0.93827000000E+00  0.93827000000E+00 0. -1.
     999902    2    1    2    0    0 -0.16071033062E-01 -0.15528435024E-01  0.66908307597E-02  0.10206023852E+01  0.10203357540E+01 0.  0.
     999903    2    3    3    0    0 -0.47181388099E-01  0.95653391865E-01 -0.67690577097E-01  0.12994990149E+00  0.30484552028E-01 0.  0.
         14    1    1    2    0    0  0.16071033062E-01  0.15528435024E-01 -0.66908307597E-02  0.23327614842E-01  0.00000000000E+00 0. -1.
     999901    1    3    3    0    0  0.31110355037E-01 -0.11118182689E+00  0.74381407857E-01  0.89065248366E+00  0.88000000000E+00 0.  1.
        -11    1    4    4    0    0 -0.99673549881E-02  0.20792776524E-01 -0.31031167203E-01  0.38663706238E-01  0.51100000000E-03 0.  1.
         11    1    4    4    0    0 -0.37214033111E-01  0.74860615342E-01 -0.36659409894E-01  0.91286195257E-01  0.51100000000E-03 0. -1.
</event>
<event>
 8    1  0.1213322E+005  0.1043930E+01  0.7957747E-01            NaN
         13   -1    0    0    0    0  0.00000000000E+00  0.00000000000E+00  0.74505805969E-08  0.10566000000E+00  0.10566000000E+00 0. -1.
     999900   -1    0    0    0    0 -0.00000000000E+00 -0.00000000000E+00 -0.74505805969E-08  0.93827000000E+00  0.93827000000E+00 0.  1.
     999902    2    1    2    0    0 -0.19169811437E-01  0.11023196110E-01  0.10953461870E-01  0.10192526653E+01  0.10189538875E+01 0.  0.
     999903    2    3    3    0    0  0.94489075555E-01  0.31021533553E-01  0.78540736104E-01  0.12914799965E+00  0.24900555088E-01 0.  0.
         14    1    1    2    0    0  0.19169811437E-01 -0.11023196110E-01 -0.10953461870E-01  0.24677334741E-01  0.00000000000E+00 0.  1.
     999901    1    3    3    0    0 -0.11365888699E+00 -0.19998337444E-01 -0.67587274234E-01  0.89010466560E+00  0.88000000000E+00 0.  1.
        -11    1    4    4    0    0  0.41449803707E-01  0.56413798018E-02  0.45046212366E-01  0.61476286184E-01  0.51100000000E-03 0.  1.
         11    1    4    4    0    0  0.53039271848E-01  0.25380153751E-01  0.33494523738E-01  0.67671713471E-01  0.51100000000E-03 0. -1.
</event>
<event>
 8    1  0.1213322E+005  0.1043930E+01  0.7957747E-01            NaN
         13   -1    0    0    0    0  0.00000000000E+00  0.00000000000E+00  0.74505805969E-08  0.10566000000E+00  0.10566000000E+00 0.  1.
     999900   -1    0    0    0    0 -0.00000000000E+00 -0.00000000000E+00 -0.74505805969E-08  0.93827000000E+00  0.93827000000E+00 0.  1.
     999902    2    1    2    0    0 -0.14254328138E-01 -0.18859049884E-01  0.39982802172E-02  0.10199542648E+01  0.10196724309E+01 0.  0.
     999903    2    3    3    0    0  0.72811261144E-01  0.64154493661E-01 -0.80658412751E-01  0.12774441230E+00  0.19889105571E-01 0.  0.
         14    1    1    2    0    0  0.14254328138E-01  0.18859049884E-01 -0.39982802172E-02  0.23975735190E-01  0.00000000000E+00 0. -1.
     999901    1    3    3    0    0 -0.87065589282E-01 -0.83013543545E-01  0.84656692968E-01  0.89220985251E+00  0.88000000000E+00 0. -1.
        -11    1    4    4    0    0  0.66248452416E-01  0.55382554606E-01 -0.62740927755E-01  0.10673691929E+00  0.51100000000E-03 0.  1.
         11    1    4    4    0    0  0.65628087284E-02  0.87719390548E-02 -0.17917484996E-01  0.21007493015E-01  0.51100000000E-03 0. -1.
</event>
<event>
 8    1  0.1213322E+005  0.1043930E+01  0.7957747E-01            NaN
         13   -1    0    0    0    0  0.00000000000E+00  0.00000000000E+00  0.74505805969E-08  0.10566000000E+00  0.10566000000E+00 0. -1.
     999900   -1    0    0    0    0 -0.00000000000E+00 -0.00000000000E+00 -0.74505805969E-08  0.93827000000E+00  0.93827000000E+00 0.  1.
     999902    2    1    2    0    0  0.51670359888E-02 -0.18883815638E-01  0.13680447463E-01  0.10200458756E+01  0.10197662168E+01 0.  0.
     999903    2    3    3    0    0  0.11068567753E+00  0.55703314084E-01 -0.25129338076E-01  0.12976298627E+00  0.29202235614E-01 0.  0.
         14    1    1    2    0    0 -0.51670359888E-02  0.18883815638E-01 -0.13680447463E-01  0.23884124367E-01  0.00000000000E+00 0.  1.
     999901    1    3    3    0    0 -0.10551864154E+00 -0.74587129722E-01  0.38809785539E-01  0.89028288936E+00  0.88000000000E+00 0.  1.
        -11    1    4    4    0    0  0.14169344602E-01  0.14331901149E-01  0.44915943498E-02  0.20654521485E-01  0.51100000000E-03 0.  1.
         11    1    4    4    0    0  0.96516332927E-01  0.41371412935E-01 -0.29620932426E-01  0.10910846479E+00  0.51100000000E-03 0. -1.
</event>
<event>
 8    1  0.1213322E+005  0.1043930E+01  0.7957747E-01            NaN
         13   -1    0    0    0    0  0.00000000000E+00  0.00000000000E+00  0.74505805969E-08  0.10566000000E+00  0.10566000000E+00 0. -1.
     999900   -1    0    0    0    0 -0.00000000000E+00 -0.00000000000E+00 -0.74505805969E-08  0.93827000000E+00  0.93827000000E+00 0. -1.
     999902    2    1    2    0    0  0.10615326745E-01  0.16004452399E-01 -0.15938404791E-01  0.10189728286E+01  0.10186671512E+01 0.  0.
     999903    2    3    3    0    0 -0.62165692370E-01 -0.10285530247E+00  0.34582226998E-01  0.12657322508E+00  0.19520869044E-01 0.  0.
         14    1    1    2    0    0 -0.10615326745E-01 -0.16004452399E-01  0.15938404791E-01  0.24957171430E-01  0.00000000000E+00 0. -1.
     999901    1    3    3    0    0  0.72781019114E-01  0.11885975487E+00 -0.50520631789E-01  0.89239960349E+00  0.88000000000E+00 0. -1.
        -11    1    4    4    0    0 -0.33673113453E-01 -0.59485481249E-01  0.29432199615E-01  0.74423897669E-01  0.51100000000E-03 0. -1.
         11    1    4    4    0    0 -0.28492578916E-01 -0.43369821225E-01  0.51500273829E-02  0.52149327411E-01  0.51100000000E-03 0.  1.
</event>
<event>
 8    1  0.1213322E+005  0.1043930E+01  0.7957747E-01            NaN
         13   -1    0    0    0    0  0.00000000000E+00  0.00000000000E+00  0.74505805969E-08  0.10566000000E+00  0.10566000000E+00 0. -1.
     999900   -1    0    0    0    0 -0.00000000000E+00 -0.00000000000E+00 -0.74505805969E-08  0.93827000000E+00  0.93827000000E+00 0.  1.
     999902    2    1    2    0    0  0.11902339719E-01 -0.24318362058E-02 -0.18854402970E-01  0.10215008219E+01  0.10212545526E+01 0.  0.
     999903    2    3    3    0    0 -0.27168978402E-01 -0.98177083675E-01 -0.83302582886E-01  0.13310491456E+00  0.20017612705E-01 0.  0.
         14    1    1    2    0    0 -0.11902339719E-01  0.24318362058E-02  0.18854402970E-01  0.22429178083E-01  0.00000000000E+00 0. -1.
     999901    1    3    3    0    0  0.39071318121E-01  0.95745247470E-01  0.64448179917E-01  0.88839590736E+00  0.88000000000E+00 0. -1.
        -11    1    4    4    0    0 -0.13567254511E-01 -0.79590272153E-01 -0.63306558585E-01  0.10259952874E+00  0.51100000000E-03 0.  1.
         11    1    4    4    0    0 -0.13601723891E-01 -0.18586811522E-01 -0.19996024301E-01  0.30505385823E-01  0.51100000000E-03 0. -1.
</event>
<event>
 8    1  0.1213322E+005  0.1043930E+01  0.7957747E-01            NaN
         13   -1    0    0    0    0  0.00000000000E+00  0.00000000000E+00  0.74505805969E-08  0.10566000000E+00  0.10566000000E+00 0.  1.
     999900   -1    0    0    0    0 -0.00000000000E+00 -0.00000000000E+00 -0.74505805969E-08  0.93827000000E+00  0.93827000000E+00 0.  1.
     999902    2    1    2    0    0  0.71073996019E-02  0.49391809855E-02 -0.22700330472E-01  0.10196356459E+01  0.10193461800E+01 0.  0.
     999903    2    3    3    0    0 -0.90631999026E-01 -0.49726003928E-01 -0.78683180099E-01  0.13077381640E+00  0.14963739841E-01 0.  0.
         14    1    1    2    0    0 -0.71073996019E-02 -0.49391809855E-02  0.22700330472E-01  0.24294354107E-01  0.00000000000E+00 0.  1.
     999901    1    3    3    0    0  0.97739398628E-01  0.54665184914E-01  0.55982849627E-01  0.88886182950E+00  0.88000000000E+00 0. -1.
        -11    1    4    4    0    0 -0.80153558931E-01 -0.41318988451E-01 -0.62422615994E-01  0.10967541167E+00  0.51100000000E-03 0.  1.
         11    1    4    4    0    0 -0.10478440096E-01 -0.84070154773E-02 -0.16260564104E-01  0.21098404728E-01  0.51100000000E-03 0. -1.
</event>
<event>
 8    1  0.1213322E+005  0.1043930E+01  0.7957747E-01            NaN
         13   -1    0    0    0    0  0.00000000000E+00  0.00000000000E+00  0.74505805969E-08  0.10566000000E+00  0.10566000000E+00 0.  1.
     999900   -1    0    0    0    0 -0.00000000000E+00 -0.00000000000E+00 -0.74505805969E-08  0.93827000000E+00  0.93827000000E+00 0.  1.
     999902    2    1    2    0    0  0.22443572290E-01  0.57017894144E-02  0.50974295402E-02  0.10202190716E+01  0.10199435013E+01 0.  0.
     999903    2    3    3    0    0 -0.33515090074E-01 -0.93717149941E-01  0.80683722960E-01  0.12964128992E+00  0.19769558553E-01 0.  0.
         14    1    1    2    0    0 -0.22443572290E-01 -0.57017894144E-02 -0.50974295402E-02  0.23710928442E-01  0.00000000000E+00 0.  1.
     999901    1    3    3    0    0  0.55958662364E-01  0.99418939355E-01 -0.75586293420E-01  0.89057778164E+00  0.88000000000E+00 0.  1.
        -11    1    4    4    0    0 -0.20503921735E-01 -0.61966384065E-01  0.64261570050E-01  0.91597238315E-01  0.51100000000E-03 0.  1.
         11    1    4    4    0    0 -0.13011168339E-01 -0.31750765876E-01  0.16422152910E-01  0.38044051604E-01  0.51100000000E-03 0. -1.
</event>
<event>
 8    1  0.1213322E+005  0.1043930E+01  0.7957747E-01            NaN
         13   -1    0    0    0    0  0.00000000000E+00  0.00000000000E+00  0.74505805969E-08  0.10566000000E+00  0.10566000000E+00 0.  1.
     999900   -1    0    0    0    0 -0.00000000000E+00 -0.00000000000E+00 -0.74505805969E-08  0.93827000000E+00  0.93827000000E+00 0. -1.
     999902    2    1    2    0    0 -0.42275929732E-02 -0.15285653841E-01 -0.16821893684E-01  0.10208107469E+01  0.10205489117E+01 0.  0.
     999903    2    3    3    0    0 -0.12572312782E+00  0.20633971817E-01 -0.25003753322E-01  0.13169977110E+00  0.22081131482E-01 0.  0.
         14    1    1    2    0    0  0.42275929732E-02  0.15285653841E-01  0.16821893684E-01  0.23119253076E-01  0.00000000000E+00 0. -1.
     999901    1    3    3    0    0  0.12149553485E+00 -0.35919625657E-01  0.81818596378E-02  0.88911097582E+00  0.88000000000E+00 0.  1.
        -11    1    4    4    0    0 -0.35338127692E-01  0.15953525748E-01 -0.85925014308E-02  0.39716375142E-01  0.51100000000E-03 0. -1.
         11    1    4    4    0    0 -0.90385000126E-01  0.46804460685E-02 -0.16411251891E-01  0.91983395963E-01  0.51100000000E-03 0.  1.
</event>
<event>
 8    1  0.1213322E+005  0.1043930E+01  0.7957747E-01            NaN
         13   -1    0    0    0    0  0.00000000000E+00  0.00000000000E+00  0.74505805969E-08  0.10566000000E+00  0.10566000000E+00 0.  1.
     999900   -1    0    0    0    0 -0.00000000000E+00 -0.00000000000E+00 -0.74505805969E-08  0.93827000000E+00  0.93827000000E+00 0. -1.
     999902    2    1    2    0    0  0.11080115665E-01  0.53663061343E-02  0.20726432259E-01  0.10198229222E+01  0.10195379549E+01 0.  0.
     999903    2    3    3    0    0  0.65473128528E-01 -0.10948224434E+00  0.18701168142E-01  0.13069250936E+00  0.21394062901E-01 0.  0.
         14    1    1    2    0    0 -0.11080115665E-01 -0.53663061343E-02 -0.20726432259E-01  0.24107077776E-01  0.00000000000E+00 0.  1.
     999901    1    3    3    0    0 -0.54393012863E-01  0.11484855047E+00  0.20252641169E-02  0.88913041287E+00  0.88000000000E+00 0. -1.
        -11    1    4    4    0    0  0.37352814804E-01 -0.44170605559E-01  0.13428367250E-01  0.59387349976E-01  0.51100000000E-03 0. -1.
         11    1    4    4    0    0  0.28120313724E-01 -0.65311638778E-01  0.52728008921E-02  0.71305159379E-01  0.51100000000E-03 0.  1.
</event>
<event>
 8    1  0.1213322E+005  0.1043930E+01  0.7957747E-01            NaN
         13   -1    0    0    0    0  0.00000000000E+00  0.00000000000E+00  0.74505805969E-08  0.10566000000E+00  0.10566000000E+00 0. -1.
     999900   -1    0    0    0    0 -0.00000000000E+00 -0.00000000000E+00 -0.74505805969E-08  0.93827000000E+00  0.93827000000E+00 0. -1.
     999902    2    1    2    0    0  0.21297048913E-01 -0.88219278532E-02 -0.22227829024E-02  0.10207711687E+01  0.10205084259E+01 0.  0.
     999903    2    3    3    0    0 -0.89365605803E-01  0.53951593383E-02 -0.91012049419E-01  0.12929380916E+00  0.20454258805E-01 0.  0.
         14    1    1    2    0    0 -0.21297048913E-01  0.88219278532E-02  0.22227829024E-02  0.23158831302E-01  0.00000000000E+00 0. -1.
     999901    1    3    3    0    0  0.11066265472E+00 -0.14217087192E-01  0.88789266517E-01  0.89147735954E+00  0.88000000000E+00 0. -1.
        -11    1    4    4    0    0 -0.45699900289E-01  0.12942551545E-01 -0.45768395215E-01  0.65962092511E-01  0.51100000000E-03 0. -1.
         11    1    4    4    0    0 -0.43665705514E-01 -0.75473922064E-02 -0.45243654205E-01  0.63331716651E-01  0.51100000000E-03 0.  1.
</event>
<event>
 8    1  0.1213322E+005  0.1043930E+01  0.7957747E-01            NaN
         13   -1    0    0    0    0  0.00000000000E+00  0.00000000000E+00  0.74505805969E-08  0.10566000000E+00  0.10566000000E+00 0. -1.
     999900   -1    0    0    0    0 -0.00000000000E+00 -0.00000000000E+00 -0.74505805969E-08  0.93827000000E+00  0.93827000000E+00 0. -1.
     999902    2    1    2    0    0 -0.13040301762E-01  0.15429053285E-01 -0.11635766796E-01  0.10206169945E+01  0.10203507011E+01 0.  0.
     999903    2    3    3    0    0  0.76949637173E-01  0.93314816007E-01 -0.48418573364E-01  0.13184404489E+00  0.20238388748E-01 0.  0.
         14    1    1    2    0    0  0.13040301762E-01 -0.15429053285E-01  0.11635766796E-01  0.23313005474E-01  0.00000000000E+00 0. -1.
     999901    1    3    3    0    0 -0.89989938935E-01 -0.77885762722E-01  0.36782806567E-01  0.88877294964E+00  0.88000000000E+00 0.  1.
        -11    1    4    4    0    0  0.33209324165E-01  0.55564549585E-01 -0.28453890255E-01  0.70711833336E-01  0.51100000000E-03 0. -1.
         11    1    4    4    0    0  0.43740313008E-01  0.37750266422E-01 -0.19964683109E-01  0.61132211555E-01  0.51100000000E-03 0.  1.
</event>
<event>
 8    1  0.1213322E+005  0.1043930E+01  0.7957747E-01            NaN
         13   -1    0    0    0    0  0.00000000000E+00  0.00000000000E+00  0.74505805969E-08  0.10566000000E+00  0.10566000000E+00 0. -1.
     999900   -1    0    0    0    0 -0.00000000000E+00 -0.00000000000E+00 -0.74505805969E-08  0.93827000000E+00  0.93827000000E+00 0. -1.
     999902    2    1    2    0    0 -0.36489150711E-02 -0.17178451171E-01 -0.15833504503E-01  0.10202844163E+01  0.10200103805E+01 0.  0.
     999903    2    3    3    0    0  0.15763634187E-01  0.58769661454E-01  0.10947222139E+00  0.12795796936E+00  0.26205140662E-01 0.  0.
         14    1    1    2    0    0  0.36489150711E-02  0.17178451171E-01  0.15833504503E-01  0.23645583746E-01  0.00000000000E+00 0. -1.
     999901    1    3    3    0    0 -0.19412549258E-01 -0.75948112625E-01 -0.12530572589E+00  0.89232644689E+00  0.88000000000E+00 0. -1.
        -11    1    4    4    0    0  0.71317774164E-02  0.56532675229E-01  0.89808907200E-01  0.10636120792E+00  0.51100000000E-03 0.  1.
         11    1    4    4    0    0  0.86318567705E-02  0.22369862246E-02  0.19663314190E-01  0.21596761438E-01  0.51100000000E-03 0. -1.
</event>
<event>
 8    1  0.1213322E+005  0.1043930E+01  0.7957747E-01            NaN
         13   -1    0    0    0    0  0.00000000000E+00  0.00000000000E+00  0.74505805969E-08  0.10566000000E+00  0.10566000000E+00 0. -1.
     999900   -1    0    0    0    0 -0.00000000000E+00 -0.00000000000E+00 -0.74505805969E-08  0.93827000000E+00  0.93827000000E+00 0.  1.
     999902    2    1    2    0    0 -0.20478663114E-01 -0.17285263506E-01  0.52306889320E-03  0.10171264633E+01  0.10167732357E+01 0.  0.
     999903    2    3    3    0    0 -0.77634402514E-01 -0.13020071262E-01 -0.10071536494E+00  0.12946989071E+00  0.20548604763E-01 0.  0.
         14    1    1    2    0    0  0.20478663114E-01  0.17285263506E-01 -0.52306889320E-03  0.26803536679E-01  0.00000000000E+00 0.  1.
     999901    1    3    3    0    0  0.57155739400E-01 -0.42651922444E-02  0.10123843383E+00  0.88765657261E+00  0.88000000000E+00 0. -1.
        -11    1    4    4    0    0 -0.21856293362E-01  0.48475440037E-02 -0.33748485936E-01  0.40502069902E-01  0.51100000000E-03 0. -1.
         11    1    4    4    0    0 -0.55778109152E-01 -0.17867615265E-01 -0.66966879000E-01  0.88967820811E-01  0.51100000000E-03 0.  1.
</event>
<event>
 8    1  0.1213322E+005  0.1043930E+01  0.7957747E-01            NaN
         13   -1    0    0    0    0  0.00000000000E+00  0.00000000000E+00  0.74505805969E-08  0.10566000000E+00  0.10566000000E+00 0. -1.
     999900   -1    0    0    0    0 -0.00000000000E+00 -0.00000000000E+00 -0.74505805969E-08  0.93827000000E+00  0.93827000000E+00 0. -1.
     999902    2    1    2    0    0 -0.65721364231E-03 -0.21115434091E-01  0.10326017581E-01  0.10204157463E+01  0.10201447815E+01 0.  0.
     999903    2    3    3    0    0  0.10086543048E+00  0.10128213390E-01  0.80788241323E-01  0.13123188584E+00  0.20460991013E-01 0.  0.
         14    1    1    2    0    0  0.65721364231E-03  0.21115434091E-01 -0.10326017581E-01  0.23514253671E-01  0.00000000000E+00 0.  1.
     999901    1    3    3    0    0 -0.10152264412E+00 -0.31243647481E-01 -0.70462223742E-01  0.88918386049E+00  0.88000000000E+00 0. -1.
        -11    1    4    4    0    0  0.47202432756E-01 -0.51389280229E-02  0.33774332027E-01  0.58270445890E-01  0.51100000000E-03 0.  1.
         11    1    4    4    0    0  0.53662997722E-01  0.15267141413E-01  0.47013909296E-01  0.72961439951E-01  0.51100000000E-03 0. -1.
</event>
<event>
 8    1  0.1213322E+005  0.1043930E+01  0.7957747E-01            NaN
         13   -1    0    0    0    0  0.00000000000E+00  0.00000000000E+00  0.74505805969E-08  0.10566000000E+00  0.10566000000E+00 0. -1.
     999900   -1    0    0    0    0 -0.00000000000E+00 -0.00000000000E+00 -0.74505805969E-08  0.93827000000E+00  0.93827000000E+00 0.  1.
     999902    2    1    2    0    0  0.19507461485E-01 -0.17441556878E-01  0.78386352906E-02  0.10166134636E+01  0.10162463978E+01 0.  0.
     999903    2    3    3    0    0  0.65128868287E-02  0.86465439782E-01 -0.87960475616E-01  0.12524205243E+00  0.20732497557E-01 0.  0.
         14    1    1    2    0    0 -0.19507461485E-01  0.17441556878E-01 -0.78386352906E-02  0.27316536441E-01  0.00000000000E+00 0.  1.
     999901    1    3    3    0    0  0.12994574656E-01 -0.10390699666E+00  0.95799110907E-01  0.89137141113E+00  0.88000000000E+00 0. -1.
        -11    1    4    4    0    0  0.84069387803E-02  0.76834351967E-01 -0.67814853913E-01  0.10282660062E+00  0.51100000000E-03 0.  1.
         11    1    4    4    0    0 -0.18940519517E-02  0.96310878153E-02 -0.20145621703E-01  0.22415451816E-01  0.51100000000E-03 0. -1.
</event>
<event>
 8    1  0.1213322E+005  0.1043930E+01  0.7957747E-01            NaN
         13   -1    0    0    0    0  0.00000000000E+00  0.00000000000E+00  0.74505805969E-08  0.10566000000E+00  0.10566000000E+00 0. -1.
     999900   -1    0    0    0    0 -0.00000000000E+00 -0.00000000000E+00 -0.74505805969E-08  0.93827000000E+00  0.93827000000E+00 0. -1.
     999902    2    1    2    0    0  0.60542012882E-02 -0.23337571241E-01 -0.86681571817E-04  0.10198197719E+01  0.10195347292E+01 0.  0.
     999903    2    3    3    0    0  0.26321188829E-01  0.91620603471E-01  0.83214711405E-01  0.12821153127E+00  0.20648694725E-01 0.  0.
         14    1    1    2    0    0 -0.60542012882E-02  0.23337571241E-01  0.86681571817E-04  0.24110228086E-01  0.00000000000E+00 0. -1.
     999901    1    3    3    0    0 -0.20266987541E-01 -0.11495817471E+00 -0.83301392976E-01  0.89160824065E+00  0.88000000000E+00 0.  1.
        -11    1    4    4    0    0  0.18365261866E-01  0.60918776174E-01  0.67673520170E-01  0.92888893777E-01  0.51100000000E-03 0. -1.
         11    1    4    4    0    0  0.79559269627E-02  0.30701827298E-01  0.15541191234E-01  0.35322637490E-01  0.51100000000E-03 0.  1.
</event>
<event>
 8    1  0.1213322E+005  0.1043930E+01  0.7957747E-01            NaN
         13   -1    0    0    0    0  0.00000000000E+00  0.00000000000E+00  0.74505805969E-08  0.10566000000E+00  0.10566000000E+00 0. -1.
     999900   -1    0    0    0    0 -0.00000000000E+00 -0.00000000000E+00 -0.74505805969E-08  0.93827000000E+00  0.93827000000E+00 0.  1.
     999902    2    1    2    0    0 -0.60321137061E-02  0.20734048669E-01  0.92832629920E-02  0.10204254017E+01  0.10201546619E+01 0.  0.
     999903    2    3    3    0    0 -0.66762321331E-01 -0.77741236580E-01 -0.74584404607E-01  0.12889899962E+00  0.23477889111E-01 0.  0.
         14    1    1    2    0    0  0.60321137061E-02 -0.20734048669E-01 -0.92832629920E-02  0.23504598311E-01  0.00000000000E+00 0.  1.
     999901    1    3    3    0    0  0.60730207625E-01  0.98475285250E-01  0.83867667599E-01  0.89152640207E+00  0.88000000000E+00 0.  1.
        -11    1    4    4    0    0 -0.94609768956E-02 -0.24977417107E-01 -0.13637472329E-01  0.29993719704E-01  0.51100000000E-03 0. -1.
         11    1    4    4    0    0 -0.57301344435E-01 -0.52763819473E-01 -0.60946932278E-01  0.98905279913E-01  0.51100000000E-03 0.  1.
</event>
<event>
 8    1  0.1213322E+005  0.1043930E+01  0.7957747E-01            NaN
         13   -1    0    0    0    0  0.00000000000E+00  0.00000000000E+00  0.74505805969E-08  0.10566000000E+00  0.10566000000E+00 0. -1.
     999900   -1    0    0    0    0 -0.00000000000E+00 -0.00000000000E+00 -0.74505805969E-08  0.93827000000E+00  0.93827000000E+00 0. -1.
     999902    2    1    2    0    0  0.13868671213E-01  0.13281516437E-01  0.15138360550E-01  0.10194778287E+01  0.10191845439E+01 0.  0.
     999903    2    3    3    0    0 -0.12533737347E+00  0.16199812655E-01 -0.80941131616E-02  0.12822781489E+00  0.20123785051E-01 0.  0.
         14    1    1    2    0    0 -0.13868671213E-01 -0.13281516437E-01 -0.15138360550E-01  0.24452171279E-01  0.00000000000E+00 0.  1.
     999901    1    3    3    0    0  0.13920604468E+00 -0.29182962177E-02  0.23232473712E-01  0.89125001384E+00  0.88000000000E+00 0.  1.
        -11    1    4    4    0    0 -0.94741476427E-01  0.85071406092E-02 -0.13935470640E-01  0.96139363738E-01  0.51100000000E-03 0. -1.
         11    1    4    4    0    0 -0.30595897039E-01  0.76926720458E-02  0.58413574780E-02  0.32088451147E-01  0.51100000000E-03 0.  1.
</event>
<event>
 8    1  0.1213322E+005  0.1043930E+01  0.7957747E-01            NaN
         13   -1    0    0    0    0  0.00000000000E+00  0.00000000000E+00  0.74505805969E-08  0.10566000000E+00  0.10566000000E+00 0. -1.
     999900   -1    0    0    0    0 -0.00000000000E+00 -0.00000000000E+00 -0.74505805969E-08  0.93827000000E+00  0.93827000000E+00 0. -1.
     999902    2    1    2    0    0 -0.32361634980E-02 -0.21453189563E-01  0.59360483025E-02  0.10214366951E+01  0.10211889998E+01 0.  0.
     999903    2    3    3    0    0  0.11544461481E+00  0.77317735242E-02 -0.57546838206E-01  0.13072520078E+00  0.19753483757E-01 0.  0.
         14    1    1    2    0    0  0.32361634980E-02  0.21453189563E-01 -0.59360483025E-02  0.22493304916E-01  0.00000000000E+00 0. -1.
     999901    1    3    3    0    0 -0.11868077831E+00 -0.29184963087E-01  0.63482886509E-01  0.89071149431E+00  0.88000000000E+00 0.  1.
        -11    1    4    4    0    0  0.51515800067E-01  0.13289829597E-01 -0.26267163531E-01  0.59335674162E-01  0.51100000000E-03 0.  1.
         11    1    4    4    0    0  0.63928814741E-01 -0.55580560730E-02 -0.31279674675E-01  0.71389526615E-01  0.51100000000E-03 0. -1.
</event>
<event>
 8    1  0.1213322E+005  0.1043930E+01  0.7957747E-01            NaN
         13   -1    0    0    0    0  0.00000000000E+00  0.00000000000E+00  0.74505805969E-08  0.10566000000E+00  0.10566000000E+00 0.  1.
     999900   -1    0    0    0    0 -0.00000000000E+00 -0.00000000000E+00 -0.74505805969E-08  0.93827000000E+00  0.93827000000E+00 0.  1.
     999902    2    1    2    0    0  0.11725058575E-01  0.18099477600E-01  0.11654785901E-01  0.10194166950E+01  0.10191219240E+01 0.  0.
     999903    2    3    3    0    0 -0.94890160076E-01  0.51339893978E-01  0.70588769154E-01  0.13040322799E+00  0.19552502318E-01 0.  0.
         14    1    1    2    0    0 -0.11725058575E-01 -0.18099477600E-01 -0.11654785901E-01  0.24513305007E-01  0.00000000000E+00 0.  1.
     999901    1    3    3    0    0  0.10661521865E+00 -0.33240416379E-01 -0.58933983253E-01  0.88901346700E+00  0.88000000000E+00 0. -1.
        -11    1    4    4    0    0 -0.66481532647E-01  0.41669780199E-01  0.42204082779E-01  0.89093268484E-01  0.51100000000E-03 0. -1.
         11    1    4    4    0    0 -0.28408627429E-01  0.96701137799E-02  0.28384686375E-01  0.41309959507E-01  0.51100000000E-03 0.  1.
</event>
<event>
 8    1  0.1213322E+005  0.1043930E+01  0.7957747E-01            NaN
         13   -1    0    0    0    0  0.00000000000E+00  0.00000000000E+00  0.74505805969E-08  0.10566000000E+00  0.10566000000E+00 0.  1.
     999900   -1    0    0    0    0 -0.00000000000E+00 -0.00000000000E+00 -0.74505805969E-08  0.93827000000E+00  0.93827000000E+00 0.  1.
     999902    2    1    2    0    0  0.18643303802E-01  0.13500991646E-01 -0.62334646933E-02  0.10200824501E+01  0.10198036573E+01 0.  0.
     999903    2    3    3    0    0 -0.92952966376E-01  0.45034285201E-01  0.74085273865E-01  0.12884781444E+00  0.21090061163E-01 0.  0.
         14    1    1    2    0    0 -0.18643303802E-01 -0.13500991646E-01  0.62334646933E-02  0.23847549857E-01  0.00000000000E+00 0.  1.
     999901    1    3    3    0    0  0.11159627018E+00 -0.31533293555E-01 -0.80318738558E-01  0.89123463571E+00  0.88000000000E+00 0. -1.
        -11    1    4    4    0    0 -0.53379739044E-01  0.36419798811E-01  0.50168258731E-01  0.81810229134E-01  0.51100000000E-03 0.  1.
         11    1    4    4    0    0 -0.39573227331E-01  0.86144863899E-02  0.23917015133E-01  0.47037585302E-01  0.51100000000E-03 0. -1.
</event>
<event>
 8    1  0.1213322E+005  0.1043930E+01  0.7957747E-01            NaN
         13   -1    0    0    0    0  0.00000000000E+00  0.00000000000E+00  0.74505805969E-08  0.10566000000E+00  0.10566000000E+00 0. -1.
     999900   -1    0    0    0    0 -0.00000000000E+00 -0.00000000000E+00 -0.74505805969E-08  0.93827000000E+00  0.93827000000E+00 0.  1.
     999902    2    1    2    0    0 -0.21711587057E-01 -0.15634857983E-01 -0.48780620906E-02  0.10167337266E+01  0.10163699295E+01 0.  0.
     999903    2    3    3    0    0 -0.12092373773E+00  0.34545360012E-01  0.22319408860E-01  0.12932130414E+00  0.20246270007E-01 0.  0.
         14    1    1    2    0    0  0.21711587057E-01  0.15634857983E-01  0.48780620906E-02  0.27196273392E-01  0.00000000000E+00 0.  1.
     999901    1    3    3    0    0  0.99212150670E-01 -0.50180217996E-01 -0.27197470951E-01  0.88741242246E+00  0.88000000000E+00 0.  1.
        -11    1    4    4    0    0 -0.11466014445E+00  0.28427797355E-01  0.23573288075E-01  0.12046181727E+00  0.51100000000E-03 0. -1.
         11    1    4    4    0    0 -0.62635932754E-02  0.61175626577E-02 -0.12538792145E-02  0.88594868742E-02  0.51100000000E-03 0.  1.
</event>
<event>
 8    1  0.1213322E+005  0.1043930E+01  0.7957747E-01            NaN
         13   -1    0    0    0    0  0.00000000000E+00  0.00000000000E+00  0.74505805969E-08  0.10566000000E+00  0.10566000000E+00 0.  1.
     999900   -1    0    0    0    0 -0.00000000000E+00 -0.00000000000E+00 -0.74505805969E-08  0.93827000000E+00  0.93827000000E+00 0. -1.
     999902    2    1    2    0    0 -0.16994598395E-01  0.16004919311E-01 -0.34915974032E-02  0.10203256557E+01  0.10200525862E+01 0.  0.
     999903    2    3    3    0    0 -0.89718792997E-01  0.92234581939E-01  0.28118437729E-01  0.13347788734E+00  0.21656868349E-01 0.  0.
         14    1    1    2    0    0  0.16994598395E-01 -0.16004919311E-01  0.34915974032E-02  0.23604344286E-01  0.00000000000E+00 0.  1.
     999901    1    3    3    0    0  0.72724194602E-01 -0.76229662628E-01 -0.31610035132E-01  0.88684776837E+00  0.88000000000E+00 0. -1.
        -11    1    4    4    0    0 -0.46664277842E-01  0.35580294247E-01  0.19290707470E-01  0.61773009324E-01  0.51100000000E-03 0.  1.
         11    1    4    4    0    0 -0.43054515155E-01  0.56654287692E-01  0.88277302592E-02  0.71704878019E-01  0.51100000000E-03 0. -1.
</event>
<event>
 8    1  0.1213322E+005  0.1043930E+01  0.7957747E-01            NaN
         13   -1    0    0    0    0  0.00000000000E+00  0.00000000000E+00  0.74505805969E-08  0.10566000000E+00  0.10566000000E+00 0.  1.
     999900   -1    0    0    0    0 -0.00000000000E+00 -0.00000000000E+00 -0.74505805969E-08  0.93827000000E+00  0.93827000000E+00 0. -1.
     999902    2    1    2    0    0 -0.15459866203E-01  0.80005048406E-02 -0.15621293257E-01  0.10205411064E+01  0.10202730563E+01 0.  0.
     999903    2    3    3    0    0 -0.16415240303E-01 -0.46120723126E-01 -0.12156141089E+00  0.13253585384E+00  0.19798856543E-01 0.  0.
         14    1    1    2    0    0  0.15459866203E-01 -0.80005048406E-02  0.15621293257E-01  0.23388893598E-01  0.00000000000E+00 0.  1.
     999901    1    3    3    0    0  0.95537409991E-03  0.54121227966E-01  0.10594011763E+00  0.88800525256E+00  0.88000000000E+00 0.  1.
        -11    1    4    4    0    0 -0.27959495415E-02 -0.18380988940E-01 -0.69925907087E-01  0.72357250439E-01  0.51100000000E-03 0. -1.
         11    1    4    4    0    0 -0.13619290761E-01 -0.27739734185E-01 -0.51635503800E-01  0.60178603400E-01  0.51100000000E-03 0.  1.
</event>
<event>
 8    1  0.1213322E+005  0.1043930E+01  0.7957747E-01            NaN
         13   -1    0    0    0    0  0.00000000000E+00  0.00000000000E+00  0.74505805969E-08  0.10566000000E+00  0.10566000000E+00 0.  1.
     999900   -1    0    0    0    0 -0.00000000000E+00 -0.00000000000E+00 -0.74505805969E-08  0.93827000000E+00  0.93827000000E+00 0. -1.
     999902    2    1    2    0    0 -0.72717732053E-02  0.12247735458E-01  0.20177732608E-01  0.10192312834E+01  0.10189319813E+01 0.  0.
     999903    2    3    3    0    0 -0.89782721201E-01  0.95588631101E-01  0.91710253577E-03  0.13124213182E+00  0.50529857331E-02 0.  0.
         14    1    1    2    0    0  0.72717732053E-02 -0.12247735458E-01 -0.20177732608E-01  0.24698716618E-01  0.00000000000E+00 0. -1.
     999901    1    3    3    0    0  0.82510947996E-01 -0.83340895642E-01  0.19260630072E-01  0.88798915156E+00  0.88000000000E+00 0. -1.
        -11    1    4    4    0    0 -0.27407631542E-01  0.25927716991E-01  0.16475566072E-03  0.37732122132E-01  0.51100000000E-03 0.  1.
         11    1    4    4    0    0 -0.62375089659E-01  0.69660914110E-01  0.75234687506E-03  0.93510009685E-01  0.51100000000E-03 0. -1.
</event>
<event>
 8    1  0.1213322E+005  0.1043930E+01  0.7957747E-01            NaN
         13   -1    0    0    0    0  0.00000000000E+00  0.00000000000E+00  0.74505805969E-08  0.10566000000E+00  0.10566000000E+00 0. -1.
     999900   -1    0    0    0    0 -0.00000000000E+00 -0.00000000000E+00 -0.74505805969E-08  0.93827000000E+00  0.93827000000E+00 0.  1.
     999902    2    1    2    0    0  0.77068963839E-02 -0.24271694183E-02  0.66991716567E-02  0.10334339863E+01  0.10333806838E+01 0.  0.
     999903    2    3    3    0    0  0.13594861727E+00  0.40205416067E-01  0.90799221735E-03  0.14309864828E+00  0.19439564561E-01 0.  0.
         14    1    1    2    0    0 -0.77068963839E-02  0.24271694183E-02 -0.66991716567E-02  0.10496013726E-01  0.00000000000E+00 0.  1.
     999901    1    3    3    0    0 -0.12824172089E+00 -0.42632585485E-01  0.57911794394E-02  0.89033533799E+00  0.88000000000E+00 0. -1.
        -11    1    4    4    0    0  0.41640235900E-01  0.78709931212E-02 -0.75261073918E-02  0.43043759037E-01  0.51100000000E-03 0.  1.
         11    1    4    4    0    0  0.94308381372E-01  0.32334422946E-01  0.84340996092E-02  0.10005488924E+00  0.51100000000E-03 0. -1.
</event>
<event>
 8    1  0.1213322E+005  0.1043930E+01  0.7957747E-01            NaN
         13   -1    0    0    0    0  0.00000000000E+00  0.00000000000E+00  0.74505805969E-08  0.10566000000E+00  0.10566000000E+00 0. -1.
     999900   -1    0    0    0    0 -0.00000000000E+00 -0.00000000000E+00 -0.74505805969E-08  0.93827000000E+00  0.93827000000E+00 0.  1.
     999902    2    1    2    0    0  0.14111349770E-01  0.95899692962E-02 -0.15040905981E-01  0.10211851862E+01  0.10209318576E+01 0.  0.
     999903    2    3    3    0    0  0.11907856869E+00  0.35485970067E-01 -0.45942772338E-01  0.13403038274E+00  0.20357936410E-01 0.  0.
         14    1    1    2    0    0 -0.14111349770E-01 -0.95899692962E-02  0.15040905981E-01  0.22744813830E-01  0.00000000000E+00 0. -1.
     999901    1    3    3    0    0 -0.10496721892E+00 -0.25896000771E-01  0.30901866357E-01  0.88715480343E+00  0.88000000000E+00 0. -1.
        -11    1    4    4    0    0  0.47214091646E-01  0.74154316605E-02 -0.25691548943E-01  0.54263025023E-01  0.51100000000E-03 0.  1.
         11    1    4    4    0    0  0.71864477043E-01  0.28070538406E-01 -0.20251223395E-01  0.79767357717E-01  0.51100000000E-03 0. -1.
</event>
<event>
 8    1  0.1213322E+005  0.1043930E+01  0.7957747E-01            NaN
         13   -1    0    0    0    0  0.00000000000E+00  0.00000000000E+00  0.74505805969E-08  0.10566000000E+00  0.10566000000E+00 0.  1.
     999900   -1    0    0    0    0 -0.00000000000E+00 -0.00000000000E+00 -0.74505805969E-08  0.93827000000E+00  0.93827000000E+00 0.  1.
     999902    2    1    2    0    0 -0.49838316174E-02 -0.10745459148E-01 -0.19316398940E-01  0.10212710782E+01  0.10210196807E+01 0.  0.
     999903    2    3    3    0    0 -0.49605504527E-01  0.18643442245E-01 -0.12115445984E+00  0.13378823786E+00  0.20312691435E-01 0.  0.
         14    1    1    2    0    0  0.49838316174E-02  0.10745459148E-01  0.19316398940E-01  0.22658921817E-01  0.00000000000E+00 0. -1.
     999901    1    3    3    0    0  0.44621672910E-01 -0.29388901394E-01  0.10183806090E+00  0.88748284032E+00  0.88000000000E+00 0. -1.
        -11    1    4    4    0    0 -0.28689958620E-01  0.12695373180E-02 -0.50753750904E-01  0.58317491393E-01  0.51100000000E-03 0.  1.
         11    1    4    4    0    0 -0.20915545907E-01  0.17373904927E-01 -0.70400708933E-01  0.75470746467E-01  0.51100000000E-03 0. -1.
</event>
<event>
 8    1  0.1213322E+005  0.1043930E+01  0.7957747E-01            NaN
         13   -1    0    0    0    0  0.00000000000E+00  0.00000000000E+00  0.74505805969E-08  0.10566000000E+00  0.10566000000E+00 0.  1.
     999900   -1    0    0    0    0 -0.00000000000E+00 -0.00000000000E+00 -0.74505805969E-08  0.93827000000E+00  0.93827000000E+00 0. -1.
     999902    2    1    2    0    0 -0.12383137686E-01  0.23766374558E-02  0.20064213527E-01  0.10202326759E+01  0.10199574255E+01 0.  0.
     999903    2    3    3    0    0 -0.10506062706E+00 -0.49421514961E-01 -0.56194956981E-01  0.13057677236E+00  0.20302679402E-01 0.  0.
         14    1    1    2    0    0  0.12383137686E-01 -0.23766374558E-02 -0.20064213527E-01  0.23697324090E-01  0.00000000000E+00 0. -1.
     999901    1    3    3    0    0  0.92677489376E-01  0.51798152416E-01  0.76259170508E-01  0.88965590355E+00  0.88000000000E+00 0.  1.
        -11    1    4    4    0    0 -0.44662741539E-03 -0.19022219275E-02  0.96967718733E-03  0.22403837076E-02  0.51100000000E-03 0. -1.
         11    1    4    4    0    0 -0.10461399965E+00 -0.47519293033E-01 -0.57164634168E-01  0.12833638866E+00  0.51100000000E-03 0.  1.
</event>
<event>
 8    1  0.1213322E+005  0.1043930E+01  0.7957747E-01            NaN
         13   -1    0    0    0    0  0.00000000000E+00  0.00000000000E+00  0.74505805969E-08  0.10566000000E+00  0.10566000000E+00 0. -1.
     999900   -1    0    0    0    0 -0.00000000000E+00 -0.00000000000E+00 -0.74505805969E-08  0.93827000000E+00  0.93827000000E+00 0.  1.
     999902    2    1    2    0    0  0.10403081760E-01 -0.12719259708E-02  0.21242976809E-01  0.10202423245E+01  0.10199673008E+01 0.  0.
     999903    2    3    3    0    0 -0.26030792276E-01  0.68893250055E-01 -0.10279924485E+00  0.12803323924E+00  0.20023575066E-01 0.  0.
         14    1    1    2    0    0 -0.10403081760E-01  0.12719259708E-02 -0.21242976809E-01  0.23687675476E-01  0.00000000000E+00 0.  1.
     999901    1    3    3    0    0  0.36433874036E-01 -0.70165176026E-01  0.12404222166E+00  0.89220908528E+00  0.88000000000E+00 0. -1.
        -11    1    4    4    0    0 -0.11088897750E-01  0.33503628396E-01 -0.65945391140E-01  0.74796473865E-01  0.51100000000E-03 0.  1.
         11    1    4    4    0    0 -0.14941894526E-01  0.35389621659E-01 -0.36853853715E-01  0.53236765377E-01  0.51100000000E-03 0. -1.
</event>
<event>
 8    1  0.1213322E+005  0.1043930E+01  0.7957747E-01            NaN
         13   -1    0    0    0    0  0.00000000000E+00  0.00000000000E+00  0.74505805969E-08  0.10566000000E+00  0.10566000000E+00 0. -1.
     999900   -1    0    0    0    0 -0.00000000000E+00 -0.00000000000E+00 -0.74505805969E-08  0.93827000000E+00  0.93827000000E+00 0. -1.
     999902    2    1    2    0    0  0.13637140719E-01 -0.16058851503E-01 -0.70031749117E-02  0.10217285861E+01  0.10214873474E+01 0.  0.
     999903    2    3    3    0    0  0.11728545215E+00 -0.61326280280E-01  0.90253921133E-02  0.13434533887E+00  0.21223157951E-01 0.  0.
         14    1    1    2    0    0 -0.13637140719E-01  0.16058851503E-01  0.70031749117E-02  0.22201413862E-01  0.00000000000E+00 0.  1.
     999901    1    3    3    0    0 -0.10364831144E+00  0.45267428776E-01 -0.16028567025E-01  0.88738324727E+00  0.88000000000E+00 0. -1.
        -11    1    4    4    0    0  0.45857225569E-01 -0.23785261640E-01 -0.68215067234E-02  0.52109671685E-01  0.51100000000E-03 0.  1.
         11    1    4    4    0    0  0.71428226585E-01 -0.37541018640E-01  0.15846898837E-01  0.82235667185E-01  0.51100000000E-03 0. -1.
</event>
<event>
 8    1  0.1213322E+005  0.1043930E+01  0.7957747E-01            NaN
         13   -1    0    0    0    0  0.00000000000E+00  0.00000000000E+00  0.74505805969E-08  0.10566000000E+00  0.10566000000E+00 0.  1.
     999900   -1    0    0    0    0 -0.00000000000E+00 -0.00000000000E+00 -0.74505805969E-08  0.93827000000E+00  0.93827000000E+00 0. -1.
     999902    2    1    2    0    0  0.23101185983E-01  0.22399380151E-02  0.65437510730E-02  0.10198156310E+01  0.10195304892E+01 0.  0.
     999903    2    3    3    0    0  0.12574652755E+00 -0.42240283065E-02  0.38798585058E-01  0.13323894318E+00  0.20426800292E-01 0.  0.
         14    1    1    2    0    0 -0.23101185983E-01 -0.22399380151E-02 -0.65437510730E-02  0.24114369041E-01  0.00000000000E+00 0.  1.
     999901    1    3    3    0    0 -0.10264534157E+00  0.64639663217E-02 -0.32254833985E-01  0.88657668778E+00  0.88000000000E+00 0. -1.
        -11    1    4    4    0    0  0.79233547888E-01 -0.12050352055E-01  0.21301974280E-01  0.82928893184E-01  0.51100000000E-03 0.  1.
         11    1    4    4    0    0  0.46512979661E-01  0.78263237482E-02  0.17496610779E-01  0.50310049991E-01  0.51100000000E-03 0. -1.
</event>
<event>
 8    1  0.1213322E+005  0.1043930E+01  0.7957747E-01            NaN
         13   -1    0    0    0    0  0.00000000000E+00  0.00000000000E+00  0.74505805969E-08  0.10566000000E+00  0.10566000000E+00 0. -1.
     999900   -1    0    0    0    0 -0.00000000000E+00 -0.00000000000E+00 -0.74505805969E-08  0.93827000000E+00  0.93827000000E+00 0. -1.
     999902    2    1    2    0    0  0.24431171234E-02 -0.22978807254E-01  0.74704619517E-02  0.10196441563E+01  0.10193548956E+01 0.  0.
     999903    2    3    3    0    0 -0.41837613297E-02 -0.62815573420E-01 -0.11267601918E+00  0.13056257374E+00  0.19682485610E-01 0.  0.
         14    1    1    2    0    0 -0.24431171234E-02  0.22978807254E-01 -0.74704619517E-02  0.24285843734E-01  0.00000000000E+00 0.  1.
     999901    1    3    3    0    0  0.66268784531E-02  0.39836766166E-01  0.12014648114E+00  0.88908158253E+00  0.88000000000E+00 0.  1.
        -11    1    4    4    0    0  0.33588846485E-02 -0.42319189044E-01 -0.59680266456E-01  0.73240638942E-01  0.51100000000E-03 0.  1.
         11    1    4    4    0    0 -0.75426459783E-02 -0.20496384375E-01 -0.52995752728E-01  0.57321934798E-01  0.51100000000E-03 0. -1.
</event>
<event>
 8    1  0.1213322E+005  0.1043930E+01  0.7957747E-01            NaN
         13   -1    0    0    0    0  0.00000000000E+00  0.00000000000E+00  0.74505805969E-08  0.10566000000E+00  0.10566000000E+00 0.  1.
     999900   -1    0    0    0    0 -0.00000000000E+00 -0.00000000000E+00 -0.74505805969E-08  0.93827000000E+00  0.93827000000E+00 0.  1.
     999902    2    1    2    0    0 -0.26215673847E-01  0.12646723480E-02  0.49105779387E-02  0.10172284134E+01  0.10168779033E+01 0.  0.
     999903    2    3    3    0    0  0.11297303581E-02 -0.81425267930E-01 -0.95968220875E-01  0.12719362228E+00  0.18356676769E-01 0.  0.
         14    1    1    2    0    0  0.26215673847E-01 -0.12646723480E-02 -0.49105779387E-02  0.26701586602E-01  0.00000000000E+00 0.  1.
     999901    1    3    3    0    0 -0.27345404205E-01  0.82689940278E-01  0.10087879881E+00  0.89003479112E+00  0.88000000000E+00 0. -1.
        -11    1    4    4    0    0 -0.52568659391E-04 -0.59648955480E-01 -0.81577479917E-01  0.10106011579E+00  0.51100000000E-03 0.  1.
         11    1    4    4    0    0  0.11822990175E-02 -0.21776312451E-01 -0.14390740957E-01  0.26133506485E-01  0.51100000000E-03 0. -1.
</event>
<event>
 8    1  0.1213322E+005  0.1043930E+01  0.7957747E-01            NaN
         13   -1    0    0    0    0  0.00000000000E+00  0.00000000000E+00  0.74505805969E-08  0.10566000000E+00  0.10566000000E+00 0. -1.
     999900   -1    0    0    0    0 -0.00000000000E+00 -0.00000000000E+00 -0.74505805969E-08  0.93827000000E+00  0.93827000000E+00 0.  1.
     999902    2    1    2    0    0  0.11933039098E-02  0.71673539640E-02  0.22192256944E-01  0.10205785288E+01  0.10203113458E+01 0.  0.
     999903    2    3    3    0    0 -0.49007763573E-01  0.11042413021E+00  0.50460006559E-01  0.13267021449E+00  0.21445841730E-01 0.  0.
         14    1    1    2    0    0 -0.11933039098E-02 -0.71673539640E-02 -0.22192256944E-01  0.23351471160E-01  0.00000000000E+00 0.  1.
     999901    1    3    3    0    0  0.50201067483E-01 -0.10325677625E+00 -0.28267749614E-01  0.88790831435E+00  0.88000000000E+00 0.  1.
        -11    1    4    4    0    0 -0.18287678553E-01  0.23424397114E-01  0.18582729104E-01  0.35053109833E-01  0.51100000000E-03 0.  1.
         11    1    4    4    0    0 -0.30720085021E-01  0.86999733100E-01  0.31877277455E-01  0.97617104660E-01  0.51100000000E-03 0. -1.
</event>
<event>
 8    1  0.1213322E+005  0.1043930E+01  0.7957747E-01            NaN
         13   -1    0    0    0    0  0.00000000000E+00  0.00000000000E+00  0.74505805969E-08  0.10566000000E+00  0.10566000000E+00 0.  1.
     999900   -1    0    0    0    0 -0.00000000000E+00 -0.00000000000E+00 -0.74505805969E-08  0.93827000000E+00  0.93827000000E+00 0.  1.
     999902    2    1    2    0    0  0.34024688883E-02  0.26850807801E-01 -0.63908399076E-02  0.10161201904E+01  0.10157395610E+01 0.  0.
     999903    2    3    3    0    0 -0.63144353727E-01  0.10307601651E+00 -0.42730126761E-01  0.12957673079E+00  0.18772076103E-01 0.  0.
         14    1    1    2    0    0 -0.34024688883E-02 -0.26850807801E-01  0.63908399076E-02  0.27809809579E-01  0.00000000000E+00 0.  1.
     999901    1    3    3    0    0  0.66546822616E-01 -0.76225208714E-01  0.36339286854E-01  0.88654345963E+00  0.88000000000E+00 0. -1.
        -11    1    4    4    0    0 -0.30631217627E-01  0.32965097671E-01 -0.14103573244E-01  0.47160800005E-01  0.51100000000E-03 0.  1.
         11    1    4    4    0    0 -0.32513136100E-01  0.70110918843E-01 -0.28626553517E-01  0.82415930786E-01  0.51100000000E-03 0. -1.
</event>
<event>
 8    1  0.1213322E+005  0.1043930E+01  0.7957747E-01            NaN
         13   -1    0    0    0    0  0.00000000000E+00  0.00000000000E+00  0.74505805969E-08  0.10566000000E+00  0.10566000000E+00 0. -1.
     999900   -1    0    0    0    0 -0.00000000000E+00 -0.00000000000E+00 -0.74505805969E-08  0.93827000000E+00  0.93827000000E+00 0. -1.
     999902    2    1    2    0    0  0.21085121393E-01 -0.63268616560E-02 -0.88340722652E-02  0.10202097058E+01  0.10199339153E+01 0.  0.
     999903    2    3    3    0    0  0.58987468016E-01  0.95312891473E-01 -0.66373889270E-01  0.13168392802E+00  0.19263827719E-01 0.  0.
         14    1    1    2    0    0 -0.21085121393E-01  0.63268616560E-02  0.88340722652E-02  0.23720294167E-01  0.00000000000E+00 0.  1.
     999901    1    3    3    0    0 -0.37902346622E-01 -0.10163975313E+00  0.57539817004E-01  0.88852577781E+00  0.88000000000E+00 0. -1.
        -11    1    4    4    0    0  0.46398481153E-01  0.59774824627E-01 -0.39320959919E-01  0.85277474883E-01  0.51100000000E-03 0.  1.
         11    1    4    4    0    0  0.12588986863E-01  0.35538066846E-01 -0.27052929351E-01  0.46406453138E-01  0.51100000000E-03 0. -1.
</event>
<event>
 8    1  0.1213322E+005  0.1043930E+01  0.7957747E-01            NaN
         13   -1    0    0    0    0  0.00000000000E+00  0.00000000000E+00  0.74505805969E-08  0.10566000000E+00  0.10566000000E+00 0.  1.
     999900   -1    0    0    0    0 -0.00000000000E+00 -0.00000000000E+00 -0.74505805969E-08  0.93827000000E+00  0.93827000000E+00 0. -1.
     999902    2    1    2    0    0 -0.13952901784E-01  0.48695099085E-02 -0.19710740486E-01  0.10192944792E+01  0.10189967254E+01 0.  0.
     999903    2    3    3    0    0 -0.10127299092E+00 -0.75609810402E-01  0.24204469565E-01  0.13023302764E+00  0.20043029261E-01 0.  0.
         14    1    1    2    0    0  0.13952901784E-01 -0.48695099085E-02  0.19710740486E-01  0.24635520807E-01  0.00000000000E+00 0.  1.
     999901    1    3    3    0    0  0.87320089138E-01  0.80479320311E-01 -0.43915210051E-01  0.88906145155E+00  0.88000000000E+00 0. -1.
        -11    1    4    4    0    0 -0.78178502990E-01 -0.49898174015E-01  0.23427062567E-01  0.95659785078E-01  0.51100000000E-03 0. -1.
         11    1    4    4    0    0 -0.23094487932E-01 -0.25711636387E-01  0.77740699840E-03  0.34573242561E-01  0.51100000000E-03 0.  1.
</event>
<event>
 8    1  0.1213322E+005  0.1043930E+01  0.7957747E-01            NaN
         13   -1    0    0    0    0  0.00000000000E+00  0.00000000000E+00  0.74505805969E-08  0.10566000000E+00  0.10566000000E+00 0.  1.
     999900   -1    0    0    0    0 -0.00000000000E+00 -0.00000000000E+00 -0.74505805969E-08  0.93827000000E+00  0.93827000000E+00 0.  1.
     999902    2    1    2    0    0  0.67930459205E-02  0.20547550038E-01 -0.88537934161E-02  0.10205475933E+01  0.10202796936E+01 0.  0.
     999903    2    3    3    0    0 -0.11821343348E+00  0.31960531177E-01 -0.41923570058E-01  0.13102497629E+00  0.20348643147E-01 0.  0.
         14    1    1    2    0    0 -0.67930459205E-02 -0.20547550038E-01  0.88537934161E-02  0.23382406705E-01  0.00000000000E+00 0. -1.
     999901    1    3    3    0    0  0.12500647940E+00 -0.11412981139E-01  0.33069776642E-01  0.88952261700E+00  0.88000000000E+00 0.  1.
        -11    1    4    4    0    0 -0.57448385452E-01  0.24045165794E-01 -0.14822311213E-01  0.64019130108E-01  0.51100000000E-03 0. -1.
         11    1    4    4    0    0 -0.60765048029E-01  0.79153653833E-02 -0.27101258845E-01  0.67005846186E-01  0.51100000000E-03 0.  1.
</event>
<event>
 8    1  0.1213322E+005  0.1043930E+01  0.7957747E-01            NaN
         13   -1    0    0    0    0  0.00000000000E+00  0.00000000000E+00  0.74505805969E-08  0.10566000000E+00  0.10566000000E+00 0.  1.
     999900   -1    0    0    0    0 -0.00000000000E+00 -0.00000000000E+00 -0.74505805969E-08  0.93827000000E+00  0.93827000000E+00 0. -1.
     999902    2    1    2    0    0 -0.22246392957E-01  0.60212891924E-02  0.18035470976E-02  0.10208126752E+01  0.10205508842E+01 0.  0.
     999903    2    3    3    0    0  0.36530618651E-01 -0.80422351014E-01 -0.92624338494E-01  0.12960907019E+00  0.20420635471E-01 0.  0.
         14    1    1    2    0    0  0.22246392957E-01 -0.60212891924E-02 -0.18035470976E-02  0.23117324787E-01  0.00000000000E+00 0.  1.
     999901    1    3    3    0    0 -0.58777011608E-01  0.86443640206E-01  0.94427885591E-01  0.89120360502E+00  0.88000000000E+00 0.  1.
        -11    1    4    4    0    0  0.96452856648E-02 -0.44274488230E-01 -0.41253769600E-01  0.61281289729E-01  0.51100000000E-03 0. -1.
         11    1    4    4    0    0  0.26885332986E-01 -0.36147862784E-01 -0.51370568894E-01  0.68327780463E-01  0.51100000000E-03 0.  1.
</event>
<event>
 8    1  0.1213322E+005  0.1043930E+01  0.7957747E-01            NaN
         13   -1    0    0    0    0  0.00000000000E+00  0.00000000000E+00  0.74505805969E-08  0.10566000000E+00  0.10566000000E+00 0. -1.
     999900   -1    0    0    0    0 -0.00000000000E+00 -0.00000000000E+00 -0.74505805969E-08  0.93827000000E+00  0.93827000000E+00 0.  1.
     999902    2    1    2    0    0 -0.11482291134E-01 -0.19156973974E-01 -0.85403349974E-02  0.10200182877E+01  0.10197379748E+01 0.  0.
     999903    2    3    3    0    0 -0.18969282209E-01  0.57213970670E-01  0.11022130253E+00  0.12873107097E+00  0.28101263208E-01 0.  0.
         14    1    1    2    0    0  0.11482291134E-01  0.19156973974E-01  0.85403349974E-02  0.23911712264E-01  0.00000000000E+00 0.  1.
     999901    1    3    3    0    0  0.74869910742E-02 -0.76370944644E-01 -0.11876163753E+00  0.89128721677E+00  0.88000000000E+00 0.  1.
        -11    1    4    4    0    0  0.10668289647E-02  0.31918800898E-01  0.38094528289E-01  0.49713199267E-01  0.51100000000E-03 0.  1.
         11    1    4    4    0    0 -0.20036111173E-01  0.25295169772E-01  0.72126774243E-01  0.79017871703E-01  0.51100000000E-03 0. -1.
</event>
<event>
 8    1  0.1213322E+005  0.1043930E+01  0.7957747E-01            NaN
         13   -1    0    0    0    0  0.00000000000E+00  0.00000000000E+00  0.74505805969E-08  0.10566000000E+00  0.10566000000E+00 0.  1.
     999900   -1    0    0    0    0 -0.00000000000E+00 -0.00000000000E+00 -0.74505805969E-08  0.93827000000E+00  0.93827000000E+00 0.  1.
     999902    2    1    2    0    0 -0.53952075237E-02 -0.22403516582E-01  0.84930134524E-03  0.10208703571E+01  0.10206098857E+01 0.  0.
     999903    2    3    3    0    0  0.15476017815E-01  0.20418142310E-01  0.12646610209E+00  0.13067437688E+00  0.20632744155E-01 0.  0.
         14    1    1    2    0    0  0.53952075237E-02  0.22403516582E-01 -0.84930134524E-03  0.23059642934E-01  0.00000000000E+00 0. -1.
     999901    1    3    3    0    0 -0.20871225338E-01 -0.42821658892E-01 -0.12561680074E+00  0.89019598019E+00  0.88000000000E+00 0.  1.
        -11    1    4    4    0    0  0.11351616293E-01  0.18570952735E-01  0.56329970892E-01  0.60390944848E-01  0.51100000000E-03 0.  1.
         11    1    4    4    0    0  0.41244015215E-02  0.18471895753E-02  0.70136131198E-01  0.70283432028E-01  0.51100000000E-03 0. -1.
</event>
<event>
 8    1  0.1213322E+005  0.1043930E+01  0.7957747E-01            NaN
         13   -1    0    0    0    0  0.00000000000E+00  0.00000000000E+00  0.74505805969E-08  0.10566000000E+00  0.10566000000E+00 0. -1.
     999900   -1    0    0    0    0 -0.00000000000E+00 -0.00000000000E+00 -0.74505805969E-08  0.93827000000E+00  0.93827000000E+00 0. -1.
     999902    2    1    2    0    0 -0.10469782006E-01 -0.98477732464E-02  0.18814519695E-01  0.10202534056E+01  0.10199786421E+01 0.  0.
     999903    2    3    3    0    0  0.21283151087E-01 -0.12469722091E+00 -0.27559491706E-01  0.13101260953E+00  0.20060130798E-01 0.  0.
         14    1    1    2    0    0  0.10469782006E-01  0.98477732464E-02 -0.18814519695E-01  0.23676594445E-01  0.00000000000E+00 0.  1.
     999901    1    3    3    0    0 -0.31752933094E-01  0.11484944767E+00  0.46374011401E-01  0.88924079603E+00  0.88000000000E+00 0.  1.
        -11    1    4    4    0    0 -0.32496894833E-02 -0.27495434908E-01 -0.84904232812E-02  0.28963905659E-01  0.51100000000E-03 0. -1.
         11    1    4    4    0    0  0.24532840571E-01 -0.97201786006E-01 -0.19069068425E-01  0.10204870387E+00  0.51100000000E-03 0.  1.
</event>
<event>
 8    1  0.1213322E+005  0.1043930E+01  0.7957747E-01            NaN
         13   -1    0    0    0    0  0.00000000000E+00  0.00000000000E+00  0.74505805969E-08  0.10566000000E+00  0.10566000000E+00 0. -1.
     999900   -1    0    0    0    0 -0.00000000000E+00 -0.00000000000E+00 -0.74505805969E-08  0.93827000000E+00  0.93827000000E+00 0. -1.
     999902    2    1    2    0    0 -0.15736100883E-01 -0.16382441638E-02 -0.17034465411E-01  0.10206817371E+01  0.10204169377E+01 0.  0.
     999903    2    3    3    0    0  0.40523280339E-01  0.84658896534E-01  0.85674151176E-01  0.12873926455E+00  0.20602743605E-01 0.  0.
         14    1    1    2    0    0  0.15736100883E-01  0.16382441638E-02  0.17034465411E-01  0.23248262876E-01  0.00000000000E+00 0. -1.
     999901    1    3    3    0    0 -0.56259381222E-01 -0.86297140698E-01 -0.10270861659E+00  0.89194247258E+00  0.88000000000E+00 0. -1.
        -11    1    4    4    0    0  0.38460354607E-01  0.64059774662E-01  0.60502591019E-01  0.96144049463E-01  0.51100000000E-03 0.  1.
         11    1    4    4    0    0  0.20629257328E-02  0.20599121873E-01  0.25171560157E-01  0.32595215082E-01  0.51100000000E-03 0. -1.
</event>
<event>
 8    1  0.1213322E+005  0.1043930E+01  0.7957747E-01            NaN
         13   -1    0    0    0    0  0.00000000000E+00  0.00000000000E+00  0.74505805969E-08  0.10566000000E+00  0.10566000000E+00 0. -1.
     999900   -1    0    0    0    0 -0.00000000000E+00 -0.00000000000E+00 -0.74505805969E-08  0.93827000000E+00  0.93827000000E+00 0.  1.
     999902    2    1    2    0    0  0.14327919870E-01  0.19166711353E-01  0.22798859588E-02  0.10198914894E+01  0.10196081601E+01 0.  0.
     999903    2    3    3    0    0 -0.10362002848E+00  0.21128780305E-01 -0.71085847839E-01  0.12899413329E+00  0.20068706952E-01 0.  0.
         14    1    1    2    0    0 -0.14327919870E-01 -0.19166711353E-01 -0.22798859588E-02  0.24038510600E-01  0.00000000000E+00 0.  1.
     999901    1    3    3    0    0  0.11794794836E+00 -0.19620689523E-02  0.73365733797E-01  0.89089735611E+00  0.88000000000E+00 0. -1.
        -11    1    4    4    0    0 -0.51149993637E-01  0.63554360050E-02 -0.23567361513E-01  0.56677994544E-01  0.51100000000E-03 0.  1.
         11    1    4    4    0    0 -0.52470034848E-01  0.14773344300E-01 -0.47518486325E-01  0.72316138741E-01  0.51100000000E-03 0. -1.
</event>
<event>
 8    1  0.1213322E+005  0.1043930E+01  0.7957747E-01            NaN
         13   -1    0    0    0    0  0.00000000000E+00  0.00000000000E+00  0.74505805969E-08  0.10566000000E+00  0.10566000000E+00 0.  1.
     999900   -1    0    0    0    0 -0.00000000000E+00 -0.00000000000E+00 -0.74505805969E-08  0.93827000000E+00  0.93827000000E+00 0. -1.
     999902    2    1    2    0    0  0.18719974346E-01 -0.15686750631E-02  0.13463960515E-01  0.10208177432E+01  0.10205560683E+01 0.  0.
     999903    2    3    3    0    0 -0.91357854734E-01  0.88428003056E-01  0.86227732358E-02  0.12939193720E+00  0.22408744919E-01 0.  0.
         14    1    1    2    0    0 -0.18719974346E-01  0.15686750631E-02 -0.13463960515E-01  0.23112256786E-01  0.00000000000E+00 0. -1.
     999901    1    3    3    0    0  0.11007782908E+00 -0.89996678120E-01  0.48411872790E-02  0.89142580601E+00  0.88000000000E+00 0.  1.
        -11    1    4    4    0    0 -0.69034174464E-01  0.78291894725E-01  0.41463662965E-02  0.10446430729E+00  0.51100000000E-03 0. -1.
         11    1    4    4    0    0 -0.22323680270E-01  0.10136108331E-01  0.44764069393E-02  0.24927629911E-01  0.51100000000E-03 0.  1.
</event>
<event>
 8    1  0.1213322E+005  0.1043930E+01  0.7957747E-01            NaN
         13   -1    0    0    0    0  0.00000000000E+00  0.00000000000E+00  0.74505805969E-08  0.10566000000E+00  0.10566000000E+00 0.  1.
     999900   -1    0    0    0    0 -0.00000000000E+00 -0.00000000000E+00 -0.74505805969E-08  0.93827000000E+00  0.93827000000E+00 0. -1.
     999902    2    1    2    0    0 -0.16615836154E-01  0.12969729619E-01  0.85945216335E-02  0.10211667467E+01  0.10209130026E+01 0.  0.
     999903    2    3    3    0    0 -0.10671626767E+00 -0.27555560980E-01  0.72555629823E-01  0.13333150847E+00  0.19112849226E-01 0.  0.
         14    1    1    2    0    0  0.16615836154E-01 -0.12969729619E-01 -0.85945216335E-02  0.22763253273E-01  0.00000000000E+00 0. -1.
     999901    1    3    3    0    0  0.90100431511E-01  0.40525290599E-01 -0.63961108189E-01  0.88783523826E+00  0.88000000000E+00 0. -1.
        -11    1    4    4    0    0 -0.33664448370E-01 -0.22904653866E-02  0.29660156345E-01  0.44928023673E-01  0.51100000000E-03 0. -1.
         11    1    4    4    0    0 -0.73051819295E-01 -0.25265095593E-01  0.42895473477E-01  0.88403484793E-01  0.51100000000E-03 0.  1.
</event>
<event>
 8    1  0.1213322E+005  0.1043930E+01  0.7957747E-01            NaN
         13   -1    0    0    0    0  0.00000000000E+00  0.00000000000E+00  0.74505805969E-08  0.10566000000E+00  0.10566000000E+00 0. -1.
     999900   -1    0    0    0    0 -0.00000000000E+00 -0.00000000000E+00 -0.74505805969E-08  0.93827000000E+00  0.93827000000E+00 0. -1.
     999902    2    1    2    0    0 -0.16569084305E-01  0.15524443171E-01  0.58114218063E-02  0.10204925190E+01  0.10202233412E+01 0.  0.
     999903    2    3    3    0    0  0.50669584642E-01 -0.53887168375E-01  0.10402413061E+00  0.12977104372E+00  0.23415172796E-01 0.  0.
         14    1    1    2    0    0  0.16569084305E-01 -0.15524443171E-01 -0.58114218063E-02  0.23437480963E-01  0.00000000000E+00 0. -1.
     999901    1    3    3    0    0 -0.67238668947E-01  0.69411611546E-01 -0.98212708799E-01  0.89072147532E+00  0.88000000000E+00 0.  1.
        -11    1    4    4    0    0  0.34862446712E-01 -0.22004668215E-01  0.46681210907E-01  0.62281555751E-01  0.51100000000E-03 0.  1.
         11    1    4    4    0    0  0.15807137930E-01 -0.31882500160E-01  0.57342919699E-01  0.67489487971E-01  0.51100000000E-03 0. -1.
</event>
<event>
 8    1  0.1213322E+005  0.1043930E+01  0.7957747E-01            NaN
         13   -1    0    0    0    0  0.00000000000E+00  0.00000000000E+00  0.74505805969E-08  0.10566000000E+00  0.10566000000E+00 0. -1.
     999900   -1    0    0    0    0 -0.00000000000E+00 -0.00000000000E+00 -0.74505805969E-08  0.93827000000E+00  0.93827000000E+00 0.  1.
     999902    2    1    2    0    0  0.22011324783E-01 -0.46669675522E-02  0.22052709949E-02  0.10213215453E+01  0.10210712789E+01 0.  0.
     999903    2    3    3    0    0 -0.41238394340E-01  0.46253822237E-01  0.11321828482E+00  0.13063790725E+00  0.20195582581E-01 0.  0.
         14    1    1    2    0    0 -0.22011324783E-01  0.46669675522E-02 -0.22052709949E-02  0.22608454724E-01  0.00000000000E+00 0. -1.
     999901    1    3    3    0    0  0.63249719123E-01 -0.50920789789E-01 -0.11101301382E+00  0.89068363802E+00  0.88000000000E+00 0.  1.
        -11    1    4    4    0    0 -0.15284525234E-01  0.30473608155E-01  0.50263086725E-01  0.60736286631E-01  0.51100000000E-03 0.  1.
         11    1    4    4    0    0 -0.25953869107E-01  0.15780214082E-01  0.62955198092E-01  0.69901620624E-01  0.51100000000E-03 0. -1.
</event>
<event>
 8    1  0.1213322E+005  0.1043930E+01  0.7957747E-01            NaN
         13   -1    0    0    0    0  0.00000000000E+00  0.00000000000E+00  0.74505805969E-08  0.10566000000E+00  0.10566000000E+00 0.  1.
     999900   -1    0    0    0    0 -0.00000000000E+00 -0.00000000000E+00 -0.74505805969E-08  0.93827000000E+00  0.93827000000E+00 0.  1.
     999902    2    1    2    0    0  0.91196727585E-02 -0.19650274232E-01  0.11894369599E-01  0.10192160821E+01  0.10189164069E+01 0.  0.
     999903    2    3    3    0    0 -0.67426716305E-01  0.10449400447E+00  0.18023208994E-01  0.12719101841E+00  0.19681464886E-01 0.  0.
         14    1    1    2    0    0 -0.91196727585E-02  0.19650274232E-01 -0.11894369599E-01  0.24713917876E-01  0.00000000000E+00 0. -1.
     999901    1    3    3    0    0  0.76546389063E-01 -0.12414427871E+00 -0.61288393950E-02  0.89202506371E+00  0.88000000000E+00 0. -1.
        -11    1    4    4    0    0 -0.16712760541E-01  0.29995226519E-01 -0.35431397682E-02  0.34523107323E-01  0.51100000000E-03 0. -1.
         11    1    4    4    0    0 -0.50713955764E-01  0.74498777955E-01  0.21566348762E-01  0.92667911091E-01  0.51100000000E-03 0.  1.
</event>
<event>
 8    1  0.1213322E+005  0.1043930E+01  0.7957747E-01            NaN
         13   -1    0    0    0    0  0.00000000000E+00  0.00000000000E+00  0.74505805969E-08  0.10566000000E+00  0.10566000000E+00 0.  1.
     999900   -1    0    0    0    0 -0.00000000000E+00 -0.00000000000E+00 -0.74505805969E-08  0.93827000000E+00  0.93827000000E+00 0. -1.
     999902    2    1    2    0    0  0.18110507712E-01 -0.44056921730E-02 -0.14395530070E-01  0.10203793758E+01  0.10201075623E+01 0.  0.
     999903    2    3    3    0    0 -0.44701875719E-01  0.10474825640E+00 -0.60007206258E-01  0.13024432708E+00  0.19805681556E-01 0.  0.
         14    1    1    2    0    0 -0.18110507712E-01  0.44056921730E-02  0.14395530070E-01  0.23550624177E-01  0.00000000000E+00 0.  1.
     999901    1    3    3    0    0  0.62812383431E-01 -0.10915394857E+00  0.45611676188E-01  0.89013504875E+00  0.88000000000E+00 0. -1.
        -11    1    4    4    0    0 -0.18202870149E-01  0.64018499218E-01 -0.29007504509E-01  0.72604470680E-01  0.51100000000E-03 0.  1.
         11    1    4    4    0    0 -0.26499005570E-01  0.40729757179E-01 -0.30999701748E-01  0.57639856398E-01  0.51100000000E-03 0. -1.
</event>
<event>
 8    1  0.1213322E+005  0.1043930E+01  0.7957747E-01            NaN
         13   -1    0    0    0    0  0.00000000000E+00  0.00000000000E+00  0.74505805969E-08  0.10566000000E+00  0.10566000000E+00 0.  1.
     999900   -1    0    0    0    0 -0.00000000000E+00 -0.00000000000E+00 -0.74505805969E-08  0.93827000000E+00  0.93827000000E+00 0.  1.
     999902    2    1    2    0    0  0.27685161855E-02  0.82335683088E-02  0.13529534327E-01  0.10278519209E+01  0.10277261633E+01 0.  0.
     999903    2    3    3    0    0  0.13053155723E+00  0.39889943435E-01  0.70603968038E-02  0.13803881102E+00  0.19369283037E-01 0.  0.
         14    1    1    2    0    0 -0.27685161855E-02 -0.82335683088E-02 -0.13529534327E-01  0.16078079116E-01  0.00000000000E+00 0. -1.
     999901    1    3    3    0    0 -0.12776304104E+00 -0.31656375127E-01  0.64691375229E-02  0.88981310986E+00  0.88000000000E+00 0. -1.
        -11    1    4    4    0    0  0.92845294647E-01  0.37320070099E-01  0.42343559210E-02  0.10015601460E+00  0.51100000000E-03 0. -1.
         11    1    4    4    0    0  0.37686262582E-01  0.25698733367E-02  0.28260408829E-02  0.37882796418E-01  0.51100000000E-03 0.  1.
</event>
<event>
 8    1  0.1213322E+005  0.1043930E+01  0.7957747E-01            NaN
         13   -1    0    0    0    0  0.00000000000E+00  0.00000000000E+00  0.74505805969E-08  0.10566000000E+00  0.10566000000E+00 0. -1.
     999900   -1    0    0    0    0 -0.00000000000E+00 -0.00000000000E+00 -0.74505805969E-08  0.93827000000E+00  0.93827000000E+00 0.  1.
     999902    2    1    2    0    0  0.54323297962E-02  0.10066242689E-01 -0.21647276899E-01  0.10194464536E+01  0.10191524065E+01 0.  0.
     999903    2    3    3    0    0 -0.12412641273E+00  0.10355463405E-01 -0.30216107352E-01  0.12991906429E+00  0.21244956189E-01 0.  0.
         14    1    1    2    0    0 -0.54323297962E-02 -0.10066242689E-01  0.21647276899E-01  0.24483546435E-01  0.00000000000E+00 0. -1.
     999901    1    3    3    0    0  0.12955874252E+00 -0.28922071604E-03  0.85688304526E-02  0.88952738927E+00  0.88000000000E+00 0. -1.
        -11    1    4    4    0    0 -0.70324646013E-01  0.99558423877E-02 -0.27104086756E-01  0.76023465288E-01  0.51100000000E-03 0.  1.
         11    1    4    4    0    0 -0.53801766715E-01  0.39962101732E-03 -0.31120205957E-02  0.53895599002E-01  0.51100000000E-03 0. -1.
</event>
<event>
 8    1  0.1213322E+005  0.1043930E+01  0.7957747E-01            NaN
         13   -1    0    0    0    0  0.00000000000E+00  0.00000000000E+00  0.74505805969E-08  0.10566000000E+00  0.10566000000E+00 0. -1.
     999900   -1    0    0    0    0 -0.00000000000E+00 -0.00000000000E+00 -0.74505805969E-08  0.93827000000E+00  0.93827000000E+00 0. -1.
     999902    2    1    2    0    0  0.17928017125E-01 -0.80146404458E-02  0.12064219254E-01  0.10208823614E+01  0.10206221642E+01 0.  0.
     999903    2    3    3    0    0 -0.62890565512E-01  0.10408614870E+00  0.40586872512E-01  0.12964065905E+00  0.19242054934E-01 0.  0.
         14    1    1    2    0    0 -0.17928017125E-01  0.80146404458E-02 -0.12064219254E-01  0.23047638615E-01  0.00000000000E+00 0.  1.
     999901    1    3    3    0    0  0.80818582636E-01 -0.11210078915E+00 -0.28522653257E-01  0.89124170233E+00  0.88000000000E+00 0. -1.
        -11    1    4    4    0    0 -0.59563153085E-01  0.85429269937E-01  0.33481255004E-01  0.10939462932E+00  0.51100000000E-03 0.  1.
         11    1    4    4    0    0 -0.33274124263E-02  0.18656878763E-01  0.71056175072E-02  0.20246029729E-01  0.51100000000E-03 0. -1.
</event>
<event>
 8    1  0.1213322E+005  0.1043930E+01  0.7957747E-01            NaN
         13   -1    0    0    0    0  0.00000000000E+00  0.00000000000E+00  0.74505805969E-08  0.10566000000E+00  0.10566000000E+00 0. -1.
     999900   -1    0    0    0    0 -0.00000000000E+00 -0.00000000000E+00 -0.74505805969E-08  0.93827000000E+00  0.93827000000E+00 0. -1.
     999902    2    1    2    0    0 -0.22880255416E-01  0.37107087339E-02 -0.22538655617E-02  0.10206414758E+01  0.10203757479E+01 0.  0.
     999903    2    3    3    0    0 -0.91208003644E-01  0.53122397034E-01  0.77809718642E-01  0.13299268627E+00  0.22176863879E-01 0.  0.
         14    1    1    2    0    0  0.22880255416E-01 -0.37107087339E-02  0.22538655617E-02  0.23288524152E-01  0.00000000000E+00 0.  1.
     999901    1    3    3    0    0  0.68327748227E-01 -0.49411688300E-01 -0.80063584204E-01  0.88764878958E+00  0.88000000000E+00 0. -1.
        -11    1    4    4    0    0 -0.20624240165E-01  0.12070033771E-01  0.69863835303E-02  0.24902121866E-01  0.51100000000E-03 0.  1.
         11    1    4    4    0    0 -0.70583763479E-01  0.41052363263E-01  0.70823335112E-01  0.10809056441E+00  0.51100000000E-03 0. -1.
</event>
<event>
 8    1  0.1213322E+005  0.1043930E+01  0.7957747E-01            NaN
         13   -1    0    0    0    0  0.00000000000E+00  0.00000000000E+00  0.74505805969E-08  0.10566000000E+00  0.10566000000E+00 0.  1.
     999900   -1    0    0    0    0 -0.00000000000E+00 -0.00000000000E+00 -0.74505805969E-08  0.93827000000E+00  0.93827000000E+00 0. -1.
     999902    2    1    2    0    0  0.17830120915E-01 -0.22248009270E-02 -0.15301704390E-01  0.10203290443E+01  0.10200560542E+01 0.  0.
     999903    2    3    3    0    0 -0.13167298561E-02  0.11522829737E+00  0.50483209556E-01  0.12988562272E+00  0.32286626510E-01 0.  0.
         14    1    1    2    0    0 -0.17830120915E-01  0.22248009270E-02  0.15301704390E-01  0.23600955663E-01  0.00000000000E+00 0.  1.
     999901    1    3    3    0    0  0.19146850771E-01 -0.11745309829E+00 -0.65784913946E-01  0.89044342161E+00  0.88000000000E+00 0. -1.
        -11    1    4    4    0    0 -0.13380334032E-01  0.94650098765E-01  0.43507053640E-01  0.10502761243E+00  0.51100000000E-03 0. -1.
         11    1    4    4    0    0  0.12063604176E-01  0.20578198601E-01  0.69761559169E-02  0.24858010294E-01  0.51100000000E-03 0.  1.
</event>
<event>
 8    1  0.1213322E+005  0.1043930E+01  0.7957747E-01            NaN
         13   -1    0    0    0    0  0.00000000000E+00  0.00000000000E+00  0.74505805969E-08  0.10566000000E+00  0.10566000000E+00 0.  1.
     999900   -1    0    0    0    0 -0.00000000000E+00 -0.00000000000E+00 -0.74505805969E-08  0.93827000000E+00  0.93827000000E+00 0. -1.
     999902    2    1    2    0    0  0.92716575959E-02 -0.19020416243E-01 -0.11058930352E-01  0.10200544935E+01  0.10197750389E+01 0.  0.
     999903    2    3    3    0    0  0.15223281193E-01  0.10708306848E+00  0.63611905279E-01  0.12791479350E+00  0.24843269859E-01 0.  0.
         14    1    1    2    0    0 -0.92716575959E-02  0.19020416243E-01  0.11058930352E-01  0.23875506469E-01  0.00000000000E+00 0. -1.
     999901    1    3    3    0    0 -0.59516235973E-02 -0.12610348472E+00 -0.74670835632E-01  0.89213970003E+00  0.88000000000E+00 0.  1.
        -11    1    4    4    0    0  0.88848538319E-02  0.12315309878E-01  0.14435458694E-01  0.20958317531E-01  0.51100000000E-03 0.  1.
         11    1    4    4    0    0  0.63384273613E-02  0.94767758600E-01  0.49176446585E-01  0.10695647597E+00  0.51100000000E-03 0. -1.
</event>
<event>
 8    1  0.1213322E+005  0.1043930E+01  0.7957747E-01            NaN
         13   -1    0    0    0    0  0.00000000000E+00  0.00000000000E+00  0.74505805969E-08  0.10566000000E+00  0.10566000000E+00 0.  1.
     999900   -1    0    0    0    0 -0.00000000000E+00 -0.00000000000E+00 -0.74505805969E-08  0.93827000000E+00  0.93827000000E+00 0.  1.
     999902    2    1    2    0    0 -0.92319370403E-02  0.18605873635E-01  0.13658774662E-01  0.10190710113E+01  0.10187677639E+01 0.  0.
     999903    2    3    3    0    0 -0.14400750799E-01  0.26146552651E-01  0.12688955825E+00  0.13176903966E+00  0.19263851695E-01 0.  0.
         14    1    1    2    0    0  0.92319370403E-02 -0.18605873635E-01 -0.13658774662E-01  0.24858988727E-01  0.00000000000E+00 0. -1.
     999901    1    3    3    0    0  0.51688137584E-02 -0.75406790157E-02 -0.11323078358E+00  0.88730197161E+00  0.88000000000E+00 0.  1.
        -11    1    4    4    0    0 -0.94451284879E-02  0.12468562762E-01  0.99765322915E-01  0.10098542611E+00  0.51100000000E-03 0.  1.
         11    1    4    4    0    0 -0.49556223108E-02  0.13677989889E-01  0.27124235332E-01  0.30783613550E-01  0.51100000000E-03 0. -1.
</event>
<event>
 8    1  0.1213322E+005  0.1043930E+01  0.7957747E-01            NaN
         13   -1    0    0    0    0  0.00000000000E+00  0.00000000000E+00  0.74505805969E-08  0.10566000000E+00  0.10566000000E+00 0. -1.
     999900   -1    0    0    0    0 -0.00000000000E+00 -0.00000000000E+00 -0.74505805969E-08  0.93827000000E+00  0.93827000000E+00 0. -1.
     999902    2    1    2    0    0 -0.15582532353E-01  0.10577184036E-02 -0.17961307505E-01  0.10201278436E+01  0.10198501236E+01 0.  0.
     999903    2    3    3    0    0 -0.50542684514E-01 -0.10592909062E+00  0.52577515023E-01  0.13015924019E+00  0.20037403085E-01 0.  0.
         14    1    1    2    0    0  0.15582532353E-01 -0.10577184036E-02  0.17961307505E-01  0.23802156416E-01  0.00000000000E+00 0.  1.
     999901    1    3    3    0    0  0.34960152161E-01  0.10698680903E+00 -0.70538822528E-01  0.88996860339E+00  0.88000000000E+00 0.  1.
        -11    1    4    4    0    0 -0.31317517294E-01 -0.68259969725E-01  0.43871126577E-01  0.86977854794E-01  0.51100000000E-03 0.  1.
         11    1    4    4    0    0 -0.19225167220E-01 -0.37669120898E-01  0.87063884451E-02  0.43181385395E-01  0.51100000000E-03 0. -1.
</event>
<event>
 8    1  0.1213322E+005  0.1043930E+01  0.7957747E-01            NaN
         13   -1    0    0    0    0  0.00000000000E+00  0.00000000000E+00  0.74505805969E-08  0.10566000000E+00  0.10566000000E+00 0. -1.
     999900   -1    0    0    0    0 -0.00000000000E+00 -0.00000000000E+00 -0.74505805969E-08  0.93827000000E+00  0.93827000000E+00 0.  1.
     999902    2    1    2    0    0  0.14936404883E-01 -0.84423479106E-03 -0.18551773375E-01  0.10200977274E+01  0.10198192958E+01 0.  0.
     999903    2    3    3    0    0  0.70881169116E-01 -0.11566130229E-01 -0.11048772835E+00  0.13347661579E+00  0.21226241856E-01 0.  0.
         14    1    1    2    0    0 -0.14936404883E-01  0.84423479106E-03  0.18551773375E-01  0.23832272627E-01  0.00000000000E+00 0. -1.
     999901    1    3    3    0    0 -0.55944764233E-01  0.10721895438E-01  0.91935954975E-01  0.88662111158E+00  0.88000000000E+00 0. -1.
        -11    1    4    4    0    0  0.70904306757E-01 -0.14108414975E-01 -0.10673641071E+00  0.12891621535E+00  0.51100000000E-03 0.  1.
         11    1    4    4    0    0 -0.23137641059E-04  0.25422847457E-02 -0.37513176425E-02  0.45604004357E-02  0.51100000000E-03 0. -1.
</event>
<event>
 8    1  0.1213322E+005  0.1043930E+01  0.7957747E-01            NaN
         13   -1    0    0    0    0  0.00000000000E+00  0.00000000000E+00  0.74505805969E-08  0.10566000000E+00  0.10566000000E+00 0. -1.
     999900   -1    0    0    0    0 -0.00000000000E+00 -0.00000000000E+00 -0.74505805969E-08  0.93827000000E+00  0.93827000000E+00 0.  1.
     999902    2    1    2    0    0 -0.13327049836E-01  0.21478676871E-01 -0.26412085044E-02  0.10185150477E+01  0.10181979094E+01 0.  0.
     999903    2    3    3    0    0 -0.44740574488E-01 -0.10634068126E-01 -0.11950983616E+00  0.12965267701E+00  0.20307961640E-01 0.  0.
         14    1    1    2    0    0  0.13327049836E-01 -0.21478676871E-01  0.26412085044E-02  0.25414952289E-01  0.00000000000E+00 0.  1.
     999901    1    3    3    0    0  0.31413524652E-01  0.32112744998E-01  0.11686862766E+00  0.88886237070E+00  0.88000000000E+00 0. -1.
        -11    1    4    4    0    0 -0.14361398713E-01 -0.40590409070E-02 -0.17468859278E-01  0.22981465392E-01  0.51100000000E-03 0.  1.
         11    1    4    4    0    0 -0.30379175776E-01 -0.65750272193E-02 -0.10204097688E+00  0.10667121162E+00  0.51100000000E-03 0. -1.
</event>
<event>
 8    1  0.1213322E+005  0.1043930E+01  0.7957747E-01            NaN
         13   -1    0    0    0    0  0.00000000000E+00  0.00000000000E+00  0.74505805969E-08  0.10566000000E+00  0.10566000000E+00 0.  1.
     999900   -1    0    0    0    0 -0.00000000000E+00 -0.00000000000E+00 -0.74505805969E-08  0.93827000000E+00  0.93827000000E+00 0.  1.
     999902    2    1    2    0    0 -0.18236208557E-01 -0.12349749110E-01 -0.40258982669E-02  0.10215406395E+01  0.10212952535E+01 0.  0.
     999903    2    3    3    0    0  0.69697665046E-01  0.90639642930E-01  0.56910049992E-01  0.12909883706E+00  0.18826751086E-01 0.  0.
         14    1    1    2    0    0  0.18236208557E-01  0.12349749110E-01  0.40258982669E-02  0.22389360475E-01  0.00000000000E+00 0.  1.
     999901    1    3    3    0    0 -0.87933873603E-01 -0.10298939204E+00 -0.60935948259E-01  0.89244180247E+00  0.88000000000E+00 0.  1.
        -11    1    4    4    0    0  0.32816976953E-01  0.29118017478E-01  0.25916558313E-01  0.50958238137E-01  0.51100000000E-03 0.  1.
         11    1    4    4    0    0  0.36880688094E-01  0.61521625452E-01  0.30993491679E-01  0.78140598922E-01  0.51100000000E-03 0. -1.
</event>
<event>
 8    1  0.1213322E+005  0.1043930E+01  0.7957747E-01            NaN
         13   -1    0    0    0    0  0.00000000000E+00  0.00000000000E+00  0.74505805969E-08  0.10566000000E+00  0.10566000000E+00 0. -1.
     999900   -1    0    0    0    0 -0.00000000000E+00 -0.00000000000E+00 -0.74505805969E-08  0.93827000000E+00  0.93827000000E+00 0.  1.
     999902    2    1    2    0    0  0.76570994230E-02  0.23032262745E-01  0.16630534350E-02  0.10196013740E+01  0.10193110809E+01 0.  0.
     999903    2    3    3    0    0  0.27719352471E-01 -0.79291124328E-01 -0.95097590934E-01  0.12817824668E+00  0.18184230009E-01 0.  0.
         14    1    1    2    0    0 -0.76570994230E-02 -0.23032262745E-01 -0.16630534350E-02  0.24328626050E-01  0.00000000000E+00 0.  1.
     999901    1    3    3    0    0 -0.20062253048E-01  0.10232338707E+00  0.96760644369E-01  0.89142312727E+00  0.88000000000E+00 0.  1.
        -11    1    4    4    0    0  0.23769672969E-01 -0.54399821273E-01 -0.55703557489E-01  0.81409368905E-01  0.51100000000E-03 0.  1.
         11    1    4    4    0    0  0.39496795017E-02 -0.24891303055E-01 -0.39394033445E-01  0.46768877772E-01  0.51100000000E-03 0. -1.
</event>
<event>
 8    1  0.1213322E+005  0.1043930E+01  0.7957747E-01            NaN
         13   -1    0    0    0    0  0.00000000000E+00  0.00000000000E+00  0.74505805969E-08  0.10566000000E+00  0.10566000000E+00 0.  1.
     999900   -1    0    0    0    0 -0.00000000000E+00 -0.00000000000E+00 -0.74505805969E-08  0.93827000000E+00  0.93827000000E+00 0. -1.
     999902    2    1    2    0    0 -0.20907655862E-01  0.10715459714E-01  0.35509755097E-02  0.10201695165E+01  0.10198927795E+01 0.  0.
     999903    2    3    3    0    0  0.35098244466E-01  0.12211903412E+00  0.25835022779E-01  0.13110034254E+00  0.19362493467E-01 0.  0.
         14    1    1    2    0    0  0.20907655862E-01 -0.10715459714E-01 -0.35509755097E-02  0.23760483530E-01  0.00000000000E+00 0. -1.
     999901    1    3    3    0    0 -0.56005900328E-01 -0.11140357441E+00 -0.22284047269E-01  0.88906917393E+00  0.88000000000E+00 0.  1.
        -11    1    4    4    0    0  0.11909610229E-01  0.39651538886E-01  0.17761896153E-01  0.45053628353E-01  0.51100000000E-03 0.  1.
         11    1    4    4    0    0  0.23188634237E-01  0.82467495237E-01  0.80731266265E-02  0.86046714190E-01  0.51100000000E-03 0. -1.
</event>
<event>
 8    1  0.1213322E+005  0.1043930E+01  0.7957747E-01            NaN
         13   -1    0    0    0    0  0.00000000000E+00  0.00000000000E+00  0.74505805969E-08  0.10566000000E+00  0.10566000000E+00 0. -1.
     999900   -1    0    0    0    0 -0.00000000000E+00 -0.00000000000E+00 -0.74505805969E-08  0.93827000000E+00  0.93827000000E+00 0.  1.
     999902    2    1    2    0    0  0.69945731658E-02 -0.18460646185E-01  0.10077879742E-01  0.10217650914E+01  0.10215246541E+01 0.  0.
     999903    2    3    3    0    0 -0.80261661806E-01  0.81870420649E-01  0.58819859501E-01  0.13044261663E+00  0.20268207328E-01 0.  0.
         14    1    1    2    0    0 -0.69945731658E-02  0.18460646185E-01 -0.10077879742E-01  0.22164908559E-01  0.00000000000E+00 0.  1.
     999901    1    3    3    0    0  0.87256234971E-01 -0.10033106683E+00 -0.48741979759E-01  0.89132247481E+00  0.88000000000E+00 0.  1.
        -11    1    4    4    0    0 -0.30689153796E-01  0.19421893198E-01  0.13645363425E-01  0.38800659274E-01  0.51100000000E-03 0.  1.
         11    1    4    4    0    0 -0.49572508010E-01  0.62448527451E-01  0.45174496076E-01  0.91641957355E-01  0.51100000000E-03 0. -1.
</event>
<event>
 8    1  0.1213322E+005  0.1043930E+01  0.7957747E-01            NaN
         13   -1    0    0    0    0  0.00000000000E+00  0.00000000000E+00  0.74505805969E-08  0.10566000000E+00  0.10566000000E+00 0. -1.
     999900   -1    0    0    0    0 -0.00000000000E+00 -0.00000000000E+00 -0.74505805969E-08  0.93827000000E+00  0.93827000000E+00 0. -1.
     999902    2    1    2    0    0 -0.16756808635E-01  0.16036486290E-01  0.27679848676E-02  0.10205714626E+01  0.10203041160E+01 0.  0.
     999903    2    3    3    0    0  0.31119145291E-01  0.39317628605E-01  0.11952742122E+00  0.13126449395E+00  0.20719213958E-01 0.  0.
         14    1    1    2    0    0  0.16756808635E-01 -0.16036486290E-01 -0.27679848676E-02  0.23358537376E-01  0.00000000000E+00 0.  1.
     999901    1    3    3    0    0 -0.47875953926E-01 -0.23281142315E-01 -0.11675943635E+00  0.88930696867E+00  0.88000000000E+00 0.  1.
        -11    1    4    4    0    0  0.36973087006E-02  0.26967582741E-02  0.33613218222E-01  0.33927159579E-01  0.51100000000E-03 0. -1.
         11    1    4    4    0    0  0.27421836591E-01  0.36620870330E-01  0.85914202994E-01  0.97337334373E-01  0.51100000000E-03 0.  1.
</event>
<event>
 8    1  0.1213322E+005  0.1043930E+01  0.7957747E-01            NaN
         13   -1    0    0    0    0  0.00000000000E+00  0.00000000000E+00  0.74505805969E-08  0.10566000000E+00  0.10566000000E+00 0. -1.
     999900   -1    0    0    0    0 -0.00000000000E+00 -0.00000000000E+00 -0.74505805969E-08  0.93827000000E+00  0.93827000000E+00 0.  1.
     999902    2    1    2    0    0 -0.16751040637E-01 -0.98991451688E-03  0.15565696350E-01  0.10210418328E+01  0.10207852645E+01 0.  0.
     999903    2    3    3    0    0 -0.84524124374E-01 -0.62397865679E-01 -0.76544909391E-01  0.13152033729E+00  0.20016361450E-01 0.  0.
         14    1    1    2    0    0  0.16751040637E-01  0.98991451688E-03 -0.15565696350E-01  0.22888167162E-01  0.00000000000E+00 0.  1.
     999901    1    3    3    0    0  0.67773083737E-01  0.61407951162E-01  0.92110605741E-01  0.88952149554E+00  0.88000000000E+00 0. -1.
        -11    1    4    4    0    0 -0.42432558706E-01 -0.43610350063E-01 -0.42956640970E-01  0.74484352688E-01  0.51100000000E-03 0. -1.
         11    1    4    4    0    0 -0.42091565667E-01 -0.18787515616E-01 -0.33588268421E-01  0.57035984605E-01  0.51100000000E-03 0.  1.
</event>
<event>
 8    1  0.1213322E+005  0.1043930E+01  0.7957747E-01            NaN
         13   -1    0    0    0    0  0.00000000000E+00  0.00000000000E+00  0.74505805969E-08  0.10566000000E+00  0.10566000000E+00 0. -1.
     999900   -1    0    0    0    0 -0.00000000000E+00 -0.00000000000E+00 -0.74505805969E-08  0.93827000000E+00  0.93827000000E+00 0.  1.
     999902    2    1    2    0    0  0.96102944676E-02  0.20572135910E-01 -0.83720804155E-02  0.10197295400E+01  0.10194423340E+01 0.  0.
     999903    2    3    3    0    0  0.30707222639E-01 -0.10855357120E+00 -0.58373989307E-01  0.12865225964E+00  0.20422290278E-01 0.  0.
         14    1    1    2    0    0 -0.96102944676E-02 -0.20572135910E-01  0.83720804155E-02  0.24200460040E-01  0.00000000000E+00 0. -1.
     999901    1    3    3    0    0 -0.21096928172E-01  0.12912570711E+00  0.50001908891E-01  0.89107728032E+00  0.88000000000E+00 0. -1.
        -11    1    4    4    0    0  0.26111189757E-01 -0.95932780234E-01 -0.58208001777E-01  0.11520991774E+00  0.51100000000E-03 0. -1.
         11    1    4    4    0    0  0.45960328827E-02 -0.12620790964E-01 -0.16598752992E-03  0.13442341897E-01  0.51100000000E-03 0.  1.
</event>
<event>
 8    1  0.1213322E+005  0.1043930E+01  0.7957747E-01            NaN
         13   -1    0    0    0    0  0.00000000000E+00  0.00000000000E+00  0.74505805969E-08  0.10566000000E+00  0.10566000000E+00 0. -1.
     999900   -1    0    0    0    0 -0.00000000000E+00 -0.00000000000E+00 -0.74505805969E-08  0.93827000000E+00  0.93827000000E+00 0. -1.
     999902    2    1    2    0    0  0.51246882715E-02  0.19313084745E-01  0.14613277708E-01  0.10191750902E+01  0.10188744079E+01 0.  0.
     999903    2    3    3    0    0 -0.15408453684E-01 -0.28798068536E-01 -0.12135924464E+00  0.12719705248E+00  0.19602925896E-01 0.  0.
         14    1    1    2    0    0 -0.51246882715E-02 -0.19313084745E-01 -0.14613277708E-01  0.24754909768E-01  0.00000000000E+00 0. -1.
     999901    1    3    3    0    0  0.20533141955E-01  0.48111153281E-01  0.13597252235E+00  0.89197803775E+00  0.88000000000E+00 0.  1.
        -11    1    4    4    0    0 -0.90348675629E-02 -0.10346611356E-01 -0.83236568296E-01  0.84363905915E-01  0.51100000000E-03 0. -1.
         11    1    4    4    0    0 -0.63735861211E-02 -0.18451457180E-01 -0.38122676348E-01  0.42833146570E-01  0.51100000000E-03 0.  1.
</event>
<event>
 8    1  0.1213322E+005  0.1043930E+01  0.7957747E-01            NaN
         13   -1    0    0    0    0  0.00000000000E+00  0.00000000000E+00  0.74505805969E-08  0.10566000000E+00  0.10566000000E+00 0. -1.
     999900   -1    0    0    0    0 -0.00000000000E+00 -0.00000000000E+00 -0.74505805969E-08  0.93827000000E+00  0.93827000000E+00 0. -1.
     999902    2    1    2    0    0 -0.18564929160E-01  0.16051050604E-01  0.95259945955E-02  0.10176043966E+01  0.10172638156E+01 0.  0.
     999903    2    3    3    0    0  0.85244009003E-01 -0.88083439339E-01  0.26635962313E-02  0.12537831532E+00  0.26218196954E-01 0.  0.
         14    1    1    2    0    0  0.18564929160E-01 -0.16051050604E-01 -0.95259945955E-02  0.26325603379E-01  0.00000000000E+00 0.  1.
     999901    1    3    3    0    0 -0.10380893816E+00  0.10413448994E+00  0.68623983641E-02  0.89222608130E+00  0.88000000000E+00 0.  1.
        -11    1    4    4    0    0  0.21155374302E-01 -0.39705942675E-01  0.27796806607E-02  0.45078814216E-01  0.51100000000E-03 0.  1.
         11    1    4    4    0    0  0.64088634701E-01 -0.48377496665E-01 -0.11608442942E-03  0.80299501107E-01  0.51100000000E-03 0. -1.
</event>
<event>
 8    1  0.1213322E+005  0.1043930E+01  0.7957747E-01            NaN
         13   -1    0    0    0    0  0.00000000000E+00  0.00000000000E+00  0.74505805969E-08  0.10566000000E+00  0.10566000000E+00 0.  1.
     999900   -1    0    0    0    0 -0.00000000000E+00 -0.00000000000E+00 -0.74505805969E-08  0.93827000000E+00  0.93827000000E+00 0. -1.
     999902    2    1    2    0    0  0.20911778948E-01 -0.47343176454E-02 -0.86765976334E-02  0.10207999414E+01  0.10205378586E+01 0.  0.
     999903    2    3    3    0    0  0.72213502723E-01  0.10492900097E+00  0.26568625297E-01  0.13181167603E+00  0.21060409917E-01 0.  0.
         14    1    1    2    0    0 -0.20911778948E-01  0.47343176454E-02  0.86765976334E-02  0.23130058556E-01  0.00000000000E+00 0.  1.
     999901    1    3    3    0    0 -0.51301723775E-01 -0.10966331862E+00 -0.35245222930E-01  0.88898826542E+00  0.88000000000E+00 0.  1.
        -11    1    4    4    0    0  0.32308013151E-01  0.57903372320E-01  0.51007255888E-02  0.66504787514E-01  0.51100000000E-03 0. -1.
         11    1    4    4    0    0  0.39905489572E-01  0.47025628652E-01  0.21467899708E-01  0.65306888511E-01  0.51100000000E-03 0.  1.
</event>
<event>
 8    1  0.1213322E+005  0.1043930E+01  0.7957747E-01            NaN
         13   -1    0    0    0    0  0.00000000000E+00  0.00000000000E+00  0.74505805969E-08  0.10566000000E+00  0.10566000000E+00 0.  1.
     999900   -1    0    0    0    0 -0.00000000000E+00 -0.00000000000E+00 -0.74505805969E-08  0.93827000000E+00  0.93827000000E+00 0. -1.
     999902    2    1    2    0    0 -0.20924583421E-01 -0.10426868675E-01  0.13819857107E-02  0.10205106135E+01  0.10202418559E+01 0.  0.
     999903    2    3    3    0    0 -0.56027636516E-01 -0.10601163752E+00  0.52674184967E-01  0.13315523815E+00  0.24045464050E-01 0.  0.
         14    1    1    2    0    0  0.20924583421E-01  0.10426868675E-01 -0.13819857107E-02  0.23419386546E-01  0.00000000000E+00 0. -1.
     999901    1    3    3    0    0  0.35103053095E-01  0.95584768848E-01 -0.51292199256E-01  0.88735537530E+00  0.88000000000E+00 0. -1.
        -11    1    4    4    0    0 -0.31674044034E-01 -0.50051635139E-01  0.38029043312E-01  0.70390912068E-01  0.51100000000E-03 0. -1.
         11    1    4    4    0    0 -0.24353592483E-01 -0.55960002385E-01  0.14645141654E-01  0.62764326084E-01  0.51100000000E-03 0.  1.
</event>
<event>
 8    1  0.1213322E+005  0.1043930E+01  0.7957747E-01            NaN
         13   -1    0    0    0    0  0.00000000000E+00  0.00000000000E+00  0.74505805969E-08  0.10566000000E+00  0.10566000000E+00 0.  1.
     999900   -1    0    0    0    0 -0.00000000000E+00 -0.00000000000E+00 -0.74505805969E-08  0.93827000000E+00  0.93827000000E+00 0. -1.
     999902    2    1    2    0    0  0.22834230836E-01  0.59841235047E-03 -0.59801360305E-02  0.10203180915E+01  0.10200448449E+01 0.  0.
     999903    2    3    3    0    0 -0.25860903162E-01 -0.12517799959E+00  0.40368735787E-02  0.12998598362E+00  0.23275345232E-01 0.  0.
         14    1    1    2    0    0 -0.22834230836E-01 -0.59841235047E-03  0.59801360305E-02  0.23611908482E-01  0.00000000000E+00 0. -1.
     999901    1    3    3    0    0  0.48695133998E-01  0.12577641194E+00 -0.10017009609E-01  0.89033210790E+00  0.88000000000E+00 0. -1.
        -11    1    4    4    0    0 -0.20775368464E-01 -0.10780151324E+00 -0.46777573441E-02  0.10988596237E+00  0.51100000000E-03 0. -1.
         11    1    4    4    0    0 -0.50855346979E-02 -0.17376486347E-01  0.87146309227E-02  0.20100021245E-01  0.51100000000E-03 0.  1.
</event>
<event>
 8    1  0.1213322E+005  0.1043930E+01  0.7957747E-01            NaN
         13   -1    0    0    0    0  0.00000000000E+00  0.00000000000E+00  0.74505805969E-08  0.10566000000E+00  0.10566000000E+00 0.  1.
     999900   -1    0    0    0    0 -0.00000000000E+00 -0.00000000000E+00 -0.74505805969E-08  0.93827000000E+00  0.93827000000E+00 0.  1.
     999902    2    1    2    0    0  0.64181588910E-02 -0.25186369907E-01 -0.28282554794E-02  0.10177853061E+01  0.10174494504E+01 0.  0.
     999903    2    3    3    0    0 -0.58678335300E-02  0.88680805709E-01 -0.86769407104E-01  0.12640278646E+00  0.23452454982E-01 0.  0.
         14    1    1    2    0    0 -0.64181588910E-02  0.25186369907E-01  0.28282554794E-02  0.26144693949E-01  0.00000000000E+00 0. -1.
     999901    1    3    3    0    0  0.12285992421E-01 -0.11386717562E+00  0.83941151625E-01  0.89138251959E+00  0.88000000000E+00 0. -1.
        -11    1    4    4    0    0 -0.13330447587E-01  0.61040393720E-01 -0.51479434309E-01  0.80956925436E-01  0.51100000000E-03 0.  1.
         11    1    4    4    0    0  0.74626140574E-02  0.27640411990E-01 -0.35289972795E-01  0.45445861026E-01  0.51100000000E-03 0. -1.
</event>
<event>
 8    1  0.1213322E+005  0.1043930E+01  0.7957747E-01            NaN
         13   -1    0    0    0    0  0.00000000000E+00  0.00000000000E+00  0.74505805969E-08  0.10566000000E+00  0.10566000000E+00 0. -1.
     999900   -1    0    0    0    0 -0.00000000000E+00 -0.00000000000E+00 -0.74505805969E-08  0.93827000000E+00  0.93827000000E+00 0.  1.
     999902    2    1    2    0    0 -0.66449502806E-02  0.21732066415E-01 -0.35308153388E-02  0.10209320711E+01  0.10206730079E+01 0.  0.
     999903    2    3    3    0    0 -0.27560007030E-01  0.10715433543E+00 -0.72709555342E-01  0.13384689952E+00  0.19664879457E-01 0.  0.
         14    1    1    2    0    0  0.66449502806E-02 -0.21732066415E-01  0.35308153388E-02  0.22997928860E-01  0.00000000000E+00 0.  1.
     999901    1    3    3    0    0  0.20915056749E-01 -0.85422269013E-01  0.69178740003E-01  0.88708517162E+00  0.88000000000E+00 0. -1.
        -11    1    4    4    0    0 -0.16272854715E-01  0.91378434750E-01 -0.62720848619E-01  0.11202227506E+00  0.51100000000E-03 0. -1.
         11    1    4    4    0    0 -0.11287152315E-01  0.15775900678E-01 -0.99887067227E-02  0.21824624454E-01  0.51100000000E-03 0.  1.
</event>
<event>
 8    1  0.1213322E+005  0.1043930E+01  0.7957747E-01            NaN
         13   -1    0    0    0    0  0.00000000000E+00  0.00000000000E+00  0.74505805969E-08  0.10566000000E+00  0.10566000000E+00 0. -1.
     999900   -1    0    0    0    0 -0.00000000000E+00 -0.00000000000E+00 -0.74505805969E-08  0.93827000000E+00  0.93827000000E+00 0. -1.
     999902    2    1    2    0    0  0.77126964920E-03 -0.20080320335E-01  0.12671340600E-01  0.10201733800E+01  0.10198967341E+01 0.  0.
     999903    2    3    3    0    0 -0.97641406838E-01  0.53654200920E-01  0.64171834343E-01  0.13013173188E+00  0.20090438353E-01 0.  0.
         14    1    1    2    0    0 -0.77126964920E-03  0.20080320335E-01 -0.12671340600E-01  0.23756620009E-01  0.00000000000E+00 0.  1.
     999901    1    3    3    0    0  0.98412676487E-01 -0.73734521255E-01 -0.51500493743E-01  0.89004164811E+00  0.88000000000E+00 0. -1.
        -11    1    4    4    0    0 -0.38631805206E-01  0.14019086734E-01  0.15252199475E-01  0.43838817002E-01  0.51100000000E-03 0. -1.
         11    1    4    4    0    0 -0.59009601632E-01  0.39635114187E-01  0.48919634868E-01  0.86292914877E-01  0.51100000000E-03 0.  1.
</event>
<event>
 8    1  0.1213322E+005  0.1043930E+01  0.7957747E-01            NaN
         13   -1    0    0    0    0  0.00000000000E+00  0.00000000000E+00  0.74505805969E-08  0.10566000000E+00  0.10566000000E+00 0.  1.
     999900   -1    0    0    0    0 -0.00000000000E+00 -0.00000000000E+00 -0.74505805969E-08  0.93827000000E+00  0.93827000000E+00 0.  1.
     999902    2    1    2    0    0  0.11921065078E-01  0.91098373111E-02 -0.18441348068E-01  0.10201563960E+01  0.10198793498E+01 0.  0.
     999903    2    3    3    0    0  0.72308808657E-01 -0.74462648042E-01  0.74267247655E-01  0.12929954802E+00  0.20724364418E-01 0.  0.
         14    1    1    2    0    0 -0.11921065078E-01 -0.91098373111E-02  0.18441348068E-01  0.23773603997E-01  0.00000000000E+00 0.  1.
     999901    1    3    3    0    0 -0.60387743579E-01  0.83572485353E-01 -0.92708595722E-01  0.89085684799E+00  0.88000000000E+00 0.  1.
        -11    1    4    4    0    0  0.47873492194E-01 -0.47180363078E-01  0.59629265019E-01  0.89854150059E-01  0.51100000000E-03 0. -1.
         11    1    4    4    0    0  0.24435316463E-01 -0.27282284964E-01  0.14637982635E-01  0.39445397959E-01  0.51100000000E-03 0.  1.
</event>
<event>
 8    1  0.1213322E+005  0.1043930E+01  0.7957747E-01            NaN
         13   -1    0    0    0    0  0.00000000000E+00  0.00000000000E+00  0.74505805969E-08  0.10566000000E+00  0.10566000000E+00 0.  1.
     999900   -1    0    0    0    0 -0.00000000000E+00 -0.00000000000E+00 -0.74505805969E-08  0.93827000000E+00  0.93827000000E+00 0. -1.
     999902    2    1    2    0    0  0.17203603394E-01  0.84831794617E-02 -0.13930088287E-01  0.10202239741E+01  0.10199485191E+01 0.  0.
     999903    2    3    3    0    0  0.35622798349E-03  0.58754395396E-01  0.11359690911E+00  0.12945230625E+00  0.20035866776E-01 0.  0.
         14    1    1    2    0    0 -0.17203603394E-01 -0.84831794617E-02  0.13930088287E-01  0.23706025884E-01  0.00000000000E+00 0. -1.
     999901    1    3    3    0    0  0.16847375411E-01 -0.50271215934E-01 -0.12752699740E+00  0.89077166787E+00  0.88000000000E+00 0. -1.
        -11    1    4    4    0    0  0.62687556771E-03  0.36785445105E-01  0.49392925193E-01  0.61591266626E-01  0.51100000000E-03 0.  1.
         11    1    4    4    0    0 -0.27064758422E-03  0.21968950291E-01  0.64203983916E-01  0.67861039623E-01  0.51100000000E-03 0. -1.
</event>
<event>
 8    1  0.1213322E+005  0.1043930E+01  0.7957747E-01            NaN
         13   -1    0    0    0    0  0.00000000000E+00  0.00000000000E+00  0.74505805969E-08  0.10566000000E+00  0.10566000000E+00 0. -1.
     999900   -1    0    0    0    0 -0.00000000000E+00 -0.00000000000E+00 -0.74505805969E-08  0.93827000000E+00  0.93827000000E+00 0.  1.
     999902    2    1    2    0    0  0.13949481342E-01 -0.17092906818E-01 -0.72366047396E-02  0.10207109574E+01  0.10204468308E+01 0.  0.
     999903    2    3    3    0    0  0.12441730357E+00  0.34484665314E-01  0.17749869430E-01  0.13195468616E+00  0.20691151888E-01 0.  0.
         14    1    1    2    0    0 -0.13949481342E-01  0.17092906818E-01  0.72366047396E-02  0.23219042645E-01  0.00000000000E+00 0. -1.
     999901    1    3    3    0    0 -0.11046782223E+00 -0.51577572132E-01 -0.24986474170E-01  0.88875627119E+00  0.88000000000E+00 0.  1.
        -11    1    4    4    0    0  0.81862003622E-01  0.32528930716E-01  0.10048035363E-01  0.88660831860E-01  0.51100000000E-03 0.  1.
         11    1    4    4    0    0  0.42555299945E-01  0.19557345979E-02  0.77018340674E-02  0.43293854301E-01  0.51100000000E-03 0. -1.
</event>
<event>
 8    1  0.1213322E+005  0.1043930E+01  0.7957747E-01            NaN
         13   -1    0    0    0    0  0.00000000000E+00  0.00000000000E+00  0.74505805969E-08  0.10566000000E+00  0.10566000000E+00 0.  1.
     999900   -1    0    0    0    0 -0.00000000000E+00 -0.00000000000E+00 -0.74505805969E-08  0.93827000000E+00  0.93827000000E+00 0.  1.
     999902    2    1    2    0    0 -0.18734394937E-01  0.14478394688E-01  0.21138200457E-02  0.10201588052E+01  0.10198818158E+01 0.  0.
     999903    2    3    3    0    0 -0.11298606657E+00  0.10263645563E-01  0.66171937648E-01  0.13280060012E+00  0.19648928729E-01 0.  0.
         14    1    1    2    0    0  0.18734394937E-01 -0.14478394688E-01 -0.21138200457E-02  0.23771194786E-01  0.00000000000E+00 0.  1.
     999901    1    3    3    0    0  0.94251671637E-01  0.42147491246E-02 -0.64058117602E-01  0.88735820509E+00  0.88000000000E+00 0.  1.
        -11    1    4    4    0    0 -0.25886021600E-01  0.98052723202E-02  0.20507862944E-01  0.34453781259E-01  0.51100000000E-03 0.  1.
         11    1    4    4    0    0 -0.87100044974E-01  0.45837324301E-03  0.45664074704E-01  0.98346818861E-01  0.51100000000E-03 0. -1.
</event>
<event>
 8    1  0.1213322E+005  0.1043930E+01  0.7957747E-01            NaN
         13   -1    0    0    0    0  0.00000000000E+00  0.00000000000E+00  0.74505805969E-08  0.10566000000E+00  0.10566000000E+00 0. -1.
     999900   -1    0    0    0    0 -0.00000000000E+00 -0.00000000000E+00 -0.74505805969E-08  0.93827000000E+00  0.93827000000E+00 0.  1.
     999902    2    1    2    0    0  0.25949993252E-01 -0.92319259176E-02 -0.21849359095E-03  0.10163858837E+01  0.10160125915E+01 0.  0.
     999903    2    3    3    0    0  0.73345578821E-02  0.70514384339E-01  0.10276233742E+00  0.12660441611E+00  0.21035827701E-01 0.  0.
         14    1    1    2    0    0 -0.25949993252E-01  0.92319259176E-02  0.21849359095E-03  0.27544116347E-01  0.00000000000E+00 0. -1.
     999901    1    3    3    0    0  0.18615435370E-01 -0.79746310256E-01 -0.10298083101E+00  0.88978146755E+00  0.88000000000E+00 0.  1.
        -11    1    4    4    0    0 -0.15897641997E-02  0.35233573971E-01  0.66224927396E-01  0.75032887553E-01  0.51100000000E-03 0. -1.
         11    1    4    4    0    0  0.89243220818E-02  0.35280810368E-01  0.36537410026E-01  0.51571528553E-01  0.51100000000E-03 0.  1.
</event>
<event>
 8    1  0.1213322E+005  0.1043930E+01  0.7957747E-01            NaN
         13   -1    0    0    0    0  0.00000000000E+00  0.00000000000E+00  0.74505805969E-08  0.10566000000E+00  0.10566000000E+00 0.  1.
     999900   -1    0    0    0    0 -0.00000000000E+00 -0.00000000000E+00 -0.74505805969E-08  0.93827000000E+00  0.93827000000E+00 0.  1.
     999902    2    1    2    0    0 -0.94133590499E-04  0.22284093166E-01 -0.86942428219E-02  0.10200097256E+01  0.10197292095E+01 0.  0.
     999903    2    3    3    0    0  0.93537501549E-01 -0.34127607342E-01 -0.81611672484E-01  0.13025351483E+00  0.19787755305E-01 0.  0.
         14    1    1    2    0    0  0.94133590499E-04 -0.22284093166E-01  0.86942428219E-02  0.23920274405E-01  0.00000000000E+00 0.  1.
     999901    1    3    3    0    0 -0.93631635139E-01  0.56411700508E-01  0.72917429663E-01  0.88975621077E+00  0.88000000000E+00 0. -1.
        -11    1    4    4    0    0  0.26876243528E-01 -0.60193569260E-03 -0.20835110868E-01  0.34015551718E-01  0.51100000000E-03 0. -1.
         11    1    4    4    0    0  0.66661258021E-01 -0.33525671649E-01 -0.60776561616E-01  0.96237963109E-01  0.51100000000E-03 0.  1.
</event>
<event>
 8    1  0.1213322E+005  0.1043930E+01  0.7957747E-01            NaN
         13   -1    0    0    0    0  0.00000000000E+00  0.00000000000E+00  0.74505805969E-08  0.10566000000E+00  0.10566000000E+00 0. -1.
     999900   -1    0    0    0    0 -0.00000000000E+00 -0.00000000000E+00 -0.74505805969E-08  0.93827000000E+00  0.93827000000E+00 0. -1.
     999902    2    1    2    0    0 -0.11682615838E-01  0.15162306668E-01  0.14171240686E-01  0.10201139735E+01  0.10198359259E+01 0.  0.
     999903    2    3    3    0    0 -0.50519187912E-01 -0.27961456061E-02  0.12095432908E+00  0.13262683932E+00  0.19998050111E-01 0.  0.
         14    1    1    2    0    0  0.11682615838E-01 -0.15162306668E-01 -0.14171240686E-01  0.23816026513E-01  0.00000000000E+00 0. -1.
     999901    1    3    3    0    0  0.38836572074E-01  0.17958452274E-01 -0.10678308839E+00  0.88748713416E+00  0.88000000000E+00 0. -1.
        -11    1    4    4    0    0 -0.51484614244E-01 -0.10285865799E-03  0.11508508217E+00  0.12607741012E+00  0.51100000000E-03 0.  1.
         11    1    4    4    0    0  0.96542633242E-03 -0.26932869481E-02  0.58692469146E-02  0.65494292066E-02  0.51100000000E-03 0. -1.
</event>
<event>
 8    1  0.1213322E+005  0.1043930E+01  0.7957747E-01            NaN
         13   -1    0    0    0    0  0.00000000000E+00  0.00000000000E+00  0.74505805969E-08  0.10566000000E+00  0.10566000000E+00 0. -1.
     999900   -1    0    0    0    0 -0.00000000000E+00 -0.00000000000E+00 -0.74505805969E-08  0.93827000000E+00  0.93827000000E+00 0. -1.
     999902    2    1    2    0    0 -0.15125829599E-01 -0.12064045986E-01  0.14421339280E-01  0.10197989629E+01  0.10195134220E+01 0.  0.
     999903    2    3    3    0    0 -0.91953518519E-01  0.89566856134E-01  0.15835999377E-02  0.13053176927E+00  0.23629720999E-01 0.  0.
         14    1    1    2    0    0  0.15125829599E-01  0.12064045986E-01 -0.14421339280E-01  0.24131037136E-01  0.00000000000E+00 0.  1.
     999901    1    3    3    0    0  0.76827688920E-01 -0.10163090212E+00  0.12837739342E-01  0.88926719359E+00  0.88000000000E+00 0. -1.
        -11    1    4    4    0    0 -0.58883506577E-01  0.44109079650E-01  0.77358600171E-02  0.73979611418E-01  0.51100000000E-03 0.  1.
         11    1    4    4    0    0 -0.33070011942E-01  0.45457776484E-01 -0.61522600795E-02  0.56552157853E-01  0.51100000000E-03 0. -1.
</event>
<event>
 7    1  0.1213322E+005  0.1043930E+01  0.7957747E-01            NaN
         13   -1    0    0    0    0  0.00000000000E+00  0.00000000000E+00  0.74505805969E-08  0.10566000000E+00  0.10566000000E+00 0.  1.
     999900   -1    0    0    0    0 -0.00000000000E+00 -0.00000000000E+00 -0.74505805969E-08  0.93827000000E+00  0.93827000000E+00 0.  1.
     999902    2    1    2    0    0  0.54632113942E-02 -0.16714286698E-01 -0.13212342051E-01  0.10219349996E+01  0.10216982742E+01 0.  0.
         14    1    1    2    0    0 -0.54632113942E-02  0.16714286698E-01  0.13212342051E-01  0.21995000364E-01  0.00000000000E+00 0. -1.
     999901    1    3    3    0    0  0.79619161170E-01 -0.92265093470E-01  0.48257431974E-01  0.88970828817E+00  0.88000000000E+00 0. -1.
        -11    1    3    3    0    0 -0.39639415583E-01  0.71947282712E-01 -0.39495185141E-01  0.91147273836E-01  0.51100000000E-03 0.  1.
         11    1    3    3    0    0 -0.34516534193E-01  0.36035240596E-02 -0.21974588883E-01  0.41079437629E-01  0.51100000000E-03 0. -1.
</event>
<event>
 8    1  0.1213322E+005  0.1043930E+01  0.7957747E-01            NaN
         13   -1    0    0    0    0  0.00000000000E+00  0.00000000000E+00  0.74505805969E-08  0.10566000000E+00  0.10566000000E+00 0. -1.
     999900   -1    0    0    0    0 -0.00000000000E+00 -0.00000000000E+00 -0.74505805969E-08  0.93827000000E+00  0.93827000000E+00 0. -1.
     999902    2    1    2    0    0 -0.88978601290E-03 -0.18978060633E-01 -0.12804728103E-01  0.10210188768E+01  0.10207617877E+01 0.  0.
     999903    2    3    3    0    0  0.91148485712E-01 -0.13918768651E-02 -0.93889206327E-01  0.13233726344E+00  0.19697321143E-01 0.  0.
         14    1    1    2    0    0  0.88978601290E-03  0.18978060633E-01  0.12804728103E-01  0.22911123201E-01  0.00000000000E+00 0. -1.
     999901    1    3    3    0    0 -0.92038271725E-01 -0.17586183768E-01  0.81084478224E-01  0.88868161336E+00  0.88000000000E+00 0. -1.
        -11    1    4    4    0    0  0.68167742332E-01 -0.95203201574E-02 -0.67395088219E-01  0.96331908668E-01  0.51100000000E-03 0.  1.
         11    1    4    4    0    0  0.22980743379E-01  0.81284432922E-02 -0.26494118108E-01  0.36005354768E-01  0.51100000000E-03 0. -1.
</event>
<event>
 8    1  0.1213322E+005  0.1043930E+01  0.7957747E-01            NaN
         13   -1    0    0    0    0  0.00000000000E+00  0.00000000000E+00  0.74505805969E-08  0.10566000000E+00  0.10566000000E+00 0.  1.
     999900   -1    0    0    0    0 -0.00000000000E+00 -0.00000000000E+00 -0.74505805969E-08  0.93827000000E+00  0.93827000000E+00 0.  1.
     999902    2    1    2    0    0  0.21994948995E-01  0.80683136876E-02 -0.46916515955E-02  0.10200367570E+01  0.10197568821E+01 0.  0.
     999903    2    3    3    0    0 -0.39598041453E-01 -0.34560632164E-01  0.11578353095E+00  0.12867533023E+00  0.19724917919E-01 0.  0.
         14    1    1    2    0    0 -0.21994948995E-01 -0.80683136876E-02  0.46916515955E-02  0.23893243015E-01  0.00000000000E+00 0. -1.
     999901    1    3    3    0    0  0.61592990448E-01  0.42628945852E-01 -0.12047518255E+00  0.89136142676E+00  0.88000000000E+00 0.  1.
        -11    1    4    4    0    0 -0.15248355327E-01 -0.24078928118E-01  0.72671754889E-01  0.78062489066E-01  0.51100000000E-03 0.  1.
         11    1    4    4    0    0 -0.24349686126E-01 -0.10481704045E-01  0.43111776066E-01  0.50612841164E-01  0.51100000000E-03 0. -1.
</event>
<event>
 8    1  0.1213322E+005  0.1043930E+01  0.7957747E-01            NaN
         13   -1    0    0    0    0  0.00000000000E+00  0.00000000000E+00  0.74505805969E-08  0.10566000000E+00  0.10566000000E+00 0.  1.
     999900   -1    0    0    0    0 -0.00000000000E+00 -0.00000000000E+00 -0.74505805969E-08  0.93827000000E+00  0.93827000000E+00 0. -1.
     999902    2    1    2    0    0  0.15786105578E-01 -0.14448991543E-01  0.99058345054E-02  0.10203482265E+01  0.10200756850E+01 0.  0.
     999903    2    3    3    0    0 -0.23848427186E-01 -0.12422743601E+00 -0.31334441887E-01  0.13168464363E+00  0.18915464103E-01 0.  0.
         14    1    1    2    0    0 -0.15786105578E-01  0.14448991543E-01 -0.99058345054E-02  0.23581773538E-01  0.00000000000E+00 0. -1.
     999901    1    3    3    0    0  0.39634532764E-01  0.10977844447E+00  0.41240276393E-01  0.88866358283E+00  0.88000000000E+00 0. -1.
        -11    1    4    4    0    0 -0.62581861946E-02 -0.71325140681E-01 -0.11553750504E-01  0.72527173247E-01  0.51100000000E-03 0.  1.
         11    1    4    4    0    0 -0.17590240991E-01 -0.52902295331E-01 -0.19780691383E-01  0.59157470382E-01  0.51100000000E-03 0. -1.
</event>
<event>
 8    1  0.1213322E+005  0.1043930E+01  0.7957747E-01            NaN
         13   -1    0    0    0    0  0.00000000000E+00  0.00000000000E+00  0.74505805969E-08  0.10566000000E+00  0.10566000000E+00 0.  1.
     999900   -1    0    0    0    0 -0.00000000000E+00 -0.00000000000E+00 -0.74505805969E-08  0.93827000000E+00  0.93827000000E+00 0.  1.
     999902    2    1    2    0    0 -0.98746519540E-02 -0.17548410770E-01 -0.12373255311E-01  0.10202962758E+01  0.10200225181E+01 0.  0.
     999903    2    3    3    0    0 -0.47394957064E-01  0.22516213252E-01  0.11621531479E+00  0.12925869650E+00  0.21178985228E-01 0.  0.
         14    1    1    2    0    0  0.98746519540E-02  0.17548410770E-01  0.12373255311E-01  0.23633724183E-01  0.00000000000E+00 0.  1.
     999901    1    3    3    0    0  0.37520305110E-01 -0.40064624022E-01 -0.12858857010E+00  0.89103757932E+00  0.88000000000E+00 0.  1.
        -11    1    4    4    0    0 -0.29987096664E-01  0.11961735755E-01  0.46363685710E-01  0.56499217359E-01  0.51100000000E-03 0.  1.
         11    1    4    4    0    0 -0.17407860400E-01  0.10554477497E-01  0.69851629079E-01  0.72759479142E-01  0.51100000000E-03 0. -1.
</event>
<event>
 8    1  0.1213322E+005  0.1043930E+01  0.7957747E-01            NaN
         13   -1    0    0    0    0  0.00000000000E+00  0.00000000000E+00  0.74505805969E-08  0.10566000000E+00  0.10566000000E+00 0. -1.
     999900   -1    0    0    0    0 -0.00000000000E+00 -0.00000000000E+00 -0.74505805969E-08  0.93827000000E+00  0.93827000000E+00 0.  1.
     999902    2    1    2    0    0 -0.17223497792E-01 -0.16539433096E-02 -0.16376790768E-01  0.10201059852E+01  0.10198277489E+01 0.  0.
     999903    2    3    3    0    0  0.77954161550E-01 -0.33964929752E-01 -0.97245551828E-01  0.13070026048E+00  0.19884490991E-01 0.  0.
         14    1    1    2    0    0  0.17223497792E-01  0.16539433096E-02  0.16376790768E-01  0.23824014786E-01  0.00000000000E+00 0. -1.
     999901    1    3    3    0    0 -0.95177659342E-01  0.32310986443E-01  0.80868761060E-01  0.88940572474E+00  0.88000000000E+00 0. -1.
        -11    1    4    4    0    0  0.57812407585E-01 -0.32080304027E-01 -0.65615781413E-01  0.93151018613E-01  0.51100000000E-03 0. -1.
         11    1    4    4    0    0  0.20141753965E-01 -0.18846257250E-02 -0.31629770415E-01  0.37549241862E-01  0.51100000000E-03 0.  1.
</event>
<event>
 8    1  0.1213322E+005  0.1043930E+01  0.7957747E-01            NaN
         13   -1    0    0    0    0  0.00000000000E+00  0.00000000000E+00  0.74505805969E-08  0.10566000000E+00  0.10566000000E+00 0. -1.
     999900   -1    0    0    0    0 -0.00000000000E+00 -0.00000000000E+00 -0.74505805969E-08  0.93827000000E+00  0.93827000000E+00 0. -1.
     999902    2    1    2    0    0  0.22049960501E-01  0.45257247243E-02 -0.10942600249E-01  0.10189015473E+01  0.10185940996E+01 0.  0.
     999903    2    3    3    0    0  0.12519674469E+00 -0.35648726942E-01  0.30540489644E-02  0.13185636707E+00  0.20777817671E-01 0.  0.
         14    1    1    2    0    0 -0.22049960501E-01 -0.45257247243E-02  0.10942600249E-01  0.25028452661E-01  0.00000000000E+00 0. -1.
     999901    1    3    3    0    0 -0.10314678419E+00  0.40174451667E-01 -0.13996649214E-01  0.88704518027E+00  0.88000000000E+00 0. -1.
        -11    1    4    4    0    0  0.38695021165E-01 -0.19497468380E-01  0.63560088960E-02  0.43796300144E-01  0.51100000000E-03 0.  1.
         11    1    4    4    0    0  0.86501723526E-01 -0.16151258562E-01 -0.33019599316E-02  0.88060066923E-01  0.51100000000E-03 0. -1.
</event>
<event>
 8    1  0.1213322E+005  0.1043930E+01  0.7957747E-01            NaN
         13   -1    0    0    0    0  0.00000000000E+00  0.00000000000E+00  0.74505805969E-08  0.10566000000E+00  0.10566000000E+00 0. -1.
     999900   -1    0    0    0    0 -0.00000000000E+00 -0.00000000000E+00 -0.74505805969E-08  0.93827000000E+00  0.93827000000E+00 0. -1.
     999902    2    1    2    0    0 -0.21000001002E-01 -0.69268901906E-03  0.11413829206E-01  0.10200185936E+01  0.10197382879E+01 0.  0.
     999903    2    3    3    0    0  0.19604681833E-02 -0.11344501303E+00  0.62468432579E-01  0.13106030308E+00  0.20022076751E-01 0.  0.
         14    1    1    2    0    0  0.21000001002E-01  0.69268901906E-03 -0.11413829206E-01  0.23911406426E-01  0.00000000000E+00 0. -1.
     999901    1    3    3    0    0 -0.22960469185E-01  0.11275232401E+00 -0.51054603374E-01  0.88895829050E+00  0.88000000000E+00 0. -1.
        -11    1    4    4    0    0 -0.38875453749E-02 -0.78100671094E-01  0.51328673498E-01  0.93539946966E-01  0.51100000000E-03 0. -1.
         11    1    4    4    0    0  0.58480135582E-02 -0.35344341935E-01  0.11139759081E-01  0.37520356112E-01  0.51100000000E-03 0.  1.
</event>
<event>
 8    1  0.1213322E+005  0.1043930E+01  0.7957747E-01            NaN
         13   -1    0    0    0    0  0.00000000000E+00  0.00000000000E+00  0.74505805969E-08  0.10566000000E+00  0.10566000000E+00 0. -1.
     999900   -1    0    0    0    0 -0.00000000000E+00 -0.00000000000E+00 -0.74505805969E-08  0.93827000000E+00  0.93827000000E+00 0. -1.
     999902    2    1    2    0    0  0.21628011244E-01 -0.51263454602E-02 -0.15099697260E-02  0.10216515284E+01  0.10214085937E+01 0.  0.
     999903    2    3    3    0    0 -0.75404921217E-01  0.59960898552E-01 -0.85044541747E-01  0.13000711271E+00  0.19699334380E-01 0.  0.
         14    1    1    2    0    0 -0.21628011244E-01  0.51263454602E-02  0.15099697260E-02  0.22278471597E-01  0.00000000000E+00 0.  1.
     999901    1    3    3    0    0  0.97032932461E-01 -0.65087244012E-01  0.83534572021E-01  0.89164441569E+00  0.88000000000E+00 0.  1.
        -11    1    4    4    0    0 -0.22154422786E-01  0.17396591134E-01 -0.37448923104E-01  0.46863021613E-01  0.51100000000E-03 0. -1.
         11    1    4    4    0    0 -0.53250498431E-01  0.42564307418E-01 -0.47595618643E-01  0.83144091096E-01  0.51100000000E-03 0.  1.
</event>
<event>
 8    1  0.1213322E+005  0.1043930E+01  0.7957747E-01            NaN
         13   -1    0    0    0    0  0.00000000000E+00  0.00000000000E+00  0.74505805969E-08  0.10566000000E+00  0.10566000000E+00 0.  1.
     999900   -1    0    0    0    0 -0.00000000000E+00 -0.00000000000E+00 -0.74505805969E-08  0.93827000000E+00  0.93827000000E+00 0. -1.
     999902    2    1    2    0    0  0.54188183118E-02  0.16533403156E-01  0.15653558012E-01  0.10205259215E+01  0.10202575192E+01 0.  0.
     999903    2    3    3    0    0 -0.10554415527E+00 -0.68239183615E-01  0.20771729867E-01  0.12950102362E+00  0.23300117263E-01 0.  0.
         14    1    1    2    0    0 -0.54188183118E-02 -0.16533403156E-01 -0.15653558012E-01  0.23404078496E-01  0.00000000000E+00 0. -1.
     999901    1    3    3    0    0  0.11096297358E+00  0.84772586772E-01 -0.51181718548E-02  0.89102489789E+00  0.88000000000E+00 0.  1.
        -11    1    4    4    0    0 -0.32705161939E-01 -0.95718917155E-02  0.88838796419E-02  0.35219783744E-01  0.51100000000E-03 0.  1.
         11    1    4    4    0    0 -0.72838993327E-01 -0.58667291900E-01  0.11887850225E-01  0.94281239872E-01  0.51100000000E-03 0. -1.
</event>
<event>
 8    1  0.1213322E+005  0.1043930E+01  0.7957747E-01            NaN
         13   -1    0    0    0    0  0.00000000000E+00  0.00000000000E+00  0.74505805969E-08  0.10566000000E+00  0.10566000000E+00 0. -1.
     999900   -1    0    0    0    0 -0.00000000000E+00 -0.00000000000E+00 -0.74505805969E-08  0.93827000000E+00  0.93827000000E+00 0.  1.
     999902    2    1    2    0    0  0.12667550667E-01  0.79694226469E-02  0.16600531710E-01  0.10215792463E+01  0.10213347151E+01 0.  0.
     999903    2    3    3    0    0  0.12236912940E+00 -0.33575928822E-01 -0.32015736702E-01  0.13246508370E+00  0.20504735457E-01 0.  0.
         14    1    1    2    0    0 -0.12667550667E-01 -0.79694226469E-02 -0.16600531710E-01  0.22350753684E-01  0.00000000000E+00 0.  1.
     999901    1    3    3    0    0 -0.10970157874E+00  0.41545351468E-01  0.48616268411E-01  0.88911416261E+00  0.88000000000E+00 0. -1.
        -11    1    4    4    0    0  0.61971795056E-01 -0.82336384210E-02 -0.21581245533E-01  0.66138547488E-01  0.51100000000E-03 0. -1.
         11    1    4    4    0    0  0.60397334349E-01 -0.25342290401E-01 -0.10434491169E-01  0.66326536214E-01  0.51100000000E-03 0.  1.
</event>
<event>
 8    1  0.1213322E+005  0.1043930E+01  0.7957747E-01            NaN
         13   -1    0    0    0    0  0.00000000000E+00  0.00000000000E+00  0.74505805969E-08  0.10566000000E+00  0.10566000000E+00 0.  1.
     999900   -1    0    0    0    0 -0.00000000000E+00 -0.00000000000E+00 -0.74505805969E-08  0.93827000000E+00  0.93827000000E+00 0. -1.
     999902    2    1    2    0    0  0.71300339893E-02 -0.80033819416E-02  0.19944682206E-01  0.10212875210E+01  0.10210364923E+01 0.  0.
     999903    2    3    3    0    0 -0.75612211307E-01  0.82619784908E-01 -0.59935497949E-01  0.12918905070E+00  0.23543821877E-01 0.  0.
         14    1    1    2    0    0 -0.71300339893E-02  0.80033819416E-02 -0.19944682206E-01  0.22642479005E-01  0.00000000000E+00 0. -1.
     999901    1    3    3    0    0  0.82742245296E-01 -0.90623166849E-01  0.79880180155E-01  0.89209847030E+00  0.88000000000E+00 0.  1.
        -11    1    4    4    0    0 -0.50434464556E-01  0.49301584943E-01 -0.25298410136E-01  0.74930315423E-01  0.51100000000E-03 0.  1.
         11    1    4    4    0    0 -0.25177746750E-01  0.33318199965E-01 -0.34637087813E-01  0.54258735274E-01  0.51100000000E-03 0. -1.
</event>
<event>
 8    1  0.1213322E+005  0.1043930E+01  0.7957747E-01            NaN
         13   -1    0    0    0    0  0.00000000000E+00  0.00000000000E+00  0.74505805969E-08  0.10566000000E+00  0.10566000000E+00 0. -1.
     999900   -1    0    0    0    0 -0.00000000000E+00 -0.00000000000E+00 -0.74505805969E-08  0.93827000000E+00  0.93827000000E+00 0.  1.
     999902    2    1    2    0    0 -0.11902770751E-01  0.20577029894E-01  0.85105876765E-02  0.10186808374E+01  0.10183678747E+01 0.  0.
     999903    2    3    3    0    0 -0.73215625168E-01 -0.10080718922E+00 -0.19734459986E-01  0.12778736592E+00  0.20433913229E-01 0.  0.
         14    1    1    2    0    0  0.11902770751E-01 -0.20577029894E-01 -0.85105876765E-02  0.25249162628E-01  0.00000000000E+00 0.  1.
     999901    1    3    3    0    0  0.61312854416E-01  0.12138421911E+00  0.28245047662E-01  0.89089347146E+00  0.88000000000E+00 0.  1.
        -11    1    4    4    0    0 -0.46665433794E-01 -0.78993059086E-01 -0.11672075804E-01  0.92488186108E-01  0.51100000000E-03 0. -1.
         11    1    4    4    0    0 -0.26550191373E-01 -0.21814130133E-01 -0.80623841814E-02  0.35299179808E-01  0.51100000000E-03 0.  1.
</event>
<event>
 8    1  0.1213322E+005  0.1043930E+01  0.7957747E-01            NaN
         13   -1    0    0    0    0  0.00000000000E+00  0.00000000000E+00  0.74505805969E-08  0.10566000000E+00  0.10566000000E+00 0. -1.
     999900   -1    0    0    0    0 -0.00000000000E+00 -0.00000000000E+00 -0.74505805969E-08  0.93827000000E+00  0.93827000000E+00 0.  1.
     999902    2    1    2    0    0  0.10941354692E-01  0.44545796878E-02 -0.21028268936E-01  0.10198106174E+01  0.10195253556E+01 0.  0.
     999903    2    3    3    0    0  0.74534842027E-01 -0.83629601511E-01  0.61561392463E-01  0.12929166376E+00  0.19421028605E-01 0.  0.
         14    1    1    2    0    0 -0.10941354692E-01 -0.44545796878E-02  0.21028268936E-01  0.24119382603E-01  0.00000000000E+00 0. -1.
     999901    1    3    3    0    0 -0.63593487335E-01  0.88084181199E-01 -0.82589661399E-01  0.89051895363E+00  0.88000000000E+00 0.  1.
        -11    1    4    4    0    0  0.26809932810E-01 -0.17435772820E-01  0.14873818118E-01  0.35274215193E-01  0.51100000000E-03 0. -1.
         11    1    4    4    0    0  0.47724909218E-01 -0.66193828692E-01  0.46687574346E-01  0.94017448572E-01  0.51100000000E-03 0.  1.
</event>
<event>
 8    1  0.1213322E+005  0.1043930E+01  0.7957747E-01            NaN
         13   -1    0    0    0    0  0.00000000000E+00  0.00000000000E+00  0.74505805969E-08  0.10566000000E+00  0.10566000000E+00 0. -1.
     999900   -1    0    0    0    0 -0.00000000000E+00 -0.00000000000E+00 -0.74505805969E-08  0.93827000000E+00  0.93827000000E+00 0. -1.
     999902    2    1    2    0    0  0.13409446619E-01 -0.18163536991E-01  0.87712839625E-02  0.10197088779E+01  0.10194211754E+01 0.  0.
     999903    2    3    3    0    0  0.91410321705E-01 -0.88108967556E-01  0.35604644167E-01  0.13308802938E+00  0.18047044058E-01 0.  0.
         14    1    1    2    0    0 -0.13409446619E-01  0.18163536991E-01 -0.87712839625E-02  0.24221122125E-01  0.00000000000E+00 0.  1.
     999901    1    3    3    0    0 -0.78000875086E-01  0.69945430565E-01 -0.26833360205E-01  0.88662084850E+00  0.88000000000E+00 0. -1.
        -11    1    4    4    0    0  0.71398982201E-01 -0.57958355080E-01  0.27694412611E-01  0.96042840408E-01  0.51100000000E-03 0.  1.
         11    1    4    4    0    0  0.20011339504E-01 -0.30150612477E-01  0.79102315559E-02  0.37045188969E-01  0.51100000000E-03 0. -1.
</event>
<event>
 8    1  0.1213322E+005  0.1043930E+01  0.7957747E-01            NaN
         13   -1    0    0    0    0  0.00000000000E+00  0.00000000000E+00  0.74505805969E-08  0.10566000000E+00  0.10566000000E+00 0. -1.
     999900   -1    0    0    0    0 -0.00000000000E+00 -0.00000000000E+00 -0.74505805969E-08  0.93827000000E+00  0.93827000000E+00 0. -1.
     999902    2    1    2    0    0 -0.17205626359E-01 -0.16803361625E-02 -0.15483309241E-01  0.10207224587E+01  0.10204585968E+01 0.  0.
     999903    2    3    3    0    0  0.69085961697E-01  0.53938998559E-01  0.91798223124E-01  0.12828250232E+00  0.18633329365E-01 0.  0.
         14    1    1    2    0    0  0.17205626359E-01  0.16803361625E-02  0.15483309241E-01  0.23207541298E-01  0.00000000000E+00 0.  1.
     999901    1    3    3    0    0 -0.86291588056E-01 -0.55619334721E-01 -0.10728153236E+00  0.89243995638E+00  0.88000000000E+00 0.  1.
        -11    1    4    4    0    0  0.57490070451E-01  0.46493048184E-01  0.85746401326E-01  0.11322286956E+00  0.51100000000E-03 0.  1.
         11    1    4    4    0    0  0.11595891245E-01  0.74459503743E-02  0.60518217986E-02  0.15059632759E-01  0.51100000000E-03 0. -1.
</event>
<event>
 8    1  0.1213322E+005  0.1043930E+01  0.7957747E-01            NaN
         13   -1    0    0    0    0  0.00000000000E+00  0.00000000000E+00  0.74505805969E-08  0.10566000000E+00  0.10566000000E+00 0.  1.
     999900   -1    0    0    0    0 -0.00000000000E+00 -0.00000000000E+00 -0.74505805969E-08  0.93827000000E+00  0.93827000000E+00 0.  1.
     999902    2    1    2    0    0  0.21816013202E-01  0.90825894775E-02  0.92019572743E-03  0.10202809276E+01  0.10200068101E+01 0.  0.
     999903    2    3    3    0    0 -0.10941280024E+00 -0.13316404931E-01  0.62495901300E-01  0.12814064497E+00  0.19125891285E-01 0.  0.
         14    1    1    2    0    0 -0.21816013202E-01 -0.90825894775E-02 -0.92019572743E-03  0.23649072367E-01  0.00000000000E+00 0.  1.
     999901    1    3    3    0    0  0.13122881344E+00  0.22398994409E-01 -0.61575705572E-01  0.89214028266E+00  0.88000000000E+00 0.  1.
        -11    1    4    4    0    0 -0.56274212735E-01 -0.39713274729E-02  0.42360667915E-01  0.70549597930E-01  0.51100000000E-03 0.  1.
         11    1    4    4    0    0 -0.53138587507E-01 -0.93450774582E-02  0.20135233384E-01  0.57591047042E-01  0.51100000000E-03 0. -1.
</event>
<event>
 8    1  0.1213322E+005  0.1043930E+01  0.7957747E-01            NaN
         13   -1    0    0    0    0  0.00000000000E+00  0.00000000000E+00  0.74505805969E-08  0.10566000000E+00  0.10566000000E+00 0.  1.
     999900   -1    0    0    0    0 -0.00000000000E+00 -0.00000000000E+00 -0.74505805969E-08  0.93827000000E+00  0.93827000000E+00 0. -1.
     999902    2    1    2    0    0 -0.17791030330E-01  0.10892797372E-01  0.76600717519E-02  0.10217072528E+01  0.10214655451E+01 0.  0.
     999903    2    3    3    0    0 -0.53606272755E-01  0.12016526406E+00  0.17029035937E-01  0.13417641892E+00  0.20000004098E-01 0.  0.
         14    1    1    2    0    0  0.17791030330E-01 -0.10892797372E-01 -0.76600717519E-02  0.22222747221E-01  0.00000000000E+00 0. -1.
     999901    1    3    3    0    0  0.35815242424E-01 -0.10927246669E+00 -0.93689641854E-02  0.88753083386E+00  0.88000000000E+00 0.  1.
        -11    1    4    4    0    0 -0.36485460621E-01  0.59456078515E-01  0.13062888576E-01  0.70972630556E-01  0.51100000000E-03 0. -1.
         11    1    4    4    0    0 -0.17120812134E-01  0.60709185543E-01  0.39661473614E-02  0.63203788362E-01  0.51100000000E-03 0.  1.
</event>
<event>
 8    1  0.1213322E+005  0.1043930E+01  0.7957747E-01            NaN
         13   -1    0    0    0    0  0.00000000000E+00  0.00000000000E+00  0.74505805969E-08  0.10566000000E+00  0.10566000000E+00 0. -1.
     999900   -1    0    0    0    0 -0.00000000000E+00 -0.00000000000E+00 -0.74505805969E-08  0.93827000000E+00  0.93827000000E+00 0. -1.
     999902    2    1    2    0    0 -0.13320456265E-02 -0.13969833454E-01 -0.17989902994E-01  0.10211140582E+01  0.10208591247E+01 0.  0.
     999903    2    3    3    0    0 -0.29990262052E-01 -0.31127106844E-01 -0.12534787281E+00  0.13396052067E+00  0.19105477786E-01 0.  0.
         14    1    1    2    0    0  0.13320456265E-02  0.13969833454E-01  0.17989902994E-01  0.22815941839E-01  0.00000000000E+00 0. -1.
     999901    1    3    3    0    0  0.28658216426E-01  0.17157273390E-01  0.10735796982E+00  0.88715353749E+00  0.88000000000E+00 0.  1.
        -11    1    4    4    0    0 -0.28962120551E-01 -0.23987788574E-01 -0.84700868466E-01  0.92675329335E-01  0.51100000000E-03 0.  1.
         11    1    4    4    0    0 -0.10281415010E-02 -0.71393182699E-02 -0.40647004345E-01  0.41285191335E-01  0.51100000000E-03 0. -1.
</event>
<event>
 8    1  0.1213322E+005  0.1043930E+01  0.7957747E-01            NaN
         13   -1    0    0    0    0  0.00000000000E+00  0.00000000000E+00  0.74505805969E-08  0.10566000000E+00  0.10566000000E+00 0.  1.
     999900   -1    0    0    0    0 -0.00000000000E+00 -0.00000000000E+00 -0.74505805969E-08  0.93827000000E+00  0.93827000000E+00 0.  1.
     999902    2    1    2    0    0 -0.16769843364E-01 -0.15736519087E-01  0.41133032177E-02  0.10205679594E+01  0.10203005316E+01 0.  0.
     999903    2    3    3    0    0 -0.73217991320E-02  0.10271210776E+00  0.77222915776E-01  0.12957729825E+00  0.14950306969E-01 0.  0.
         14    1    1    2    0    0  0.16769843364E-01  0.15736519087E-01 -0.41133032177E-02  0.23362040638E-01  0.00000000000E+00 0. -1.
     999901    1    3    3    0    0 -0.94480442321E-02 -0.11844862684E+00 -0.73109612558E-01  0.89099066111E+00  0.88000000000E+00 0. -1.
        -11    1    4    4    0    0 -0.86200935828E-02  0.57494594626E-01  0.50672436491E-01  0.77122573644E-01  0.51100000000E-03 0. -1.
         11    1    4    4    0    0  0.12982944508E-02  0.45217513130E-01  0.26550479285E-01  0.52454724606E-01  0.51100000000E-03 0.  1.
</event>
<event>
 8    1  0.1213322E+005  0.1043930E+01  0.7957747E-01            NaN
         13   -1    0    0    0    0  0.00000000000E+00  0.00000000000E+00  0.74505805969E-08  0.10566000000E+00  0.10566000000E+00 0.  1.
     999900   -1    0    0    0    0 -0.00000000000E+00 -0.00000000000E+00 -0.74505805969E-08  0.93827000000E+00  0.93827000000E+00 0. -1.
     999902    2    1    2    0    0  0.63771498429E-02  0.12163770434E-01 -0.23579424033E-01  0.10166423730E+01  0.10162760943E+01 0.  0.
     999903    2    3    3    0    0  0.67723222449E-01  0.16557070748E-01 -0.10830969808E+00  0.13043592916E+00  0.20541895365E-01 0.  0.
         14    1    1    2    0    0 -0.63771498429E-02 -0.12163770434E-01  0.23579424033E-01  0.27287627032E-01  0.00000000000E+00 0.  1.
     999901    1    3    3    0    0 -0.61346072606E-01 -0.43933003147E-02  0.84730274051E-01  0.88620644381E+00  0.88000000000E+00 0.  1.
        -11    1    4    4    0    0  0.56108068462E-02  0.16549620700E-02 -0.23727522732E-01  0.24443332607E-01  0.51100000000E-03 0.  1.
         11    1    4    4    0    0  0.62112415603E-01  0.14902108678E-01 -0.84582175352E-01  0.10599259655E+00  0.51100000000E-03 0. -1.
</event>
<event>
 8    1  0.1213322E+005  0.1043930E+01  0.7957747E-01            NaN
         13   -1    0    0    0    0  0.00000000000E+00  0.00000000000E+00  0.74505805969E-08  0.10566000000E+00  0.10566000000E+00 0. -1.
     999900   -1    0    0    0    0 -0.00000000000E+00 -0.00000000000E+00 -0.74505805969E-08  0.93827000000E+00  0.93827000000E+00 0.  1.
     999902    2    1    2    0    0  0.10476061033E-01 -0.19428701694E-02 -0.20781386299E-01  0.10205764432E+01  0.10203092118E+01 0.  0.
     999903    2    3    3    0    0  0.69702374669E-01  0.53405586689E-01  0.93029262682E-01  0.12955227308E+00  0.20463871082E-01 0.  0.
         14    1    1    2    0    0 -0.10476061033E-01  0.19428701694E-02  0.20781386299E-01  0.23353556812E-01  0.00000000000E+00 0.  1.
     999901    1    3    3    0    0 -0.59226313636E-01 -0.55348456859E-01 -0.11381064898E+00  0.89102417011E+00  0.88000000000E+00 0.  1.
        -11    1    4    4    0    0  0.25960236553E-01  0.32703884452E-01  0.42200646281E-01  0.59368624775E-01  0.51100000000E-03 0.  1.
         11    1    4    4    0    0  0.43742138117E-01  0.20701702238E-01  0.50828616401E-01  0.70183648301E-01  0.51100000000E-03 0. -1.
</event>
<event>
 8    1  0.1213322E+005  0.1043930E+01  0.7957747E-01            NaN
         13   -1    0    0    0    0  0.00000000000E+00  0.00000000000E+00  0.74505805969E-08  0.10566000000E+00  0.10566000000E+00 0. -1.
     999900   -1    0    0    0    0 -0.00000000000E+00 -0.00000000000E+00 -0.74505805969E-08  0.93827000000E+00  0.93827000000E+00 0.  1.
     999902    2    1    2    0    0  0.12391289053E-01 -0.13340561568E-01 -0.16197072033E-01  0.10195607618E+01  0.10192694871E+01 0.  0.
     999903    2    3    3    0    0 -0.12660625547E+00  0.50872795533E-02  0.22465730894E-02  0.12826952391E+00  0.19824210890E-01 0.  0.
         14    1    1    2    0    0 -0.12391289053E-01  0.13340561568E-01  0.16197072033E-01  0.24369238186E-01  0.00000000000E+00 0. -1.
     999901    1    3    3    0    0  0.13899754452E+00 -0.18427841122E-01 -0.18443645122E-01  0.89129123790E+00  0.88000000000E+00 0. -1.
        -11    1    4    4    0    0 -0.27506560098E-01  0.49854860831E-03 -0.76784549345E-02  0.28567099788E-01  0.51100000000E-03 0. -1.
         11    1    4    4    0    0 -0.99099695371E-01  0.45887309450E-02  0.99250280239E-02  0.99702424126E-01  0.51100000000E-03 0.  1.
</event>
<event>
 8    1  0.1213322E+005  0.1043930E+01  0.7957747E-01            NaN
         13   -1    0    0    0    0  0.00000000000E+00  0.00000000000E+00  0.74505805969E-08  0.10566000000E+00  0.10566000000E+00 0.  1.
     999900   -1    0    0    0    0 -0.00000000000E+00 -0.00000000000E+00 -0.74505805969E-08  0.93827000000E+00  0.93827000000E+00 0. -1.
     999902    2    1    2    0    0 -0.60779719898E-02  0.23388889364E-01 -0.19145176218E-03  0.10197635244E+01  0.10194771342E+01 0.  0.
     999903    2    3    3    0    0 -0.97014109943E-01 -0.68464007629E-01 -0.46702059974E-01  0.12910670354E+00  0.19707882277E-01 0.  0.
         14    1    1    2    0    0  0.60779719898E-02 -0.23388889364E-01  0.19145176218E-03  0.24166475601E-01  0.00000000000E+00 0. -1.
     999901    1    3    3    0    0  0.90936137953E-01  0.91852896993E-01  0.46510608212E-01  0.89065682086E+00  0.88000000000E+00 0. -1.
        -11    1    4    4    0    0 -0.55991998525E-01 -0.29711987285E-01 -0.18591654038E-01  0.66059191700E-01  0.51100000000E-03 0.  1.
         11    1    4    4    0    0 -0.41022111417E-01 -0.38752020344E-01 -0.28110405936E-01  0.63047511837E-01  0.51100000000E-03 0. -1.
</event>
<event>
 8    1  0.1213322E+005  0.1043930E+01  0.7957747E-01            NaN
         13   -1    0    0    0    0  0.00000000000E+00  0.00000000000E+00  0.74505805969E-08  0.10566000000E+00  0.10566000000E+00 0. -1.
     999900   -1    0    0    0    0 -0.00000000000E+00 -0.00000000000E+00 -0.74505805969E-08  0.93827000000E+00  0.93827000000E+00 0.  1.
     999902    2    1    2    0    0 -0.30393413031E-01  0.18640866556E-01 -0.62993452898E-02  0.10077233264E+01  0.10070726783E+01 0.  0.
     999903    2    3    3    0    0  0.65047258127E-01 -0.43658239023E-01  0.82974799465E-01  0.11589376131E+00  0.20232620659E-01 0.  0.
         14    1    1    2    0    0  0.30393413031E-01 -0.18640866556E-01  0.62993452898E-02  0.36206673593E-01  0.00000000000E+00 0.  1.
     999901    1    3    3    0    0 -0.95440671158E-01  0.62299105578E-01 -0.89274144755E-01  0.89182956510E+00  0.88000000000E+00 0.  1.
        -11    1    4    4    0    0  0.42628413644E-01 -0.18144292786E-01  0.40756800432E-01  0.61707170677E-01  0.51100000000E-03 0. -1.
         11    1    4    4    0    0  0.22418844483E-01 -0.25513946236E-01  0.42217999033E-01  0.54186590628E-01  0.51100000000E-03 0.  1.
</event>
<event>
 8    1  0.1213322E+005  0.1043930E+01  0.7957747E-01            NaN
         13   -1    0    0    0    0  0.00000000000E+00  0.00000000000E+00  0.74505805969E-08  0.10566000000E+00  0.10566000000E+00 0. -1.
     999900   -1    0    0    0    0 -0.00000000000E+00 -0.00000000000E+00 -0.74505805969E-08  0.93827000000E+00  0.93827000000E+00 0. -1.
     999902    2    1    2    0    0  0.18364638481E-01  0.88558561914E-02 -0.18919715960E-01  0.10161155831E+01  0.10157348258E+01 0.  0.
     999903    2    3    3    0    0 -0.30269715081E-02  0.10737871260E+00  0.62876489982E-01  0.12659044376E+00  0.23072429038E-01 0.  0.
         14    1    1    2    0    0 -0.18364638481E-01 -0.88558561914E-02  0.18919715960E-01  0.27814416899E-01  0.00000000000E+00 0. -1.
     999901    1    3    3    0    0  0.21391609989E-01 -0.98522856413E-01 -0.81796205942E-01  0.88952513934E+00  0.88000000000E+00 0. -1.
        -11    1    4    4    0    0  0.74708370836E-02  0.17000341656E-01  0.72188622083E-02  0.19929829797E-01  0.51100000000E-03 0.  1.
         11    1    4    4    0    0 -0.10497808592E-01  0.90378370949E-01  0.55657627774E-01  0.10666061396E+00  0.51100000000E-03 0. -1.
</event>
<event>
 8    1  0.1213322E+005  0.1043930E+01  0.7957747E-01            NaN
         13   -1    0    0    0    0  0.00000000000E+00  0.00000000000E+00  0.74505805969E-08  0.10566000000E+00  0.10566000000E+00 0.  1.
     999900   -1    0    0    0    0 -0.00000000000E+00 -0.00000000000E+00 -0.74505805969E-08  0.93827000000E+00  0.93827000000E+00 0. -1.
     999902    2    1    2    0    0  0.17490316004E-01  0.14075687007E-01  0.66506816122E-02  0.10205148834E+01  0.10202462250E+01 0.  0.
     999903    2    3    3    0    0  0.11463073766E+00  0.44537460774E-01  0.48227044565E-01  0.13367060445E+00  0.20449724624E-01 0.  0.
         14    1    1    2    0    0 -0.17490316004E-01 -0.14075687007E-01 -0.66506816122E-02  0.23415116582E-01  0.00000000000E+00 0. -1.
     999901    1    3    3    0    0 -0.97140421659E-01 -0.30461773767E-01 -0.41576362953E-01  0.88684427897E+00  0.88000000000E+00 0.  1.
        -11    1    4    4    0    0  0.10973904680E+00  0.45697284481E-01  0.48964379267E-01  0.12856388201E+00  0.51100000000E-03 0.  1.
         11    1    4    4    0    0  0.48916908680E-02 -0.11598237066E-02 -0.73733470230E-03  0.51067224363E-02  0.51100000000E-03 0. -1.
</event>
<event>
 8    1  0.1213322E+005  0.1043930E+01  0.7957747E-01            NaN
         13   -1    0    0    0    0  0.00000000000E+00  0.00000000000E+00  0.74505805969E-08  0.10566000000E+00  0.10566000000E+00 0.  1.
     999900   -1    0    0    0    0 -0.00000000000E+00 -0.00000000000E+00 -0.74505805969E-08  0.93827000000E+00  0.93827000000E+00 0. -1.
     999902    2    1    2    0    0  0.14025242990E-01 -0.17633137537E-01 -0.99107373030E-02  0.10193158233E+01  0.10190185916E+01 0.  0.
     999903    2    3    3    0    0 -0.89661238752E-01 -0.91565161887E-01  0.67483151773E-02  0.12999341003E+00  0.20722699845E-01 0.  0.
         14    1    1    2    0    0 -0.14025242990E-01  0.17633137537E-01  0.99107373030E-02  0.24614176692E-01  0.00000000000E+00 0. -1.
     999901    1    3    3    0    0  0.10368648174E+00  0.73932024350E-01 -0.16659052480E-01  0.88932241327E+00  0.88000000000E+00 0.  1.
        -11    1    4    4    0    0 -0.26342988415E-01 -0.36030986240E-01  0.98605078588E-02  0.45712971292E-01  0.51100000000E-03 0.  1.
         11    1    4    4    0    0 -0.63318250336E-01 -0.55534175647E-01 -0.31121926815E-02  0.84280438743E-01  0.51100000000E-03 0. -1.
</event>
<event>
 8    1  0.1213322E+005  0.1043930E+01  0.7957747E-01            NaN
         13   -1    0    0    0    0  0.00000000000E+00  0.00000000000E+00  0.74505805969E-08  0.10566000000E+00  0.10566000000E+00 0.  1.
     999900   -1    0    0    0    0 -0.00000000000E+00 -0.00000000000E+00 -0.74505805969E-08  0.93827000000E+00  0.93827000000E+00 0. -1.
     999902    2    1    2    0    0  0.17853345419E-01 -0.13446142843E-01  0.89233634234E-02  0.10198641089E+01  0.10195801261E+01 0.  0.
     999903    2    3    3    0    0 -0.10997964003E+00 -0.46269850982E-01 -0.43053356235E-01  0.12850545640E+00  0.20582529255E-01 0.  0.
         14    1    1    2    0    0 -0.17853345419E-01  0.13446142843E-01 -0.89233634234E-02  0.24065891107E-01  0.00000000000E+00 0.  1.
     999901    1    3    3    0    0  0.12783298545E+00  0.32823708139E-01  0.51976719658E-01  0.89135865249E+00  0.88000000000E+00 0. -1.
        -11    1    4    4    0    0 -0.81882406462E-01 -0.43646297085E-01 -0.31224005695E-01  0.97902642405E-01  0.51100000000E-03 0. -1.
         11    1    4    4    0    0 -0.28097233570E-01 -0.26235538968E-02 -0.11829350539E-01  0.30602813996E-01  0.51100000000E-03 0.  1.
</event>
<event>
 8    1  0.1213322E+005  0.1043930E+01  0.7957747E-01            NaN
         13   -1    0    0    0    0  0.00000000000E+00  0.00000000000E+00  0.74505805969E-08  0.10566000000E+00  0.10566000000E+00 0.  1.
     999900   -1    0    0    0    0 -0.00000000000E+00 -0.00000000000E+00 -0.74505805969E-08  0.93827000000E+00  0.93827000000E+00 0.  1.
     999902    2    1    2    0    0 -0.16513012292E-01 -0.16828866315E-01  0.40169111901E-02  0.10200129372E+01  0.10197324974E+01 0.  0.
     999903    2    3    3    0    0 -0.37664448338E-01 -0.42964739758E-01  0.11728711117E+00  0.13211620599E+00  0.20828967968E-01 0.  0.
         14    1    1    2    0    0  0.16513012292E-01  0.16828866315E-01 -0.40169111901E-02  0.23917062778E-01  0.00000000000E+00 0. -1.
     999901    1    3    3    0    0  0.21151436046E-01  0.26135873442E-01 -0.11327019998E+00  0.88789673123E+00  0.88000000000E+00 0.  1.
        -11    1    4    4    0    0 -0.26173825839E-01 -0.15322870993E-01  0.50222483944E-01  0.58672127531E-01  0.51100000000E-03 0. -1.
         11    1    4    4    0    0 -0.11490622499E-01 -0.27641868764E-01  0.67064627230E-01  0.73444078459E-01  0.51100000000E-03 0.  1.
</event>
<event>
 8    1  0.1213322E+005  0.1043930E+01  0.7957747E-01            NaN
         13   -1    0    0    0    0  0.00000000000E+00  0.00000000000E+00  0.74505805969E-08  0.10566000000E+00  0.10566000000E+00 0.  1.
     999900   -1    0    0    0    0 -0.00000000000E+00 -0.00000000000E+00 -0.74505805969E-08  0.93827000000E+00  0.93827000000E+00 0. -1.
     999902    2    1    2    0    0  0.17851004243E-01 -0.13188822264E-02  0.13472418717E-01  0.10215267889E+01  0.10212810957E+01 0.  0.
     999903    2    3    3    0    0 -0.11550305718E+00 -0.22291489916E-01 -0.49543128293E-01  0.12900557616E+00  0.18709633297E-01 0.  0.
         14    1    1    2    0    0 -0.17851004243E-01  0.13188822264E-02 -0.13472418717E-01  0.22403211129E-01  0.00000000000E+00 0. -1.
     999901    1    3    3    0    0  0.13335406143E+00  0.20972607690E-01  0.63015547010E-01  0.89252121271E+00  0.88000000000E+00 0.  1.
        -11    1    4    4    0    0 -0.35341429366E-01  0.14903852180E-02 -0.12102998503E-01  0.37389591754E-01  0.51100000000E-03 0.  1.
         11    1    4    4    0    0 -0.80161627818E-01 -0.23781875134E-01 -0.37440129789E-01  0.91615984407E-01  0.51100000000E-03 0. -1.
</event>
<event>
 8    1  0.1213322E+005  0.1043930E+01  0.7957747E-01            NaN
         13   -1    0    0    0    0  0.00000000000E+00  0.00000000000E+00  0.74505805969E-08  0.10566000000E+00  0.10566000000E+00 0.  1.
     999900   -1    0    0    0    0 -0.00000000000E+00 -0.00000000000E+00 -0.74505805969E-08  0.93827000000E+00  0.93827000000E+00 0.  1.
     999902    2    1    2    0    0  0.23681413577E-01 -0.24855617192E-02 -0.50802982878E-02  0.10195825813E+01  0.10192918342E+01 0.  0.
     999903    2    3    3    0    0  0.78567395429E-01 -0.88941880391E-02 -0.10410131556E+00  0.13230657952E+00  0.20396197654E-01 0.  0.
         14    1    1    2    0    0 -0.23681413577E-01  0.24855617192E-02  0.50802982878E-02  0.24347418687E-01  0.00000000000E+00 0.  1.
     999901    1    3    3    0    0 -0.54885981852E-01  0.64086263199E-02  0.99021017268E-01  0.88727600179E+00  0.88000000000E+00 0. -1.
        -11    1    4    4    0    0  0.68705450670E-01 -0.14016794813E-01 -0.84889911919E-01  0.11010661994E+00  0.51100000000E-03 0.  1.
         11    1    4    4    0    0  0.98619447584E-02  0.51226067735E-02 -0.19211403636E-01  0.22199959578E-01  0.51100000000E-03 0. -1.
</event>
<event>
 8    1  0.1213322E+005  0.1043930E+01  0.7957747E-01            NaN
         13   -1    0    0    0    0  0.00000000000E+00  0.00000000000E+00  0.74505805969E-08  0.10566000000E+00  0.10566000000E+00 0. -1.
     999900   -1    0    0    0    0 -0.00000000000E+00 -0.00000000000E+00 -0.74505805969E-08  0.93827000000E+00  0.93827000000E+00 0. -1.
     999902    2    1    2    0    0  0.16921199638E-01  0.12303572152E-01 -0.10088158140E-01  0.10207033812E+01  0.10204390803E+01 0.  0.
     999903    2    3    3    0    0 -0.10558008093E+00  0.10209845443E-01 -0.72671888739E-01  0.13001394558E+00  0.19262092306E-01 0.  0.
         14    1    1    2    0    0 -0.16921199638E-01 -0.12303572152E-01  0.10088158140E-01  0.23226618771E-01  0.00000000000E+00 0.  1.
     999901    1    3    3    0    0  0.12250128057E+00  0.20937267088E-02  0.62583730599E-01  0.89068943564E+00  0.88000000000E+00 0.  1.
        -11    1    4    4    0    0 -0.22740025921E-01  0.97447709571E-02 -0.20283570192E-01  0.31996151029E-01  0.51100000000E-03 0. -1.
         11    1    4    4    0    0 -0.82840055011E-01  0.46507448608E-03 -0.52388318547E-01  0.98017794556E-01  0.51100000000E-03 0.  1.
</event>
<event>
 8    1  0.1213322E+005  0.1043930E+01  0.7957747E-01            NaN
         13   -1    0    0    0    0  0.00000000000E+00  0.00000000000E+00  0.74505805969E-08  0.10566000000E+00  0.10566000000E+00 0.  1.
     999900   -1    0    0    0    0 -0.00000000000E+00 -0.00000000000E+00 -0.74505805969E-08  0.93827000000E+00  0.93827000000E+00 0.  1.
     999902    2    1    2    0    0 -0.50223421560E-02  0.23263654482E-01  0.32922694665E-02  0.10199037523E+01  0.10196207154E+01 0.  0.
     999903    2    3    3    0    0  0.11619590662E+00  0.13102243057E-01  0.53664328964E-01  0.13010913414E+00  0.19374444360E-01 0.  0.
         14    1    1    2    0    0  0.50223421560E-02 -0.23263654482E-01 -0.32922694665E-02  0.24026247706E-01  0.00000000000E+00 0.  1.
     999901    1    3    3    0    0 -0.12121824878E+00  0.10161411425E-01 -0.50372059497E-01  0.88979461815E+00  0.88000000000E+00 0. -1.
        -11    1    4    4    0    0  0.53292799606E-01  0.15683433571E-01  0.24180057149E-01  0.60589016027E-01  0.51100000000E-03 0.  1.
         11    1    4    4    0    0  0.62903107017E-01 -0.25811905139E-02  0.29484271815E-01  0.69520118112E-01  0.51100000000E-03 0. -1.
</event>
<event>
 8    1  0.1213322E+005  0.1043930E+01  0.7957747E-01            NaN
         13   -1    0    0    0    0  0.00000000000E+00  0.00000000000E+00  0.74505805969E-08  0.10566000000E+00  0.10566000000E+00 0.  1.
     999900   -1    0    0    0    0 -0.00000000000E+00 -0.00000000000E+00 -0.74505805969E-08  0.93827000000E+00  0.93827000000E+00 0.  1.
     999902    2    1    2    0    0  0.73207176605E-02 -0.17960178160E-02 -0.24266888836E-01  0.10185193628E+01  0.10182023335E+01 0.  0.
     999903    2    3    3    0    0  0.12477345720E+00  0.30113468410E-01 -0.48443666162E-02  0.12993025886E+00  0.19574669310E-01 0.  0.
         14    1    1    2    0    0 -0.73207176605E-02  0.17960178160E-02  0.24266888836E-01  0.25410637159E-01  0.00000000000E+00 0.  1.
     999901    1    3    3    0    0 -0.11745273954E+00 -0.31909486226E-01 -0.19422522219E-01  0.88858910398E+00  0.88000000000E+00 0. -1.
        -11    1    4    4    0    0  0.24612033998E-01  0.12920027101E-01  0.31965493988E-02  0.27984966801E-01  0.51100000000E-03 0.  1.
         11    1    4    4    0    0  0.10016142320E+00  0.17193441309E-01 -0.80409160150E-02  0.10194529206E+00  0.51100000000E-03 0. -1.
</event>
<event>
 8    1  0.1213322E+005  0.1043930E+01  0.7957747E-01            NaN
         13   -1    0    0    0    0  0.00000000000E+00  0.00000000000E+00  0.74505805969E-08  0.10566000000E+00  0.10566000000E+00 0.  1.
     999900   -1    0    0    0    0 -0.00000000000E+00 -0.00000000000E+00 -0.74505805969E-08  0.93827000000E+00  0.93827000000E+00 0. -1.
     999902    2    1    2    0    0 -0.11040198936E-01  0.16641273419E-01 -0.54688057430E-02  0.10232243049E+01  0.10230147860E+01 0.  0.
     999903    2    3    3    0    0 -0.11421847531E+00 -0.12282506804E-01  0.65787911379E-01  0.13386506279E+00  0.19876762235E-01 0.  0.
         14    1    1    2    0    0  0.11040198936E-01 -0.16641273419E-01  0.54688057430E-02  0.20705695106E-01  0.00000000000E+00 0.  1.
     999901    1    3    3    0    0  0.10317827637E+00  0.28923780223E-01 -0.71256717122E-01  0.88935924210E+00  0.88000000000E+00 0. -1.
        -11    1    4    4    0    0 -0.66330623807E-01  0.19713439392E-02  0.33127116522E-01  0.74170781455E-01  0.51100000000E-03 0.  1.
         11    1    4    4    0    0 -0.47887851503E-01 -0.14253850743E-01  0.32660794857E-01  0.59694281337E-01  0.51100000000E-03 0. -1.
</event>
<event>
 8    1  0.1213322E+005  0.1043930E+01  0.7957747E-01            NaN
         13   -1    0    0    0    0  0.00000000000E+00  0.00000000000E+00  0.74505805969E-08  0.10566000000E+00  0.10566000000E+00 0. -1.
     999900   -1    0    0    0    0 -0.00000000000E+00 -0.00000000000E+00 -0.74505805969E-08  0.93827000000E+00  0.93827000000E+00 0.  1.
     999902    2    1    2    0    0  0.13172843254E-01  0.17557844617E-01 -0.19338362286E-01  0.10146763855E+01  0.10142545998E+01 0.  0.
     999903    2    3    3    0    0 -0.78163407626E-01 -0.45825573624E-01 -0.84203546349E-01  0.12531298363E+00  0.20089926801E-01 0.  0.
         14    1    1    2    0    0 -0.13172843254E-01 -0.17557844617E-01  0.19338362286E-01  0.29253614527E-01  0.00000000000E+00 0.  1.
     999901    1    3    3    0    0  0.91336250880E-01  0.63383418241E-01  0.64865184063E-01  0.88936340184E+00  0.88000000000E+00 0.  1.
        -11    1    4    4    0    0 -0.53456125067E-01 -0.26565632405E-01 -0.43094269426E-01  0.73625181226E-01  0.51100000000E-03 0.  1.
         11    1    4    4    0    0 -0.24707282559E-01 -0.19259941220E-01 -0.41109276923E-01  0.51687802405E-01  0.51100000000E-03 0. -1.
</event>
<event>
 8    1  0.1213322E+005  0.1043930E+01  0.7957747E-01            NaN
         13   -1    0    0    0    0  0.00000000000E+00  0.00000000000E+00  0.74505805969E-08  0.10566000000E+00  0.10566000000E+00 0.  1.
     999900   -1    0    0    0    0 -0.00000000000E+00 -0.00000000000E+00 -0.74505805969E-08  0.93827000000E+00  0.93827000000E+00 0. -1.
     999902    2    1    2    0    0  0.16729098436E-01  0.56177813606E-02 -0.15057506794E-01  0.10207319244E+01  0.10204682801E+01 0.  0.
     999903    2    3    3    0    0 -0.21404424582E-01  0.74976987987E-01  0.10145801311E+00  0.12953007771E+00  0.20115031411E-01 0.  0.
         14    1    1    2    0    0 -0.16729098436E-01 -0.56177813606E-02  0.15057506794E-01  0.23198075626E-01  0.00000000000E+00 0.  1.
     999901    1    3    3    0    0  0.38133523018E-01 -0.69359206626E-01 -0.11651551990E+00  0.89120184667E+00  0.88000000000E+00 0. -1.
        -11    1    4    4    0    0 -0.12183644226E-01  0.65528235310E-01  0.77930692865E-01  0.10254679332E+00  0.51100000000E-03 0. -1.
         11    1    4    4    0    0 -0.92207803568E-02  0.94487526768E-02  0.23527320241E-01  0.26983284386E-01  0.51100000000E-03 0.  1.
</event>
<event>
 8    1  0.1213322E+005  0.1043930E+01  0.7957747E-01            NaN
         13   -1    0    0    0    0  0.00000000000E+00  0.00000000000E+00  0.74505805969E-08  0.10566000000E+00  0.10566000000E+00 0.  1.
     999900   -1    0    0    0    0 -0.00000000000E+00 -0.00000000000E+00 -0.74505805969E-08  0.93827000000E+00  0.93827000000E+00 0.  1.
     999902    2    1    2    0    0  0.20678870506E-01  0.21389889322E-02 -0.99559285113E-02  0.10208798054E+01  0.10206195499E+01 0.  0.
     999903    2    3    3    0    0 -0.12181090516E+00 -0.32888088828E-03  0.34489952999E-01  0.12830775623E+00  0.20864291818E-01 0.  0.
         14    1    1    2    0    0 -0.20678870506E-01 -0.21389889322E-02  0.99559285113E-02  0.23050194611E-01  0.00000000000E+00 0. -1.
     999901    1    3    3    0    0  0.14248977567E+00  0.24678698205E-02 -0.44445881510E-01  0.89257204916E+00  0.88000000000E+00 0. -1.
        -11    1    4    4    0    0 -0.70254010189E-02  0.17210814653E-04  0.76998654033E-02  0.10435784777E-01  0.51100000000E-03 0.  1.
         11    1    4    4    0    0 -0.11478550414E+00 -0.34609170294E-03  0.26790087595E-01  0.11787197146E+00  0.51100000000E-03 0. -1.
</event>
<event>
 8    1  0.1213322E+005  0.1043930E+01  0.7957747E-01            NaN
         13   -1    0    0    0    0  0.00000000000E+00  0.00000000000E+00  0.74505805969E-08  0.10566000000E+00  0.10566000000E+00 0.  1.
     999900   -1    0    0    0    0 -0.00000000000E+00 -0.00000000000E+00 -0.74505805969E-08  0.93827000000E+00  0.93827000000E+00 0.  1.
     999902    2    1    2    0    0 -0.23755436275E-01  0.32552628397E-02  0.10875864573E-02  0.10199279098E+01  0.10196454486E+01 0.  0.
     999903    2    3    3    0    0 -0.11615215171E+00  0.62033723290E-01 -0.51114700887E-02  0.13311874842E+00  0.18840617880E-01 0.  0.
         14    1    1    2    0    0  0.23755436275E-01 -0.32552628397E-02 -0.10875864573E-02  0.24002090182E-01  0.00000000000E+00 0. -1.
     999901    1    3    3    0    0  0.92396715437E-01 -0.58778460450E-01  0.61990565460E-02  0.88680916140E+00  0.88000000000E+00 0.  1.
        -11    1    4    4    0    0 -0.68277960173E-01  0.31536408650E-01  0.53366732401E-02  0.75400040571E-01  0.51100000000E-03 0.  1.
         11    1    4    4    0    0 -0.47874191540E-01  0.30497314640E-01 -0.10448143329E-01  0.57718707850E-01  0.51100000000E-03 0. -1.
</event>
<event>
 8    1  0.1213322E+005  0.1043930E+01  0.7957747E-01            NaN
         13   -1    0    0    0    0  0.00000000000E+00  0.00000000000E+00  0.74505805969E-08  0.10566000000E+00  0.10566000000E+00 0.  1.
     999900   -1    0    0    0    0 -0.00000000000E+00 -0.00000000000E+00 -0.74505805969E-08  0.93827000000E+00  0.93827000000E+00 0. -1.
     999902    2    1    2    0    0 -0.17694785128E-01 -0.11484912331E-01 -0.10280083990E-01  0.10204632414E+01  0.10201933828E+01 0.  0.
     999903    2    3    3    0    0  0.68469000812E-01 -0.10951476563E+00  0.45711512201E-03  0.13077265610E+00  0.20488793675E-01 0.  0.
         14    1    1    2    0    0  0.17694785128E-01  0.11484912331E-01  0.10280083990E-01  0.23466758591E-01  0.00000000000E+00 0.  1.
     999901    1    3    3    0    0 -0.86163785940E-01  0.98029853296E-01 -0.10737199112E-01  0.88969058531E+00  0.88000000000E+00 0. -1.
        -11    1    4    4    0    0  0.32326946634E-01 -0.70650267352E-01  0.13699391773E-03  0.77696664304E-01  0.51100000000E-03 0. -1.
         11    1    4    4    0    0  0.36142054179E-01 -0.38864498274E-01  0.32012120428E-03  0.53075991795E-01  0.51100000000E-03 0.  1.
</event>
<event>
 8    1  0.1213322E+005  0.1043930E+01  0.7957747E-01            NaN
         13   -1    0    0    0    0  0.00000000000E+00  0.00000000000E+00  0.74505805969E-08  0.10566000000E+00  0.10566000000E+00 0.  1.
     999900   -1    0    0    0    0 -0.00000000000E+00 -0.00000000000E+00 -0.74505805969E-08  0.93827000000E+00  0.93827000000E+00 0.  1.
     999902    2    1    2    0    0 -0.18090727576E-02  0.64732728921E-02  0.22425163716E-01  0.10205192338E+01  0.10202506763E+01 0.  0.
     999903    2    3    3    0    0 -0.11154958156E+00  0.27086665659E-01  0.63059620547E-01  0.13253328216E+00  0.20286905516E-01 0.  0.
         14    1    1    2    0    0  0.18090727576E-02 -0.64732728921E-02 -0.22425163716E-01  0.23410766196E-01  0.00000000000E+00 0. -1.
     999901    1    3    3    0    0  0.10974050880E+00 -0.20613392767E-01 -0.40634456831E-01  0.88798595164E+00  0.88000000000E+00 0.  1.
        -11    1    4    4    0    0 -0.63040207687E-01  0.22338914047E-01  0.44705705144E-01  0.80448468347E-01  0.51100000000E-03 0.  1.
         11    1    4    4    0    0 -0.48509373869E-01  0.47477516117E-02  0.18353915402E-01  0.52084813814E-01  0.51100000000E-03 0. -1.
</event>
<event>
 8    1  0.1213322E+005  0.1043930E+01  0.7957747E-01            NaN
         13   -1    0    0    0    0  0.00000000000E+00  0.00000000000E+00  0.74505805969E-08  0.10566000000E+00  0.10566000000E+00 0. -1.
     999900   -1    0    0    0    0 -0.00000000000E+00 -0.00000000000E+00 -0.74505805969E-08  0.93827000000E+00  0.93827000000E+00 0. -1.
     999902    2    1    2    0    0  0.14685413535E-01  0.12644800033E-01 -0.13386576427E-01  0.10203768098E+01  0.10201049364E+01 0.  0.
     999903    2    3    3    0    0  0.86061333854E-01 -0.13756540238E-01 -0.98573764090E-01  0.13299391068E+00  0.19359693354E-01 0.  0.
         14    1    1    2    0    0 -0.14685413535E-01 -0.12644800033E-01  0.13386576427E-01  0.23553190166E-01  0.00000000000E+00 0.  1.
     999901    1    3    3    0    0 -0.71375920319E-01  0.26401340271E-01  0.85187187664E-01  0.88738289915E+00  0.88000000000E+00 0.  1.
        -11    1    4    4    0    0  0.19996045737E-01  0.43762091330E-02 -0.27385617214E-01  0.34193949797E-01  0.51100000000E-03 0. -1.
         11    1    4    4    0    0  0.66065288118E-01 -0.18132749371E-01 -0.71188146876E-01  0.98799960883E-01  0.51100000000E-03 0.  1.
</event>
<event>
 8    1  0.1213322E+005  0.1043930E+01  0.7957747E-01            NaN
         13   -1    0    0    0    0  0.00000000000E+00  0.00000000000E+00  0.74505805969E-08  0.10566000000E+00  0.10566000000E+00 0.  1.
     999900   -1    0    0    0    0 -0.00000000000E+00 -0.00000000000E+00 -0.74505805969E-08  0.93827000000E+00  0.93827000000E+00 0.  1.
     999902    2    1    2    0    0 -0.13729334263E-01  0.13357772892E-01  0.12155297612E-01  0.10212435288E+01  0.10209915128E+01 0.  0.
     999903    2    3    3    0    0  0.46567506141E-01 -0.58852599758E-01  0.10588067089E+00  0.13128033153E+00  0.19790094811E-01 0.  0.
         14    1    1    2    0    0  0.13729334263E-01 -0.13357772892E-01 -0.12155297612E-01  0.22686471210E-01  0.00000000000E+00 0. -1.
     999901    1    3    3    0    0 -0.60296840404E-01  0.72210372651E-01 -0.93725373275E-01  0.88996319726E+00  0.88000000000E+00 0.  1.
        -11    1    4    4    0    0  0.28715695553E-01 -0.26796105020E-01  0.68072775805E-01  0.78592533629E-01  0.51100000000E-03 0.  1.
         11    1    4    4    0    0  0.17851810588E-01 -0.32056494739E-01  0.37807895082E-01  0.52687797901E-01  0.51100000000E-03 0. -1.
</event>
<event>
 8    1  0.1213322E+005  0.1043930E+01  0.7957747E-01            NaN
         13   -1    0    0    0    0  0.00000000000E+00  0.00000000000E+00  0.74505805969E-08  0.10566000000E+00  0.10566000000E+00 0. -1.
     999900   -1    0    0    0    0 -0.00000000000E+00 -0.00000000000E+00 -0.74505805969E-08  0.93827000000E+00  0.93827000000E+00 0.  1.
     999902    2    1    2    0    0  0.11617568220E-02  0.11868494885E-01 -0.20013169211E-01  0.10206332665E+01  0.10203673490E+01 0.  0.
     999903    2    3    3    0    0  0.75219744426E-01  0.10558074743E+00  0.13497726684E-01  0.13193221893E+00  0.20460146345E-01 0.  0.
         14    1    1    2    0    0 -0.11617568220E-02 -0.11868494885E-01  0.20013169211E-01  0.23296733497E-01  0.00000000000E+00 0. -1.
     999901    1    3    3    0    0 -0.74057987604E-01 -0.93712252543E-01 -0.33510895895E-01  0.88870104757E+00  0.88000000000E+00 0.  1.
        -11    1    4    4    0    0  0.42322146560E-01  0.75849580130E-01  0.10388921493E-01  0.87478647144E-01  0.51100000000E-03 0.  1.
         11    1    4    4    0    0  0.32897597866E-01  0.29731167298E-01  0.31088051912E-02  0.44453571791E-01  0.51100000000E-03 0. -1.
</event>
<event>
 8    1  0.1213322E+005  0.1043930E+01  0.7957747E-01            NaN
         13   -1    0    0    0    0  0.00000000000E+00  0.00000000000E+00  0.74505805969E-08  0.10566000000E+00  0.10566000000E+00 0.  1.
     999900   -1    0    0    0    0 -0.00000000000E+00 -0.00000000000E+00 -0.74505805969E-08  0.93827000000E+00  0.93827000000E+00 0.  1.
     999902    2    1    2    0    0 -0.24518809374E-01  0.57330631887E-02  0.16040750387E-01  0.10140745868E+01  0.10136350042E+01 0.  0.
     999903    2    3    3    0    0  0.25749828632E-01 -0.11293937691E+00  0.39948226004E-01  0.12436584150E+00  0.21275460997E-01 0.  0.
         14    1    1    2    0    0  0.24518809374E-01 -0.57330631887E-02 -0.16040750387E-01  0.29855413239E-01  0.00000000000E+00 0. -1.
     999901    1    3    3    0    0 -0.50268638006E-01  0.11867244009E+00 -0.23907475617E-01  0.88970874526E+00  0.88000000000E+00 0. -1.
        -11    1    4    4    0    0  0.10393053978E-01 -0.32830605361E-01  0.21932839809E-01  0.40831051939E-01  0.51100000000E-03 0.  1.
         11    1    4    4    0    0  0.15356774653E-01 -0.80108771545E-01  0.18015386195E-01  0.83534789561E-01  0.51100000000E-03 0. -1.
</event>
<event>
 8    1  0.1213322E+005  0.1043930E+01  0.7957747E-01            NaN
         13   -1    0    0    0    0  0.00000000000E+00  0.00000000000E+00  0.74505805969E-08  0.10566000000E+00  0.10566000000E+00 0.  1.
     999900   -1    0    0    0    0 -0.00000000000E+00 -0.00000000000E+00 -0.74505805969E-08  0.93827000000E+00  0.93827000000E+00 0. -1.
     999902    2    1    2    0    0  0.59090273530E-02 -0.13315127558E-01 -0.19673857264E-01  0.10194500105E+01  0.10191560499E+01 0.  0.
     999903    2    3    3    0    0 -0.11356608563E-01  0.63883042278E-01  0.10700757783E+00  0.12686620737E+00  0.20842197856E-01 0.  0.
         14    1    1    2    0    0 -0.59090273530E-02  0.13315127558E-01  0.19673857264E-01  0.24479989497E-01  0.00000000000E+00 0.  1.
     999901    1    3    3    0    0  0.17265635916E-01 -0.77198169835E-01 -0.12668143510E+00  0.89258380313E+00  0.88000000000E+00 0. -1.
        -11    1    4    4    0    0 -0.89726774161E-02  0.30030135185E-01  0.69732761094E-01  0.76454149986E-01  0.51100000000E-03 0. -1.
         11    1    4    4    0    0 -0.23839311466E-02  0.33852907093E-01  0.37274816737E-01  0.50412057388E-01  0.51100000000E-03 0.  1.
</event>
<event>
 8    1  0.1213322E+005  0.1043930E+01  0.7957747E-01            NaN
         13   -1    0    0    0    0  0.00000000000E+00  0.00000000000E+00  0.74505805969E-08  0.10566000000E+00  0.10566000000E+00 0.  1.
     999900   -1    0    0    0    0 -0.00000000000E+00 -0.00000000000E+00 -0.74505805969E-08  0.93827000000E+00  0.93827000000E+00 0.  1.
     999902    2    1    2    0    0 -0.19482178795E-01 -0.29011327441E-02 -0.91294575975E-02  0.10222201207E+01  0.10219895579E+01 0.  0.
     999903    2    3    3    0    0  0.25398499863E-01  0.23476555353E-01  0.12459681245E+00  0.13059644841E+00  0.18298475840E-01 0.  0.
         14    1    1    2    0    0  0.19482178795E-01  0.29011327441E-02  0.91294575975E-02  0.21709879268E-01  0.00000000000E+00 0. -1.
     999901    1    3    3    0    0 -0.44880678659E-01 -0.26377688097E-01 -0.13372627005E+00  0.89162367232E+00  0.88000000000E+00 0. -1.
        -11    1    4    4    0    0  0.95129675267E-02  0.10550417032E-01  0.83224195076E-01  0.84429471263E-01  0.51100000000E-03 0. -1.
         11    1    4    4    0    0  0.15885532337E-01  0.12926138321E-01  0.41372617373E-01  0.46166977146E-01  0.51100000000E-03 0.  1.
</event>
<event>
 8    1  0.1213322E+005  0.1043930E+01  0.7957747E-01            NaN
         13   -1    0    0    0    0  0.00000000000E+00  0.00000000000E+00  0.74505805969E-08  0.10566000000E+00  0.10566000000E+00 0.  1.
     999900   -1    0    0    0    0 -0.00000000000E+00 -0.00000000000E+00 -0.74505805969E-08  0.93827000000E+00  0.93827000000E+00 0. -1.
     999902    2    1    2    0    0 -0.12862746427E-02 -0.11526193533E-01  0.21493152979E-01  0.10195074026E+01  0.10192148354E+01 0.  0.
     999903    2    3    3    0    0 -0.49280363996E-01  0.11288290167E+00  0.30293860196E-01  0.12941835758E+00  0.25696099842E-01 0.  0.
         14    1    1    2    0    0  0.12862746427E-02  0.11526193533E-01 -0.21493152979E-01  0.24422597421E-01  0.00000000000E+00 0. -1.
     999901    1    3    3    0    0  0.47994089353E-01 -0.12440909521E+00 -0.88007072170E-02  0.89008904500E+00  0.88000000000E+00 0. -1.
        -11    1    4    4    0    0 -0.85735536069E-02  0.32882516419E-01  0.19031981004E-01  0.38951805214E-01  0.51100000000E-03 0.  1.
         11    1    4    4    0    0 -0.40706810389E-01  0.80000385253E-01  0.11261879193E-01  0.90466552364E-01  0.51100000000E-03 0. -1.
</event>
<event>
 8    1  0.1213322E+005  0.1043930E+01  0.7957747E-01            NaN
         13   -1    0    0    0    0  0.00000000000E+00  0.00000000000E+00  0.74505805969E-08  0.10566000000E+00  0.10566000000E+00 0.  1.
     999900   -1    0    0    0    0 -0.00000000000E+00 -0.00000000000E+00 -0.74505805969E-08  0.93827000000E+00  0.93827000000E+00 0. -1.
     999902    2    1    2    0    0  0.23072158037E-01  0.51156904966E-03 -0.41512784486E-02  0.10204817742E+01  0.10202123466E+01 0.  0.
     999903    2    3    3    0    0  0.11653864057E+00  0.57988493955E-01 -0.21876116262E-01  0.13349037058E+00  0.19929736550E-01 0.  0.
         14    1    1    2    0    0 -0.23072158037E-01 -0.51156904966E-03  0.41512784486E-02  0.23448225778E-01  0.00000000000E+00 0.  1.
     999901    1    3    3    0    0 -0.93466482531E-01 -0.57476924906E-01  0.17724837813E-01  0.88699140364E+00  0.88000000000E+00 0. -1.
        -11    1    4    4    0    0  0.64425814363E-01  0.34168358862E-01 -0.23899285641E-02  0.72966671729E-01  0.51100000000E-03 0.  1.
         11    1    4    4    0    0  0.52112826206E-01  0.23820135093E-01 -0.19486187698E-01  0.60523698854E-01  0.51100000000E-03 0. -1.
</event>
<event>
 8    1  0.1213322E+005  0.1043930E+01  0.7957747E-01            NaN
         13   -1    0    0    0    0  0.00000000000E+00  0.00000000000E+00  0.74505805969E-08  0.10566000000E+00  0.10566000000E+00 0.  1.
     999900   -1    0    0    0    0 -0.00000000000E+00 -0.00000000000E+00 -0.74505805969E-08  0.93827000000E+00  0.93827000000E+00 0. -1.
     999902    2    1    2    0    0 -0.17090602980E-02  0.16388077425E-01 -0.17291763636E-01  0.10200449616E+01  0.10197652812E+01 0.  0.
     999903    2    3    3    0    0  0.12345545104E+00 -0.15949553457E-01  0.29444220521E-01  0.12937323226E+00  0.19360641928E-01 0.  0.
         14    1    1    2    0    0  0.17090602980E-02 -0.16388077425E-01  0.17291763636E-01  0.23885038380E-01  0.00000000000E+00 0.  1.
     999901    1    3    3    0    0 -0.12516451134E+00  0.32337630882E-01 -0.46735984157E-01  0.89067172936E+00  0.88000000000E+00 0. -1.
        -11    1    4    4    0    0  0.46127618635E-01  0.33955659537E-02  0.10016175464E-01  0.47327285587E-01  0.51100000000E-03 0. -1.
         11    1    4    4    0    0  0.77327832404E-01 -0.19345119411E-01  0.19428045056E-01  0.82045946671E-01  0.51100000000E-03 0.  1.
</event>
<event>
 8    1  0.1213322E+005  0.1043930E+01  0.7957747E-01            NaN
         13   -1    0    0    0    0  0.00000000000E+00  0.00000000000E+00  0.74505805969E-08  0.10566000000E+00  0.10566000000E+00 0.  1.
     999900   -1    0    0    0    0 -0.00000000000E+00 -0.00000000000E+00 -0.74505805969E-08  0.93827000000E+00  0.93827000000E+00 0.  1.
     999902    2    1    2    0    0 -0.88423085339E-02  0.64209521420E-02  0.20511151389E-01  0.10206894669E+01  0.10204248456E+01 0.  0.
     999903    2    3    3    0    0 -0.14924565319E-01 -0.12490184684E+00 -0.23632738628E-01  0.12982957086E+00  0.21771475400E-01 0.  0.
         14    1    1    2    0    0  0.88423085339E-02 -0.64209521420E-02 -0.20511151389E-01  0.23240533082E-01  0.00000000000E+00 0. -1.
     999901    1    3    3    0    0  0.60822567847E-02  0.13132279898E+00  0.44143890017E-01  0.89085989606E+00  0.88000000000E+00 0. -1.
        -11    1    4    4    0    0 -0.15299263339E-01 -0.77385801874E-01 -0.58895411374E-02  0.79104851977E-01  0.51100000000E-03 0.  1.
         11    1    4    4    0    0  0.37469802017E-03 -0.47516044963E-01 -0.17743197490E-01  0.50724718883E-01  0.51100000000E-03 0. -1.
</event>
<event>
 8    1  0.1213322E+005  0.1043930E+01  0.7957747E-01            NaN
         13   -1    0    0    0    0  0.00000000000E+00  0.00000000000E+00  0.74505805969E-08  0.10566000000E+00  0.10566000000E+00 0. -1.
     999900   -1    0    0    0    0 -0.00000000000E+00 -0.00000000000E+00 -0.74505805969E-08  0.93827000000E+00  0.93827000000E+00 0.  1.
     999902    2    1    2    0    0 -0.21740564475E-01  0.26641349795E-02  0.92556217516E-02  0.10201515162E+01  0.10198743548E+01 0.  0.
     999903    2    3    3    0    0  0.78040114317E-01 -0.97191269113E-01 -0.22954507293E-01  0.12831925729E+00  0.20062904849E-01 0.  0.
         14    1    1    2    0    0  0.21740564475E-01 -0.26641349795E-02 -0.92556217516E-02  0.23778483822E-01  0.00000000000E+00 0.  1.
     999901    1    3    3    0    0 -0.99780678792E-01  0.99855404092E-01  0.32210129045E-01  0.89183225889E+00  0.88000000000E+00 0.  1.
        -11    1    4    4    0    0  0.36061368560E-01 -0.34778586099E-01 -0.15980316262E-02  0.50127708701E-01  0.51100000000E-03 0.  1.
         11    1    4    4    0    0  0.41978745757E-01 -0.62412683014E-01 -0.21356475667E-01  0.78191548586E-01  0.51100000000E-03 0. -1.
</event>
<event>
 8    1  0.1213322E+005  0.1043930E+01  0.7957747E-01            NaN
         13   -1    0    0    0    0  0.00000000000E+00  0.00000000000E+00  0.74505805969E-08  0.10566000000E+00  0.10566000000E+00 0.  1.
     999900   -1    0    0    0    0 -0.00000000000E+00 -0.00000000000E+00 -0.74505805969E-08  0.93827000000E+00  0.93827000000E+00 0.  1.
     999902    2    1    2    0    0 -0.12373557839E-01  0.18311542232E-02 -0.22850059251E-01  0.10178803692E+01  0.10175469830E+01 0.  0.
     999903    2    3    3    0    0  0.11709873962E+00 -0.44373559433E-01  0.20170512071E-02  0.12686054639E+00  0.20208961840E-01 0.  0.
         14    1    1    2    0    0  0.12373557839E-01 -0.18311542232E-02  0.22850059251E-01  0.26049630845E-01  0.00000000000E+00 0.  1.
     999901    1    3    3    0    0 -0.12947229746E+00  0.46204713656E-01 -0.24867110459E-01  0.89101982276E+00  0.88000000000E+00 0. -1.
        -11    1    4    4    0    0  0.93503011724E-01 -0.31217286629E-01 -0.57514276174E-02  0.98745492184E-01  0.51100000000E-03 0. -1.
         11    1    4    4    0    0  0.23595727893E-01 -0.13156272804E-01  0.77684788245E-02  0.28115054209E-01  0.51100000000E-03 0.  1.
</event>
<event>
 8    1  0.1213322E+005  0.1043930E+01  0.7957747E-01            NaN
         13   -1    0    0    0    0  0.00000000000E+00  0.00000000000E+00  0.74505805969E-08  0.10566000000E+00  0.10566000000E+00 0. -1.
     999900   -1    0    0    0    0 -0.00000000000E+00 -0.00000000000E+00 -0.74505805969E-08  0.93827000000E+00  0.93827000000E+00 0.  1.
     999902    2    1    2    0    0 -0.67704915786E-02 -0.20698335860E-01  0.12813217777E-01  0.10186626453E+01  0.10183492258E+01 0.  0.
     999903    2    3    3    0    0 -0.12472997716E+00 -0.31954421715E-01 -0.40372644918E-02  0.13056069256E+00  0.21240119324E-01 0.  0.
         14    1    1    2    0    0  0.67704915786E-02  0.20698335860E-01 -0.12813217777E-01  0.25267354697E-01  0.00000000000E+00 0.  1.
     999901    1    3    3    0    0  0.11795948558E+00  0.11256085855E-01  0.16850482269E-01  0.88810195274E+00  0.88000000000E+00 0.  1.
        -11    1    4    4    0    0 -0.47337887126E-01 -0.11693378809E-01  0.87530945687E-02  0.49542794138E-01  0.51100000000E-03 0. -1.
         11    1    4    4    0    0 -0.77392090033E-01 -0.20261042906E-01 -0.12790359061E-01  0.81017898425E-01  0.51100000000E-03 0.  1.
</event>
<event>
 8    1  0.1213322E+005  0.1043930E+01  0.7957747E-01            NaN
         13   -1    0    0    0    0  0.00000000000E+00  0.00000000000E+00  0.74505805969E-08  0.10566000000E+00  0.10566000000E+00 0. -1.
     999900   -1    0    0    0    0 -0.00000000000E+00 -0.00000000000E+00 -0.74505805969E-08  0.93827000000E+00  0.93827000000E+00 0.  1.
     999902    2    1    2    0    0  0.62427372016E-02  0.10200435927E-01 -0.21898994784E-01  0.10189783140E+01  0.10186727727E+01 0.  0.
     999903    2    3    3    0    0  0.54967130181E-01 -0.35657553290E-01  0.10699071264E+00  0.12707608937E+00  0.20210724696E-01 0.  0.
         14    1    1    2    0    0 -0.62427372016E-02 -0.10200435927E-01  0.21898994784E-01  0.24951685983E-01  0.00000000000E+00 0. -1.
     999901    1    3    3    0    0 -0.48724392980E-01  0.45857989217E-01 -0.12888970742E+00  0.89190222464E+00  0.88000000000E+00 0.  1.
        -11    1    4    4    0    0  0.44070819375E-01 -0.25163478553E-01  0.65170170721E-01  0.82600545072E-01  0.51100000000E-03 0. -1.
         11    1    4    4    0    0  0.10896310806E-01 -0.10494074737E-01  0.41820541916E-01  0.44475544301E-01  0.51100000000E-03 0.  1.
</event>
<event>
 8    1  0.1213322E+005  0.1043930E+01  0.7957747E-01            NaN
         13   -1    0    0    0    0  0.00000000000E+00  0.00000000000E+00  0.74505805969E-08  0.10566000000E+00  0.10566000000E+00 0.  1.
     999900   -1    0    0    0    0 -0.00000000000E+00 -0.00000000000E+00 -0.74505805969E-08  0.93827000000E+00  0.93827000000E+00 0.  1.
     999902    2    1    2    0    0 -0.11449512659E-01  0.20072631323E-01  0.15959466284E-01  0.10158460823E+01  0.10154578064E+01 0.  0.
     999903    2    3    3    0    0 -0.35534595611E-01  0.38406535425E-01  0.11688762982E+00  0.12956017052E+00  0.19630342107E-01 0.  0.
         14    1    1    2    0    0  0.11449512659E-01 -0.20072631323E-01 -0.15959466284E-01  0.28083917683E-01  0.00000000000E+00 0.  1.
     999901    1    3    3    0    0  0.24085082951E-01 -0.18333904102E-01 -0.10092816353E+00  0.88628591180E+00  0.88000000000E+00 0.  1.
        -11    1    4    4    0    0 -0.36421400790E-01  0.29967191889E-01  0.94618796392E-01  0.10572383259E+00  0.51100000000E-03 0. -1.
         11    1    4    4    0    0  0.88680517879E-03  0.84393435360E-02  0.22268833426E-01  0.23836337930E-01  0.51100000000E-03 0.  1.
</event>
<event>
 8    1  0.1213322E+005  0.1043930E+01  0.7957747E-01            NaN
         13   -1    0    0    0    0  0.00000000000E+00  0.00000000000E+00  0.74505805969E-08  0.10566000000E+00  0.10566000000E+00 0.  1.
     999900   -1    0    0    0    0 -0.00000000000E+00 -0.00000000000E+00 -0.74505805969E-08  0.93827000000E+00  0.93827000000E+00 0. -1.
     999902    2    1    2    0    0 -0.10941317608E-01 -0.19155776104E-01  0.11856512354E-01  0.10188853783E+01  0.10185775283E+01 0.  0.
     999903    2    3    3    0    0 -0.60794677779E-01  0.30248583472E-01 -0.10742078865E+00  0.12806933515E+00  0.15860615460E-01 0.  0.
         14    1    1    2    0    0  0.10941317608E-01  0.19155776104E-01 -0.11856512354E-01  0.25044621665E-01  0.00000000000E+00 0. -1.
     999901    1    3    3    0    0  0.49853360171E-01 -0.49404359577E-01  0.11927730100E+00  0.89081604319E+00  0.88000000000E+00 0.  1.
        -11    1    4    4    0    0 -0.22472428506E-01  0.30081745042E-02 -0.33123386931E-01  0.40143231554E-01  0.51100000000E-03 0. -1.
         11    1    4    4    0    0 -0.38322249273E-01  0.27240408968E-01 -0.74297401718E-01  0.87926103594E-01  0.51100000000E-03 0.  1.
</event>
<event>
 8    1  0.1213322E+005  0.1043930E+01  0.7957747E-01            NaN
         13   -1    0    0    0    0  0.00000000000E+00  0.00000000000E+00  0.74505805969E-08  0.10566000000E+00  0.10566000000E+00 0.  1.
     999900   -1    0    0    0    0 -0.00000000000E+00 -0.00000000000E+00 -0.74505805969E-08  0.93827000000E+00  0.93827000000E+00 0. -1.
     999902    2    1    2    0    0  0.12834156524E-01 -0.16979342683E-01  0.82687318759E-02  0.10210961309E+01  0.10208407922E+01 0.  0.
     999903    2    3    3    0    0 -0.89106769820E-01 -0.69030599335E-01 -0.64848967085E-01  0.13067629526E+00  0.12871112566E-01 0.  0.
         14    1    1    2    0    0 -0.12834156524E-01  0.16979342683E-01 -0.82687318759E-02  0.22833869109E-01  0.00000000000E+00 0. -1.
     999901    1    3    3    0    0  0.10194092634E+00  0.52051256651E-01  0.73117698961E-01  0.89041983563E+00  0.88000000000E+00 0.  1.
        -11    1    4    4    0    0 -0.64358877664E-01 -0.50283259235E-01 -0.53396695578E-01  0.97580425871E-01  0.51100000000E-03 0. -1.
         11    1    4    4    0    0 -0.24747892157E-01 -0.18747340100E-01 -0.11452271507E-01  0.33095869390E-01  0.51100000000E-03 0.  1.
</event>
<event>
 8    1  0.1213322E+005  0.1043930E+01  0.7957747E-01            NaN
         13   -1    0    0    0    0  0.00000000000E+00  0.00000000000E+00  0.74505805969E-08  0.10566000000E+00  0.10566000000E+00 0.  1.
     999900   -1    0    0    0    0 -0.00000000000E+00 -0.00000000000E+00 -0.74505805969E-08  0.93827000000E+00  0.93827000000E+00 0.  1.
     999902    2    1    2    0    0 -0.10325551703E-01  0.17993219847E-01  0.12290918061E-01  0.10198169404E+01  0.10195318299E+01 0.  0.
     999903    2    3    3    0    0 -0.12438962219E+00 -0.32757870690E-01  0.13537135034E-01  0.13100434008E+00  0.20809298228E-01 0.  0.
         14    1    1    2    0    0  0.10325551703E-01 -0.17993219847E-01 -0.12290918061E-01  0.24113059641E-01  0.00000000000E+00 0. -1.
     999901    1    3    3    0    0  0.11406407049E+00  0.50751090538E-01 -0.12462169739E-02  0.88881260028E+00  0.88000000000E+00 0. -1.
        -11    1    4    4    0    0 -0.10609018612E-01  0.28565652393E-02 -0.11979307521E-03  0.10999395995E-01  0.51100000000E-03 0. -1.
         11    1    4    4    0    0 -0.11378060358E+00 -0.35614435930E-01  0.13656928110E-01  0.12000494408E+00  0.51100000000E-03 0.  1.
</event>
<event>
 8    1  0.1213322E+005  0.1043930E+01  0.7957747E-01            NaN
         13   -1    0    0    0    0  0.00000000000E+00  0.00000000000E+00  0.74505805969E-08  0.10566000000E+00  0.10566000000E+00 0.  1.
     999900   -1    0    0    0    0 -0.00000000000E+00 -0.00000000000E+00 -0.74505805969E-08  0.93827000000E+00  0.93827000000E+00 0.  1.
     999902    2    1    2    0    0  0.16956805992E-01  0.62969344474E-02  0.15242493692E-01  0.10202758615E+01  0.10200016252E+01 0.  0.
     999903    2    3    3    0    0 -0.14026783186E-01  0.51462801356E-01 -0.11566546749E+00  0.12890790572E+00  0.19838780656E-01 0.  0.
         14    1    1    2    0    0 -0.16956805992E-01 -0.62969344474E-02 -0.15242493692E-01  0.23654138472E-01  0.00000000000E+00 0. -1.
     999901    1    3    3    0    0  0.30983589178E-01 -0.45165866909E-01  0.13090796119E+00  0.89136795580E+00  0.88000000000E+00 0. -1.
        -11    1    4    4    0    0 -0.71672939065E-02  0.43403507683E-02 -0.10353131881E-01  0.13328811180E-01  0.51100000000E-03 0. -1.
         11    1    4    4    0    0 -0.68594892798E-02  0.47122450588E-01 -0.10531233561E+00  0.11557909454E+00  0.51100000000E-03 0.  1.
</event>
<event>
 8    1  0.1213322E+005  0.1043930E+01  0.7957747E-01            NaN
         13   -1    0    0    0    0  0.00000000000E+00  0.00000000000E+00  0.74505805969E-08  0.10566000000E+00  0.10566000000E+00 0. -1.
     999900   -1    0    0    0    0 -0.00000000000E+00 -0.00000000000E+00 -0.74505805969E-08  0.93827000000E+00  0.93827000000E+00 0. -1.
     999902    2    1    2    0    0 -0.99458814336E-02 -0.18734554869E-01 -0.94540415968E-02  0.10207075323E+01  0.10204433269E+01 0.  0.
     999903    2    3    3    0    0 -0.43584214938E-01  0.58370620752E-01  0.10498568290E+00  0.12931917915E+00  0.19868148433E-01 0.  0.
         14    1    1    2    0    0  0.99458814336E-02  0.18734554869E-01  0.94540415968E-02  0.23222467701E-01  0.00000000000E+00 0. -1.
     999901    1    3    3    0    0  0.33638333504E-01 -0.77105175621E-01 -0.11443972450E+00  0.89138835315E+00  0.88000000000E+00 0. -1.
        -11    1    4    4    0    0 -0.22920092013E-01  0.16911545149E-01  0.31711469431E-01  0.42628739035E-01  0.51100000000E-03 0. -1.
         11    1    4    4    0    0 -0.20664122925E-01  0.41459075603E-01  0.73274213472E-01  0.86690440113E-01  0.51100000000E-03 0.  1.
</event>
<event>
 8    1  0.1213322E+005  0.1043930E+01  0.7957747E-01            NaN
         13   -1    0    0    0    0  0.00000000000E+00  0.00000000000E+00  0.74505805969E-08  0.10566000000E+00  0.10566000000E+00 0.  1.
     999900   -1    0    0    0    0 -0.00000000000E+00 -0.00000000000E+00 -0.74505805969E-08  0.93827000000E+00  0.93827000000E+00 0.  1.
     999902    2    1    2    0    0  0.23445177174E-01  0.27122188226E-02  0.42252507790E-02  0.10199532361E+01  0.10196713777E+01 0.  0.
     999903    2    3    3    0    0  0.74170286524E-01 -0.10478474848E+00 -0.16879836263E-01  0.13171111853E+00  0.24120840709E-01 0.  0.
         14    1    1    2    0    0 -0.23445177174E-01 -0.27122188226E-02 -0.42252507790E-02  0.23976763914E-01  0.00000000000E+00 0. -1.
     999901    1    3    3    0    0 -0.50725109350E-01  0.10749696730E+00  0.21105087042E-01  0.88824211755E+00  0.88000000000E+00 0. -1.
        -11    1    4    4    0    0  0.26618469546E-01 -0.54139260304E-01 -0.49732732762E-03  0.60333331440E-01  0.51100000000E-03 0.  1.
         11    1    4    4    0    0  0.47551816978E-01 -0.50645488172E-01 -0.16382508935E-01  0.71377787092E-01  0.51100000000E-03 0. -1.
</event>
<event>
 8    1  0.1213322E+005  0.1043930E+01  0.7957747E-01            NaN
         13   -1    0    0    0    0  0.00000000000E+00  0.00000000000E+00  0.74505805969E-08  0.10566000000E+00  0.10566000000E+00 0. -1.
     999900   -1    0    0    0    0 -0.00000000000E+00 -0.00000000000E+00 -0.74505805969E-08  0.93827000000E+00  0.93827000000E+00 0.  1.
     999902    2    1    2    0    0  0.22524809342E-01 -0.42799096589E-02 -0.37113928211E-02  0.10207037412E+01  0.10204394485E+01 0.  0.
     999903    2    3    3    0    0 -0.10187833359E+00 -0.70142374538E-01  0.30039027261E-01  0.12887803112E+00  0.20200400606E-01 0.  0.
         14    1    1    2    0    0 -0.22524809342E-01  0.42799096589E-02  0.37113928211E-02  0.23226258830E-01  0.00000000000E+00 0.  1.
     999901    1    3    3    0    0  0.12440314294E+00  0.65862464879E-01 -0.33750420082E-01  0.89182571005E+00  0.88000000000E+00 0. -1.
        -11    1    4    4    0    0 -0.53037692318E-01 -0.29228514282E-01  0.63121261992E-02  0.60888479302E-01  0.51100000000E-03 0.  1.
         11    1    4    4    0    0 -0.48840641276E-01 -0.40913860256E-01  0.23726901062E-01  0.67989551817E-01  0.51100000000E-03 0. -1.
</event>
<event>
 8    1  0.1213322E+005  0.1043930E+01  0.7957747E-01            NaN
         13   -1    0    0    0    0  0.00000000000E+00  0.00000000000E+00  0.74505805969E-08  0.10566000000E+00  0.10566000000E+00 0. -1.
     999900   -1    0    0    0    0 -0.00000000000E+00 -0.00000000000E+00 -0.74505805969E-08  0.93827000000E+00  0.93827000000E+00 0. -1.
     999902    2    1    2    0    0 -0.12553100351E-01 -0.37030689573E-02  0.19421246873E-01  0.10205103954E+01  0.10202416328E+01 0.  0.
     999903    2    3    3    0    0 -0.59525614622E-01  0.11285980089E+00  0.24722237315E-01  0.13156640382E+00  0.20442508225E-01 0.  0.
         14    1    1    2    0    0  0.12553100351E-01  0.37030689573E-02 -0.19421246873E-01  0.23419604570E-01  0.00000000000E+00 0.  1.
     999901    1    3    3    0    0  0.46972514271E-01 -0.11656286985E+00 -0.53009904422E-02  0.88894399161E+00  0.88000000000E+00 0.  1.
        -11    1    4    4    0    0 -0.17598013384E-01  0.39519706108E-01  0.17867781081E-01  0.46808289519E-01  0.51100000000E-03 0. -1.
         11    1    4    4    0    0 -0.41927601238E-01  0.73340094782E-01  0.68544562346E-02  0.84758114298E-01  0.51100000000E-03 0.  1.
</event>
<event>
 8    1  0.1213322E+005  0.1043930E+01  0.7957747E-01            NaN
         13   -1    0    0    0    0  0.00000000000E+00  0.00000000000E+00  0.74505805969E-08  0.10566000000E+00  0.10566000000E+00 0.  1.
     999900   -1    0    0    0    0 -0.00000000000E+00 -0.00000000000E+00 -0.74505805969E-08  0.93827000000E+00  0.93827000000E+00 0. -1.
     999902    2    1    2    0    0 -0.63989605089E-02 -0.19849629512E-01 -0.23042321159E-01  0.10128510191E+01  0.10123740830E+01 0.  0.
     999903    2    3    3    0    0  0.57604783372E-02  0.11210987535E+00 -0.44892734459E-01  0.12266081281E+00  0.20700486231E-01 0.  0.
         14    1    1    2    0    0  0.63989605089E-02  0.19849629512E-01  0.23042321159E-01  0.31078980868E-01  0.00000000000E+00 0.  1.
     999901    1    3    3    0    0 -0.12159438846E-01 -0.13195950486E+00  0.21850413300E-01  0.89019020633E+00  0.88000000000E+00 0.  1.
        -11    1    4    4    0    0 -0.54637070182E-02  0.11895376940E-01 -0.75909007947E-02  0.15140508010E-01  0.51100000000E-03 0.  1.
         11    1    4    4    0    0  0.11224185355E-01  0.10021449841E+00 -0.37301833665E-01  0.10752030480E+00  0.51100000000E-03 0. -1.
</event>
<event>
 8    1  0.1213322E+005  0.1043930E+01  0.7957747E-01            NaN
         13   -1    0    0    0    0  0.00000000000E+00  0.00000000000E+00  0.74505805969E-08  0.10566000000E+00  0.10566000000E+00 0.  1.
     999900   -1    0    0    0    0 -0.00000000000E+00 -0.00000000000E+00 -0.74505805969E-08  0.93827000000E+00  0.93827000000E+00 0.  1.
     999902    2    1    2    0    0 -0.17000959931E-01  0.80605638528E-02  0.11601109651E-01  0.10218259037E+01  0.10215867983E+01 0.  0.
     999903    2    3    3    0    0  0.12383101351E+00 -0.33605946124E-02 -0.30604471709E-01  0.12955610218E+00  0.22421784498E-01 0.  0.
         14    1    1    2    0    0  0.17000959931E-01 -0.80605638528E-02 -0.11601109651E-01  0.22104096302E-01  0.00000000000E+00 0. -1.
     999901    1    3    3    0    0 -0.14083197344E+00  0.11421158465E-01  0.42205581359E-01  0.89226980152E+00  0.88000000000E+00 0. -1.
        -11    1    4    4    0    0  0.97732321888E-01 -0.98211808111E-02 -0.18017025727E-01  0.99864591678E-01  0.51100000000E-03 0.  1.
         11    1    4    4    0    0  0.26098691623E-01  0.64605861987E-02 -0.12587445982E-01  0.29691510501E-01  0.51100000000E-03 0. -1.
</event>
<event>
 8    1  0.1213322E+005  0.1043930E+01  0.7957747E-01            NaN
         13   -1    0    0    0    0  0.00000000000E+00  0.00000000000E+00  0.74505805969E-08  0.10566000000E+00  0.10566000000E+00 0.  1.
     999900   -1    0    0    0    0 -0.00000000000E+00 -0.00000000000E+00 -0.74505805969E-08  0.93827000000E+00  0.93827000000E+00 0.  1.
     999902    2    1    2    0    0  0.13421407257E-01  0.16740246862E-01 -0.94235223111E-02  0.10204955636E+01  0.10202264565E+01 0.  0.
     999903    2    3    3    0    0 -0.54735902400E-01 -0.11078162569E+00  0.26418232922E-01  0.12797560399E+00  0.20279166258E-01 0.  0.
         14    1    1    2    0    0 -0.13421407257E-01 -0.16740246862E-01  0.94235223111E-02  0.23434436424E-01  0.00000000000E+00 0.  1.
     999901    1    3    3    0    0  0.68157309657E-01  0.12752187255E+00 -0.35841755233E-01  0.89251995958E+00  0.88000000000E+00 0.  1.
        -11    1    4    4    0    0 -0.18916821429E-01 -0.21106740495E-01  0.22816548369E-02  0.28439544601E-01  0.51100000000E-03 0.  1.
         11    1    4    4    0    0 -0.35819080971E-01 -0.89674885195E-01  0.24136578085E-01  0.99536059390E-01  0.51100000000E-03 0. -1.
</event>
<event>
 8    1  0.1213322E+005  0.1043930E+01  0.7957747E-01            NaN
         13   -1    0    0    0    0  0.00000000000E+00  0.00000000000E+00  0.74505805969E-08  0.10566000000E+00  0.10566000000E+00 0. -1.
     999900   -1    0    0    0    0 -0.00000000000E+00 -0.00000000000E+00 -0.74505805969E-08  0.93827000000E+00  0.93827000000E+00 0. -1.
     999902    2    1    2    0    0  0.16066754756E-01  0.13460444235E-02  0.17547049789E-01  0.10201003672E+01  0.10198219981E+01 0.  0.
     999903    2    3    3    0    0 -0.86343685586E-01 -0.85648258417E-01 -0.35676428038E-01  0.12831079244E+00  0.19999893244E-01 0.  0.
         14    1    1    2    0    0 -0.16066754756E-01 -0.13460444235E-02 -0.17547049789E-01  0.23829632818E-01  0.00000000000E+00 0.  1.
     999901    1    3    3    0    0  0.10241044034E+00  0.86994302841E-01  0.53223477827E-01  0.89178957474E+00  0.88000000000E+00 0. -1.
        -11    1    4    4    0    0 -0.40057827379E-01 -0.26426608072E-01 -0.11471832942E-01  0.49344292685E-01  0.51100000000E-03 0.  1.
         11    1    4    4    0    0 -0.46285858207E-01 -0.59221650345E-01 -0.24204595096E-01  0.78966499760E-01  0.51100000000E-03 0. -1.
</event>
<event>
 8    1  0.1213322E+005  0.1043930E+01  0.7957747E-01            NaN
         13   -1    0    0    0    0  0.00000000000E+00  0.00000000000E+00  0.74505805969E-08  0.10566000000E+00  0.10566000000E+00 0. -1.
     999900   -1    0    0    0    0 -0.00000000000E+00 -0.00000000000E+00 -0.74505805969E-08  0.93827000000E+00  0.93827000000E+00 0. -1.
     999902    2    1    2    0    0 -0.46488991332E-02  0.64185354869E-02 -0.23420631972E-01  0.10192047930E+01  0.10189048406E+01 0.  0.
     999903    2    3    3    0    0  0.26540876233E-01  0.12587285135E+00 -0.98178287467E-02  0.13048257994E+00  0.19517199851E-01 0.  0.
         14    1    1    2    0    0  0.46488991332E-02 -0.64185354869E-02  0.23420631972E-01  0.24725207034E-01  0.00000000000E+00 0. -1.
     999901    1    3    3    0    0 -0.31189775366E-01 -0.11945431586E+00 -0.13602803225E-01  0.88872221302E+00  0.88000000000E+00 0. -1.
        -11    1    4    4    0    0  0.15696444771E-02  0.23372373158E-01  0.49691027378E-02  0.23951716303E-01  0.51100000000E-03 0. -1.
         11    1    4    4    0    0  0.24971231756E-01  0.10250047819E+00 -0.14786931484E-01  0.10653086364E+00  0.51100000000E-03 0.  1.
</event>
<event>
 8    1  0.1213322E+005  0.1043930E+01  0.7957747E-01            NaN
         13   -1    0    0    0    0  0.00000000000E+00  0.00000000000E+00  0.74505805969E-08  0.10566000000E+00  0.10566000000E+00 0.  1.
     999900   -1    0    0    0    0 -0.00000000000E+00 -0.00000000000E+00 -0.74505805969E-08  0.93827000000E+00  0.93827000000E+00 0.  1.
     999902    2    1    2    0    0 -0.14170350327E-01  0.12204091537E-01 -0.15361215416E-01  0.10197286443E+01  0.10194414169E+01 0.  0.
     999903    2    3    3    0    0  0.12015441162E+00 -0.85855979585E-02 -0.41264539216E-01  0.12891646710E+00  0.20146914617E-01 0.  0.
         14    1    1    2    0    0  0.14170350327E-01 -0.12204091537E-01  0.15361215416E-01  0.24201355699E-01  0.00000000000E+00 0.  1.
     999901    1    3    3    0    0 -0.13432476195E+00  0.20789689495E-01  0.25903323801E-01  0.89081217720E+00  0.88000000000E+00 0.  1.
        -11    1    4    4    0    0  0.60574274677E-01 -0.13469254338E-01 -0.16531570623E-01  0.64220070954E-01  0.51100000000E-03 0.  1.
         11    1    4    4    0    0  0.59580136945E-01  0.48836563793E-02 -0.24732968593E-01  0.64696396148E-01  0.51100000000E-03 0. -1.
</event>
<event>
 8    1  0.1213322E+005  0.1043930E+01  0.7957747E-01            NaN
         13   -1    0    0    0    0  0.00000000000E+00  0.00000000000E+00  0.74505805969E-08  0.10566000000E+00  0.10566000000E+00 0.  1.
     999900   -1    0    0    0    0 -0.00000000000E+00 -0.00000000000E+00 -0.74505805969E-08  0.93827000000E+00  0.93827000000E+00 0. -1.
     999902    2    1    2    0    0  0.32138462424E-04 -0.22034403009E-01 -0.70937534681E-02  0.10207818405E+01  0.10205193426E+01 0.  0.
     999903    2    3    3    0    0 -0.75833291150E-01 -0.10529967925E+00  0.22926164279E-01  0.13309390825E+00  0.18699436054E-01 0.  0.
         14    1    1    2    0    0 -0.32138462424E-04  0.22034403009E-01  0.70937534681E-02  0.23148159476E-01  0.00000000000E+00 0. -1.
     999901    1    3    3    0    0  0.75865429612E-01  0.83265276241E-01 -0.30019917747E-01  0.88768793227E+00  0.88000000000E+00 0. -1.
        -11    1    4    4    0    0 -0.19887484528E-01 -0.22129428343E-01 -0.19341987808E-02  0.29819890771E-01  0.51100000000E-03 0. -1.
         11    1    4    4    0    0 -0.55945806621E-01 -0.83170250908E-01  0.24860363060E-01  0.10327401748E+00  0.51100000000E-03 0.  1.
</event>
<event>
 8    1  0.1213322E+005  0.1043930E+01  0.7957747E-01            NaN
         13   -1    0    0    0    0  0.00000000000E+00  0.00000000000E+00  0.74505805969E-08  0.10566000000E+00  0.10566000000E+00 0.  1.
     999900   -1    0    0    0    0 -0.00000000000E+00 -0.00000000000E+00 -0.74505805969E-08  0.93827000000E+00  0.93827000000E+00 0. -1.
     999902    2    1    2    0    0 -0.97250155762E-02 -0.36848885517E-02 -0.12172562593E-01  0.10279198279E+01  0.10277951386E+01 0.  0.
     999903    2    3    3    0    0 -0.75818323045E-01 -0.88897265674E-01 -0.72520629948E-01  0.13928527771E+00  0.22136053494E-01 0.  0.
         14    1    1    2    0    0  0.97250155762E-02  0.36848885517E-02  0.12172562593E-01  0.16010172131E-01  0.00000000000E+00 0.  1.
     999901    1    3    3    0    0  0.66093307469E-01  0.85212377122E-01  0.60348067355E-01  0.88863455016E+00  0.88000000000E+00 0. -1.
        -11    1    4    4    0    0 -0.62102734313E-01 -0.57469173258E-01 -0.50914766271E-01  0.98752367209E-01  0.51100000000E-03 0.  1.
         11    1    4    4    0    0 -0.13715588732E-01 -0.31428092416E-01 -0.21605863677E-01  0.40532910498E-01  0.51100000000E-03 0. -1.
</event>
<event>
 8    1  0.1213322E+005  0.1043930E+01  0.7957747E-01            NaN
         13   -1    0    0    0    0  0.00000000000E+00  0.00000000000E+00  0.74505805969E-08  0.10566000000E+00  0.10566000000E+00 0.  1.
     999900   -1    0    0    0    0 -0.00000000000E+00 -0.00000000000E+00 -0.74505805969E-08  0.93827000000E+00  0.93827000000E+00 0. -1.
     999902    2    1    2    0    0  0.16828380497E-01  0.18239070899E-02  0.16614754856E-01  0.10202114185E+01  0.10199356683E+01 0.  0.
     999903    2    3    3    0    0  0.82729708531E-01 -0.55407667601E-01 -0.81553954384E-01  0.13046115378E+00  0.21327233002E-01 0.  0.
         14    1    1    2    0    0 -0.16828380497E-01 -0.18239070899E-02 -0.16614754856E-01  0.23718581453E-01  0.00000000000E+00 0. -1.
     999901    1    3    3    0    0 -0.65901328034E-01  0.57231574691E-01  0.98168709240E-01  0.88975026477E+00  0.88000000000E+00 0.  1.
        -11    1    4    4    0    0  0.26945211088E-01 -0.27864050738E-01 -0.23289871444E-01  0.45223102028E-01  0.51100000000E-03 0.  1.
         11    1    4    4    0    0  0.55784497443E-01 -0.27543616863E-01 -0.58264082939E-01  0.85238051753E-01  0.51100000000E-03 0. -1.
</event>
<event>
 8    1  0.1213322E+005  0.1043930E+01  0.7957747E-01            NaN
         13   -1    0    0    0    0  0.00000000000E+00  0.00000000000E+00  0.74505805969E-08  0.10566000000E+00  0.10566000000E+00 0.  1.
     999900   -1    0    0    0    0 -0.00000000000E+00 -0.00000000000E+00 -0.74505805969E-08  0.93827000000E+00  0.93827000000E+00 0.  1.
     999902    2    1    2    0    0  0.13165277045E-01 -0.10696732462E-02 -0.19716983408E-01  0.10201975717E+01  0.10199214955E+01 0.  0.
     999903    2    3    3    0    0  0.63483855016E-01  0.77160119557E-01  0.80639040477E-01  0.12962293059E+00  0.17764160229E-01 0.  0.
         14    1    1    2    0    0 -0.13165277045E-01  0.10696732462E-02  0.19716983408E-01  0.23732428346E-01  0.00000000000E+00 0.  1.
     999901    1    3    3    0    0 -0.50318577971E-01 -0.78229792803E-01 -0.10035602388E+00  0.89057464106E+00  0.88000000000E+00 0.  1.
        -11    1    4    4    0    0  0.27576087984E-01  0.22047667453E-01  0.22804624347E-01  0.42033942014E-01  0.51100000000E-03 0.  1.
         11    1    4    4    0    0  0.35907767032E-01  0.55112452104E-01  0.57834416130E-01  0.87588988578E-01  0.51100000000E-03 0. -1.
</event>
<event>
 8    1  0.1213322E+005  0.1043930E+01  0.7957747E-01            NaN
         13   -1    0    0    0    0  0.00000000000E+00  0.00000000000E+00  0.74505805969E-08  0.10566000000E+00  0.10566000000E+00 0.  1.
     999900   -1    0    0    0    0 -0.00000000000E+00 -0.00000000000E+00 -0.74505805969E-08  0.93827000000E+00  0.93827000000E+00 0. -1.
     999902    2    1    2    0    0 -0.16638522355E-01 -0.12744787578E-01 -0.85559408259E-02  0.10212921079E+01  0.10210411820E+01 0.  0.
     999903    2    3    3    0    0 -0.80890725121E-01 -0.10490959124E+00 -0.82058088504E-02  0.13414904208E+00  0.19475585921E-01 0.  0.
         14    1    1    2    0    0  0.16638522355E-01  0.12744787578E-01  0.85559408259E-02  0.22637892128E-01  0.00000000000E+00 0.  1.
     999901    1    3    3    0    0  0.64252202765E-01  0.92164803662E-01 -0.35013197548E-03  0.88714306579E+00  0.88000000000E+00 0. -1.
        -11    1    4    4    0    0 -0.10605715265E-01 -0.25325120447E-01  0.16718984374E-02  0.27511802692E-01  0.51100000000E-03 0. -1.
         11    1    4    4    0    0 -0.70285009856E-01 -0.79584470792E-01 -0.98777072878E-02  0.10663723939E+00  0.51100000000E-03 0.  1.
</event>
<event>
 8    1  0.1213322E+005  0.1043930E+01  0.7957747E-01            NaN
         13   -1    0    0    0    0  0.00000000000E+00  0.00000000000E+00  0.74505805969E-08  0.10566000000E+00  0.10566000000E+00 0. -1.
     999900   -1    0    0    0    0 -0.00000000000E+00 -0.00000000000E+00 -0.74505805969E-08  0.93827000000E+00  0.93827000000E+00 0.  1.
     999902    2    1    2    0    0  0.87561651429E-04  0.23790630378E-01 -0.20809124268E-02  0.10200483762E+01  0.10197687766E+01 0.  0.
     999903    2    3    3    0    0 -0.41404280995E-01  0.77808595493E-01 -0.96717761073E-01  0.13235718735E+00  0.19889889886E-01 0.  0.
         14    1    1    2    0    0 -0.87561651429E-04 -0.23790630378E-01  0.20809124268E-02  0.23881623842E-01  0.00000000000E+00 0.  1.
     999901    1    3    3    0    0  0.41491842646E-01 -0.54017965115E-01  0.94636848646E-01  0.88769118881E+00  0.88000000000E+00 0. -1.
        -11    1    4    4    0    0 -0.68421562777E-02  0.23374171705E-01 -0.38051733555E-01  0.45181440359E-01  0.51100000000E-03 0.  1.
         11    1    4    4    0    0 -0.34562124717E-01  0.54434423788E-01 -0.58666027518E-01  0.87175746993E-01  0.51100000000E-03 0. -1.
</event>
<event>
 8    1  0.1213322E+005  0.1043930E+01  0.7957747E-01            NaN
         13   -1    0    0    0    0  0.00000000000E+00  0.00000000000E+00  0.74505805969E-08  0.10566000000E+00  0.10566000000E+00 0.  1.
     999900   -1    0    0    0    0 -0.00000000000E+00 -0.00000000000E+00 -0.74505805969E-08  0.93827000000E+00  0.93827000000E+00 0. -1.
     999902    2    1    2    0    0 -0.42714796904E-02 -0.20194202038E-01 -0.11012636486E-01  0.10205349258E+01  0.10202667324E+01 0.  0.
     999903    2    3    3    0    0  0.87102465262E-01  0.79943036305E-01  0.45210088666E-01  0.12838154260E+00  0.21450870736E-01 0.  0.
         14    1    1    2    0    0  0.42714796904E-02  0.20194202038E-01  0.11012636486E-01  0.23395074205E-01  0.00000000000E+00 0. -1.
     999901    1    3    3    0    0 -0.91373944952E-01 -0.10013723834E+00 -0.56222725151E-01  0.89215338319E+00  0.88000000000E+00 0. -1.
        -11    1    4    4    0    0  0.46915643195E-01  0.29148116705E-01  0.17610339520E-01  0.57974782991E-01  0.51100000000E-03 0.  1.
         11    1    4    4    0    0  0.40186822066E-01  0.50794919599E-01  0.27599749146E-01  0.70406759610E-01  0.51100000000E-03 0. -1.
</event>
<event>
 8    1  0.1213322E+005  0.1043930E+01  0.7957747E-01            NaN
         13   -1    0    0    0    0  0.00000000000E+00  0.00000000000E+00  0.74505805969E-08  0.10566000000E+00  0.10566000000E+00 0.  1.
     999900   -1    0    0    0    0 -0.00000000000E+00 -0.00000000000E+00 -0.74505805969E-08  0.93827000000E+00  0.93827000000E+00 0.  1.
     999902    2    1    2    0    0  0.21095432600E-01 -0.15625909245E-01  0.29075676031E-02  0.10175171193E+01  0.10171742466E+01 0.  0.
     999903    2    3    3    0    0 -0.84195068353E-01 -0.49421728202E-02 -0.91651883654E-01  0.12614642111E+00  0.19990427051E-01 0.  0.
         14    1    1    2    0    0 -0.21095432600E-01  0.15625909245E-01 -0.29075676031E-02  0.26412880678E-01  0.00000000000E+00 0. -1.
     999901    1    3    3    0    0  0.10529050095E+00 -0.10683736425E-01  0.94559451257E-01  0.89137069822E+00  0.88000000000E+00 0. -1.
        -11    1    4    4    0    0 -0.29320941746E-01  0.61221064433E-02 -0.40020517506E-01  0.49991006737E-01  0.51100000000E-03 0. -1.
         11    1    4    4    0    0 -0.54874126607E-01 -0.11064279263E-01 -0.51631366147E-01  0.76155414370E-01  0.51100000000E-03 0.  1.
</event>
<event>
 8    1  0.1213322E+005  0.1043930E+01  0.7957747E-01            NaN
         13   -1    0    0    0    0  0.00000000000E+00  0.00000000000E+00  0.74505805969E-08  0.10566000000E+00  0.10566000000E+00 0.  1.
     999900   -1    0    0    0    0 -0.00000000000E+00 -0.00000000000E+00 -0.74505805969E-08  0.93827000000E+00  0.93827000000E+00 0.  1.
     999902    2    1    2    0    0  0.19761080187E-01 -0.84763302331E-02 -0.93338405492E-02  0.10204892440E+01  0.10202199900E+01 0.  0.
     999903    2    3    3    0    0 -0.10656215226E+00 -0.19797992437E-01 -0.67938840777E-01  0.12946719870E+00  0.19965386362E-01 0.  0.
         14    1    1    2    0    0 -0.19761080187E-01  0.84763302331E-02  0.93338405492E-02  0.23440756041E-01  0.00000000000E+00 0.  1.
     999901    1    3    3    0    0  0.12632323245E+00  0.11321662204E-01  0.58605000228E-01  0.89102204526E+00  0.88000000000E+00 0.  1.
        -11    1    4    4    0    0 -0.67222733162E-01 -0.20355325517E-01 -0.50038624718E-01  0.86240131119E-01  0.51100000000E-03 0. -1.
         11    1    4    4    0    0 -0.39339419102E-01  0.55733308066E-03 -0.17900216059E-01  0.43227067578E-01  0.51100000000E-03 0.  1.
</event>
<event>
 8    1  0.1213322E+005  0.1043930E+01  0.7957747E-01            NaN
         13   -1    0    0    0    0  0.00000000000E+00  0.00000000000E+00  0.74505805969E-08  0.10566000000E+00  0.10566000000E+00 0. -1.
     999900   -1    0    0    0    0 -0.00000000000E+00 -0.00000000000E+00 -0.74505805969E-08  0.93827000000E+00  0.93827000000E+00 0.  1.
     999902    2    1    2    0    0 -0.66145300209E-02 -0.16208768483E-01  0.15870122397E-01  0.10203008450E+01  0.10200271944E+01 0.  0.
     999903    2    3    3    0    0  0.31965988295E-01  0.89987541238E-01 -0.81976139494E-01  0.12769790772E+00  0.21612177239E-01 0.  0.
         14    1    1    2    0    0  0.66145300209E-02  0.16208768483E-01 -0.15870122397E-01  0.23629155043E-01  0.00000000000E+00 0.  1.
     999901    1    3    3    0    0 -0.38580518316E-01 -0.10619630972E+00  0.97846261891E-01  0.89260293723E+00  0.88000000000E+00 0. -1.
        -11    1    4    4    0    0  0.10403292625E-01  0.14986546085E-01 -0.25532581949E-01  0.31384692495E-01  0.51100000000E-03 0.  1.
         11    1    4    4    0    0  0.21562695670E-01  0.75000995153E-01 -0.56443557545E-01  0.96313215229E-01  0.51100000000E-03 0. -1.
</event>
<event>
 8    1  0.1213322E+005  0.1043930E+01  0.7957747E-01            NaN
         13   -1    0    0    0    0  0.00000000000E+00  0.00000000000E+00  0.74505805969E-08  0.10566000000E+00  0.10566000000E+00 0.  1.
     999900   -1    0    0    0    0 -0.00000000000E+00 -0.00000000000E+00 -0.74505805969E-08  0.93827000000E+00  0.93827000000E+00 0.  1.
     999902    2    1    2    0    0  0.20073091196E-01 -0.95778697074E-02  0.83139473404E-02  0.10201858155E+01  0.10199094626E+01 0.  0.
     999903    2    3    3    0    0 -0.74091786390E-01  0.10008425020E+00  0.23197003134E-01  0.12826972634E+00  0.20213158869E-01 0.  0.
         14    1    1    2    0    0 -0.20073091196E-01  0.95778697074E-02 -0.83139473404E-02  0.23744184523E-01  0.00000000000E+00 0. -1.
     999901    1    3    3    0    0  0.94164877586E-01 -0.10966211991E+00 -0.14883055794E-01  0.89191608914E+00  0.88000000000E+00 0. -1.
        -11    1    4    4    0    0 -0.29797570267E-01  0.30512944614E-01  0.15712463120E-01  0.45454126337E-01  0.51100000000E-03 0.  1.
         11    1    4    4    0    0 -0.44294216123E-01  0.69571305589E-01  0.74845400141E-02  0.82815600001E-01  0.51100000000E-03 0. -1.
</event>
<event>
 8    1  0.1213322E+005  0.1043930E+01  0.7957747E-01            NaN
         13   -1    0    0    0    0  0.00000000000E+00  0.00000000000E+00  0.74505805969E-08  0.10566000000E+00  0.10566000000E+00 0. -1.
     999900   -1    0    0    0    0 -0.00000000000E+00 -0.00000000000E+00 -0.74505805969E-08  0.93827000000E+00  0.93827000000E+00 0.  1.
     999902    2    1    2    0    0 -0.12318191530E-01  0.13376682836E-01 -0.15251532774E-01  0.10201964217E+01  0.10199203185E+01 0.  0.
     999903    2    3    3    0    0  0.29126920921E-01 -0.69926421669E-01  0.10086668571E+00  0.12770521995E+00  0.19911126196E-01 0.  0.
         14    1    1    2    0    0  0.12318191530E-01 -0.13376682836E-01  0.15251532774E-01  0.23733578286E-01  0.00000000000E+00 0. -1.
     999901    1    3    3    0    0 -0.41445112451E-01  0.83303104506E-01 -0.11611821848E+00  0.89249120177E+00  0.88000000000E+00 0.  1.
        -11    1    4    4    0    0  0.14482121262E-01 -0.56362314063E-01  0.71437799336E-01  0.92141535573E-01  0.51100000000E-03 0.  1.
         11    1    4    4    0    0  0.14644799659E-01 -0.13564107606E-01  0.29428886373E-01  0.35563684375E-01  0.51100000000E-03 0. -1.
</event>
<event>
 8    1  0.1213322E+005  0.1043930E+01  0.7957747E-01            NaN
         13   -1    0    0    0    0  0.00000000000E+00  0.00000000000E+00  0.74505805969E-08  0.10566000000E+00  0.10566000000E+00 0.  1.
     999900   -1    0    0    0    0 -0.00000000000E+00 -0.00000000000E+00 -0.74505805969E-08  0.93827000000E+00  0.93827000000E+00 0. -1.
     999902    2    1    2    0    0 -0.24117066183E-02  0.19247054752E-01 -0.13279585802E-01  0.10204222812E+01  0.10201514687E+01 0.  0.
     999903    2    3    3    0    0  0.29796293751E-01  0.12749630642E+00  0.10854558463E-01  0.13287638788E+00  0.19879279318E-01 0.  0.
         14    1    1    2    0    0  0.24117066183E-02 -0.19247054752E-01  0.13279585802E-01  0.23507718829E-01  0.00000000000E+00 0.  1.
     999901    1    3    3    0    0 -0.32208000369E-01 -0.10824925166E+00 -0.24134144265E-01  0.88754589329E+00  0.88000000000E+00 0. -1.
        -11    1    4    4    0    0  0.13726482716E-01  0.96404304304E-01  0.63514049409E-02  0.97584874247E-01  0.51100000000E-03 0. -1.
         11    1    4    4    0    0  0.16069811035E-01  0.31092002113E-01  0.45031535219E-02  0.35291513636E-01  0.51100000000E-03 0.  1.
</event>
<event>
 8    1  0.1213322E+005  0.1043930E+01  0.7957747E-01            NaN
         13   -1    0    0    0    0  0.00000000000E+00  0.00000000000E+00  0.74505805969E-08  0.10566000000E+00  0.10566000000E+00 0.  1.
     999900   -1    0    0    0    0 -0.00000000000E+00 -0.00000000000E+00 -0.74505805969E-08  0.93827000000E+00  0.93827000000E+00 0. -1.
     999902    2    1    2    0    0  0.12270484920E-02  0.23002492969E-01  0.23371825734E-02  0.10207765391E+01  0.10205139195E+01 0.  0.
     999903    2    3    3    0    0 -0.66027394177E-01  0.81084592640E-01  0.79785843355E-01  0.13291676105E+00  0.19150890927E-01 0.  0.
         14    1    1    2    0    0 -0.12270484920E-02 -0.23002492969E-01 -0.23371825734E-02  0.23153460933E-01  0.00000000000E+00 0.  1.
     999901    1    3    3    0    0  0.67254442669E-01 -0.58082099671E-01 -0.77448660781E-01  0.88785977802E+00  0.88000000000E+00 0.  1.
        -11    1    4    4    0    0 -0.55809639483E-01  0.62654454523E-01  0.54757948600E-01  0.10019476327E+00  0.51100000000E-03 0. -1.
         11    1    4    4    0    0 -0.10217754694E-01  0.18430138117E-01  0.25027894754E-01  0.32721997781E-01  0.51100000000E-03 0.  1.
</event>
<event>
 8    1  0.1213322E+005  0.1043930E+01  0.7957747E-01            NaN
         13   -1    0    0    0    0  0.00000000000E+00  0.00000000000E+00  0.74505805969E-08  0.10566000000E+00  0.10566000000E+00 0.  1.
     999900   -1    0    0    0    0 -0.00000000000E+00 -0.00000000000E+00 -0.74505805969E-08  0.93827000000E+00  0.93827000000E+00 0.  1.
     999902    2    1    2    0    0 -0.60478466936E-02  0.46513165017E-02 -0.24376634924E-01  0.10183872608E+01  0.10180668846E+01 0.  0.
     999903    2    3    3    0    0  0.78429130035E-01 -0.90169261501E-01 -0.44607175887E-01  0.12904110976E+00  0.19498300177E-01 0.  0.
         14    1    1    2    0    0  0.60478466936E-02 -0.46513165017E-02  0.24376634924E-01  0.25542739185E-01  0.00000000000E+00 0.  1.
     999901    1    3    3    0    0 -0.84476976728E-01  0.94820578003E-01  0.20230540963E-01  0.88934615106E+00  0.88000000000E+00 0.  1.
        -11    1    4    4    0    0  0.28406856996E-01 -0.43228004846E-01 -0.26348728615E-01  0.58052791044E-01  0.51100000000E-03 0.  1.
         11    1    4    4    0    0  0.50022273039E-01 -0.46941256655E-01 -0.18258447272E-01  0.70988318716E-01  0.51100000000E-03 0. -1.
</event>
<event>
 8    1  0.1213322E+005  0.1043930E+01  0.7957747E-01            NaN
         13   -1    0    0    0    0  0.00000000000E+00  0.00000000000E+00  0.74505805969E-08  0.10566000000E+00  0.10566000000E+00 0.  1.
     999900   -1    0    0    0    0 -0.00000000000E+00 -0.00000000000E+00 -0.74505805969E-08  0.93827000000E+00  0.93827000000E+00 0. -1.
     999902    2    1    2    0    0  0.41583054847E-02  0.72662752915E-02 -0.22251465180E-01  0.10201556869E+01  0.10198786239E+01 0.  0.
     999903    2    3    3    0    0  0.26340005239E-01 -0.12495077276E+00  0.73876567083E-02  0.12950881347E+00  0.20284570622E-01 0.  0.
         14    1    1    2    0    0 -0.41583054847E-02 -0.72662752915E-02  0.22251465180E-01  0.23774313108E-01  0.00000000000E+00 0.  1.
     999901    1    3    3    0    0 -0.22181699754E-01  0.13221704805E+00 -0.29639121888E-01  0.89064687343E+00  0.88000000000E+00 0. -1.
        -11    1    4    4    0    0 -0.13517872475E-02 -0.16843128004E-01 -0.38731195511E-02  0.17343023548E-01  0.51100000000E-03 0.  1.
         11    1    4    4    0    0  0.27691792486E-01 -0.10810764475E+00  0.11260776259E-01  0.11216578992E+00  0.51100000000E-03 0. -1.
</event>
<event>
 8    1  0.1213322E+005  0.1043930E+01  0.7957747E-01            NaN
         13   -1    0    0    0    0  0.00000000000E+00  0.00000000000E+00  0.74505805969E-08  0.10566000000E+00  0.10566000000E+00 0. -1.
     999900   -1    0    0    0    0 -0.00000000000E+00 -0.00000000000E+00 -0.74505805969E-08  0.93827000000E+00  0.93827000000E+00 0. -1.
     999902    2    1    2    0    0 -0.64765190361E-02  0.20346743293E-01  0.97385378525E-02  0.10204614172E+01  0.10201915161E+01 0.  0.
     999903    2    3    3    0    0  0.79969560365E-01  0.19821381459E-01  0.10068403337E+00  0.13156081314E+00  0.19569241960E-01 0.  0.
         14    1    1    2    0    0  0.64765190361E-02 -0.20346743293E-01 -0.97385378525E-02  0.23468582849E-01  0.00000000000E+00 0.  1.
     999901    1    3    3    0    0 -0.86446079401E-01  0.52536183339E-03 -0.90945495521E-01  0.88890060401E+00  0.88000000000E+00 0. -1.
        -11    1    4    4    0    0  0.47351556699E-01  0.79484291990E-02  0.44208529239E-01  0.65268695612E-01  0.51100000000E-03 0.  1.
         11    1    4    4    0    0  0.32618003666E-01  0.11872952260E-01  0.56475504135E-01  0.66292117531E-01  0.51100000000E-03 0. -1.
</event>
<event>
 8    1  0.1213322E+005  0.1043930E+01  0.7957747E-01            NaN
         13   -1    0    0    0    0  0.00000000000E+00  0.00000000000E+00  0.74505805969E-08  0.10566000000E+00  0.10566000000E+00 0.  1.
     999900   -1    0    0    0    0 -0.00000000000E+00 -0.00000000000E+00 -0.74505805969E-08  0.93827000000E+00  0.93827000000E+00 0. -1.
     999902    2    1    2    0    0  0.39890975854E-02  0.22534170536E-01 -0.33703635006E-02  0.10207986124E+01  0.10205364991E+01 0.  0.
     999903    2    3    3    0    0 -0.53655555174E-01  0.35688695551E-01 -0.11341184686E+00  0.13197631546E+00  0.20072350194E-01 0.  0.
         14    1    1    2    0    0 -0.39890975854E-02 -0.22534170536E-01  0.33703635006E-02  0.23131387581E-01  0.00000000000E+00 0. -1.
     999901    1    3    3    0    0  0.57644652759E-01 -0.13154525015E-01  0.11004148336E+00  0.88882229696E+00  0.88000000000E+00 0.  1.
        -11    1    4    4    0    0 -0.26319849539E-01  0.15356579733E-01 -0.73072462429E-01  0.79173258789E-01  0.51100000000E-03 0. -1.
         11    1    4    4    0    0 -0.27335705635E-01  0.20332115818E-01 -0.40339384429E-01  0.52803056667E-01  0.51100000000E-03 0.  1.
</event>
<event>
 8    1  0.1213322E+005  0.1043930E+01  0.7957747E-01            NaN
         13   -1    0    0    0    0  0.00000000000E+00  0.00000000000E+00  0.74505805969E-08  0.10566000000E+00  0.10566000000E+00 0.  1.
     999900   -1    0    0    0    0 -0.00000000000E+00 -0.00000000000E+00 -0.74505805969E-08  0.93827000000E+00  0.93827000000E+00 0.  1.
     999902    2    1    2    0    0 -0.72533871696E-02 -0.21823866795E-01 -0.35389585028E-02  0.10206616306E+01  0.10203963677E+01 0.  0.
     999903    2    3    3    0    0 -0.44971214054E-01  0.10534187393E+00  0.55495631411E-01  0.12876542426E+00  0.19530716339E-01 0.  0.
         14    1    1    2    0    0  0.72533871696E-02  0.21823866795E-01  0.35389585028E-02  0.23268369402E-01  0.00000000000E+00 0. -1.
     999901    1    3    3    0    0  0.37717826885E-01 -0.12716574073E+00 -0.59034589914E-01  0.89189620634E+00  0.88000000000E+00 0. -1.
        -11    1    4    4    0    0 -0.17180839492E-01  0.21411052069E-01  0.91502640701E-02  0.28941369178E-01  0.51100000000E-03 0.  1.
         11    1    4    4    0    0 -0.27790374562E-01  0.83930821866E-01  0.46345367341E-01  0.99824055079E-01  0.51100000000E-03 0. -1.
</event>
<event>
 8    1  0.1213322E+005  0.1043930E+01  0.7957747E-01            NaN
         13   -1    0    0    0    0  0.00000000000E+00  0.00000000000E+00  0.74505805969E-08  0.10566000000E+00  0.10566000000E+00 0.  1.
     999900   -1    0    0    0    0 -0.00000000000E+00 -0.00000000000E+00 -0.74505805969E-08  0.93827000000E+00  0.93827000000E+00 0. -1.
     999902    2    1    2    0    0  0.24568045928E-01  0.10397058061E-01  0.19671367829E-02  0.10171800967E+01  0.10168283001E+01 0.  0.
     999903    2    3    3    0    0  0.35477278258E-01 -0.11999557509E+00  0.11743365314E-01  0.12745158491E+00  0.21176037225E-01 0.  0.
         14    1    1    2    0    0 -0.24568045928E-01 -0.10397058061E-01 -0.19671367829E-02  0.26749903256E-01  0.00000000000E+00 0. -1.
     999901    1    3    3    0    0 -0.10909232329E-01  0.13039263315E+00 -0.97762285310E-02  0.88972851184E+00  0.88000000000E+00 0. -1.
        -11    1    4    4    0    0  0.10567207537E-01 -0.11655742489E-01  0.15654240382E-02  0.15818782555E-01  0.51100000000E-03 0.  1.
         11    1    4    4    0    0  0.24910070721E-01 -0.10833983260E+00  0.10177941276E-01  0.11163280235E+00  0.51100000000E-03 0. -1.
</event>
<event>
 8    1  0.1213322E+005  0.1043930E+01  0.7957747E-01            NaN
         13   -1    0    0    0    0  0.00000000000E+00  0.00000000000E+00  0.74505805969E-08  0.10566000000E+00  0.10566000000E+00 0. -1.
     999900   -1    0    0    0    0 -0.00000000000E+00 -0.00000000000E+00 -0.74505805969E-08  0.93827000000E+00  0.93827000000E+00 0.  1.
     999902    2    1    2    0    0  0.20003967645E-01  0.46932390472E-02  0.11468618342E-01  0.10203988627E+01  0.10201275041E+01 0.  0.
     999903    2    3    3    0    0 -0.76130242553E-01 -0.64305315036E-01 -0.77340514318E-01  0.12804823160E+00  0.21995615224E-01 0.  0.
         14    1    1    2    0    0 -0.20003967645E-01 -0.46932390472E-02 -0.11468618342E-01  0.23531137265E-01  0.00000000000E+00 0.  1.
     999901    1    3    3    0    0  0.96134210198E-01  0.68998554083E-01  0.88809132660E-01  0.89235063113E+00  0.88000000000E+00 0. -1.
        -11    1    4    4    0    0 -0.48595637293E-01 -0.30351421272E-01 -0.52787168820E-01  0.77906938396E-01  0.51100000000E-03 0. -1.
         11    1    4    4    0    0 -0.27534605260E-01 -0.33953893763E-01 -0.24553345498E-01  0.50141293208E-01  0.51100000000E-03 0.  1.
</event>
<event>
 8    1  0.1213322E+005  0.1043930E+01  0.7957747E-01            NaN
         13   -1    0    0    0    0  0.00000000000E+00  0.00000000000E+00  0.74505805969E-08  0.10566000000E+00  0.10566000000E+00 0. -1.
     999900   -1    0    0    0    0 -0.00000000000E+00 -0.00000000000E+00 -0.74505805969E-08  0.93827000000E+00  0.93827000000E+00 0. -1.
     999902    2    1    2    0    0  0.73983267846E-02 -0.21092811296E-01  0.66090636788E-02  0.10206207390E+01  0.10203545321E+01 0.  0.
     999903    2    3    3    0    0 -0.12701192500E+00  0.15573565520E-01  0.59939895097E-02  0.12966006795E+00  0.20030982866E-01 0.  0.
         14    1    1    2    0    0 -0.73983267846E-02  0.21092811296E-01 -0.66090636788E-02  0.23309261042E-01  0.00000000000E+00 0.  1.
     999901    1    3    3    0    0  0.13441025178E+00 -0.36666376817E-01  0.61507416909E-03  0.89096067101E+00  0.88000000000E+00 0.  1.
        -11    1    4    4    0    0 -0.10919674197E+00  0.15450417282E-01 -0.15743146020E-02  0.11029679704E+00  0.51100000000E-03 0.  1.
         11    1    4    4    0    0 -0.17815183032E-01  0.12314823804E-03  0.75683041118E-02  0.19363270904E-01  0.51100000000E-03 0. -1.
</event>
<event>
 8    1  0.1213322E+005  0.1043930E+01  0.7957747E-01            NaN
         13   -1    0    0    0    0  0.00000000000E+00  0.00000000000E+00  0.74505805969E-08  0.10566000000E+00  0.10566000000E+00 0.  1.
     999900   -1    0    0    0    0 -0.00000000000E+00 -0.00000000000E+00 -0.74505805969E-08  0.93827000000E+00  0.93827000000E+00 0. -1.
     999902    2    1    2    0    0 -0.10568483293E-01  0.18675182645E-01  0.95224026866E-02  0.10204538112E+01  0.10201837332E+01 0.  0.
     999903    2    3    3    0    0 -0.10454225864E+00  0.78171325251E-01  0.19226352775E-01  0.13339968206E+00  0.19646439859E-01 0.  0.
         14    1    1    2    0    0  0.10568483293E-01 -0.18675182645E-01 -0.95224026866E-02  0.23476188763E-01  0.00000000000E+00 0. -1.
     999901    1    3    3    0    0  0.93973775352E-01 -0.59496142606E-01 -0.97039500880E-02  0.88705412917E+00  0.88000000000E+00 0.  1.
        -11    1    4    4    0    0 -0.43820386544E-01  0.33113537922E-01  0.17909903516E-01  0.57773336718E-01  0.51100000000E-03 0. -1.
         11    1    4    4    0    0 -0.60721872101E-01  0.45057787329E-01  0.13164492583E-02  0.75626345344E-01  0.51100000000E-03 0.  1.
</event>
<event>
 8    1  0.1213322E+005  0.1043930E+01  0.7957747E-01            NaN
         13   -1    0    0    0    0  0.00000000000E+00  0.00000000000E+00  0.74505805969E-08  0.10566000000E+00  0.10566000000E+00 0.  1.
     999900   -1    0    0    0    0 -0.00000000000E+00 -0.00000000000E+00 -0.74505805969E-08  0.93827000000E+00  0.93827000000E+00 0. -1.
     999902    2    1    2    0    0  0.41280195234E-02  0.23190947440E-01  0.43253811562E-02  0.10199806887E+01  0.10196994831E+01 0.  0.
     999903    2    3    3    0    0 -0.11980895539E+00 -0.26704459637E-01 -0.34309866505E-01  0.12905835330E+00  0.20287376893E-01 0.  0.
         14    1    1    2    0    0 -0.41280195234E-02 -0.23190947440E-01 -0.43253811562E-02  0.23949311274E-01  0.00000000000E+00 0.  1.
     999901    1    3    3    0    0  0.12393697491E+00  0.49895407077E-01  0.38635247661E-01  0.89092233543E+00  0.88000000000E+00 0.  1.
        -11    1    4    4    0    0 -0.56691418157E-01 -0.19961334801E-01 -0.92532137112E-02  0.60813278687E-01  0.51100000000E-03 0. -1.
         11    1    4    4    0    0 -0.63117537233E-01 -0.67431248358E-02 -0.25056652794E-01  0.68245074614E-01  0.51100000000E-03 0.  1.
</event>
<event>
 8    1  0.1213322E+005  0.1043930E+01  0.7957747E-01            NaN
         13   -1    0    0    0    0  0.00000000000E+00  0.00000000000E+00  0.74505805969E-08  0.10566000000E+00  0.10566000000E+00 0. -1.
     999900   -1    0    0    0    0 -0.00000000000E+00 -0.00000000000E+00 -0.74505805969E-08  0.93827000000E+00  0.93827000000E+00 0. -1.
     999902    2    1    2    0    0  0.46940243822E-02  0.25115427076E-01  0.41787032027E-03  0.10183762692E+01  0.10180556137E+01 0.  0.
     999903    2    3    3    0    0  0.12289929383E+00  0.28947703389E-02 -0.34327564311E-01  0.12951548790E+00  0.21983262125E-01 0.  0.
         14    1    1    2    0    0 -0.46940243822E-02 -0.25115427076E-01 -0.41787032027E-03  0.25553730798E-01  0.00000000000E+00 0. -1.
     999901    1    3    3    0    0 -0.11820526945E+00  0.22220656737E-01  0.34745434631E-01  0.88886078130E+00  0.88000000000E+00 0.  1.
        -11    1    4    4    0    0  0.33590734884E-01  0.42060461456E-02 -0.85098684294E-04  0.33857003072E-01  0.51100000000E-03 0. -1.
         11    1    4    4    0    0  0.89308558950E-01 -0.13112758067E-02 -0.34242465627E-01  0.95658484826E-01  0.51100000000E-03 0.  1.
</event>
<event>
 8    1  0.1213322E+005  0.1043930E+01  0.7957747E-01            NaN
         13   -1    0    0    0    0  0.00000000000E+00  0.00000000000E+00  0.74505805969E-08  0.10566000000E+00  0.10566000000E+00 0.  1.
     999900   -1    0    0    0    0 -0.00000000000E+00 -0.00000000000E+00 -0.74505805969E-08  0.93827000000E+00  0.93827000000E+00 0. -1.
     999902    2    1    2    0    0 -0.31113570892E-02  0.50192236842E-02 -0.15551633307E-01  0.10272949031E+01  0.10271602073E+01 0.  0.
     999903    2    3    3    0    0 -0.38481997279E-01 -0.37700840134E-01 -0.12605464424E+00  0.13865155428E+00  0.20790928464E-01 0.  0.
         14    1    1    2    0    0  0.31113570892E-02 -0.50192236842E-02  0.15551633307E-01  0.16635096869E-01  0.00000000000E+00 0.  1.
     999901    1    3    3    0    0  0.35370640190E-01  0.42720063818E-01  0.11050301094E+00  0.88864334886E+00  0.88000000000E+00 0.  1.
        -11    1    4    4    0    0 -0.20740025277E-01 -0.13776800879E-01 -0.80135977319E-01  0.83916535157E-01  0.51100000000E-03 0.  1.
         11    1    4    4    0    0 -0.17741972002E-01 -0.23924039255E-01 -0.45918666924E-01  0.54735019118E-01  0.51100000000E-03 0. -1.
</event>
<event>
 8    1  0.1213322E+005  0.1043930E+01  0.7957747E-01            NaN
         13   -1    0    0    0    0  0.00000000000E+00  0.00000000000E+00  0.74505805969E-08  0.10566000000E+00  0.10566000000E+00 0. -1.
     999900   -1    0    0    0    0 -0.00000000000E+00 -0.00000000000E+00 -0.74505805969E-08  0.93827000000E+00  0.93827000000E+00 0.  1.
     999902    2    1    2    0    0 -0.11501001812E-02  0.43038712996E-02 -0.23501854154E-01  0.10200096491E+01  0.10197291312E+01 0.  0.
     999903    2    3    3    0    0 -0.47377262102E-02 -0.67902603851E-01 -0.11215790201E+00  0.13260526499E+00  0.19275675319E-01 0.  0.
         14    1    1    2    0    0  0.11501001812E-02 -0.43038712996E-02  0.23501854154E-01  0.23920350902E-01  0.00000000000E+00 0. -1.
     999901    1    3    3    0    0  0.35876260290E-02  0.72206475151E-01  0.88656047861E-01  0.88740438411E+00  0.88000000000E+00 0. -1.
        -11    1    4    4    0    0 -0.79157994436E-02 -0.24630620920E-01 -0.29429189976E-01  0.39187570879E-01  0.51100000000E-03 0.  1.
         11    1    4    4    0    0  0.31780732334E-02 -0.43271982931E-01 -0.82728712038E-01  0.93417694110E-01  0.51100000000E-03 0. -1.
</event>
<event>
 8    1  0.1213322E+005  0.1043930E+01  0.7957747E-01            NaN
         13   -1    0    0    0    0  0.00000000000E+00  0.00000000000E+00  0.74505805969E-08  0.10566000000E+00  0.10566000000E+00 0. -1.
     999900   -1    0    0    0    0 -0.00000000000E+00 -0.00000000000E+00 -0.74505805969E-08  0.93827000000E+00  0.93827000000E+00 0.  1.
     999902    2    1    2    0    0  0.51066614870E-02 -0.22127105492E-01 -0.52521805661E-02  0.10206217999E+01  0.10203556176E+01 0.  0.
     999903    2    3    3    0    0 -0.46988574752E-01 -0.11546399045E+00 -0.42865346717E-01  0.13335609115E+00  0.20163081383E-01 0.  0.
         14    1    1    2    0    0 -0.51066614870E-02  0.22127105492E-01  0.52521805661E-02  0.23308200053E-01  0.00000000000E+00 0. -1.
     999901    1    3    3    0    0  0.52095236239E-01  0.93336884958E-01  0.37613166151E-01  0.88726570879E+00  0.88000000000E+00 0. -1.
        -11    1    4    4    0    0 -0.11433045217E-01 -0.44192665178E-01 -0.77262383450E-02  0.46299698255E-01  0.51100000000E-03 0. -1.
         11    1    4    4    0    0 -0.35555529535E-01 -0.71271325272E-01 -0.35139108372E-01  0.87056392899E-01  0.51100000000E-03 0.  1.
</event>
<event>
 8    1  0.1213322E+005  0.1043930E+01  0.7957747E-01            NaN
         13   -1    0    0    0    0  0.00000000000E+00  0.00000000000E+00  0.74505805969E-08  0.10566000000E+00  0.10566000000E+00 0. -1.
     999900   -1    0    0    0    0 -0.00000000000E+00 -0.00000000000E+00 -0.74505805969E-08  0.93827000000E+00  0.93827000000E+00 0.  1.
     999902    2    1    2    0    0 -0.10303047404E-01 -0.94837276529E-02 -0.20815797179E-01  0.10188423280E+01  0.10185334054E+01 0.  0.
     999903    2    3    3    0    0  0.28910794830E-02  0.44389603650E-01  0.11668715043E+00  0.12643912234E+00  0.19803164619E-01 0.  0.
         14    1    1    2    0    0  0.10303047404E-01  0.94837276529E-02  0.20815797179E-01  0.25087672036E-01  0.00000000000E+00 0.  1.
     999901    1    3    3    0    0 -0.13194126887E-01 -0.53873331303E-01 -0.13750294761E+00  0.89240320563E+00  0.88000000000E+00 0.  1.
        -11    1    4    4    0    0  0.31508227475E-02  0.34430551820E-01  0.10732761380E+00  0.11276022520E+00  0.51100000000E-03 0. -1.
         11    1    4    4    0    0 -0.25974326449E-03  0.99590518294E-02  0.93595366340E-02  0.13678897138E-01  0.51100000000E-03 0.  1.
</event>
<event>
 8    1  0.1213322E+005  0.1043930E+01  0.7957747E-01            NaN
         13   -1    0    0    0    0  0.00000000000E+00  0.00000000000E+00  0.74505805969E-08  0.10566000000E+00  0.10566000000E+00 0.  1.
     999900   -1    0    0    0    0 -0.00000000000E+00 -0.00000000000E+00 -0.74505805969E-08  0.93827000000E+00  0.93827000000E+00 0. -1.
     999902    2    1    2    0    0  0.29912243123E-03 -0.15307715857E-01 -0.18141294651E-01  0.10201913772E+01  0.10199151553E+01 0.  0.
     999903    2    3    3    0    0 -0.11023320233E-01 -0.93086351850E-01 -0.93017173982E-01  0.13352113908E+00  0.19726059841E-01 0.  0.
         14    1    1    2    0    0 -0.29912243123E-03  0.15307715857E-01  0.18141294651E-01  0.23738622761E-01  0.00000000000E+00 0.  1.
     999901    1    3    3    0    0  0.11322442664E-01  0.77778635994E-01  0.74875879331E-01  0.88667023816E+00  0.88000000000E+00 0.  1.
        -11    1    4    4    0    0 -0.11834281981E-01 -0.84427133642E-01 -0.90759530310E-01  0.12452126159E+00  0.51100000000E-03 0. -1.
         11    1    4    4    0    0  0.81096174804E-03 -0.86592182087E-02 -0.22576436716E-02  0.89998774930E-02  0.51100000000E-03 0.  1.
</event>
<event>
 8    1  0.1213322E+005  0.1043930E+01  0.7957747E-01            NaN
         13   -1    0    0    0    0  0.00000000000E+00  0.00000000000E+00  0.74505805969E-08  0.10566000000E+00  0.10566000000E+00 0.  1.
     999900   -1    0    0    0    0 -0.00000000000E+00 -0.00000000000E+00 -0.74505805969E-08  0.93827000000E+00  0.93827000000E+00 0. -1.
     999902    2    1    2    0    0 -0.19974766841E-01 -0.14237570605E-01 -0.14501380209E-01  0.10154345661E+01  0.10150346636E+01 0.  0.
     999903    2    3    3    0    0 -0.10356774333E+00  0.58640607397E-01 -0.42917572674E-01  0.12801893935E+00  0.19543093224E-01 0.  0.
         14    1    1    2    0    0  0.19974766841E-01  0.14237570605E-01  0.14501380209E-01  0.28495433933E-01  0.00000000000E+00 0.  1.
     999901    1    3    3    0    0  0.83592976493E-01 -0.72878178002E-01  0.28416192465E-01  0.88741562672E+00  0.88000000000E+00 0.  1.
        -11    1    4    4    0    0 -0.28721225077E-01  0.21598575340E-01 -0.49442522032E-02  0.36278285206E-01  0.51100000000E-03 0.  1.
         11    1    4    4    0    0 -0.74846518257E-01  0.37042032057E-01 -0.37973320471E-01  0.91740654143E-01  0.51100000000E-03 0. -1.
</event>
<event>
 8    1  0.1213322E+005  0.1043930E+01  0.7957747E-01            NaN
         13   -1    0    0    0    0  0.00000000000E+00  0.00000000000E+00  0.74505805969E-08  0.10566000000E+00  0.10566000000E+00 0.  1.
     999900   -1    0    0    0    0 -0.00000000000E+00 -0.00000000000E+00 -0.74505805969E-08  0.93827000000E+00  0.93827000000E+00 0. -1.
     999902    2    1    2    0    0  0.15923530245E-01 -0.12658852551E-01  0.10425050630E-01  0.10210720245E+01  0.10208161402E+01 0.  0.
     999903    2    3    3    0    0 -0.10764050731E+00  0.61105565992E-01  0.32979068872E-01  0.12909784070E+00  0.16070609268E-01 0.  0.
         14    1    1    2    0    0 -0.15923530245E-01  0.12658852551E-01 -0.10425050630E-01  0.22857975501E-01  0.00000000000E+00 0.  1.
     999901    1    3    3    0    0  0.12356403755E+00 -0.73764418543E-01 -0.22554018242E-01  0.89197418380E+00  0.88000000000E+00 0. -1.
        -11    1    4    4    0    0 -0.55155578462E-01  0.28360992905E-01  0.24368669657E-01  0.66637654039E-01  0.51100000000E-03 0.  1.
         11    1    4    4    0    0 -0.52484928844E-01  0.32744573087E-01  0.86103992151E-02  0.62460186664E-01  0.51100000000E-03 0. -1.
</event>
<event>
 8    1  0.1213322E+005  0.1043930E+01  0.7957747E-01            NaN
         13   -1    0    0    0    0  0.00000000000E+00  0.00000000000E+00  0.74505805969E-08  0.10566000000E+00  0.10566000000E+00 0. -1.
     999900   -1    0    0    0    0 -0.00000000000E+00 -0.00000000000E+00 -0.74505805969E-08  0.93827000000E+00  0.93827000000E+00 0.  1.
     999902    2    1    2    0    0  0.60898360990E-02 -0.12636121634E-01  0.19051449478E-01  0.10202716949E+01  0.10199973608E+01 0.  0.
     999903    2    3    3    0    0  0.82768360614E-01  0.96514024023E-01  0.19960812658E-01  0.13021878783E+00  0.19822722062E-01 0.  0.
         14    1    1    2    0    0 -0.60898360990E-02  0.12636121634E-01 -0.19051449478E-01  0.23658305114E-01  0.00000000000E+00 0.  1.
     999901    1    3    3    0    0 -0.76678524515E-01 -0.10915014566E+00 -0.90936317978E-03  0.89005290706E+00  0.88000000000E+00 0.  1.
        -11    1    4    4    0    0  0.51426036209E-01  0.46401846978E-01  0.63122536056E-02  0.69554829234E-01  0.51100000000E-03 0. -1.
         11    1    4    4    0    0  0.31342324405E-01  0.50112177045E-01  0.13648559052E-01  0.60663958595E-01  0.51100000000E-03 0.  1.
</event>
<event>
 8    1  0.1213322E+005  0.1043930E+01  0.7957747E-01            NaN
         13   -1    0    0    0    0  0.00000000000E+00  0.00000000000E+00  0.74505805969E-08  0.10566000000E+00  0.10566000000E+00 0.  1.
     999900   -1    0    0    0    0 -0.00000000000E+00 -0.00000000000E+00 -0.74505805969E-08  0.93827000000E+00  0.93827000000E+00 0.  1.
     999902    2    1    2    0    0  0.12558515057E-01  0.12448882653E-01 -0.16311736811E-01  0.10198724910E+01  0.10195887084E+01 0.  0.
     999903    2    3    3    0    0  0.47473609288E-01 -0.53123184543E-01  0.10499045714E+00  0.12845060323E+00  0.20018617952E-01 0.  0.
         14    1    1    2    0    0 -0.12558515057E-01 -0.12448882653E-01  0.16311736811E-01  0.24057508964E-01  0.00000000000E+00 0.  1.
     999901    1    3    3    0    0 -0.34915094231E-01  0.65572067196E-01 -0.12130219395E+00  0.89142188781E+00  0.88000000000E+00 0.  1.
        -11    1    4    4    0    0  0.63161605561E-02 -0.22764812676E-03  0.14643945086E-01  0.15957818037E-01  0.51100000000E-03 0.  1.
         11    1    4    4    0    0  0.41157448732E-01 -0.52895536416E-01  0.90346512055E-01  0.11249278519E+00  0.51100000000E-03 0. -1.
</event>
<event>
 8    1  0.1213322E+005  0.1043930E+01  0.7957747E-01            NaN
         13   -1    0    0    0    0  0.00000000000E+00  0.00000000000E+00  0.74505805969E-08  0.10566000000E+00  0.10566000000E+00 0. -1.
     999900   -1    0    0    0    0 -0.00000000000E+00 -0.00000000000E+00 -0.74505805969E-08  0.93827000000E+00  0.93827000000E+00 0.  1.
     999902    2    1    2    0    0  0.13424281217E-01  0.21486612376E-02 -0.19346443384E-01  0.10202844308E+01  0.10200103954E+01 0.  0.
     999903    2    3    3    0    0  0.16504842727E-01  0.26895013986E-01  0.12294132279E+00  0.12850661080E+00  0.20090509158E-01 0.  0.
         14    1    1    2    0    0 -0.13424281217E-01 -0.21486612376E-02  0.19346443384E-01  0.23645569203E-01  0.00000000000E+00 0. -1.
     999901    1    3    3    0    0 -0.30805615097E-02 -0.24746352749E-01 -0.14228776618E+00  0.89177782000E+00  0.88000000000E+00 0.  1.
        -11    1    4    4    0    0 -0.30996155236E-02  0.12548108128E-01  0.48785208596E-01  0.50470985058E-01  0.51100000000E-03 0.  1.
         11    1    4    4    0    0  0.19604458250E-01  0.14346905859E-01  0.74156114198E-01  0.78035625743E-01  0.51100000000E-03 0. -1.
</event>
<event>
 8    1  0.1213322E+005  0.1043930E+01  0.7957747E-01            NaN
         13   -1    0    0    0    0  0.00000000000E+00  0.00000000000E+00  0.74505805969E-08  0.10566000000E+00  0.10566000000E+00 0.  1.
     999900   -1    0    0    0    0 -0.00000000000E+00 -0.00000000000E+00 -0.74505805969E-08  0.93827000000E+00  0.93827000000E+00 0.  1.
     999902    2    1    2    0    0 -0.14310208085E-01 -0.24146172620E-01 -0.67749916501E-02  0.10150557863E+01  0.10146450261E+01 0.  0.
     999903    2    3    3    0    0 -0.36325129217E-01 -0.14587558304E-01 -0.11970781721E+00  0.12751432415E+00  0.19940649237E-01 0.  0.
         14    1    1    2    0    0  0.14310208085E-01  0.24146172620E-01  0.67749916501E-02  0.28874213747E-01  0.00000000000E+00 0.  1.
     999901    1    3    3    0    0  0.22014921132E-01 -0.95586143153E-02  0.11293282556E+00  0.88754146210E+00  0.88000000000E+00 0. -1.
        -11    1    4    4    0    0 -0.12516456801E-01  0.36461795052E-02 -0.49022727538E-01  0.50729136126E-01  0.51100000000E-03 0.  1.
         11    1    4    4    0    0 -0.23808672416E-01 -0.18233737810E-01 -0.70685089675E-01  0.76785188025E-01  0.51100000000E-03 0. -1.
</event>
<event>
 8    1  0.1213322E+005  0.1043930E+01  0.7957747E-01            NaN
         13   -1    0    0    0    0  0.00000000000E+00  0.00000000000E+00  0.74505805969E-08  0.10566000000E+00  0.10566000000E+00 0.  1.
     999900   -1    0    0    0    0 -0.00000000000E+00 -0.00000000000E+00 -0.74505805969E-08  0.93827000000E+00  0.93827000000E+00 0. -1.
     999902    2    1    2    0    0 -0.14813708032E-01 -0.79487109435E-03  0.19820986430E-01  0.10191721877E+01  0.10188714340E+01 0.  0.
     999903    2    3    3    0    0 -0.81938893752E-01  0.42051892445E-01  0.93144908705E-01  0.13253921220E+00  0.20207047924E-01 0.  0.
         14    1    1    2    0    0  0.14813708032E-01  0.79487109435E-03 -0.19820986430E-01  0.24757812277E-01  0.00000000000E+00 0. -1.
     999901    1    3    3    0    0  0.67125185720E-01 -0.42846763539E-01 -0.73323922275E-01  0.88663297552E+00  0.88000000000E+00 0. -1.
        -11    1    4    4    0    0 -0.40872649187E-01  0.18561357548E-01  0.59257341594E-01  0.74342390999E-01  0.51100000000E-03 0.  1.
         11    1    4    4    0    0 -0.41066244565E-01  0.23490534897E-01  0.33887567111E-01  0.58196821203E-01  0.51100000000E-03 0. -1.
</event>
<event>
 8    1  0.1213322E+005  0.1043930E+01  0.7957747E-01            NaN
         13   -1    0    0    0    0  0.00000000000E+00  0.00000000000E+00  0.74505805969E-08  0.10566000000E+00  0.10566000000E+00 0. -1.
     999900   -1    0    0    0    0 -0.00000000000E+00 -0.00000000000E+00 -0.74505805969E-08  0.93827000000E+00  0.93827000000E+00 0. -1.
     999902    2    1    2    0    0  0.21424215780E-01 -0.24681860754E-03 -0.23223258302E-02  0.10223788715E+01  0.10221517039E+01 0.  0.
     999903    2    3    3    0    0 -0.52326352651E-01  0.10528629314E+00 -0.55369040017E-01  0.13142974958E+00  0.19616263069E-01 0.  0.
         14    1    1    2    0    0 -0.21424215780E-01  0.24681860754E-03  0.23223258302E-02  0.21551128474E-01  0.00000000000E+00 0. -1.
     999901    1    3    3    0    0  0.73750568431E-01 -0.10553311175E+00  0.53046714187E-01  0.89094912195E+00  0.88000000000E+00 0.  1.
        -11    1    4    4    0    0 -0.41193727850E-01  0.71929620496E-01 -0.30366621899E-01  0.88279025626E-01  0.51100000000E-03 0. -1.
         11    1    4    4    0    0 -0.11132624801E-01  0.33356672642E-01 -0.25002418118E-01  0.43150723950E-01  0.51100000000E-03 0.  1.
</event>
<event>
 8    1  0.1213322E+005  0.1043930E+01  0.7957747E-01            NaN
         13   -1    0    0    0    0  0.00000000000E+00  0.00000000000E+00  0.74505805969E-08  0.10566000000E+00  0.10566000000E+00 0.  1.
     999900   -1    0    0    0    0 -0.00000000000E+00 -0.00000000000E+00 -0.74505805969E-08  0.93827000000E+00  0.93827000000E+00 0.  1.
     999902    2    1    2    0    0 -0.19287696177E-01 -0.83037080476E-02  0.95646275083E-02  0.10208551459E+01  0.10205943269E+01 0.  0.
     999903    2    3    3    0    0  0.43163500300E-01 -0.46072501275E-01 -0.11145252042E+00  0.12957977671E+00  0.19582928552E-01 0.  0.
         14    1    1    2    0    0  0.19287696177E-01  0.83037080476E-02 -0.95646275083E-02  0.23074854073E-01  0.00000000000E+00 0. -1.
     999901    1    3    3    0    0 -0.62451196476E-01  0.37768793227E-01  0.12101714793E+00  0.89127536922E+00  0.88000000000E+00 0.  1.
        -11    1    4    4    0    0  0.36070010734E-01 -0.25415394450E-01 -0.78233048335E-01  0.89820147640E-01  0.51100000000E-03 0. -1.
         11    1    4    4    0    0  0.70934895655E-02 -0.20657106825E-01 -0.33219472090E-01  0.39759629067E-01  0.51100000000E-03 0.  1.
</event>
<event>
 8    1  0.1213322E+005  0.1043930E+01  0.7957747E-01            NaN
         13   -1    0    0    0    0  0.00000000000E+00  0.00000000000E+00  0.74505805969E-08  0.10566000000E+00  0.10566000000E+00 0.  1.
     999900   -1    0    0    0    0 -0.00000000000E+00 -0.00000000000E+00 -0.74505805969E-08  0.93827000000E+00  0.93827000000E+00 0.  1.
     999902    2    1    2    0    0 -0.23038280437E-01  0.16325195481E-01  0.47750430547E-02  0.10152930412E+01  0.10148890994E+01 0.  0.
     999903    2    3    3    0    0  0.19149918158E-02  0.77928173934E-01 -0.97942408509E-01  0.12682893523E+00  0.20405782032E-01 0.  0.
         14    1    1    2    0    0  0.23038280437E-01 -0.16325195481E-01 -0.47750430547E-02  0.28636958797E-01  0.00000000000E+00 0.  1.
     999901    1    3    3    0    0 -0.24953272252E-01 -0.61602978453E-01  0.10271745156E+00  0.88846410598E+00  0.88000000000E+00 0. -1.
        -11    1    4    4    0    0 -0.76025984747E-02  0.39319622040E-01 -0.57828197255E-01  0.70343398409E-01  0.51100000000E-03 0.  1.
         11    1    4    4    0    0  0.95175902905E-02  0.38608551894E-01 -0.40114211253E-01  0.56485536819E-01  0.51100000000E-03 0. -1.
</event>
<event>
 8    1  0.1213322E+005  0.1043930E+01  0.7957747E-01            NaN
         13   -1    0    0    0    0  0.00000000000E+00  0.00000000000E+00  0.74505805969E-08  0.10566000000E+00  0.10566000000E+00 0. -1.
     999900   -1    0    0    0    0 -0.00000000000E+00 -0.00000000000E+00 -0.74505805969E-08  0.93827000000E+00  0.93827000000E+00 0. -1.
     999902    2    1    2    0    0 -0.21453906598E-01 -0.97333861707E-02 -0.73045433866E-03  0.10203600514E+01  0.10200877864E+01 0.  0.
     999903    2    3    3    0    0 -0.15459690370E-02 -0.99260720417E-02  0.12869465500E+00  0.13067065499E+00  0.20287654496E-01 0.  0.
         14    1    1    2    0    0  0.21453906598E-01  0.97333861707E-02  0.73045433866E-03  0.23569948626E-01  0.00000000000E+00 0. -1.
     999901    1    3    3    0    0 -0.19907937561E-01  0.19268587099E-03 -0.12942510934E+00  0.88968939638E+00  0.88000000000E+00 0. -1.
        -11    1    4    4    0    0 -0.84526322974E-02 -0.11690455560E-01  0.10277409098E+00  0.10378289186E+00  0.51100000000E-03 0.  1.
         11    1    4    4    0    0  0.69066632605E-02  0.17643835187E-02  0.25920564013E-01  0.26887763134E-01  0.51100000000E-03 0. -1.
</event>
<event>
 8    1  0.1213322E+005  0.1043930E+01  0.7957747E-01            NaN
         13   -1    0    0    0    0  0.00000000000E+00  0.00000000000E+00  0.74505805969E-08  0.10566000000E+00  0.10566000000E+00 0. -1.
     999900   -1    0    0    0    0 -0.00000000000E+00 -0.00000000000E+00 -0.74505805969E-08  0.93827000000E+00  0.93827000000E+00 0.  1.
     999902    2    1    2    0    0 -0.40692070627E-02  0.22089392116E-01  0.45012134330E-02  0.10210223460E+01  0.10207653356E+01 0.  0.
     999903    2    3    3    0    0  0.51552043103E-01 -0.81188720175E-01  0.84692157284E-01  0.12962418611E+00  0.19505042628E-01 0.  0.
         14    1    1    2    0    0  0.40692070627E-02 -0.22089392116E-01 -0.45012134330E-02  0.22907654016E-01  0.00000000000E+00 0.  1.
     999901    1    3    3    0    0 -0.55621250166E-01  0.10327811229E+00 -0.80190943851E-01  0.89139815987E+00  0.88000000000E+00 0. -1.
        -11    1    4    4    0    0  0.40946591464E-01 -0.54539997774E-01  0.49770001578E-01  0.84430734261E-01  0.51100000000E-03 0.  1.
         11    1    4    4    0    0  0.10605451639E-01 -0.26648722401E-01  0.34922155705E-01  0.45193451851E-01  0.51100000000E-03 0. -1.
</event>
<event>
 8    1  0.1213322E+005  0.1043930E+01  0.7957747E-01            NaN
         13   -1    0    0    0    0  0.00000000000E+00  0.00000000000E+00  0.74505805969E-08  0.10566000000E+00  0.10566000000E+00 0. -1.
     999900   -1    0    0    0    0 -0.00000000000E+00 -0.00000000000E+00 -0.74505805969E-08  0.93827000000E+00  0.93827000000E+00 0. -1.
     999902    2    1    2    0    0 -0.24844178081E-01  0.10585909194E-01  0.31163496362E-02  0.10167453298E+01  0.10163818472E+01 0.  0.
     999903    2    3    3    0    0 -0.92860761694E-01  0.32007803216E-01 -0.82436952265E-01  0.12972530712E+00  0.19626096927E-01 0.  0.
         14    1    1    2    0    0  0.24844178081E-01 -0.10585909194E-01 -0.31163496362E-02  0.27184670184E-01  0.00000000000E+00 0.  1.
     999901    1    3    3    0    0  0.68016583614E-01 -0.21421894022E-01  0.85553301901E-01  0.88702002269E+00  0.88000000000E+00 0.  1.
        -11    1    4    4    0    0 -0.89455001205E-01  0.30392946529E-01 -0.72514805400E-01  0.11909906197E+00  0.51100000000E-03 0.  1.
         11    1    4    4    0    0 -0.34057604888E-02  0.16148566874E-02 -0.99221468652E-02  0.10626245153E-01  0.51100000000E-03 0. -1.
</event>
<event>
 8    1  0.1213322E+005  0.1043930E+01  0.7957747E-01            NaN
         13   -1    0    0    0    0  0.00000000000E+00  0.00000000000E+00  0.74505805969E-08  0.10566000000E+00  0.10566000000E+00 0.  1.
     999900   -1    0    0    0    0 -0.00000000000E+00 -0.00000000000E+00 -0.74505805969E-08  0.93827000000E+00  0.93827000000E+00 0.  1.
     999902    2    1    2    0    0 -0.13242432570E-01 -0.23145825460E-01 -0.11071189585E-02  0.10172407331E+01  0.10168905507E+01 0.  0.
     999903    2    3    3    0    0 -0.11641964183E+00 -0.54091655545E-01 -0.13965419815E-01  0.13057928877E+00  0.19403028207E-01 0.  0.
         14    1    1    2    0    0  0.13242432570E-01  0.23145825460E-01  0.11071189585E-02  0.26689266924E-01  0.00000000000E+00 0.  1.
     999901    1    3    3    0    0  0.10317720926E+00  0.30945830085E-01  0.12858300856E-01  0.88666144430E+00  0.88000000000E+00 0.  1.
        -11    1    4    4    0    0 -0.67547421452E-01 -0.20953562280E-01 -0.95178981045E-02  0.71362156794E-01  0.51100000000E-03 0. -1.
         11    1    4    4    0    0 -0.48872220375E-01 -0.33138093264E-01 -0.44475217102E-02  0.59217131980E-01  0.51100000000E-03 0.  1.
</event>
<event>
 8    1  0.1213322E+005  0.1043930E+01  0.7957747E-01            NaN
         13   -1    0    0    0    0  0.00000000000E+00  0.00000000000E+00  0.74505805969E-08  0.10566000000E+00  0.10566000000E+00 0.  1.
     999900   -1    0    0    0    0 -0.00000000000E+00 -0.00000000000E+00 -0.74505805969E-08  0.93827000000E+00  0.93827000000E+00 0. -1.
     999902    2    1    2    0    0  0.16354054876E-02  0.14425281427E-01  0.17878886821E-01  0.10208991969E+01  0.10206393841E+01 0.  0.
     999903    2    3    3    0    0  0.48673215945E-01  0.10701387517E+00 -0.55564732752E-01  0.13175400714E+00  0.21227987244E-01 0.  0.
         14    1    1    2    0    0 -0.16354054876E-02 -0.14425281427E-01 -0.17878886821E-01  0.23030803054E-01  0.00000000000E+00 0. -1.
     999901    1    3    3    0    0 -0.47037810458E-01 -0.92588593740E-01  0.73443619573E-01  0.88914518981E+00  0.88000000000E+00 0.  1.
        -11    1    4    4    0    0  0.48219724941E-01  0.92523683148E-01 -0.44139612764E-01  0.11328874769E+00  0.51100000000E-03 0.  1.
         11    1    4    4    0    0  0.45349100469E-03  0.14490192019E-01 -0.11425119989E-01  0.18465259451E-01  0.51100000000E-03 0. -1.
</event>
<event>
 8    1  0.1213322E+005  0.1043930E+01  0.7957747E-01            NaN
         13   -1    0    0    0    0  0.00000000000E+00  0.00000000000E+00  0.74505805969E-08  0.10566000000E+00  0.10566000000E+00 0.  1.
     999900   -1    0    0    0    0 -0.00000000000E+00 -0.00000000000E+00 -0.74505805969E-08  0.93827000000E+00  0.93827000000E+00 0. -1.
     999902    2    1    2    0    0 -0.17447077159E-01 -0.44110650358E-02 -0.15657663385E-01  0.10200758511E+01  0.10197969021E+01 0.  0.
     999903    2    3    3    0    0 -0.36346649065E-01  0.19619258439E-01  0.12055375352E+00  0.12907181052E+00  0.20501965334E-01 0.  0.
         14    1    1    2    0    0  0.17447077159E-01  0.44110650358E-02  0.15657663385E-01  0.23854148881E-01  0.00000000000E+00 0.  1.
     999901    1    3    3    0    0  0.18899571906E-01 -0.24030323475E-01 -0.13621141691E+00  0.89100404060E+00  0.88000000000E+00 0. -1.
        -11    1    4    4    0    0 -0.14276014697E-01  0.14779124464E-01  0.35058731461E-01  0.40639917424E-01  0.51100000000E-03 0.  1.
         11    1    4    4    0    0 -0.22070634368E-01  0.48401339756E-02  0.85495022063E-01  0.88431893098E-01  0.51100000000E-03 0. -1.
</event>
<event>
 8    1  0.1213322E+005  0.1043930E+01  0.7957747E-01            NaN
         13   -1    0    0    0    0  0.00000000000E+00  0.00000000000E+00  0.74505805969E-08  0.10566000000E+00  0.10566000000E+00 0.  1.
     999900   -1    0    0    0    0 -0.00000000000E+00 -0.00000000000E+00 -0.74505805969E-08  0.93827000000E+00  0.93827000000E+00 0. -1.
     999902    2    1    2    0    0 -0.35526131862E-02  0.15976177582E-01  0.15246527072E-01  0.10215622576E+01  0.10213173505E+01 0.  0.
     999903    2    3    3    0    0  0.71759782298E-01 -0.99839020324E-02 -0.10569993626E+00  0.12972486795E+00  0.20172262750E-01 0.  0.
         14    1    1    2    0    0  0.35526131862E-02 -0.15976177582E-01 -0.15246527072E-01  0.22367742361E-01  0.00000000000E+00 0. -1.
     999901    1    3    3    0    0 -0.75312395484E-01  0.25960079614E-01  0.12094646334E+00  0.89183738969E+00  0.88000000000E+00 0.  1.
        -11    1    4    4    0    0  0.68199915112E-01 -0.41438152374E-02 -0.96909112648E-01  0.11857502630E+00  0.51100000000E-03 0. -1.
         11    1    4    4    0    0  0.35598671855E-02 -0.58400867950E-02 -0.87908236156E-02  0.11149841658E-01  0.51100000000E-03 0.  1.
</event>
<event>
 8    1  0.1213322E+005  0.1043930E+01  0.7957747E-01            NaN
         13   -1    0    0    0    0  0.00000000000E+00  0.00000000000E+00  0.74505805969E-08  0.10566000000E+00  0.10566000000E+00 0.  1.
     999900   -1    0    0    0    0 -0.00000000000E+00 -0.00000000000E+00 -0.74505805969E-08  0.93827000000E+00  0.93827000000E+00 0.  1.
     999902    2    1    2    0    0 -0.15599331530E-01 -0.20835213212E-02 -0.17741591470E-01  0.10202140924E+01  0.10199384050E+01 0.  0.
     999903    2    3    3    0    0 -0.96201942822E-01  0.69414245974E-01  0.50587188611E-01  0.13101358978E+00  0.23072618161E-01 0.  0.
         14    1    1    2    0    0  0.15599331530E-01  0.20835213212E-02  0.17741591470E-01  0.23715907597E-01  0.00000000000E+00 0. -1.
     999901    1    3    3    0    0  0.80602611292E-01 -0.71497767295E-01 -0.68328780081E-01  0.88920050262E+00  0.88000000000E+00 0.  1.
        -11    1    4    4    0    0 -0.86290388730E-01  0.59770787005E-01  0.36164203438E-01  0.11102562271E+00  0.51100000000E-03 0. -1.
         11    1    4    4    0    0 -0.99115540920E-02  0.96434589693E-02  0.14422985173E-01  0.19987967073E-01  0.51100000000E-03 0.  1.
</event>
<event>
 8    1  0.1213322E+005  0.1043930E+01  0.7957747E-01            NaN
         13   -1    0    0    0    0  0.00000000000E+00  0.00000000000E+00  0.74505805969E-08  0.10566000000E+00  0.10566000000E+00 0. -1.
     999900   -1    0    0    0    0 -0.00000000000E+00 -0.00000000000E+00 -0.74505805969E-08  0.93827000000E+00  0.93827000000E+00 0. -1.
     999902    2    1    2    0    0 -0.57445496180E-02 -0.23784185280E-01 -0.23455746911E-02  0.10193497429E+01  0.10190533398E+01 0.  0.
     999903    2    3    3    0    0 -0.22317168830E-01 -0.15978466205E-01 -0.12669437630E+00  0.13041880888E+00  0.14291022235E-01 0.  0.
         14    1    1    2    0    0  0.57445496180E-02  0.23784185280E-01  0.23455746911E-02  0.24580257126E-01  0.00000000000E+00 0. -1.
     999901    1    3    3    0    0  0.16572619212E-01 -0.78057190758E-02  0.12434880161E+00  0.88893093400E+00  0.88000000000E+00 0.  1.
        -11    1    4    4    0    0 -0.17952452891E-01 -0.64154469323E-02 -0.61773624271E-01  0.64650524366E-01  0.51100000000E-03 0.  1.
         11    1    4    4    0    0 -0.43647159381E-02 -0.95630192722E-02 -0.64920752025E-01  0.65768284510E-01  0.51100000000E-03 0. -1.
</event>
<event>
 8    1  0.1213322E+005  0.1043930E+01  0.7957747E-01            NaN
         13   -1    0    0    0    0  0.00000000000E+00  0.00000000000E+00  0.74505805969E-08  0.10566000000E+00  0.10566000000E+00 0. -1.
     999900   -1    0    0    0    0 -0.00000000000E+00 -0.00000000000E+00 -0.74505805969E-08  0.93827000000E+00  0.93827000000E+00 0. -1.
     999902    2    1    2    0    0  0.65809884610E-02 -0.80202051527E-02  0.22458763006E-01  0.10191907774E+01  0.10188904807E+01 0.  0.
     999903    2    3    3    0    0  0.30095957459E-02  0.62667216044E-03 -0.12526201671E+00  0.12682933038E+00  0.19638121855E-01 0.  0.
         14    1    1    2    0    0 -0.65809884610E-02  0.80202051527E-02 -0.22458763006E-01  0.24739222614E-01  0.00000000000E+00 0.  1.
     999901    1    3    3    0    0  0.35713927151E-02 -0.86468773132E-02  0.14772077972E+00  0.89236144700E+00  0.88000000000E+00 0.  1.
        -11    1    4    4    0    0  0.75037736643E-03  0.96201040990E-02 -0.82901927059E-01  0.83463166128E-01  0.51100000000E-03 0.  1.
         11    1    4    4    0    0  0.22592183794E-02 -0.89934319386E-02 -0.42360089655E-01  0.43366164256E-01  0.51100000000E-03 0. -1.
</event>
<event>
 8    1  0.1213322E+005  0.1043930E+01  0.7957747E-01            NaN
         13   -1    0    0    0    0  0.00000000000E+00  0.00000000000E+00  0.74505805969E-08  0.10566000000E+00  0.10566000000E+00 0.  1.
     999900   -1    0    0    0    0 -0.00000000000E+00 -0.00000000000E+00 -0.74505805969E-08  0.93827000000E+00  0.93827000000E+00 0. -1.
     999902    2    1    2    0    0  0.12082176614E-01  0.16363769781E-01 -0.11662528490E-01  0.10204828995E+01  0.10202134980E+01 0.  0.
     999903    2    3    3    0    0 -0.44881326339E-01  0.71608152859E-01 -0.10130069154E+00  0.13237717219E+00  0.10946442345E-01 0.  0.
         14    1    1    2    0    0 -0.12082176614E-01 -0.16363769781E-01  0.11662528490E-01  0.23447100545E-01  0.00000000000E+00 0.  1.
     999901    1    3    3    0    0  0.56963502953E-01 -0.55244383078E-01  0.89638163050E-01  0.88810572727E+00  0.88000000000E+00 0.  1.
        -11    1    4    4    0    0 -0.36575405645E-02  0.10229678070E-01 -0.90264130523E-02  0.14133689186E-01  0.51100000000E-03 0. -1.
         11    1    4    4    0    0 -0.41223785775E-01  0.61378474789E-01 -0.92274278488E-01  0.11824348300E+00  0.51100000000E-03 0.  1.
</event>
<event>
 8    1  0.1213322E+005  0.1043930E+01  0.7957747E-01            NaN
         13   -1    0    0    0    0  0.00000000000E+00  0.00000000000E+00  0.74505805969E-08  0.10566000000E+00  0.10566000000E+00 0. -1.
     999900   -1    0    0    0    0 -0.00000000000E+00 -0.00000000000E+00 -0.74505805969E-08  0.93827000000E+00  0.93827000000E+00 0.  1.
     999902    2    1    2    0    0 -0.19278496044E-01  0.78386678692E-02 -0.10140328250E-01  0.10207798082E+01  0.10205172637E+01 0.  0.
     999903    2    3    3    0    0 -0.10336586259E+00  0.61212086277E-01  0.53219462028E-01  0.13289813250E+00  0.19954483923E-01 0.  0.
         14    1    1    2    0    0  0.19278496044E-01 -0.78386678692E-02  0.10140328250E-01  0.23150191806E-01  0.00000000000E+00 0. -1.
     999901    1    3    3    0    0  0.84087366546E-01 -0.53373418408E-01 -0.63359790277E-01  0.88788167569E+00  0.88000000000E+00 0.  1.
        -11    1    4    4    0    0 -0.23911912969E-01  0.20397156736E-01  0.21606815067E-01  0.38143664783E-01  0.51100000000E-03 0. -1.
         11    1    4    4    0    0 -0.79453949621E-01  0.40814929541E-01  0.31612646961E-01  0.94754467719E-01  0.51100000000E-03 0.  1.
</event>
<event>
 7    1  0.1213322E+005  0.1043930E+01  0.7957747E-01            NaN
         13   -1    0    0    0    0  0.00000000000E+00  0.00000000000E+00  0.74505805969E-08  0.10566000000E+00  0.10566000000E+00 0. -1.
     999900   -1    0    0    0    0 -0.00000000000E+00 -0.00000000000E+00 -0.74505805969E-08  0.93827000000E+00  0.93827000000E+00 0. -1.
     999903    2    1    2    0    0  0.39751337930E-01 -0.10323035235E+00 -0.63324356097E-02  0.11257017544E+00  0.19881401988E-01 0.  0.
         14    1    1    2    0    0  0.18197263127E-01 -0.32230517849E-01  0.12571009407E-01  0.39089345654E-01  0.00000000000E+00 0. -1.
     999901    1    1    2    0    0 -0.57948601057E-01  0.13546087020E+00 -0.62385737977E-02  0.89227047890E+00  0.88000000000E+00 0. -1.
        -11    1    3    3    0    0  0.20298471354E-01 -0.44842241153E-01 -0.12292483607E-01  0.50736779609E-01  0.51100000000E-03 0. -1.
         11    1    3    3    0    0  0.19452866576E-01 -0.58388111197E-01  0.59600479969E-02  0.61833395833E-01  0.51100000000E-03 0.  1.
</event>
<event>
 8    1  0.1213322E+005  0.1043930E+01  0.7957747E-01            NaN
         13   -1    0    0    0    0  0.00000000000E+00  0.00000000000E+00  0.74505805969E-08  0.10566000000E+00  0.10566000000E+00 0.  1.
     999900   -1    0    0    0    0 -0.00000000000E+00 -0.00000000000E+00 -0.74505805969E-08  0.93827000000E+00  0.93827000000E+00 0. -1.
     999902    2    1    2    0    0  0.18809066359E-01 -0.13512234588E-01  0.17800410960E-02  0.10207022148E+01  0.10204378870E+01 0.  0.
     999903    2    3    3    0    0 -0.33209694558E-01  0.10394339180E+00 -0.63312527952E-01  0.12899664777E+00  0.26917400114E-01 0.  0.
         14    1    1    2    0    0 -0.18809066359E-01  0.13512234588E-01 -0.17800410960E-02  0.23227785241E-01  0.00000000000E+00 0.  1.
     999901    1    3    3    0    0  0.52018760918E-01 -0.11745562639E+00  0.65092569047E-01  0.89170556699E+00  0.88000000000E+00 0. -1.
        -11    1    4    4    0    0 -0.29221092391E-02  0.11630372823E-01 -0.18383741979E-01  0.21955122057E-01  0.51100000000E-03 0.  1.
         11    1    4    4    0    0 -0.30287585319E-01  0.92313018974E-01 -0.44928785973E-01  0.10704152571E+00  0.51100000000E-03 0. -1.
</event>
<event>
 8    1  0.1213322E+005  0.1043930E+01  0.7957747E-01            NaN
         13   -1    0    0    0    0  0.00000000000E+00  0.00000000000E+00  0.74505805969E-08  0.10566000000E+00  0.10566000000E+00 0. -1.
     999900   -1    0    0    0    0 -0.00000000000E+00 -0.00000000000E+00 -0.74505805969E-08  0.93827000000E+00  0.93827000000E+00 0. -1.
     999902    2    1    2    0    0 -0.97916561459E-02  0.12663663333E-01 -0.20113860562E-01  0.10182237306E+01  0.10178991862E+01 0.  0.
     999903    2    3    3    0    0  0.99783854530E-01 -0.68018956834E-01  0.30677592395E-01  0.12631776616E+00  0.20776603626E-01 0.  0.
         14    1    1    2    0    0  0.97916561459E-02 -0.12663663333E-01  0.20113860562E-01  0.25706269387E-01  0.00000000000E+00 0. -1.
     999901    1    3    3    0    0 -0.10957551068E+00  0.80682620168E-01 -0.50791452958E-01  0.89190596446E+00  0.88000000000E+00 0. -1.
        -11    1    4    4    0    0  0.42890413549E-01 -0.31993851455E-01  0.23995886477E-01  0.58645185601E-01  0.51100000000E-03 0.  1.
         11    1    4    4    0    0  0.56893440981E-01 -0.36025105379E-01  0.66817059180E-02  0.67672580557E-01  0.51100000000E-03 0. -1.
</event>
<event>
 8    1  0.1213322E+005  0.1043930E+01  0.7957747E-01            NaN
         13   -1    0    0    0    0  0.00000000000E+00  0.00000000000E+00  0.74505805969E-08  0.10566000000E+00  0.10566000000E+00 0. -1.
     999900   -1    0    0    0    0 -0.00000000000E+00 -0.00000000000E+00 -0.74505805969E-08  0.93827000000E+00  0.93827000000E+00 0.  1.
     999902    2    1    2    0    0  0.80651009831E-02  0.10943005436E-01  0.17280176951E-01  0.10219436466E+01  0.10217071092E+01 0.  0.
     999903    2    3    3    0    0 -0.28600023256E-01 -0.12209998507E+00  0.32724590725E-01  0.13105459704E+00  0.19443273429E-01 0.  0.
         14    1    1    2    0    0 -0.80651009831E-02 -0.10943005436E-01 -0.17280176951E-01  0.21986353433E-01  0.00000000000E+00 0.  1.
     999901    1    3    3    0    0  0.36665124239E-01  0.13304299051E+00 -0.15444413774E-01  0.89088904953E+00  0.88000000000E+00 0.  1.
        -11    1    4    4    0    0 -0.23607385636E-01 -0.75772594694E-01  0.28239221498E-01  0.84240782968E-01  0.51100000000E-03 0.  1.
         11    1    4    4    0    0 -0.49926376197E-02 -0.46327390376E-01  0.44853692278E-02  0.46813814067E-01  0.51100000000E-03 0. -1.
</event>
<event>
 8    1  0.1213322E+005  0.1043930E+01  0.7957747E-01            NaN
         13   -1    0    0    0    0  0.00000000000E+00  0.00000000000E+00  0.74505805969E-08  0.10566000000E+00  0.10566000000E+00 0. -1.
     999900   -1    0    0    0    0 -0.00000000000E+00 -0.00000000000E+00 -0.74505805969E-08  0.93827000000E+00  0.93827000000E+00 0. -1.
     999902    2    1    2    0    0 -0.20988764362E-01  0.10119922108E-01  0.44307684331E-02  0.10202113836E+01  0.10199356326E+01 0.  0.
     999903    2    3    3    0    0 -0.10616895028E+00 -0.50871204006E-01 -0.56348268391E-01  0.13191544599E+00  0.19152862401E-01 0.  0.
         14    1    1    2    0    0  0.20988764362E-01 -0.10119922108E-01 -0.44307684331E-02  0.23718616356E-01  0.00000000000E+00 0. -1.
     999901    1    3    3    0    0  0.85180185922E-01  0.60991126114E-01  0.60779036824E-01  0.88829593766E+00  0.88000000000E+00 0.  1.
        -11    1    4    4    0    0 -0.94443977893E-01 -0.46314937587E-01 -0.43211119834E-01  0.11371983293E+00  0.51100000000E-03 0.  1.
         11    1    4    4    0    0 -0.11724972391E-01 -0.45562664187E-02 -0.13137148557E-01  0.18195613055E-01  0.51100000000E-03 0. -1.
</event>
<event>
 8    1  0.1213322E+005  0.1043930E+01  0.7957747E-01            NaN
         13   -1    0    0    0    0  0.00000000000E+00  0.00000000000E+00  0.74505805969E-08  0.10566000000E+00  0.10566000000E+00 0. -1.
     999900   -1    0    0    0    0 -0.00000000000E+00 -0.00000000000E+00 -0.74505805969E-08  0.93827000000E+00  0.93827000000E+00 0. -1.
     999902    2    1    2    0    0 -0.14464339266E-01 -0.10346198866E-01  0.14983023707E-01  0.10206759264E+01  0.10204109930E+01 0.  0.
     999903    2    3    3    0    0  0.10315026574E+00 -0.20173599997E-01  0.74833775781E-01  0.13078161486E+00  0.21372536791E-01 0.  0.
         14    1    1    2    0    0  0.14464339266E-01  0.10346198866E-01 -0.14983023707E-01  0.23254073638E-01  0.00000000000E+00 0.  1.
     999901    1    3    3    0    0 -0.11761460500E+00  0.98274011311E-02 -0.59850752074E-01  0.88989431150E+00  0.88000000000E+00 0. -1.
        -11    1    4    4    0    0  0.45527484351E-01  0.18402088544E-02  0.31486560280E-01  0.55387749541E-01  0.51100000000E-03 0. -1.
         11    1    4    4    0    0  0.57622781385E-01 -0.22013808852E-01  0.43347215501E-01  0.75393865317E-01  0.51100000000E-03 0.  1.
</event>
<event>
 8    1  0.1213322E+005  0.1043930E+01  0.7957747E-01            NaN
         13   -1    0    0    0    0  0.00000000000E+00  0.00000000000E+00  0.74505805969E-08  0.10566000000E+00  0.10566000000E+00 0.  1.
     999900   -1    0    0    0    0 -0.00000000000E+00 -0.00000000000E+00 -0.74505805969E-08  0.93827000000E+00  0.93827000000E+00 0. -1.
     999902    2    1    2    0    0  0.15440368137E-01 -0.13093387554E-01  0.13376222815E-01  0.10196655177E+01  0.10193767718E+01 0.  0.
     999903    2    3    3    0    0 -0.75944669119E-01 -0.38958191484E-01  0.96882970136E-01  0.13062469186E+00  0.19777936420E-01 0.  0.
         14    1    1    2    0    0 -0.15440368137E-01  0.13093387554E-01 -0.13376222815E-01  0.24264482328E-01  0.00000000000E+00 0.  1.
     999901    1    3    3    0    0  0.91385037257E-01  0.25864803930E-01 -0.83506747322E-01  0.88904082581E+00  0.88000000000E+00 0. -1.
        -11    1    4    4    0    0 -0.26448296285E-01 -0.13721742245E-01  0.20495762322E-01  0.36168162530E-01  0.51100000000E-03 0.  1.
         11    1    4    4    0    0 -0.49496372835E-01 -0.25236449239E-01  0.76387207814E-01  0.94456529328E-01  0.51100000000E-03 0. -1.
</event>
<event>
 8    1  0.1213322E+005  0.1043930E+01  0.7957747E-01            NaN
         13   -1    0    0    0    0  0.00000000000E+00  0.00000000000E+00  0.74505805969E-08  0.10566000000E+00  0.10566000000E+00 0.  1.
     999900   -1    0    0    0    0 -0.00000000000E+00 -0.00000000000E+00 -0.74505805969E-08  0.93827000000E+00  0.93827000000E+00 0. -1.
     999902    2    1    2    0    0  0.12082355423E-02 -0.22131289565E-01 -0.74018045411E-02  0.10205624900E+01  0.10202949356E+01 0.  0.
     999903    2    3    3    0    0  0.69966180249E-01 -0.10144332720E+00  0.45169095359E-01  0.13276648094E+00  0.20016899704E-01 0.  0.
         14    1    1    2    0    0 -0.12082355423E-02  0.22131289565E-01  0.74018045411E-02  0.23367509953E-01  0.00000000000E+00 0.  1.
     999901    1    3    3    0    0 -0.68757944707E-01  0.79312037631E-01 -0.52570899900E-01  0.88779600911E+00  0.88000000000E+00 0. -1.
        -11    1    4    4    0    0  0.24574479412E-01 -0.39505099535E-01  0.27218943536E-01  0.53904451911E-01  0.51100000000E-03 0.  1.
         11    1    4    4    0    0  0.45391700837E-01 -0.61938227662E-01  0.17950151823E-01  0.78862029027E-01  0.51100000000E-03 0. -1.
</event>
<event>
 8    1  0.1213322E+005  0.1043930E+01  0.7957747E-01            NaN
         13   -1    0    0    0    0  0.00000000000E+00  0.00000000000E+00  0.74505805969E-08  0.10566000000E+00  0.10566000000E+00 0.  1.
     999900   -1    0    0    0    0 -0.00000000000E+00 -0.00000000000E+00 -0.74505805969E-08  0.93827000000E+00  0.93827000000E+00 0.  1.
     999902    2    1    2    0    0 -0.21593257289E-01 -0.72850503383E-02 -0.26802296829E-02  0.10209838816E+01  0.10207259976E+01 0.  0.
     999903    2    3    3    0    0  0.84907045420E-01 -0.96220354890E-01  0.60096359744E-02  0.13007012783E+00  0.20360731156E-01 0.  0.
         14    1    1    2    0    0  0.21593257289E-01  0.72850503383E-02  0.26802296829E-02  0.22946118407E-01  0.00000000000E+00 0. -1.
     999901    1    3    3    0    0 -0.10650030271E+00  0.88935304551E-01 -0.86898656573E-02  0.89091375376E+00  0.88000000000E+00 0. -1.
        -11    1    4    4    0    0  0.55960175026E-01 -0.66881434509E-01  0.13291898971E-01  0.88213395639E-01  0.51100000000E-03 0. -1.
         11    1    4    4    0    0  0.28946870393E-01 -0.29338920381E-01 -0.72822629964E-02  0.41856732195E-01  0.51100000000E-03 0.  1.
</event>
<event>
 8    1  0.1213322E+005  0.1043930E+01  0.7957747E-01            NaN
         13   -1    0    0    0    0  0.00000000000E+00  0.00000000000E+00  0.74505805969E-08  0.10566000000E+00  0.10566000000E+00 0. -1.
     999900   -1    0    0    0    0 -0.00000000000E+00 -0.00000000000E+00 -0.74505805969E-08  0.93827000000E+00  0.93827000000E+00 0.  1.
     999902    2    1    2    0    0  0.28930970912E-01  0.15456518901E-02 -0.99507507986E-02  0.10132965614E+01  0.10128334087E+01 0.  0.
     999903    2    3    3    0    0 -0.31672419864E-01  0.11199495505E+00 -0.37288152846E-01  0.12390398607E+00  0.20390666593E-01 0.  0.
         14    1    1    2    0    0 -0.28930970912E-01 -0.15456518901E-02  0.99507507986E-02  0.30633438578E-01  0.00000000000E+00 0. -1.
     999901    1    3    3    0    0  0.60603390776E-01 -0.11044930316E+00  0.27337402047E-01  0.88939257535E+00  0.88000000000E+00 0. -1.
        -11    1    4    4    0    0 -0.15124166039E-01  0.80421650273E-01 -0.19797376635E-01  0.84193702102E-01  0.51100000000E-03 0.  1.
         11    1    4    4    0    0 -0.16548253825E-01  0.31573304779E-01 -0.17490776211E-01  0.39710283967E-01  0.51100000000E-03 0. -1.
</event>
<event>
 8    1  0.1213322E+005  0.1043930E+01  0.7957747E-01            NaN
         13   -1    0    0    0    0  0.00000000000E+00  0.00000000000E+00  0.74505805969E-08  0.10566000000E+00  0.10566000000E+00 0. -1.
     999900   -1    0    0    0    0 -0.00000000000E+00 -0.00000000000E+00 -0.74505805969E-08  0.93827000000E+00  0.93827000000E+00 0. -1.
     999902    2    1    2    0    0 -0.21257964797E-01  0.29300189020E-02 -0.11906258025E-01  0.10193893183E+01  0.10190938805E+01 0.  0.
     999903    2    3    3    0    0  0.11984588148E+00  0.33027285106E-02  0.35445779860E-01  0.12689133520E+00  0.21704016144E-01 0.  0.
         14    1    1    2    0    0  0.21257964797E-01 -0.29300189020E-02  0.11906258025E-01  0.24540681699E-01  0.00000000000E+00 0. -1.
     999901    1    3    3    0    0 -0.14110384627E+00 -0.37270960858E-03 -0.47352037885E-01  0.89249798310E+00  0.88000000000E+00 0.  1.
        -11    1    4    4    0    0  0.65458050498E-01 -0.68040856474E-02  0.26035383929E-01  0.70775379150E-01  0.51100000000E-03 0. -1.
         11    1    4    4    0    0  0.54387830978E-01  0.10106814158E-01  0.94103959311E-02  0.56115956051E-01  0.51100000000E-03 0.  1.
</event>
<event>
 8    1  0.1213322E+005  0.1043930E+01  0.7957747E-01            NaN
         13   -1    0    0    0    0  0.00000000000E+00  0.00000000000E+00  0.74505805969E-08  0.10566000000E+00  0.10566000000E+00 0. -1.
     999900   -1    0    0    0    0 -0.00000000000E+00 -0.00000000000E+00 -0.74505805969E-08  0.93827000000E+00  0.93827000000E+00 0.  1.
     999902    2    1    2    0    0  0.18733553976E-02  0.45464836229E-02  0.22930234292E-01  0.10204784410E+01  0.10202089359E+01 0.  0.
     999903    2    3    3    0    0 -0.95141150579E-01  0.53647191712E-02 -0.84050917619E-01  0.12870635649E+00  0.20497578012E-01 0.  0.
         14    1    1    2    0    0 -0.18733553976E-02 -0.45464836229E-02 -0.22930234292E-01  0.23451558977E-01  0.00000000000E+00 0.  1.
     999901    1    3    3    0    0  0.97014505976E-01 -0.81823554828E-03  0.10698115191E+00  0.89177208453E+00  0.88000000000E+00 0. -1.
        -11    1    4    4    0    0 -0.75370296693E-02 -0.16376558450E-02 -0.15238184150E-01  0.17086606161E-01  0.51100000000E-03 0.  1.
         11    1    4    4    0    0 -0.87604120909E-01  0.70023750162E-02 -0.68812733469E-01  0.11161975033E+00  0.51100000000E-03 0. -1.
</event>
<event>
 8    1  0.1213322E+005  0.1043930E+01  0.7957747E-01            NaN
         13   -1    0    0    0    0  0.00000000000E+00  0.00000000000E+00  0.74505805969E-08  0.10566000000E+00  0.10566000000E+00 0.  1.
     999900   -1    0    0    0    0 -0.00000000000E+00 -0.00000000000E+00 -0.74505805969E-08  0.93827000000E+00  0.93827000000E+00 0. -1.
     999902    2    1    2    0    0 -0.21534093825E-01 -0.50694754150E-02 -0.78127329074E-02  0.10204682104E+01  0.10201984673E+01 0.  0.
     999903    2    3    3    0    0 -0.74673555421E-01  0.10053364081E+00 -0.36918008060E-01  0.13208600794E+00  0.20015527980E-01 0.  0.
         14    1    1    2    0    0  0.21534093825E-01  0.50694754150E-02  0.78127329074E-02  0.23461789645E-01  0.00000000000E+00 0.  1.
     999901    1    3    3    0    0  0.53139461596E-01 -0.10560311622E+00  0.29105275153E-01  0.88838220242E+00  0.88000000000E+00 0.  1.
        -11    1    4    4    0    0 -0.18813979865E-01  0.41379104615E-01 -0.13518714486E-01  0.47425867409E-01  0.51100000000E-03 0.  1.
         11    1    4    4    0    0 -0.55859575557E-01  0.59154536190E-01 -0.23399293574E-01  0.84660140527E-01  0.51100000000E-03 0. -1.
</event>
<event>
 8    1  0.1213322E+005  0.1043930E+01  0.7957747E-01            NaN
         13   -1    0    0    0    0  0.00000000000E+00  0.00000000000E+00  0.74505805969E-08  0.10566000000E+00  0.10566000000E+00 0.  1.
     999900   -1    0    0    0    0 -0.00000000000E+00 -0.00000000000E+00 -0.74505805969E-08  0.93827000000E+00  0.93827000000E+00 0. -1.
     999902    2    1    2    0    0  0.10419366834E-01 -0.66946329202E-02  0.20345271870E-01  0.10201117003E+01  0.10198335990E+01 0.  0.
     999903    2    3    3    0    0 -0.83051864801E-02  0.88500920130E-01 -0.89889341109E-01  0.12794329008E+00  0.19697787837E-01 0.  0.
         14    1    1    2    0    0 -0.10419366834E-01  0.66946329202E-02 -0.20345271870E-01  0.23818299742E-01  0.00000000000E+00 0. -1.
     999901    1    3    3    0    0  0.18724553314E-01 -0.95195553050E-01  0.11023461298E+00  0.89216841018E+00  0.88000000000E+00 0.  1.
        -11    1    4    4    0    0 -0.37274054896E-02  0.48096708213E-01 -0.34868096519E-01  0.59525054964E-01  0.51100000000E-03 0.  1.
         11    1    4    4    0    0 -0.45777809905E-02  0.40404211917E-01 -0.55021244590E-01  0.68418235118E-01  0.51100000000E-03 0. -1.
</event>
<event>
 8    1  0.1213322E+005  0.1043930E+01  0.7957747E-01            NaN
         13   -1    0    0    0    0  0.00000000000E+00  0.00000000000E+00  0.74505805969E-08  0.10566000000E+00  0.10566000000E+00 0. -1.
     999900   -1    0    0    0    0 -0.00000000000E+00 -0.00000000000E+00 -0.74505805969E-08  0.93827000000E+00  0.93827000000E+00 0.  1.
     999902    2    1    2    0    0 -0.92565866193E-02 -0.12930658413E-01  0.19634950222E-01  0.10186630731E+01  0.10183496644E+01 0.  0.
     999903    2    3    3    0    0  0.11449675471E+00  0.20173162985E-01  0.51612701475E-01  0.12881290089E+00  0.20308351450E-01 0.  0.
         14    1    1    2    0    0  0.92565866193E-02  0.12930658413E-01 -0.19634950222E-01  0.25266926862E-01  0.00000000000E+00 0. -1.
     999901    1    3    3    0    0 -0.12375334132E+00 -0.33103821398E-01 -0.31977751253E-01  0.88985017225E+00  0.88000000000E+00 0. -1.
        -11    1    4    4    0    0  0.77200519449E-01  0.20249987407E-01  0.42465939499E-01  0.90407960555E-01  0.51100000000E-03 0. -1.
         11    1    4    4    0    0  0.37296235256E-01 -0.76824421944E-04  0.91467619755E-02  0.38404940332E-01  0.51100000000E-03 0.  1.
</event>
<event>
 8    1  0.1213322E+005  0.1043930E+01  0.7957747E-01            NaN
         13   -1    0    0    0    0  0.00000000000E+00  0.00000000000E+00  0.74505805969E-08  0.10566000000E+00  0.10566000000E+00 0. -1.
     999900   -1    0    0    0    0 -0.00000000000E+00 -0.00000000000E+00 -0.74505805969E-08  0.93827000000E+00  0.93827000000E+00 0.  1.
     999902    2    1    2    0    0  0.34921782162E-03  0.24003258813E-01  0.52591616352E-02  0.10193548669E+01  0.10190585888E+01 0.  0.
     999903    2    3    3    0    0  0.25789252769E-01  0.68325001616E-01  0.10832365732E+00  0.13186745709E+00  0.17933769814E-01 0.  0.
         14    1    1    2    0    0 -0.34921782162E-03 -0.24003258813E-01 -0.52591616352E-02  0.24575133119E-01  0.00000000000E+00 0.  1.
     999901    1    3    3    0    0 -0.25440034948E-01 -0.44321742803E-01 -0.10306449569E+00  0.88748740979E+00  0.88000000000E+00 0.  1.
        -11    1    4    4    0    0  0.26246031749E-01  0.59511739343E-01  0.85776224912E-01  0.10764907423E+00  0.51100000000E-03 0.  1.
         11    1    4    4    0    0 -0.45677897951E-03  0.88132622724E-02  0.22547432411E-01  0.24218382857E-01  0.51100000000E-03 0. -1.
</event>
<event>
 8    1  0.1213322E+005  0.1043930E+01  0.7957747E-01            NaN
         13   -1    0    0    0    0  0.00000000000E+00  0.00000000000E+00  0.74505805969E-08  0.10566000000E+00  0.10566000000E+00 0. -1.
     999900   -1    0    0    0    0 -0.00000000000E+00 -0.00000000000E+00 -0.74505805969E-08  0.93827000000E+00  0.93827000000E+00 0. -1.
     999902    2    1    2    0    0 -0.11392965118E-01  0.13396309156E-01 -0.15788039165E-01  0.10202969102E+01  0.10200231674E+01 0.  0.
     999903    2    3    3    0    0 -0.36545080963E-01  0.11836682768E-01 -0.12573957307E+00  0.13309659393E+00  0.20702972684E-01 0.  0.
         14    1    1    2    0    0  0.11392965118E-01 -0.13396309156E-01  0.15788039165E-01  0.23633089807E-01  0.00000000000E+00 0.  1.
     999901    1    3    3    0    0  0.25152115845E-01  0.15596263883E-02  0.10995153391E+00  0.88720031626E+00  0.88000000000E+00 0.  1.
        -11    1    4    4    0    0 -0.34357961764E-01  0.75081777983E-02 -0.83906388040E-01  0.90980137092E-01  0.51100000000E-03 0. -1.
         11    1    4    4    0    0 -0.21871191993E-02  0.43285049693E-02 -0.41833185033E-01  0.42116456839E-01  0.51100000000E-03 0.  1.
</event>
<event>
 8    1  0.1213322E+005  0.1043930E+01  0.7957747E-01            NaN
         13   -1    0    0    0    0  0.00000000000E+00  0.00000000000E+00  0.74505805969E-08  0.10566000000E+00  0.10566000000E+00 0. -1.
     999900   -1    0    0    0    0 -0.00000000000E+00 -0.00000000000E+00 -0.74505805969E-08  0.93827000000E+00  0.93827000000E+00 0. -1.
     999902    2    1    2    0    0  0.23163632917E-01 -0.30418002146E-03  0.44774650840E-02  0.10203356340E+01  0.10200627980E+01 0.  0.
     999903    2    3    3    0    0  0.80651860811E-02  0.56451383361E-02 -0.12826753290E+00  0.13023193664E+00  0.20270237108E-01 0.  0.
         14    1    1    2    0    0 -0.23163632917E-01  0.30418002146E-03 -0.44774650840E-02  0.23594366043E-01  0.00000000000E+00 0. -1.
     999901    1    3    3    0    0  0.15098446836E-01 -0.59493183576E-02  0.13274499798E+00  0.89010369732E+00  0.88000000000E+00 0.  1.
        -11    1    4    4    0    0 -0.56355363800E-02  0.34105924275E-02 -0.70872872361E-01  0.71180169771E-01  0.51100000000E-03 0.  1.
         11    1    4    4    0    0  0.13700722461E-01  0.22345459086E-02 -0.57394660536E-01  0.59051766870E-01  0.51100000000E-03 0. -1.
</event>
<event>
 8    1  0.1213322E+005  0.1043930E+01  0.7957747E-01            NaN
         13   -1    0    0    0    0  0.00000000000E+00  0.00000000000E+00  0.74505805969E-08  0.10566000000E+00  0.10566000000E+00 0.  1.
     999900   -1    0    0    0    0 -0.00000000000E+00 -0.00000000000E+00 -0.74505805969E-08  0.93827000000E+00  0.93827000000E+00 0.  1.
     999902    2    1    2    0    0 -0.20766203564E-01  0.52608864678E-02  0.11606553534E-01  0.10195655952E+01  0.10192744374E+01 0.  0.
     999903    2    3    3    0    0  0.40942440069E-01  0.75930010145E-01  0.96084827476E-01  0.13055566245E+00  0.19257130811E-01 0.  0.
         14    1    1    2    0    0  0.20766203564E-01 -0.52608864678E-02 -0.11606553534E-01  0.24364404811E-01  0.00000000000E+00 0. -1.
     999901    1    3    3    0    0 -0.61708643633E-01 -0.70669123677E-01 -0.84478273943E-01  0.88900993274E+00  0.88000000000E+00 0.  1.
        -11    1    4    4    0    0  0.21793438516E-01  0.21577035311E-01  0.36150776527E-01  0.47409515708E-01  0.51100000000E-03 0. -1.
         11    1    4    4    0    0  0.19149001553E-01  0.54352974834E-01  0.59934050949E-01  0.83146146742E-01  0.51100000000E-03 0.  1.
</event>
<event>
 8    1  0.1213322E+005  0.1043930E+01  0.7957747E-01            NaN
         13   -1    0    0    0    0  0.00000000000E+00  0.00000000000E+00  0.74505805969E-08  0.10566000000E+00  0.10566000000E+00 0. -1.
     999900   -1    0    0    0    0 -0.00000000000E+00 -0.00000000000E+00 -0.74505805969E-08  0.93827000000E+00  0.93827000000E+00 0. -1.
     999902    2    1    2    0    0 -0.12762707580E-01 -0.93369411946E-02  0.16892276475E-01  0.10207909814E+01  0.10205286932E+01 0.  0.
     999903    2    3    3    0    0 -0.11020798203E+00 -0.68714365248E-01 -0.16612731002E-01  0.13279106841E+00  0.22136434323E-01 0.  0.
         14    1    1    2    0    0  0.12762707580E-01  0.93369411946E-02 -0.16892276475E-01  0.23139018565E-01  0.00000000000E+00 0.  1.
     999901    1    3    3    0    0  0.97445274450E-01  0.59377424053E-01  0.33505007478E-01  0.88799991302E+00  0.88000000000E+00 0. -1.
        -11    1    4    4    0    0 -0.41369288334E-01 -0.13671216845E-01 -0.40686421461E-02  0.43762257223E-01  0.51100000000E-03 0. -1.
         11    1    4    4    0    0 -0.68838693696E-01 -0.55043148403E-01 -0.12544088856E-01  0.89028811191E-01  0.51100000000E-03 0.  1.
</event>
<event>
 8    1  0.1213322E+005  0.1043930E+01  0.7957747E-01            NaN
         13   -1    0    0    0    0  0.00000000000E+00  0.00000000000E+00  0.74505805969E-08  0.10566000000E+00  0.10566000000E+00 0. -1.
     999900   -1    0    0    0    0 -0.00000000000E+00 -0.00000000000E+00 -0.74505805969E-08  0.93827000000E+00  0.93827000000E+00 0.  1.
     999902    2    1    2    0    0  0.10485279306E-01 -0.19328720304E-01 -0.59294408103E-02  0.10211550405E+01  0.10209010324E+01 0.  0.
     999903    2    3    3    0    0  0.62403501513E-01 -0.11575685232E+00  0.17488517277E-01  0.13405736428E+00  0.19279077256E-01 0.  0.
         14    1    1    2    0    0 -0.10485279306E-01  0.19328720304E-01  0.59294408103E-02  0.22774959474E-01  0.00000000000E+00 0.  1.
     999901    1    3    3    0    0 -0.51918222207E-01  0.96428132020E-01 -0.23417958088E-01  0.88709767625E+00  0.88000000000E+00 0. -1.
        -11    1    4    4    0    0  0.39298572101E-01 -0.87565611551E-01  0.17720853212E-01  0.97603298382E-01  0.51100000000E-03 0. -1.
         11    1    4    4    0    0  0.23104929411E-01 -0.28191240773E-01 -0.23233593465E-03  0.36454065897E-01  0.51100000000E-03 0.  1.
</event>
<event>
 8    1  0.1213322E+005  0.1043930E+01  0.7957747E-01            NaN
         13   -1    0    0    0    0  0.00000000000E+00  0.00000000000E+00  0.74505805969E-08  0.10566000000E+00  0.10566000000E+00 0.  1.
     999900   -1    0    0    0    0 -0.00000000000E+00 -0.00000000000E+00 -0.74505805969E-08  0.93827000000E+00  0.93827000000E+00 0. -1.
     999902    2    1    2    0    0  0.42270631940E-02 -0.22812775772E-01 -0.98438155000E-03  0.10207080318E+01  0.10204438379E+01 0.  0.
     999903    2    3    3    0    0  0.11344694260E-01  0.30931159314E-01  0.12412917523E+00  0.13020678341E+00  0.21454966769E-01 0.  0.
         14    1    1    2    0    0 -0.42270631940E-02  0.22812775772E-01  0.98438155000E-03  0.23221968235E-01  0.00000000000E+00 0.  1.
     999901    1    3    3    0    0 -0.71176310657E-02 -0.53743935086E-01 -0.12511355678E+00  0.89050124835E+00  0.88000000000E+00 0.  1.
        -11    1    4    4    0    0  0.90607388878E-02  0.81804487099E-03  0.28584047108E-01  0.30001250918E-01  0.51100000000E-03 0. -1.
         11    1    4    4    0    0  0.22839553719E-02  0.30113114443E-01  0.95545128121E-01  0.10020553249E+00  0.51100000000E-03 0.  1.
</event>
<event>
 8    1  0.1213322E+005  0.1043930E+01  0.7957747E-01            NaN
         13   -1    0    0    0    0  0.00000000000E+00  0.00000000000E+00  0.74505805969E-08  0.10566000000E+00  0.10566000000E+00 0. -1.
     999900   -1    0    0    0    0 -0.00000000000E+00 -0.00000000000E+00 -0.74505805969E-08  0.93827000000E+00  0.93827000000E+00 0. -1.
     999902    2    1    2    0    0 -0.11498234775E-01 -0.18860293468E-01  0.11267131079E-01  0.10191334616E+01  0.10188317547E+01 0.  0.
     999903    2    3    3    0    0  0.16370783741E-01 -0.43170441808E-01  0.12141267485E+00  0.13149631373E+00  0.20458575335E-01 0.  0.
         14    1    1    2    0    0  0.11498234775E-01  0.18860293468E-01 -0.11267131079E-01  0.24796538375E-01  0.00000000000E+00 0.  1.
     999901    1    3    3    0    0 -0.27869018517E-01  0.24310148340E-01 -0.11014554377E+00  0.88763714789E+00  0.88000000000E+00 0. -1.
        -11    1    4    4    0    0  0.91482434678E-02 -0.26547982550E-01  0.45674301175E-01  0.53617988072E-01  0.51100000000E-03 0. -1.
         11    1    4    4    0    0  0.72225402735E-02 -0.16622459258E-01  0.75738373675E-01  0.77878325661E-01  0.51100000000E-03 0.  1.
</event>
<event>
 8    1  0.1213322E+005  0.1043930E+01  0.7957747E-01            NaN
         13   -1    0    0    0    0  0.00000000000E+00  0.00000000000E+00  0.74505805969E-08  0.10566000000E+00  0.10566000000E+00 0. -1.
     999900   -1    0    0    0    0 -0.00000000000E+00 -0.00000000000E+00 -0.74505805969E-08  0.93827000000E+00  0.93827000000E+00 0. -1.
     999902    2    1    2    0    0 -0.30070958819E-02  0.21934341429E-01 -0.58405572560E-02  0.10210330555E+01  0.10207762881E+01 0.  0.
     999903    2    3    3    0    0 -0.87599052150E-01  0.26703807428E-01 -0.93760336230E-01  0.13260273496E+00  0.20144413630E-01 0.  0.
         14    1    1    2    0    0  0.30070958819E-02 -0.21934341429E-01  0.58405572560E-02  0.22896944526E-01  0.00000000000E+00 0.  1.
     999901    1    3    3    0    0  0.84591956268E-01 -0.47694659995E-02  0.87919778974E-01  0.88843032051E+00  0.88000000000E+00 0.  1.
        -11    1    4    4    0    0 -0.35454266753E-02 -0.16638110411E-02 -0.93425901298E-02  0.10143146890E-01  0.51100000000E-03 0. -1.
         11    1    4    4    0    0 -0.84053625475E-01  0.28367618469E-01 -0.84417746101E-01  0.12245958807E+00  0.51100000000E-03 0.  1.
</event>
<event>
 8    1  0.1213322E+005  0.1043930E+01  0.7957747E-01            NaN
         13   -1    0    0    0    0  0.00000000000E+00  0.00000000000E+00  0.74505805969E-08  0.10566000000E+00  0.10566000000E+00 0. -1.
     999900   -1    0    0    0    0 -0.00000000000E+00 -0.00000000000E+00 -0.74505805969E-08  0.93827000000E+00  0.93827000000E+00 0. -1.
     999902    2    1    2    0    0 -0.13187174790E-01  0.19652241089E-01 -0.26039944378E-02  0.10201204862E+01  0.10198425925E+01 0.  0.
     999903    2    3    3    0    0  0.19796420116E-02 -0.95924090456E-01 -0.83521398650E-01  0.12875325156E+00  0.19905417415E-01 0.  0.
         14    1    1    2    0    0  0.13187174790E-01 -0.19652241089E-01  0.26039944378E-02  0.23809513767E-01  0.00000000000E+00 0.  1.
     999901    1    3    3    0    0 -0.15166816802E-01  0.11557633155E+00  0.80917404212E-01  0.89136723467E+00  0.88000000000E+00 0.  1.
        -11    1    4    4    0    0  0.81189330838E-02 -0.67630553061E-01 -0.50257769749E-01  0.84651717779E-01  0.51100000000E-03 0. -1.
         11    1    4    4    0    0 -0.61392910723E-02 -0.28293537395E-01 -0.33263628900E-01  0.44101533781E-01  0.51100000000E-03 0.  1.
</event>
<event>
 8    1  0.1213322E+005  0.1043930E+01  0.7957747E-01            NaN
         13   -1    0    0    0    0  0.00000000000E+00  0.00000000000E+00  0.74505805969E-08  0.10566000000E+00  0.10566000000E+00 0.  1.
     999900   -1    0    0    0    0 -0.00000000000E+00 -0.00000000000E+00 -0.74505805969E-08  0.93827000000E+00  0.93827000000E+00 0. -1.
     999902    2    1    2    0    0  0.18443534281E-01 -0.14837215139E-01 -0.23099684211E-02  0.10201467525E+01  0.10198694787E+01 0.  0.
     999903    2    3    3    0    0  0.69060963649E-02  0.12653344384E+00 -0.82790211991E-02  0.12876893958E+00  0.21318795216E-01 0.  0.
         14    1    1    2    0    0 -0.18443534281E-01  0.14837215139E-01  0.23099684211E-02  0.23783247549E-01  0.00000000000E+00 0.  1.
     999901    1    3    3    0    0  0.11537437916E-01 -0.14137065898E+00  0.59690527779E-02  0.89137781288E+00  0.88000000000E+00 0.  1.
        -11    1    4    4    0    0  0.83693008235E-02  0.48518591950E-01  0.54557446298E-02  0.49539128289E-01  0.51100000000E-03 0.  1.
         11    1    4    4    0    0 -0.14632044586E-02  0.78014851894E-01 -0.13734765829E-01  0.79229811288E-01  0.51100000000E-03 0. -1.
</event>
<event>
 8    1  0.1213322E+005  0.1043930E+01  0.7957747E-01            NaN
         13   -1    0    0    0    0  0.00000000000E+00  0.00000000000E+00  0.74505805969E-08  0.10566000000E+00  0.10566000000E+00 0.  1.
     999900   -1    0    0    0    0 -0.00000000000E+00 -0.00000000000E+00 -0.74505805969E-08  0.93827000000E+00  0.93827000000E+00 0. -1.
     999902    2    1    2    0    0 -0.14126078105E-01 -0.19485991950E-01 -0.66463446139E-02  0.10189615427E+01  0.10186555854E+01 0.  0.
     999903    2    3    3    0    0  0.82507215437E-01  0.20027637920E-02  0.95370207560E-01  0.12755415154E+00  0.19056059980E-01 0.  0.
         14    1    1    2    0    0  0.14126078105E-01  0.19485991950E-01  0.66463446139E-02  0.24968457334E-01  0.00000000000E+00 0.  1.
     999901    1    3    3    0    0 -0.96633293542E-01 -0.21488755743E-01 -0.10201655217E+00  0.89140739113E+00  0.88000000000E+00 0. -1.
        -11    1    4    4    0    0  0.32465979824E-01 -0.45287774001E-02  0.26407397740E-01  0.42097047961E-01  0.51100000000E-03 0. -1.
         11    1    4    4    0    0  0.50041235613E-01  0.65315411922E-02  0.68962809820E-01  0.85457103575E-01  0.51100000000E-03 0.  1.
</event>
<event>
 8    1  0.1213322E+005  0.1043930E+01  0.7957747E-01            NaN
         13   -1    0    0    0    0  0.00000000000E+00  0.00000000000E+00  0.74505805969E-08  0.10566000000E+00  0.10566000000E+00 0.  1.
     999900   -1    0    0    0    0 -0.00000000000E+00 -0.00000000000E+00 -0.74505805969E-08  0.93827000000E+00  0.93827000000E+00 0. -1.
     999902    2    1    2    0    0  0.21099212965E-01 -0.10568157105E-01 -0.11626037386E-02  0.10203034391E+01  0.10200298493E+01 0.  0.
     999903    2    3    3    0    0  0.61054573017E-01  0.95497093847E-01 -0.62186910753E-01  0.13093836541E+00  0.20743380827E-01 0.  0.
         14    1    1    2    0    0 -0.21099212965E-01  0.10568157105E-01  0.11626037386E-02  0.23626560897E-01  0.00000000000E+00 0. -1.
     999901    1    3    3    0    0 -0.39955360052E-01 -0.10606525095E+00  0.61024307014E-01  0.88936507369E+00  0.88000000000E+00 0.  1.
        -11    1    4    4    0    0  0.18060456179E-01  0.16857240342E-01 -0.69971538164E-02  0.25682054277E-01  0.51100000000E-03 0.  1.
         11    1    4    4    0    0  0.42994116838E-01  0.78639853505E-01 -0.55189756936E-01  0.10525631113E+00  0.51100000000E-03 0. -1.
</event>
<event>
 8    1  0.1213322E+005  0.1043930E+01  0.7957747E-01            NaN
         13   -1    0    0    0    0  0.00000000000E+00  0.00000000000E+00  0.74505805969E-08  0.10566000000E+00  0.10566000000E+00 0.  1.
     999900   -1    0    0    0    0 -0.00000000000E+00 -0.00000000000E+00 -0.74505805969E-08  0.93827000000E+00  0.93827000000E+00 0.  1.
     999902    2    1    2    0    0  0.70378145045E-03  0.14980883035E-01  0.42556147329E-02  0.10283405028E+01  0.10282223288E+01 0.  0.
     999903    2    3    3    0    0 -0.83354672373E-01  0.47484476710E-01  0.98246406426E-01  0.13875825472E+00  0.19967972891E-01 0.  0.
         14    1    1    2    0    0 -0.70378145045E-03 -0.14980883035E-01 -0.42556147329E-02  0.15589497156E-01  0.00000000000E+00 0.  1.
     999901    1    3    3    0    0  0.84058453823E-01 -0.32503593675E-01 -0.93990791693E-01  0.88958224813E+00  0.88000000000E+00 0.  1.
        -11    1    4    4    0    0 -0.60791371689E-01  0.43275567767E-01  0.69557165270E-01  0.10201385199E+00  0.51100000000E-03 0.  1.
         11    1    4    4    0    0 -0.22563300684E-01  0.42089089429E-02  0.28689241156E-01  0.36744402721E-01  0.51100000000E-03 0. -1.
</event>
<event>
 8    1  0.1213322E+005  0.1043930E+01  0.7957747E-01            NaN
         13   -1    0    0    0    0  0.00000000000E+00  0.00000000000E+00  0.74505805969E-08  0.10566000000E+00  0.10566000000E+00 0.  1.
     999900   -1    0    0    0    0 -0.00000000000E+00 -0.00000000000E+00 -0.74505805969E-08  0.93827000000E+00  0.93827000000E+00 0. -1.
     999902    2    1    2    0    0  0.68612710925E-02  0.19371849258E-01  0.12445723884E-01  0.10199041467E+01  0.10196211192E+01 0.  0.
     999903    2    3    3    0    0  0.11301369589E+00  0.61407154140E-01 -0.21400408447E-01  0.13188338971E+00  0.19806992691E-01 0.  0.
         14    1    1    2    0    0 -0.68612710925E-02 -0.19371849258E-01 -0.12445723884E-01  0.24025853318E-01  0.00000000000E+00 0. -1.
     999901    1    3    3    0    0 -0.10615242480E+00 -0.42035304882E-01  0.33846132331E-01  0.88802075698E+00  0.88000000000E+00 0.  1.
        -11    1    4    4    0    0  0.69939296179E-01  0.35366636066E-01 -0.22481546881E-01  0.81535177487E-01  0.51100000000E-03 0.  1.
         11    1    4    4    0    0  0.43074399714E-01  0.26040518074E-01  0.10811384339E-02  0.50348212219E-01  0.51100000000E-03 0. -1.
</event>
<event>
 8    1  0.1213322E+005  0.1043930E+01  0.7957747E-01            NaN
         13   -1    0    0    0    0  0.00000000000E+00  0.00000000000E+00  0.74505805969E-08  0.10566000000E+00  0.10566000000E+00 0.  1.
     999900   -1    0    0    0    0 -0.00000000000E+00 -0.00000000000E+00 -0.74505805969E-08  0.93827000000E+00  0.93827000000E+00 0.  1.
     999902    2    1    2    0    0  0.13049848010E-01 -0.10952502304E-01 -0.16963455962E-01  0.10198880642E+01  0.10196046532E+01 0.  0.
     999903    2    3    3    0    0  0.12114451559E+00 -0.47164513698E-01 -0.16584253566E-01  0.13253474632E+00  0.19746810010E-01 0.  0.
         14    1    1    2    0    0 -0.13049848010E-01  0.10952502304E-01  0.16963455962E-01  0.24041935820E-01  0.00000000000E+00 0.  1.
     999901    1    3    3    0    0 -0.10809466758E+00  0.36212011394E-01 -0.37920239644E-03  0.88735331786E+00  0.88000000000E+00 0. -1.
        -11    1    4    4    0    0  0.61398922309E-01 -0.13821000250E-01 -0.49629233137E-02  0.63132712894E-01  0.51100000000E-03 0.  1.
         11    1    4    4    0    0  0.59745593279E-01 -0.33343513449E-01 -0.11621330252E-01  0.69402033423E-01  0.51100000000E-03 0. -1.
</event>
<event>
 8    1  0.1213322E+005  0.1043930E+01  0.7957747E-01            NaN
         13   -1    0    0    0    0  0.00000000000E+00  0.00000000000E+00  0.74505805969E-08  0.10566000000E+00  0.10566000000E+00 0. -1.
     999900   -1    0    0    0    0 -0.00000000000E+00 -0.00000000000E+00 -0.74505805969E-08  0.93827000000E+00  0.93827000000E+00 0. -1.
     999902    2    1    2    0    0  0.20581314283E-01 -0.83490032086E-02  0.12932884721E-02  0.10216821024E+01  0.10214398413E+01 0.  0.
     999903    2    3    3    0    0  0.15008663258E-01  0.20851539798E-01  0.12802431214E+00  0.13210665394E+00  0.20047364737E-01 0.  0.
         14    1    1    2    0    0 -0.20581314283E-01  0.83490032086E-02 -0.12932884721E-02  0.22247897592E-01  0.00000000000E+00 0. -1.
     999901    1    3    3    0    0  0.55726510252E-02 -0.29200543006E-01 -0.12673102367E+00  0.88957544846E+00  0.88000000000E+00 0. -1.
        -11    1    4    4    0    0  0.12544633727E-01  0.10350317544E-02  0.47626749255E-01  0.49264667782E-01  0.51100000000E-03 0. -1.
         11    1    4    4    0    0  0.24640295305E-02  0.19816508043E-01  0.80397562883E-01  0.82841986161E-01  0.51100000000E-03 0.  1.
</event>
<event>
 8    1  0.1213322E+005  0.1043930E+01  0.7957747E-01            NaN
         13   -1    0    0    0    0  0.00000000000E+00  0.00000000000E+00  0.74505805969E-08  0.10566000000E+00  0.10566000000E+00 0.  1.
     999900   -1    0    0    0    0 -0.00000000000E+00 -0.00000000000E+00 -0.74505805969E-08  0.93827000000E+00  0.93827000000E+00 0.  1.
     999902    2    1    2    0    0  0.36018027206E-02 -0.22641117412E-01  0.27360037771E-02  0.10208414986E+01  0.10205803674E+01 0.  0.
     999903    2    3    3    0    0  0.52346554363E-01 -0.70619245864E-01  0.97831661178E-01  0.13307962980E+00  0.20295671940E-01 0.  0.
         14    1    1    2    0    0 -0.36018027206E-02  0.22641117412E-01 -0.27360037771E-02  0.23088501406E-01  0.00000000000E+00 0.  1.
     999901    1    3    3    0    0 -0.48744751642E-01  0.47978128452E-01 -0.95095657401E-01  0.88776186879E+00  0.88000000000E+00 0.  1.
        -11    1    4    4    0    0  0.24677890130E-01 -0.38078505598E-01  0.35985338604E-01  0.57915253304E-01  0.51100000000E-03 0.  1.
         11    1    4    4    0    0  0.27668664233E-01 -0.32540740266E-01  0.61846322574E-01  0.75164376498E-01  0.51100000000E-03 0. -1.
</event>
<event>
 8    1  0.1213322E+005  0.1043930E+01  0.7957747E-01            NaN
         13   -1    0    0    0    0  0.00000000000E+00  0.00000000000E+00  0.74505805969E-08  0.10566000000E+00  0.10566000000E+00 0. -1.
     999900   -1    0    0    0    0 -0.00000000000E+00 -0.00000000000E+00 -0.74505805969E-08  0.93827000000E+00  0.93827000000E+00 0. -1.
     999902    2    1    2    0    0  0.71034139001E-02  0.18985018358E-01 -0.12608687458E-01  0.10200580832E+01  0.10197787136E+01 0.  0.
     999903    2    3    3    0    0 -0.37922448937E-01 -0.27489147938E-01 -0.12065507963E+00  0.13109171754E+00  0.20823659135E-01 0.  0.
         14    1    1    2    0    0 -0.71034139001E-02 -0.18985018358E-01  0.12608687458E-01  0.23871916775E-01  0.00000000000E+00 0. -1.
     999901    1    3    3    0    0  0.45025862837E-01  0.46474166296E-01  0.10804639217E+00  0.88896636568E+00  0.88000000000E+00 0.  1.
        -11    1    4    4    0    0 -0.27092890911E-01 -0.24448611023E-01 -0.10872461284E+00  0.11468679905E+00  0.51100000000E-03 0.  1.
         11    1    4    4    0    0 -0.10829558026E-01 -0.30405369154E-02 -0.11930466789E-01  0.16404918487E-01  0.51100000000E-03 0. -1.
</event>
<event>
 8    1  0.1213322E+005  0.1043930E+01  0.7957747E-01            NaN
         13   -1    0    0    0    0  0.00000000000E+00  0.00000000000E+00  0.74505805969E-08  0.10566000000E+00  0.10566000000E+00 0. -1.
     999900   -1    0    0    0    0 -0.00000000000E+00 -0.00000000000E+00 -0.74505805969E-08  0.93827000000E+00  0.93827000000E+00 0.  1.
     999902    2    1    2    0    0  0.16313933170E-01 -0.16440256857E-01  0.41930648086E-02  0.10203926201E+01  0.10201211158E+01 0.  0.
     999903    2    3    3    0    0 -0.12105778010E+00 -0.28291671608E-01 -0.28401027022E-01  0.12906001187E+00  0.19861105765E-01 0.  0.
         14    1    1    2    0    0 -0.16313933170E-01  0.16440256857E-01 -0.41930648086E-02  0.23537379920E-01  0.00000000000E+00 0.  1.
     999901    1    3    3    0    0  0.13737171327E+00  0.11851414751E-01  0.32594091831E-01  0.89133260821E+00  0.88000000000E+00 0.  1.
        -11    1    4    4    0    0 -0.54268187282E-01 -0.19621178759E-01 -0.20520838750E-01  0.61248614277E-01  0.51100000000E-03 0. -1.
         11    1    4    4    0    0 -0.66789592819E-01 -0.86704928491E-02 -0.78801882717E-02  0.67811397592E-01  0.51100000000E-03 0.  1.
</event>
<event>
 8    1  0.1213322E+005  0.1043930E+01  0.7957747E-01            NaN
         13   -1    0    0    0    0  0.00000000000E+00  0.00000000000E+00  0.74505805969E-08  0.10566000000E+00  0.10566000000E+00 0. -1.
     999900   -1    0    0    0    0 -0.00000000000E+00 -0.00000000000E+00 -0.74505805969E-08  0.93827000000E+00  0.93827000000E+00 0. -1.
     999902    2    1    2    0    0 -0.17153861238E-01  0.15687439878E-01 -0.25267911726E-02  0.10205476263E+01  0.10202797274E+01 0.  0.
     999903    2    3    3    0    0 -0.12761269607E+00  0.39430872950E-02  0.30992087857E-01  0.13293138083E+00  0.20240908179E-01 0.  0.
         14    1    1    2    0    0  0.17153861238E-01 -0.15687439878E-01  0.25267911726E-02  0.23382373681E-01  0.00000000000E+00 0.  1.
     999901    1    3    3    0    0  0.11045883483E+00  0.11744352583E-01 -0.33518879029E-01  0.88761624549E+00  0.88000000000E+00 0. -1.
        -11    1    4    4    0    0 -0.74939849239E-01 -0.23641352445E-03  0.28013613144E-01  0.80006628086E-01  0.51100000000E-03 0.  1.
         11    1    4    4    0    0 -0.52672846828E-01  0.41795008195E-02  0.29784747132E-02  0.52924752741E-01  0.51100000000E-03 0. -1.
</event>
<event>
 8    1  0.1213322E+005  0.1043930E+01  0.7957747E-01            NaN
         13   -1    0    0    0    0  0.00000000000E+00  0.00000000000E+00  0.74505805969E-08  0.10566000000E+00  0.10566000000E+00 0. -1.
     999900   -1    0    0    0    0 -0.00000000000E+00 -0.00000000000E+00 -0.74505805969E-08  0.93827000000E+00  0.93827000000E+00 0.  1.
     999902    2    1    2    0    0 -0.17373872781E-01 -0.10556881013E-01 -0.49947473507E-02  0.10229956576E+01  0.10227814374E+01 0.  0.
     999903    2    3    3    0    0 -0.10649596187E+00 -0.82120146118E-01  0.30922574344E-02  0.13556709857E+00  0.16845410769E-01 0.  0.
         14    1    1    2    0    0  0.17373872781E-01  0.10556881013E-01  0.49947473507E-02  0.20934342436E-01  0.00000000000E+00 0. -1.
     999901    1    3    3    0    0  0.89122089093E-01  0.71563265105E-01 -0.80870047850E-02  0.88742855900E+00  0.88000000000E+00 0. -1.
        -11    1    4    4    0    0 -0.57895825270E-01 -0.46153697224E-01 -0.65811270136E-02  0.74334801439E-01  0.51100000000E-03 0. -1.
         11    1    4    4    0    0 -0.48600136604E-01 -0.35966448894E-01  0.96733844479E-02  0.61232297129E-01  0.51100000000E-03 0.  1.
</event>
<event>
 8    1  0.1213322E+005  0.1043930E+01  0.7957747E-01            NaN
         13   -1    0    0    0    0  0.00000000000E+00  0.00000000000E+00  0.74505805969E-08  0.10566000000E+00  0.10566000000E+00 0. -1.
     999900   -1    0    0    0    0 -0.00000000000E+00 -0.00000000000E+00 -0.74505805969E-08  0.93827000000E+00  0.93827000000E+00 0. -1.
     999902    2    1    2    0    0  0.22598351157E-01  0.71468521515E-02 -0.48845169633E-02  0.10197303827E+01  0.10194431970E+01 0.  0.
     999903    2    3    3    0    0  0.85842677912E-01  0.80098101060E-01 -0.58767143502E-01  0.13281152114E+00  0.20016289533E-01 0.  0.
         14    1    1    2    0    0 -0.22598351157E-01 -0.71468521515E-02  0.48845169633E-02  0.24199617283E-01  0.00000000000E+00 0.  1.
     999901    1    3    3    0    0 -0.63244326755E-01 -0.72951248909E-01  0.53882626539E-01  0.88691886158E+00  0.88000000000E+00 0.  1.
        -11    1    4    4    0    0  0.74806393475E-02  0.12001626917E-01 -0.14565494336E-02  0.14226091205E-01  0.51100000000E-03 0.  1.
         11    1    4    4    0    0  0.78362038564E-01  0.68096474143E-01 -0.57310594068E-01  0.11858542993E+00  0.51100000000E-03 0. -1.
</event>
<event>
 8    1  0.1213322E+005  0.1043930E+01  0.7957747E-01            NaN
         13   -1    0    0    0    0  0.00000000000E+00  0.00000000000E+00  0.74505805969E-08  0.10566000000E+00  0.10566000000E+00 0.  1.
     999900   -1    0    0    0    0 -0.00000000000E+00 -0.00000000000E+00 -0.74505805969E-08  0.93827000000E+00  0.93827000000E+00 0.  1.
     999902    2    1    2    0    0 -0.17140467098E-01  0.16234564652E-01 -0.17658803575E-02  0.10202556460E+01  0.10199809352E+01 0.  0.
     999903    2    3    3    0    0 -0.66106826920E-01 -0.76696023773E-01  0.79619487087E-01  0.13027959204E+00  0.19522211744E-01 0.  0.
         14    1    1    2    0    0  0.17140467098E-01 -0.16234564652E-01  0.17658803575E-02  0.23674353955E-01  0.00000000000E+00 0. -1.
     999901    1    3    3    0    0  0.48966359822E-01  0.92930588425E-01 -0.81385367444E-01  0.88997605400E+00  0.88000000000E+00 0.  1.
        -11    1    4    4    0    0 -0.25933688659E-01 -0.21136399029E-01  0.35303988525E-01  0.48640891215E-01  0.51100000000E-03 0.  1.
         11    1    4    4    0    0 -0.40173138260E-01 -0.55559624745E-01  0.44315498561E-01  0.81638700830E-01  0.51100000000E-03 0. -1.
</event>
<event>
 8    1  0.1213322E+005  0.1043930E+01  0.7957747E-01            NaN
         13   -1    0    0    0    0  0.00000000000E+00  0.00000000000E+00  0.74505805969E-08  0.10566000000E+00  0.10566000000E+00 0. -1.
     999900   -1    0    0    0    0 -0.00000000000E+00 -0.00000000000E+00 -0.74505805969E-08  0.93827000000E+00  0.93827000000E+00 0. -1.
     999902    2    1    2    0    0 -0.19825747664E-01 -0.39958954737E-02  0.13107148199E-01  0.10198296933E+01  0.10195448879E+01 0.  0.
     999903    2    3    3    0    0  0.81227888373E-01  0.27495352164E-01 -0.91865926689E-01  0.12729236492E+00  0.20249282450E-01 0.  0.
         14    1    1    2    0    0  0.19825747664E-01  0.39958954737E-02 -0.13107148199E-01  0.24100306740E-01  0.00000000000E+00 0. -1.
     999901    1    3    3    0    0 -0.10105363604E+00 -0.31491247637E-01  0.10497307489E+00  0.89253732834E+00  0.88000000000E+00 0.  1.
        -11    1    4    4    0    0  0.22132737596E-01 -0.15498611949E-02 -0.20967076173E-01  0.30530960473E-01  0.51100000000E-03 0.  1.
         11    1    4    4    0    0  0.59095150777E-01  0.29045213359E-01 -0.70898850516E-01  0.96761404444E-01  0.51100000000E-03 0. -1.
</event>
<event>
 8    1  0.1213322E+005  0.1043930E+01  0.7957747E-01            NaN
         13   -1    0    0    0    0  0.00000000000E+00  0.00000000000E+00  0.74505805969E-08  0.10566000000E+00  0.10566000000E+00 0. -1.
     999900   -1    0    0    0    0 -0.00000000000E+00 -0.00000000000E+00 -0.74505805969E-08  0.93827000000E+00  0.93827000000E+00 0. -1.
     999902    2    1    2    0    0 -0.13596823088E-01  0.20608410603E-01  0.41202671531E-02  0.10188988836E+01  0.10185913696E+01 0.  0.
     999903    2    3    3    0    0 -0.10518497749E+00 -0.47464465189E-01  0.56597306558E-01  0.12998035749E+00  0.19361902743E-01 0.  0.
         14    1    1    2    0    0  0.13596823088E-01 -0.20608410603E-01 -0.41202671531E-02  0.25031116377E-01  0.00000000000E+00 0. -1.
     999901    1    3    3    0    0  0.91588154400E-01  0.68072875792E-01 -0.52477039405E-01  0.88891852614E+00  0.88000000000E+00 0. -1.
        -11    1    4    4    0    0 -0.61350561762E-01 -0.31095414097E-01  0.23586475399E-01  0.72714504393E-01  0.51100000000E-03 0.  1.
         11    1    4    4    0    0 -0.43834415725E-01 -0.16369051092E-01  0.33010831159E-01  0.57265853093E-01  0.51100000000E-03 0. -1.
</event>
<event>
 8    1  0.1213322E+005  0.1043930E+01  0.7957747E-01            NaN
         13   -1    0    0    0    0  0.00000000000E+00  0.00000000000E+00  0.74505805969E-08  0.10566000000E+00  0.10566000000E+00 0. -1.
     999900   -1    0    0    0    0 -0.00000000000E+00 -0.00000000000E+00 -0.74505805969E-08  0.93827000000E+00  0.93827000000E+00 0.  1.
     999902    2    1    2    0    0 -0.53275521979E-02  0.22378726105E-01  0.30947831119E-02  0.10207186261E+01  0.10204546760E+01 0.  0.
     999903    2    3    3    0    0  0.12281080828E-01  0.90678394214E-01  0.91651026628E-01  0.13346605956E+00  0.32247205278E-01 0.  0.
         14    1    1    2    0    0  0.53275521979E-02 -0.22378726105E-01 -0.30947831119E-02  0.23211373872E-01  0.00000000000E+00 0.  1.
     999901    1    3    3    0    0 -0.17608633026E-01 -0.68299668109E-01 -0.88556243516E-01  0.88725256657E+00  0.88000000000E+00 0.  1.
        -11    1    4    4    0    0  0.87090939647E-03  0.45025285800E-01  0.65905659230E-01  0.79823880413E-01  0.51100000000E-03 0. -1.
         11    1    4    4    0    0  0.11410171432E-01  0.45653108414E-01  0.25745367398E-01  0.53642179145E-01  0.51100000000E-03 0.  1.
</event>
<event>
 8    1  0.1213322E+005  0.1043930E+01  0.7957747E-01            NaN
         13   -1    0    0    0    0  0.00000000000E+00  0.00000000000E+00  0.74505805969E-08  0.10566000000E+00  0.10566000000E+00 0. -1.
     999900   -1    0    0    0    0 -0.00000000000E+00 -0.00000000000E+00 -0.74505805969E-08  0.93827000000E+00  0.93827000000E+00 0.  1.
     999902    2    1    2    0    0  0.13431503014E-01  0.42781329586E-02 -0.18556864636E-01  0.10206262467E+01  0.10203601670E+01 0.  0.
     999903    2    3    3    0    0  0.97224519100E-01  0.85579294185E-01 -0.22067994781E-01  0.13290811774E+00  0.20028695944E-01 0.  0.
         14    1    1    2    0    0 -0.13431503014E-01 -0.42781329586E-02  0.18556864636E-01  0.23303753345E-01  0.00000000000E+00 0. -1.
     999901    1    3    3    0    0 -0.83793016086E-01 -0.81301161227E-01  0.35111301450E-02  0.88771812891E+00  0.88000000000E+00 0. -1.
        -11    1    4    4    0    0  0.55299774073E-01  0.53052502369E-01 -0.22400835616E-01  0.79841665673E-01  0.51100000000E-03 0. -1.
         11    1    4    4    0    0  0.41924745027E-01  0.32526791816E-01  0.33284083475E-03  0.53066452071E-01  0.51100000000E-03 0.  1.
</event>
<event>
 8    1  0.1213322E+005  0.1043930E+01  0.7957747E-01            NaN
         13   -1    0    0    0    0  0.00000000000E+00  0.00000000000E+00  0.74505805969E-08  0.10566000000E+00  0.10566000000E+00 0.  1.
     999900   -1    0    0    0    0 -0.00000000000E+00 -0.00000000000E+00 -0.74505805969E-08  0.93827000000E+00  0.93827000000E+00 0. -1.
     999902    2    1    2    0    0  0.84485137052E-02 -0.15463857557E-02  0.21776880684E-01  0.10205205740E+01  0.10202520477E+01 0.  0.
     999903    2    3    3    0    0  0.83984613488E-01  0.65414646042E-01 -0.71516867063E-01  0.12985048609E+00  0.20346873074E-01 0.  0.
         14    1    1    2    0    0 -0.84485137052E-02  0.15463857557E-02 -0.21776880684E-01  0.23409425987E-01  0.00000000000E+00 0. -1.
     999901    1    3    3    0    0 -0.75536099783E-01 -0.66961031798E-01  0.93293747747E-01  0.89067008792E+00  0.88000000000E+00 0.  1.
        -11    1    4    4    0    0  0.25225585889E-01  0.31528897941E-01 -0.30212869599E-01  0.50432927728E-01  0.51100000000E-03 0.  1.
         11    1    4    4    0    0  0.58759027599E-01  0.33885748101E-01 -0.41303997464E-01  0.79417558363E-01  0.51100000000E-03 0. -1.
</event>
<event>
 8    1  0.1213322E+005  0.1043930E+01  0.7957747E-01            NaN
         13   -1    0    0    0    0  0.00000000000E+00  0.00000000000E+00  0.74505805969E-08  0.10566000000E+00  0.10566000000E+00 0. -1.
     999900   -1    0    0    0    0 -0.00000000000E+00 -0.00000000000E+00 -0.74505805969E-08  0.93827000000E+00  0.93827000000E+00 0. -1.
     999902    2    1    2    0    0 -0.16283283979E-01  0.16211407347E-01 -0.66441214124E-02  0.10200114002E+01  0.10197309239E+01 0.  0.
     999903    2    3    3    0    0 -0.47269256555E-01 -0.10997098272E+00  0.44230474532E-01  0.12901737637E+00  0.19003917235E-01 0.  0.
         14    1    1    2    0    0  0.16283283979E-01 -0.16211407347E-01  0.66441214124E-02  0.23918599764E-01  0.00000000000E+00 0.  1.
     999901    1    3    3    0    0  0.30985972576E-01  0.12618239007E+00 -0.50874595944E-01  0.89099402387E+00  0.88000000000E+00 0. -1.
        -11    1    4    4    0    0 -0.43488769558E-02 -0.24092779501E-01  0.14744181239E-01  0.28583679894E-01  0.51100000000E-03 0.  1.
         11    1    4    4    0    0 -0.42920379599E-01 -0.85878203224E-01  0.29486293293E-01  0.10043369647E+00  0.51100000000E-03 0. -1.
</event>
<event>
 8    1  0.1250799E+005  0.1043930E+01  0.7957747E-01            NaN
         13   -1    0    0    0    0  0.00000000000E+00  0.00000000000E+00  0.74505805969E-08  0.10566000000E+00  0.10566000000E+00 0. -1.
     999900   -1    0    0    0    0 -0.00000000000E+00 -0.00000000000E+00 -0.74505805969E-08  0.93827000000E+00  0.93827000000E+00 0. -1.
     999902    2    1    2    0    0  0.13561229278E-01  0.99082205785E-02 -0.18996637539E-01  0.10185735016E+01  0.10182578387E+01 0.  0.
     999903    2    3    3    0    0  0.29409908699E-01  0.80040463903E-01 -0.98764787072E-01  0.13204506443E+00  0.20248389630E-01 0.  0.
         14    1    1    2    0    0 -0.13561229278E-01 -0.99082205785E-02  0.18996637539E-01  0.25356498424E-01  0.00000000000E+00 0. -1.
     999901    1    3    3    0    0 -0.15848679421E-01 -0.70132243325E-01  0.79768149533E-01  0.88652843715E+00  0.88000000000E+00 0.  1.
        -11    1    4    4    0    0  0.67613854458E-02  0.46785829432E-01 -0.56940334598E-01  0.74007384726E-01  0.51100000000E-03 0.  1.
         11    1    4    4    0    0  0.22648523253E-01  0.33254634471E-01 -0.41824452474E-01  0.58037679701E-01  0.51100000000E-03 0. -1.
</event>
<event>
 8    1  0.1213322E+005  0.1043930E+01  0.7957747E-01            NaN
         13   -1    0    0    0    0  0.00000000000E+00  0.00000000000E+00  0.74505805969E-08  0.10566000000E+00  0.10566000000E+00 0. -1.
     999900   -1    0    0    0    0 -0.00000000000E+00 -0.00000000000E+00 -0.74505805969E-08  0.93827000000E+00  0.93827000000E+00 0.  1.
     999902    2    1    2    0    0  0.17103006209E-01  0.12524448141E-01  0.92512441130E-02  0.10208007946E+01  0.10205387314E+01 0.  0.
     999903    2    3    3    0    0 -0.47383515637E-01  0.65016522170E-01  0.10272719274E+00  0.13195227982E+00  0.19651521887E-01 0.  0.
         14    1    1    2    0    0 -0.17103006209E-01 -0.12524448141E-01 -0.92512441130E-02  0.23129205353E-01  0.00000000000E+00 0.  1.
     999901    1    3    3    0    0  0.64486521847E-01 -0.52492074030E-01 -0.93475948628E-01  0.88884851483E+00  0.88000000000E+00 0.  1.
        -11    1    4    4    0    0 -0.17809563922E-01  0.13012921961E-01  0.36961665869E-01  0.43045819424E-01  0.51100000000E-03 0.  1.
         11    1    4    4    0    0 -0.29573951716E-01  0.52003600209E-01  0.65765526872E-01  0.88906460398E-01  0.51100000000E-03 0. -1.
</event>
<event>
 8    1  0.1213322E+005  0.1043930E+01  0.7957747E-01            NaN
         13   -1    0    0    0    0  0.00000000000E+00  0.00000000000E+00  0.74505805969E-08  0.10566000000E+00  0.10566000000E+00 0.  1.
     999900   -1    0    0    0    0 -0.00000000000E+00 -0.00000000000E+00 -0.74505805969E-08  0.93827000000E+00  0.93827000000E+00 0. -1.
     999902    2    1    2    0    0 -0.20592135857E-03  0.16436955360E-01  0.18599607711E-01  0.10191074032E+01  0.10188050539E+01 0.  0.
     999903    2    3    3    0    0  0.52498308261E-01 -0.86978473329E-01  0.77844390504E-01  0.12951062319E+00  0.19797100618E-01 0.  0.
         14    1    1    2    0    0  0.20592135857E-03 -0.16436955360E-01 -0.18599607711E-01  0.24822596804E-01  0.00000000000E+00 0. -1.
     999901    1    3    3    0    0 -0.52704229620E-01  0.10341542869E+00 -0.59244782794E-01  0.88959678001E+00  0.88000000000E+00 0.  1.
        -11    1    4    4    0    0  0.17096732676E-01 -0.36189788024E-01  0.41782797508E-01  0.57862443035E-01  0.51100000000E-03 0. -1.
         11    1    4    4    0    0  0.35401575585E-01 -0.50788685305E-01  0.36061592997E-01  0.71648180154E-01  0.51100000000E-03 0.  1.
</event>
<event>
 8    1  0.1213322E+005  0.1043930E+01  0.7957747E-01            NaN
         13   -1    0    0    0    0  0.00000000000E+00  0.00000000000E+00  0.74505805969E-08  0.10566000000E+00  0.10566000000E+00 0.  1.
     999900   -1    0    0    0    0 -0.00000000000E+00 -0.00000000000E+00 -0.74505805969E-08  0.93827000000E+00  0.93827000000E+00 0. -1.
     999902    2    1    2    0    0 -0.97026683377E-02 -0.21940970226E-01 -0.18619359745E-02  0.10198672746E+01  0.10195833674E+01 0.  0.
     999903    2    3    3    0    0 -0.18702478684E-01  0.79976622346E-01  0.96929297813E-01  0.12844823727E+00  0.18910791980E-01 0.  0.
         14    1    1    2    0    0  0.97026683377E-02  0.21940970226E-01  0.18619359745E-02  0.24062725384E-01  0.00000000000E+00 0.  1.
     999901    1    3    3    0    0  0.89998103462E-02 -0.10191759257E+00 -0.98791233788E-01  0.89141903734E+00  0.88000000000E+00 0. -1.
        -11    1    4    4    0    0 -0.63944293903E-02  0.54331735672E-01  0.53429389759E-01  0.76470824759E-01  0.51100000000E-03 0.  1.
         11    1    4    4    0    0 -0.12308049294E-01  0.25644886674E-01  0.43499908055E-01  0.51977412514E-01  0.51100000000E-03 0. -1.
</event>
<event>
 8    1  0.1213322E+005  0.1043930E+01  0.7957747E-01            NaN
         13   -1    0    0    0    0  0.00000000000E+00  0.00000000000E+00  0.74505805969E-08  0.10566000000E+00  0.10566000000E+00 0.  1.
     999900   -1    0    0    0    0 -0.00000000000E+00 -0.00000000000E+00 -0.74505805969E-08  0.93827000000E+00  0.93827000000E+00 0.  1.
     999902    2    1    2    0    0  0.31765046827E-02  0.62287879834E-02 -0.23629757681E-01  0.10192874873E+01  0.10189895625E+01 0.  0.
     999903    2    3    3    0    0 -0.75855584118E-01 -0.93090380988E-01  0.39156441475E-01  0.12796685189E+00  0.20552362390E-01 0.  0.
         14    1    1    2    0    0 -0.31765046827E-02 -0.62287879834E-02  0.23629757681E-01  0.24642512652E-01  0.00000000000E+00 0.  1.
     999901    1    3    3    0    0  0.79032088801E-01  0.99319168971E-01 -0.62786199156E-01  0.89132063546E+00  0.88000000000E+00 0.  1.
        -11    1    4    4    0    0 -0.57966086125E-01 -0.73460048487E-01  0.21334996029E-01  0.95978586366E-01  0.51100000000E-03 0. -1.
         11    1    4    4    0    0 -0.17889497994E-01 -0.19630332501E-01  0.17821445446E-01  0.31988265526E-01  0.51100000000E-03 0.  1.
</event>
<event>
 8    1  0.1213322E+005  0.1043930E+01  0.7957747E-01            NaN
         13   -1    0    0    0    0  0.00000000000E+00  0.00000000000E+00  0.74505805969E-08  0.10566000000E+00  0.10566000000E+00 0. -1.
     999900   -1    0    0    0    0 -0.00000000000E+00 -0.00000000000E+00 -0.74505805969E-08  0.93827000000E+00  0.93827000000E+00 0. -1.
     999902    2    1    2    0    0 -0.15975343900E-02  0.23498257967E-01 -0.29011325935E-02  0.10201994961E+01  0.10199234653E+01 0.  0.
     999903    2    3    3    0    0 -0.56571445464E-01  0.84951248105E-01  0.82192910450E-01  0.13225828352E+00  0.17875570873E-01 0.  0.
         14    1    1    2    0    0  0.15975343900E-02 -0.23498257967E-01  0.29011325935E-02  0.23730503870E-01  0.00000000000E+00 0. -1.
     999901    1    3    3    0    0  0.54973911074E-01 -0.61452990138E-01 -0.85094043043E-01  0.88794121261E+00  0.88000000000E+00 0. -1.
        -11    1    4    4    0    0 -0.43140274831E-01  0.75990317083E-01  0.71210666501E-01  0.11272458360E+00  0.51100000000E-03 0. -1.
         11    1    4    4    0    0 -0.13431170633E-01  0.89609310226E-02  0.10982243948E-01  0.19533699918E-01  0.51100000000E-03 0.  1.
</event>
<event>
 8    1  0.1213322E+005  0.1043930E+01  0.7957747E-01            NaN
         13   -1    0    0    0    0  0.00000000000E+00  0.00000000000E+00  0.74505805969E-08  0.10566000000E+00  0.10566000000E+00 0. -1.
     999900   -1    0    0    0    0 -0.00000000000E+00 -0.00000000000E+00 -0.74505805969E-08  0.93827000000E+00  0.93827000000E+00 0. -1.
     999902    2    1    2    0    0  0.52461145486E-02  0.16096676030E-01 -0.14259109838E-01  0.10217952556E+01  0.10215554794E+01 0.  0.
     999903    2    3    3    0    0  0.12042686172E+00 -0.47799775236E-01  0.12301909565E-01  0.13159592467E+00  0.19460289672E-01 0.  0.
         14    1    1    2    0    0 -0.52461145486E-02 -0.16096676030E-01  0.14259109838E-01  0.22134744418E-01  0.00000000000E+00 0. -1.
     999901    1    3    3    0    0 -0.11518074717E+00  0.63896451266E-01 -0.26561019403E-01  0.89019933091E+00  0.88000000000E+00 0.  1.
        -11    1    4    4    0    0  0.36019761464E-01 -0.22376026468E-01  0.91623178896E-02  0.43385700023E-01  0.51100000000E-03 0.  1.
         11    1    4    4    0    0  0.84407100258E-01 -0.25423748768E-01  0.31395916752E-02  0.88210224647E-01  0.51100000000E-03 0. -1.
</event>
<event>
 8    1  0.1213322E+005  0.1043930E+01  0.7957747E-01            NaN
         13   -1    0    0    0    0  0.00000000000E+00  0.00000000000E+00  0.74505805969E-08  0.10566000000E+00  0.10566000000E+00 0.  1.
     999900   -1    0    0    0    0 -0.00000000000E+00 -0.00000000000E+00 -0.74505805969E-08  0.93827000000E+00  0.93827000000E+00 0. -1.
     999902    2    1    2    0    0  0.13724588859E-01 -0.11999334227E-01  0.14977832044E-01  0.10203358521E+01  0.10200630212E+01 0.  0.
     999903    2    3    3    0    0 -0.82781580611E-01  0.46229361269E-01  0.87001429663E-01  0.13022831910E+00  0.20005559266E-01 0.  0.
         14    1    1    2    0    0 -0.13724588859E-01  0.11999334227E-01 -0.14977832044E-01  0.23594147876E-01  0.00000000000E+00 0. -1.
     999901    1    3    3    0    0  0.96506169471E-01 -0.58228695496E-01 -0.72023597619E-01  0.89010753302E+00  0.88000000000E+00 0. -1.
        -11    1    4    4    0    0 -0.19304456154E-01  0.24443672598E-02  0.21973745155E-01  0.29355468926E-01  0.51100000000E-03 0.  1.
         11    1    4    4    0    0 -0.63477124458E-01  0.43784994009E-01  0.65027684508E-01  0.10087285018E+00  0.51100000000E-03 0. -1.
</event>
<event>
 8    1  0.1213322E+005  0.1043930E+01  0.7957747E-01            NaN
         13   -1    0    0    0    0  0.00000000000E+00  0.00000000000E+00  0.74505805969E-08  0.10566000000E+00  0.10566000000E+00 0.  1.
     999900   -1    0    0    0    0 -0.00000000000E+00 -0.00000000000E+00 -0.74505805969E-08  0.93827000000E+00  0.93827000000E+00 0.  1.
     999902    2    1    2    0    0 -0.15345895097E-01  0.17207299270E-01 -0.11300231507E-02  0.10208461399E+01  0.10205851149E+01 0.  0.
     999903    2    3    3    0    0  0.48603304573E-01 -0.11164776036E+00 -0.35098228513E-01  0.12851942535E+00  0.21397510136E-01 0.  0.
         14    1    1    2    0    0  0.15345895097E-01 -0.17207299270E-01  0.11300231507E-02  0.23083860093E-01  0.00000000000E+00 0.  1.
     999901    1    3    3    0    0 -0.63949199670E-01  0.12885505963E+00  0.33968205362E-01  0.89232671455E+00  0.88000000000E+00 0.  1.
        -11    1    4    4    0    0  0.16257333412E-01 -0.58453243174E-01 -0.10493148807E-01  0.61574749858E-01  0.51100000000E-03 0.  1.
         11    1    4    4    0    0  0.32345971162E-01 -0.53194517184E-01 -0.24605079705E-01  0.66944675495E-01  0.51100000000E-03 0. -1.
</event>
<event>
 8    1  0.1213322E+005  0.1043930E+01  0.7957747E-01            NaN
         13   -1    0    0    0    0  0.00000000000E+00  0.00000000000E+00  0.74505805969E-08  0.10566000000E+00  0.10566000000E+00 0.  1.
     999900   -1    0    0    0    0 -0.00000000000E+00 -0.00000000000E+00 -0.74505805969E-08  0.93827000000E+00  0.93827000000E+00 0.  1.
     999902    2    1    2    0    0  0.48019241406E-02  0.13698828976E-01 -0.15740515592E-01  0.10225178487E+01  0.10222936324E+01 0.  0.
     999903    2    3    3    0    0  0.10785603999E+00  0.68475858086E-01  0.33158757978E-01  0.13346677446E+00  0.19799195692E-01 0.  0.
         14    1    1    2    0    0 -0.48019241406E-02 -0.13698828976E-01  0.15740515592E-01  0.21412151267E-01  0.00000000000E+00 0.  1.
     999901    1    3    3    0    0 -0.10305411585E+00 -0.54777029111E-01 -0.48899273570E-01  0.88905107427E+00  0.88000000000E+00 0.  1.
        -11    1    4    4    0    0  0.49284568323E-01  0.41752232462E-01  0.21191737050E-01  0.67982118462E-01  0.51100000000E-03 0. -1.
         11    1    4    4    0    0  0.58571471670E-01  0.26723625624E-01  0.11967020928E-01  0.65484655997E-01  0.51100000000E-03 0.  1.
</event>
<event>
 8    1  0.1213322E+005  0.1043930E+01  0.7957747E-01            NaN
         13   -1    0    0    0    0  0.00000000000E+00  0.00000000000E+00  0.74505805969E-08  0.10566000000E+00  0.10566000000E+00 0.  1.
     999900   -1    0    0    0    0 -0.00000000000E+00 -0.00000000000E+00 -0.74505805969E-08  0.93827000000E+00  0.93827000000E+00 0.  1.
     999902    2    1    2    0    0 -0.18517294664E-01 -0.71893932795E-02  0.88983270870E-02  0.10221640219E+01  0.10219322531E+01 0.  0.
     999903    2    3    3    0    0  0.43345314969E-02 -0.13149334725E+00  0.23646790341E-03  0.13309219875E+00  0.20104450128E-01 0.  0.
         14    1    1    2    0    0  0.18517294664E-01  0.71893932795E-02 -0.88983270870E-02  0.21765978093E-01  0.00000000000E+00 0. -1.
     999901    1    3    3    0    0 -0.22851826161E-01  0.12430395397E+00  0.86618591836E-02  0.88907182316E+00  0.88000000000E+00 0.  1.
        -11    1    4    4    0    0 -0.84358368843E-05 -0.97974652634E-01 -0.79950027707E-02  0.98301647088E-01  0.51100000000E-03 0.  1.
         11    1    4    4    0    0  0.43429673338E-02 -0.33518694619E-01  0.82314706741E-02  0.34790551659E-01  0.51100000000E-03 0. -1.
</event>
<event>
 8    1  0.1213322E+005  0.1043930E+01  0.7957747E-01            NaN
         13   -1    0    0    0    0  0.00000000000E+00  0.00000000000E+00  0.74505805969E-08  0.10566000000E+00  0.10566000000E+00 0.  1.
     999900   -1    0    0    0    0 -0.00000000000E+00 -0.00000000000E+00 -0.74505805969E-08  0.93827000000E+00  0.93827000000E+00 0. -1.
     999902    2    1    2    0    0 -0.16656032141E-01 -0.97018144817E-02  0.17993266890E-01  0.10175613394E+01  0.10172196287E+01 0.  0.
     999903    2    3    3    0    0  0.61768492033E-01 -0.33349616369E-01  0.10677481594E+00  0.12930924227E+00  0.19810989311E-01 0.  0.
         14    1    1    2    0    0  0.16656032141E-01  0.97018144817E-02 -0.17993266890E-01  0.26368660647E-01  0.00000000000E+00 0. -1.
     999901    1    3    3    0    0 -0.78424524175E-01  0.23647801888E-01 -0.88781549046E-01  0.88825209709E+00  0.88000000000E+00 0. -1.
        -11    1    4    4    0    0  0.29483988866E-01 -0.85105287953E-02  0.33227282470E-01  0.45233263437E-01  0.51100000000E-03 0. -1.
         11    1    4    4    0    0  0.32284503167E-01 -0.24839087574E-01  0.73547533466E-01  0.84075978830E-01  0.51100000000E-03 0.  1.
</event>
<event>
 8    1  0.1213322E+005  0.1043930E+01  0.7957747E-01            NaN
         13   -1    0    0    0    0  0.00000000000E+00  0.00000000000E+00  0.74505805969E-08  0.10566000000E+00  0.10566000000E+00 0.  1.
     999900   -1    0    0    0    0 -0.00000000000E+00 -0.00000000000E+00 -0.74505805969E-08  0.93827000000E+00  0.93827000000E+00 0. -1.
     999902    2    1    2    0    0 -0.20441055385E-01  0.22278193864E-02  0.11213402469E-01  0.10205090624E+01  0.10202402688E+01 0.  0.
     999903    2    3    3    0    0  0.86564644658E-01  0.27076432761E-01  0.91156459691E-01  0.13008300378E+00  0.19634582043E-01 0.  0.
         14    1    1    2    0    0  0.20441055385E-01 -0.22278193864E-02 -0.11213402469E-01  0.23420937629E-01  0.00000000000E+00 0. -1.
     999901    1    3    3    0    0 -0.10700570004E+00 -0.24848613375E-01 -0.79943057222E-01  0.89042605860E+00  0.88000000000E+00 0. -1.
        -11    1    4    4    0    0  0.51038729351E-01  0.21571730634E-01  0.66129082751E-01  0.86276347644E-01  0.51100000000E-03 0. -1.
         11    1    4    4    0    0  0.35525915308E-01  0.55047021271E-02  0.25027376940E-01  0.43806656132E-01  0.51100000000E-03 0.  1.
</event>
<event>
 8    1  0.1213322E+005  0.1043930E+01  0.7957747E-01            NaN
         13   -1    0    0    0    0  0.00000000000E+00  0.00000000000E+00  0.74505805969E-08  0.10566000000E+00  0.10566000000E+00 0.  1.
     999900   -1    0    0    0    0 -0.00000000000E+00 -0.00000000000E+00 -0.74505805969E-08  0.93827000000E+00  0.93827000000E+00 0. -1.
     999902    2    1    2    0    0  0.12747354682E-01 -0.21814514127E-01 -0.56585907966E-02  0.10180381533E+01  0.10177088453E+01 0.  0.
     999903    2    3    3    0    0  0.54692259351E-01 -0.11603483580E+00 -0.22681211495E-01  0.13185159634E+00  0.20373506107E-01 0.  0.
         14    1    1    2    0    0 -0.12747354682E-01  0.21814514127E-01  0.56585907966E-02  0.25891846744E-01  0.00000000000E+00 0. -1.
     999901    1    3    3    0    0 -0.41944904668E-01  0.94220321671E-01  0.17022620698E-01  0.88618655692E+00  0.88000000000E+00 0.  1.
        -11    1    4    4    0    0  0.49442461064E-02 -0.21431184159E-01  0.21890246203E-02  0.22108690006E-01  0.51100000000E-03 0.  1.
         11    1    4    4    0    0  0.49748013244E-01 -0.94603651639E-01 -0.24870236115E-01  0.10974290633E+00  0.51100000000E-03 0. -1.
</event>
<event>
 8    1  0.1213322E+005  0.1043930E+01  0.7957747E-01            NaN
         13   -1    0    0    0    0  0.00000000000E+00  0.00000000000E+00  0.74505805969E-08  0.10566000000E+00  0.10566000000E+00 0.  1.
     999900   -1    0    0    0    0 -0.00000000000E+00 -0.00000000000E+00 -0.74505805969E-08  0.93827000000E+00  0.93827000000E+00 0. -1.
     999902    2    1    2    0    0 -0.17250967951E-01  0.16437827547E-01  0.83949019067E-02  0.10186659455E+01  0.10183526090E+01 0.  0.
     999903    2    3    3    0    0 -0.91330726115E-01  0.51021696830E-01 -0.75931593604E-01  0.13086258194E+00  0.20368931325E-01 0.  0.
         14    1    1    2    0    0  0.17250967951E-01 -0.16437827547E-01 -0.83949019067E-02  0.25264054459E-01  0.00000000000E+00 0. -1.
     999901    1    3    3    0    0  0.74079758165E-01 -0.34583869283E-01  0.84326495511E-01  0.88780336361E+00  0.88000000000E+00 0.  1.
        -11    1    4    4    0    0 -0.40382591536E-01  0.16155090205E-01 -0.21341462007E-01  0.48450590918E-01  0.51100000000E-03 0. -1.
         11    1    4    4    0    0 -0.50948134579E-01  0.34866606625E-01 -0.54590131597E-01  0.82411991017E-01  0.51100000000E-03 0.  1.
</event>
<event>
 8    1  0.1213322E+005  0.1043930E+01  0.7957747E-01            NaN
         13   -1    0    0    0    0  0.00000000000E+00  0.00000000000E+00  0.74505805969E-08  0.10566000000E+00  0.10566000000E+00 0.  1.
     999900   -1    0    0    0    0 -0.00000000000E+00 -0.00000000000E+00 -0.74505805969E-08  0.93827000000E+00  0.93827000000E+00 0.  1.
     999902    2    1    2    0    0 -0.15539612897E-01 -0.14062085164E-02 -0.16599648009E-01  0.10211483121E+01  0.10208941522E+01 0.  0.
     999903    2    3    3    0    0  0.72444794310E-01 -0.71344414806E-01 -0.81263141435E-01  0.13164621763E+00  0.19716863698E-01 0.  0.
         14    1    1    2    0    0  0.15539612897E-01  0.14062085164E-02  0.16599648009E-01  0.22781687940E-01  0.00000000000E+00 0.  1.
     999901    1    3    3    0    0 -0.87984407207E-01  0.69938206290E-01  0.64663493426E-01  0.88950209443E+00  0.88000000000E+00 0. -1.
        -11    1    4    4    0    0  0.29756282932E-01 -0.37452557568E-01 -0.27971265652E-01  0.55414648474E-01  0.51100000000E-03 0. -1.
         11    1    4    4    0    0  0.42688511378E-01 -0.33891857238E-01 -0.53291875783E-01  0.76231569157E-01  0.51100000000E-03 0.  1.
</event>
<event>
 8    1  0.1213322E+005  0.1043930E+01  0.7957747E-01            NaN
         13   -1    0    0    0    0  0.00000000000E+00  0.00000000000E+00  0.74505805969E-08  0.10566000000E+00  0.10566000000E+00 0. -1.
     999900   -1    0    0    0    0 -0.00000000000E+00 -0.00000000000E+00 -0.74505805969E-08  0.93827000000E+00  0.93827000000E+00 0.  1.
     999902    2    1    2    0    0 -0.13402214079E-01 -0.15168518262E-01  0.12953560124E-01  0.10198988118E+01  0.10196156571E+01 0.  0.
     999903    2    3    3    0    0  0.25647137881E-01 -0.48868229744E-01 -0.11504547373E+00  0.12914392117E+00  0.19920135237E-01 0.  0.
         14    1    1    2    0    0  0.13402214079E-01  0.15168518262E-01 -0.12953560124E-01  0.24031188243E-01  0.00000000000E+00 0.  1.
     999901    1    3    3    0    0 -0.39049351960E-01  0.33699711482E-01  0.12799903386E+00  0.89075489059E+00  0.88000000000E+00 0. -1.
        -11    1    4    4    0    0  0.76032091184E-02 -0.30593313997E-01 -0.48865546233E-01  0.58153782163E-01  0.51100000000E-03 0. -1.
         11    1    4    4    0    0  0.18043928763E-01 -0.18274915747E-01 -0.66179927501E-01  0.70990139004E-01  0.51100000000E-03 0.  1.
</event>
<event>
 8    1  0.1213322E+005  0.1043930E+01  0.7957747E-01            NaN
         13   -1    0    0    0    0  0.00000000000E+00  0.00000000000E+00  0.74505805969E-08  0.10566000000E+00  0.10566000000E+00 0. -1.
     999900   -1    0    0    0    0 -0.00000000000E+00 -0.00000000000E+00 -0.74505805969E-08  0.93827000000E+00  0.93827000000E+00 0.  1.
     999902    2    1    2    0    0  0.23920206412E-01 -0.10284509986E-01  0.23533274499E-01  0.10088335268E+01  0.10082228536E+01 0.  0.
     999903    2    3    3    0    0 -0.66546464738E-01 -0.52018664575E-01  0.83833613550E-01  0.12116123981E+00  0.22750776654E-01 0.  0.
         14    1    1    2    0    0 -0.23920206412E-01  0.10284509986E-01 -0.23533274499E-01  0.35096473172E-01  0.00000000000E+00 0.  1.
     999901    1    3    3    0    0  0.90466671150E-01  0.41734154589E-01 -0.60300339052E-01  0.88767228702E+00  0.88000000000E+00 0. -1.
        -11    1    4    4    0    0 -0.48760111866E-01 -0.25179680211E-01  0.58280484220E-01  0.80052737409E-01  0.51100000000E-03 0.  1.
         11    1    4    4    0    0 -0.17786352872E-01 -0.26838984364E-01  0.25553129330E-01  0.41108502402E-01  0.51100000000E-03 0. -1.
</event>
<event>
 8    1  0.1213322E+005  0.1043930E+01  0.7957747E-01            NaN
         13   -1    0    0    0    0  0.00000000000E+00  0.00000000000E+00  0.74505805969E-08  0.10566000000E+00  0.10566000000E+00 0.  1.
     999900   -1    0    0    0    0 -0.00000000000E+00 -0.00000000000E+00 -0.74505805969E-08  0.93827000000E+00  0.93827000000E+00 0. -1.
     999902    2    1    2    0    0  0.22527503315E-01  0.17923635760E-03  0.24289519901E-02  0.10212712194E+01  0.10210198251E+01 0.  0.
     999903    2    3    3    0    0  0.34003662301E-01  0.99173401474E-01 -0.77735446815E-01  0.13202554029E+00  0.19908063370E-01 0.  0.
         14    1    1    2    0    0 -0.22527503315E-01 -0.17923635760E-03 -0.24289519901E-02  0.22658780617E-01  0.00000000000E+00 0.  1.
     999901    1    3    3    0    0 -0.11476158986E-01 -0.98994165117E-01  0.80164398805E-01  0.88924567909E+00  0.88000000000E+00 0. -1.
        -11    1    4    4    0    0  0.35572702640E-01  0.81596322991E-01 -0.66274946232E-01  0.11097750546E+00  0.51100000000E-03 0.  1.
         11    1    4    4    0    0 -0.15690403391E-02  0.17577078484E-01 -0.11460500583E-01  0.21048034830E-01  0.51100000000E-03 0. -1.
</event>
<event>
 8    1  0.1213322E+005  0.1043930E+01  0.7957747E-01            NaN
         13   -1    0    0    0    0  0.00000000000E+00  0.00000000000E+00  0.74505805969E-08  0.10566000000E+00  0.10566000000E+00 0. -1.
     999900   -1    0    0    0    0 -0.00000000000E+00 -0.00000000000E+00 -0.74505805969E-08  0.93827000000E+00  0.93827000000E+00 0. -1.
     999902    2    1    2    0    0  0.90377413639E-02 -0.16457130210E-01 -0.14270980399E-01  0.10203465570E+01  0.10200739765E+01 0.  0.
     999903    2    3    3    0    0  0.70218901330E-01  0.33750949827E-01  0.10132704168E+00  0.12926469297E+00  0.19296910517E-01 0.  0.
         14    1    1    2    0    0 -0.90377413639E-02  0.16457130210E-01  0.14270980399E-01  0.23583443032E-01  0.00000000000E+00 0. -1.
     999901    1    3    3    0    0 -0.61181159966E-01 -0.50208080037E-01 -0.11559802208E+00  0.89108186400E+00  0.88000000000E+00 0. -1.
        -11    1    4    4    0    0  0.48859582664E-01  0.16530518878E-01  0.54877012575E-01  0.75314437545E-01  0.51100000000E-03 0.  1.
         11    1    4    4    0    0  0.21359318666E-01  0.17220430949E-01  0.46450029103E-01  0.53950255426E-01  0.51100000000E-03 0. -1.
</event>
<event>
 8    1  0.1213322E+005  0.1043930E+01  0.7957747E-01            NaN
         13   -1    0    0    0    0  0.00000000000E+00  0.00000000000E+00  0.74505805969E-08  0.10566000000E+00  0.10566000000E+00 0.  1.
     999900   -1    0    0    0    0 -0.00000000000E+00 -0.00000000000E+00 -0.74505805969E-08  0.93827000000E+00  0.93827000000E+00 0. -1.
     999902    2    1    2    0    0 -0.50619911426E-02  0.20062872378E-01 -0.16292905016E-01  0.10175936875E+01  0.10172528257E+01 0.  0.
     999903    2    3    3    0    0 -0.90254398394E-01  0.91249332546E-01  0.94141421660E-02  0.13024589174E+00  0.20076581437E-01 0.  0.
         14    1    1    2    0    0  0.50619911426E-02 -0.20062872378E-01  0.16292905016E-01  0.26336312503E-01  0.00000000000E+00 0.  1.
     999901    1    3    3    0    0  0.85192407252E-01 -0.71186460168E-01 -0.25707047182E-01  0.88734779576E+00  0.88000000000E+00 0. -1.
        -11    1    4    4    0    0 -0.35596668169E-01  0.47624287404E-01  0.10079298864E-01  0.60307950736E-01  0.51100000000E-03 0. -1.
         11    1    4    4    0    0 -0.54657730225E-01  0.43625045142E-01 -0.66515669767E-03  0.69937941001E-01  0.51100000000E-03 0.  1.
</event>
<event>
 8    1  0.1213322E+005  0.1043930E+01  0.7957747E-01            NaN
         13   -1    0    0    0    0  0.00000000000E+00  0.00000000000E+00  0.74505805969E-08  0.10566000000E+00  0.10566000000E+00 0.  1.
     999900   -1    0    0    0    0 -0.00000000000E+00 -0.00000000000E+00 -0.74505805969E-08  0.93827000000E+00  0.93827000000E+00 0.  1.
     999902    2    1    2    0    0 -0.12134639732E-01  0.21328316043E-02 -0.17864669758E-01  0.10222287356E+01  0.10219983576E+01 0.  0.
     999903    2    3    3    0    0  0.10507726833E+00 -0.75649107698E-01 -0.97542256860E-03  0.13089607706E+00  0.19204471472E-01 0.  0.
         14    1    1    2    0    0  0.12134639732E-01 -0.21328316043E-02  0.17864669758E-01  0.21701264425E-01  0.00000000000E+00 0. -1.
     999901    1    3    3    0    0 -0.11721190806E+00  0.77781939302E-01 -0.16889247189E-01  0.89133265852E+00  0.88000000000E+00 0.  1.
        -11    1    4    4    0    0  0.75279930629E-01 -0.57042937491E-01 -0.89309979276E-02  0.94873539610E-01  0.51100000000E-03 0. -1.
         11    1    4    4    0    0  0.29797337699E-01 -0.18606170207E-01  0.79555753590E-02  0.36022537445E-01  0.51100000000E-03 0.  1.
</event>
<event>
 8    1  0.1213322E+005  0.1043930E+01  0.7957747E-01            NaN
         13   -1    0    0    0    0  0.00000000000E+00  0.00000000000E+00  0.74505805969E-08  0.10566000000E+00  0.10566000000E+00 0. -1.
     999900   -1    0    0    0    0 -0.00000000000E+00 -0.00000000000E+00 -0.74505805969E-08  0.93827000000E+00  0.93827000000E+00 0.  1.
     999902    2    1    2    0    0 -0.83440438378E-02  0.21046832321E-01  0.86929548576E-02  0.10196779963E+01  0.10193895509E+01 0.  0.
     999903    2    3    3    0    0 -0.10122778148E+00 -0.70877630032E-01 -0.32114993757E-01  0.12909235520E+00  0.19046290068E-01 0.  0.
         14    1    1    2    0    0  0.83440438378E-02 -0.21046832321E-01 -0.86929548576E-02  0.24252003680E-01  0.00000000000E+00 0. -1.
     999901    1    3    3    0    0  0.92883737641E-01  0.91924462353E-01  0.40807948614E-01  0.89058564112E+00  0.88000000000E+00 0. -1.
        -11    1    4    4    0    0 -0.17490778568E-01 -0.78589914738E-02 -0.11236078636E-01  0.22230647000E-01  0.51100000000E-03 0.  1.
         11    1    4    4    0    0 -0.83737002910E-01 -0.63018638558E-01 -0.20878915121E-01  0.10686170820E+00  0.51100000000E-03 0. -1.
</event>
<event>
 8    1  0.1213322E+005  0.1043930E+01  0.7957747E-01            NaN
         13   -1    0    0    0    0  0.00000000000E+00  0.00000000000E+00  0.74505805969E-08  0.10566000000E+00  0.10566000000E+00 0. -1.
     999900   -1    0    0    0    0 -0.00000000000E+00 -0.00000000000E+00 -0.74505805969E-08  0.93827000000E+00  0.93827000000E+00 0.  1.
     999902    2    1    2    0    0  0.19158262275E-01 -0.31048071402E-02 -0.13545255822E-01  0.10202624527E+01  0.10199879017E+01 0.  0.
     999903    2    3    3    0    0  0.10846719017E+00 -0.67770893559E-01  0.27790337228E-01  0.13241876228E+00  0.20109709188E-01 0.  0.
         14    1    1    2    0    0 -0.19158262275E-01  0.31048071402E-02  0.13545255822E-01  0.23667547318E-01  0.00000000000E+00 0. -1.
     999901    1    3    3    0    0 -0.89308927894E-01  0.64666086418E-01 -0.41335593050E-01  0.88784369040E+00  0.88000000000E+00 0.  1.
        -11    1    4    4    0    0  0.52338142149E-01 -0.43300879035E-01  0.19158103808E-01  0.70580034792E-01  0.51100000000E-03 0. -1.
         11    1    4    4    0    0  0.56129048020E-01 -0.24470014524E-01  0.86322334197E-02  0.61838727487E-01  0.51100000000E-03 0.  1.
</event>
<event>
 8    1  0.1213322E+005  0.1043930E+01  0.7957747E-01            NaN
         13   -1    0    0    0    0  0.00000000000E+00  0.00000000000E+00  0.74505805969E-08  0.10566000000E+00  0.10566000000E+00 0.  1.
     999900   -1    0    0    0    0 -0.00000000000E+00 -0.00000000000E+00 -0.74505805969E-08  0.93827000000E+00  0.93827000000E+00 0. -1.
     999902    2    1    2    0    0  0.13823706061E-01 -0.19160180134E-01 -0.18802191615E-02  0.10202288908E+01  0.10199535514E+01 0.  0.
     999903    2    3    3    0    0  0.97973977321E-01 -0.17675608054E-01  0.84418892021E-01  0.13201100725E+00  0.19723827050E-01 0.  0.
         14    1    1    2    0    0 -0.13823706061E-01  0.19160180134E-01  0.18802191615E-02  0.23701109175E-01  0.00000000000E+00 0. -1.
     999901    1    3    3    0    0 -0.84150271260E-01 -0.14845720798E-02 -0.86299111183E-01  0.88821788357E+00  0.88000000000E+00 0. -1.
        -11    1    4    4    0    0  0.64504154110E-01 -0.89825661296E-02  0.42959613419E-01  0.78020906799E-01  0.51100000000E-03 0.  1.
         11    1    4    4    0    0  0.33469823211E-01 -0.86930419244E-02  0.41459278602E-01  0.53990100453E-01  0.51100000000E-03 0. -1.
</event>
<event>
 8    1  0.1213322E+005  0.1043930E+01  0.7957747E-01            NaN
         13   -1    0    0    0    0  0.00000000000E+00  0.00000000000E+00  0.74505805969E-08  0.10566000000E+00  0.10566000000E+00 0. -1.
     999900   -1    0    0    0    0 -0.00000000000E+00 -0.00000000000E+00 -0.74505805969E-08  0.93827000000E+00  0.93827000000E+00 0. -1.
     999902    2    1    2    0    0  0.27920892975E-03 -0.38759765307E-02  0.24090668051E-01  0.10195279214E+01  0.10192358516E+01 0.  0.
     999903    2    3    3    0    0  0.69368158735E-01 -0.22028359545E-01  0.10898240512E+00  0.13256151901E+00  0.19954989996E-01 0.  0.
         14    1    1    2    0    0 -0.27920892975E-03  0.38759765307E-02 -0.24090668051E-01  0.24402078577E-01  0.00000000000E+00 0.  1.
     999901    1    3    3    0    0 -0.69088949805E-01  0.18152383014E-01 -0.84891737065E-01  0.88696640242E+00  0.88000000000E+00 0. -1.
        -11    1    4    4    0    0  0.53368138367E-01 -0.11403454578E-01  0.91739557986E-01  0.10674551321E+00  0.51100000000E-03 0. -1.
         11    1    4    4    0    0  0.16000020368E-01 -0.10624904967E-01  0.17242847130E-01  0.25816005801E-01  0.51100000000E-03 0.  1.
</event>
<event>
 8    1  0.1213322E+005  0.1043930E+01  0.7957747E-01            NaN
         13   -1    0    0    0    0  0.00000000000E+00  0.00000000000E+00  0.74505805969E-08  0.10566000000E+00  0.10566000000E+00 0. -1.
     999900   -1    0    0    0    0 -0.00000000000E+00 -0.00000000000E+00 -0.74505805969E-08  0.93827000000E+00  0.93827000000E+00 0.  1.
     999902    2    1    2    0    0 -0.22747755367E-01  0.31865415125E-02 -0.49127213958E-02  0.10204406566E+01  0.10201702723E+01 0.  0.
     999903    2    3    3    0    0  0.10230327688E+00  0.27682875418E-01  0.69140939439E-01  0.12818409277E+00  0.20454585858E-01 0.  0.
         14    1    1    2    0    0  0.22747755367E-01 -0.31865415125E-02  0.49127213958E-02  0.23489343383E-01  0.00000000000E+00 0. -1.
     999901    1    3    3    0    0 -0.12505103224E+00 -0.24496333906E-01 -0.74053660835E-01  0.89225656384E+00  0.88000000000E+00 0.  1.
        -11    1    4    4    0    0  0.58347333993E-01  0.20020253150E-01  0.29004083402E-01  0.68166853347E-01  0.51100000000E-03 0. -1.
         11    1    4    4    0    0  0.43955942882E-01  0.76626222683E-02  0.40136856038E-01  0.60017239425E-01  0.51100000000E-03 0.  1.
</event>
<event>
 8    1  0.1213322E+005  0.1043930E+01  0.7957747E-01            NaN
         13   -1    0    0    0    0  0.00000000000E+00  0.00000000000E+00  0.74505805969E-08  0.10566000000E+00  0.10566000000E+00 0. -1.
     999900   -1    0    0    0    0 -0.00000000000E+00 -0.00000000000E+00 -0.74505805969E-08  0.93827000000E+00  0.93827000000E+00 0. -1.
     999902    2    1    2    0    0  0.78400200851E-02  0.14849886292E-01 -0.16351068741E-01  0.10204919436E+01  0.10202227524E+01 0.  0.
     999903    2    3    3    0    0  0.23071279881E-01 -0.12543450662E+00 -0.21972776044E-02  0.12913789950E+00  0.20141242577E-01 0.  0.
         14    1    1    2    0    0 -0.78400200851E-02 -0.14849886292E-01  0.16351068741E-01  0.23438056379E-01  0.00000000000E+00 0. -1.
     999901    1    3    3    0    0 -0.15231259796E-01  0.14028439291E+00 -0.14153791137E-01  0.89135404412E+00  0.88000000000E+00 0. -1.
        -11    1    4    4    0    0  0.17600420260E-01 -0.87672188250E-01  0.75851661460E-02  0.89743987277E-01  0.51100000000E-03 0.  1.
         11    1    4    4    0    0  0.54708596205E-02 -0.37762318367E-01 -0.97824437504E-02  0.39393912222E-01  0.51100000000E-03 0. -1.
</event>
<event>
 8    1  0.1213322E+005  0.1043930E+01  0.7957747E-01            NaN
         13   -1    0    0    0    0  0.00000000000E+00  0.00000000000E+00  0.74505805969E-08  0.10566000000E+00  0.10566000000E+00 0. -1.
     999900   -1    0    0    0    0 -0.00000000000E+00 -0.00000000000E+00 -0.74505805969E-08  0.93827000000E+00  0.93827000000E+00 0. -1.
     999902    2    1    2    0    0  0.78422339551E-02 -0.19157038436E-01 -0.11511339023E-01  0.10202444837E+01  0.10199695108E+01 0.  0.
     999903    2    3    3    0    0  0.10828874546E+00 -0.60571402125E-01 -0.43275054522E-01  0.13299390761E+00  0.20476864271E-01 0.  0.
         14    1    1    2    0    0 -0.78422339551E-02  0.19157038436E-01  0.11511339023E-01  0.23685516273E-01  0.00000000000E+00 0.  1.
     999901    1    3    3    0    0 -0.10044651150E+00  0.41414363690E-01  0.31763715499E-01  0.88725057611E+00  0.88000000000E+00 0. -1.
        -11    1    4    4    0    0  0.91263414686E-01 -0.48631574326E-01 -0.43504681331E-01  0.11219161867E+00  0.51100000000E-03 0. -1.
         11    1    4    4    0    0  0.17025330770E-01 -0.11939827799E-01  0.22962680846E-03  0.20802288940E-01  0.51100000000E-03 0.  1.
</event>
<event>
 8    1  0.1213322E+005  0.1043930E+01  0.7957747E-01            NaN
         13   -1    0    0    0    0  0.00000000000E+00  0.00000000000E+00  0.74505805969E-08  0.10566000000E+00  0.10566000000E+00 0. -1.
     999900   -1    0    0    0    0 -0.00000000000E+00 -0.00000000000E+00 -0.74505805969E-08  0.93827000000E+00  0.93827000000E+00 0. -1.
     999902    2    1    2    0    0 -0.11191609645E-01 -0.18265222839E-01 -0.12806341516E-01  0.10189725788E+01  0.10186668952E+01 0.  0.
     999903    2    3    3    0    0 -0.52293178428E-01 -0.11776891975E+00 -0.21381118115E-01  0.13237015859E+00  0.21461866273E-01 0.  0.
         14    1    1    2    0    0  0.11191609645E-01  0.18265222839E-01  0.12806341516E-01  0.24957421237E-01  0.00000000000E+00 0. -1.
     999901    1    3    3    0    0  0.41101568784E-01  0.99503696916E-01  0.85747765986E-02  0.88660242017E+00  0.88000000000E+00 0. -1.
        -11    1    4    4    0    0 -0.38461461885E-01 -0.86120767462E-01 -0.58641037052E-02  0.94502483946E-01  0.51100000000E-03 0.  1.
         11    1    4    4    0    0 -0.13831716543E-01 -0.31648152292E-01 -0.15517014409E-01  0.37867674648E-01  0.51100000000E-03 0. -1.
</event>
<event>
 8    1  0.1213322E+005  0.1043930E+01  0.7957747E-01            NaN
         13   -1    0    0    0    0  0.00000000000E+00  0.00000000000E+00  0.74505805969E-08  0.10566000000E+00  0.10566000000E+00 0.  1.
     999900   -1    0    0    0    0 -0.00000000000E+00 -0.00000000000E+00 -0.74505805969E-08  0.93827000000E+00  0.93827000000E+00 0.  1.
     999902    2    1    2    0    0  0.16666113658E-01  0.17732763656E-01  0.14206890833E-02  0.10195531953E+01  0.10192617374E+01 0.  0.
     999903    2    3    3    0    0 -0.10045432225E+00 -0.59187738527E-01  0.45972138994E-01  0.12735434308E+00  0.22614859868E-01 0.  0.
         14    1    1    2    0    0 -0.16666113658E-01 -0.17732763656E-01 -0.14206890833E-02  0.24376804729E-01  0.00000000000E+00 0.  1.
     999901    1    3    3    0    0  0.11712043591E+00  0.76920502183E-01 -0.44551449911E-01  0.89219885219E+00  0.88000000000E+00 0. -1.
        -11    1    4    4    0    0 -0.51039000533E-01 -0.41946797488E-01  0.20701449286E-01  0.69233839403E-01  0.51100000000E-03 0. -1.
         11    1    4    4    0    0 -0.49415321717E-01 -0.17240941039E-01  0.25270689708E-01  0.58120503676E-01  0.51100000000E-03 0.  1.
</event>
<event>
 8    1  0.1213322E+005  0.1043930E+01  0.7957747E-01            NaN
         13   -1    0    0    0    0  0.00000000000E+00  0.00000000000E+00  0.74505805969E-08  0.10566000000E+00  0.10566000000E+00 0. -1.
     999900   -1    0    0    0    0 -0.00000000000E+00 -0.00000000000E+00 -0.74505805969E-08  0.93827000000E+00  0.93827000000E+00 0. -1.
     999902    2    1    2    0    0  0.90910301773E-02 -0.15114021537E-01 -0.12322524347E-01  0.10224143061E+01  0.10221878928E+01 0.  0.
     999903    2    3    3    0    0 -0.11911359769E-01 -0.13221824190E+00 -0.62311710921E-02  0.13438750282E+00  0.19940647889E-01 0.  0.
         14    1    1    2    0    0 -0.90910301773E-02  0.15114021537E-01  0.12322524347E-01  0.21515693877E-01  0.00000000000E+00 0. -1.
     999901    1    3    3    0    0  0.21002389946E-01  0.11710422036E+00 -0.60913532544E-02  0.88802680331E+00  0.88000000000E+00 0. -1.
        -11    1    4    4    0    0 -0.43452918045E-02 -0.12199629287E-01  0.43350787055E-02  0.13666255668E-01  0.51100000000E-03 0.  1.
         11    1    4    4    0    0 -0.75660679646E-02 -0.12001861261E+00 -0.10566249798E-01  0.12072124715E+00  0.51100000000E-03 0. -1.
</event>
<event>
 8    1  0.1213322E+005  0.1043930E+01  0.7957747E-01            NaN
         13   -1    0    0    0    0  0.00000000000E+00  0.00000000000E+00  0.74505805969E-08  0.10566000000E+00  0.10566000000E+00 0. -1.
     999900   -1    0    0    0    0 -0.00000000000E+00 -0.00000000000E+00 -0.74505805969E-08  0.93827000000E+00  0.93827000000E+00 0.  1.
     999902    2    1    2    0    0 -0.56901867512E-02 -0.15543229690E-01 -0.17084728592E-01  0.10201422266E+01  0.10198648461E+01 0.  0.
     999903    2    3    3    0    0  0.71537420109E-01 -0.32560985605E-01  0.99976643209E-01  0.12887511056E+00  0.20872102817E-01 0.  0.
         14    1    1    2    0    0  0.56901867512E-02  0.15543229690E-01  0.17084728592E-01  0.23787773446E-01  0.00000000000E+00 0. -1.
     999901    1    3    3    0    0 -0.77227606860E-01  0.17017755915E-01 -0.11706137180E+00  0.89126711599E+00  0.88000000000E+00 0. -1.
        -11    1    4    4    0    0  0.41709755404E-01 -0.28484875670E-01  0.70605013489E-01  0.86812561814E-01  0.51100000000E-03 0. -1.
         11    1    4    4    0    0  0.29827664705E-01 -0.40761099353E-02  0.29371629720E-01  0.42062548750E-01  0.51100000000E-03 0.  1.
</event>
<event>
 8    1  0.1213322E+005  0.1043930E+01  0.7957747E-01            NaN
         13   -1    0    0    0    0  0.00000000000E+00  0.00000000000E+00  0.74505805969E-08  0.10566000000E+00  0.10566000000E+00 0. -1.
     999900   -1    0    0    0    0 -0.00000000000E+00 -0.00000000000E+00 -0.74505805969E-08  0.93827000000E+00  0.93827000000E+00 0.  1.
     999902    2    1    2    0    0 -0.30248282935E-02 -0.21460114520E-01  0.98118714156E-02  0.10201401088E+01  0.10198626784E+01 0.  0.
     999903    2    3    3    0    0  0.36048014579E-01 -0.69373003962E-01  0.10547200893E+00  0.13279959136E+00  0.19982836713E-01 0.  0.
         14    1    1    2    0    0  0.30248282935E-02  0.21460114520E-01 -0.98118714156E-02  0.23789891174E-01  0.00000000000E+00 0.  1.
     999901    1    3    3    0    0 -0.39072842872E-01  0.47912889443E-01 -0.95660137519E-01  0.88734051746E+00  0.88000000000E+00 0.  1.
        -11    1    4    4    0    0  0.56215590309E-02 -0.23849770526E-01  0.21791561218E-01  0.32795529290E-01  0.51100000000E-03 0. -1.
         11    1    4    4    0    0  0.30426455548E-01 -0.45523233437E-01  0.83680447716E-01  0.10000406207E+00  0.51100000000E-03 0.  1.
</event>
<event>
 8    1  0.1213322E+005  0.1043930E+01  0.7957747E-01            NaN
         13   -1    0    0    0    0  0.00000000000E+00  0.00000000000E+00  0.74505805969E-08  0.10566000000E+00  0.10566000000E+00 0. -1.
     999900   -1    0    0    0    0 -0.00000000000E+00 -0.00000000000E+00 -0.74505805969E-08  0.93827000000E+00  0.93827000000E+00 0. -1.
     999902    2    1    2    0    0  0.21084017782E-01 -0.15381296147E-01  0.55185653135E-02  0.10172546436E+01  0.10169048310E+01 0.  0.
     999903    2    3    3    0    0  0.76750667561E-02 -0.43067925862E-01  0.11996396964E+00  0.12931089536E+00  0.20400998962E-01 0.  0.
         14    1    1    2    0    0 -0.21084017782E-01  0.15381296147E-01 -0.55185653135E-02  0.26675356420E-01  0.00000000000E+00 0. -1.
     999901    1    3    3    0    0  0.13408951026E-01  0.27686629716E-01 -0.11444540433E+00  0.88794374822E+00  0.88000000000E+00 0. -1.
        -11    1    4    4    0    0  0.13454502529E-01 -0.33278717666E-01  0.10105246058E+00  0.10723972025E+00  0.51100000000E-03 0. -1.
         11    1    4    4    0    0 -0.57794357729E-02 -0.97892081967E-02  0.18911509060E-01  0.22071175114E-01  0.51100000000E-03 0.  1.
</event>
<event>
 8    1  0.1213322E+005  0.1043930E+01  0.7957747E-01            NaN
         13   -1    0    0    0    0  0.00000000000E+00  0.00000000000E+00  0.74505805969E-08  0.10566000000E+00  0.10566000000E+00 0.  1.
     999900   -1    0    0    0    0 -0.00000000000E+00 -0.00000000000E+00 -0.74505805969E-08  0.93827000000E+00  0.93827000000E+00 0. -1.
     999902    2    1    2    0    0 -0.21682346360E-01  0.18456076626E-02  0.99681860601E-02  0.10199947719E+01  0.10197139008E+01 0.  0.
     999903    2    3    3    0    0  0.81137667167E-01 -0.87933582858E-01  0.42601107027E-01  0.12887347500E+00  0.21860517199E-01 0.  0.
         14    1    1    2    0    0  0.21682346360E-01 -0.18456076626E-02 -0.99681860601E-02  0.23935228110E-01  0.00000000000E+00 0. -1.
     999901    1    3    3    0    0 -0.10282001353E+00  0.89779190521E-01 -0.32632920967E-01  0.89112129689E+00  0.88000000000E+00 0. -1.
        -11    1    4    4    0    0  0.46488598935E-01 -0.65048984528E-01  0.31017875426E-01  0.85760888148E-01  0.51100000000E-03 0. -1.
         11    1    4    4    0    0  0.34649068233E-01 -0.22884598331E-01  0.11583231601E-01  0.43112586857E-01  0.51100000000E-03 0.  1.
</event>
<event>
 8    1  0.1213322E+005  0.1043930E+01  0.7957747E-01            NaN
         13   -1    0    0    0    0  0.00000000000E+00  0.00000000000E+00  0.74505805969E-08  0.10566000000E+00  0.10566000000E+00 0. -1.
     999900   -1    0    0    0    0 -0.00000000000E+00 -0.00000000000E+00 -0.74505805969E-08  0.93827000000E+00  0.93827000000E+00 0.  1.
     999902    2    1    2    0    0  0.17722029664E-01  0.85619623069E-02 -0.12762212184E-01  0.10204725578E+01  0.10202029159E+01 0.  0.
     999903    2    3    3    0    0 -0.34698307848E-01  0.97171116934E-01  0.76691927672E-01  0.12996623150E+00  0.19062293333E-01 0.  0.
         14    1    1    2    0    0 -0.17722029664E-01 -0.85619623069E-02  0.12762212184E-01  0.23457442183E-01  0.00000000000E+00 0. -1.
     999901    1    3    3    0    0  0.52420337512E-01 -0.88609154627E-01 -0.89454139856E-01  0.89050632631E+00  0.88000000000E+00 0.  1.
        -11    1    4    4    0    0 -0.24914917854E-01  0.41557939832E-01  0.35491141589E-01  0.60064113637E-01  0.51100000000E-03 0.  1.
         11    1    4    4    0    0 -0.97833899949E-02  0.55613177102E-01  0.41200786083E-01  0.69902117865E-01  0.51100000000E-03 0. -1.
</event>
<event>
 8    1  0.1213322E+005  0.1043930E+01  0.7957747E-01            NaN
         13   -1    0    0    0    0  0.00000000000E+00  0.00000000000E+00  0.74505805969E-08  0.10566000000E+00  0.10566000000E+00 0. -1.
     999900   -1    0    0    0    0 -0.00000000000E+00 -0.00000000000E+00 -0.74505805969E-08  0.93827000000E+00  0.93827000000E+00 0.  1.
     999902    2    1    2    0    0 -0.61329102601E-02  0.65671648607E-03 -0.23794752599E-01  0.10193488260E+01  0.10190524005E+01 0.  0.
     999903    2    3    3    0    0  0.94954456180E-01 -0.70591010536E-01 -0.50702328404E-01  0.13029375913E+00  0.20156836208E-01 0.  0.
         14    1    1    2    0    0  0.61329102601E-02 -0.65671648607E-03  0.23794752599E-01  0.24581174017E-01  0.00000000000E+00 0. -1.
     999901    1    3    3    0    0 -0.10108736644E+00  0.71247727022E-01  0.26907575805E-01  0.88905506685E+00  0.88000000000E+00 0. -1.
        -11    1    4    4    0    0  0.17719147217E-01 -0.21574928361E-01 -0.17621402764E-01  0.33018489793E-01  0.51100000000E-03 0.  1.
         11    1    4    4    0    0  0.77235308964E-01 -0.49016082175E-01 -0.33080925640E-01  0.97275269338E-01  0.51100000000E-03 0. -1.
</event>
<event>
 8    1  0.1213322E+005  0.1043930E+01  0.7957747E-01            NaN
         13   -1    0    0    0    0  0.00000000000E+00  0.00000000000E+00  0.74505805969E-08  0.10566000000E+00  0.10566000000E+00 0.  1.
     999900   -1    0    0    0    0 -0.00000000000E+00 -0.00000000000E+00 -0.74505805969E-08  0.93827000000E+00  0.93827000000E+00 0. -1.
     999902    2    1    2    0    0  0.18784943869E-01 -0.59608771722E-02 -0.12892174921E-01  0.10203797485E+01  0.10201079437E+01 0.  0.
     999903    2    3    3    0    0 -0.66551247868E-01  0.15199483944E-01  0.10646256249E+00  0.12798096999E+00  0.19615263493E-01 0.  0.
         14    1    1    2    0    0 -0.18784943869E-01  0.59608771722E-02  0.12892174921E-01  0.23550251527E-01  0.00000000000E+00 0.  1.
     999901    1    3    3    0    0  0.85336191737E-01 -0.21160361116E-01 -0.11935473741E+00  0.89239877849E+00  0.88000000000E+00 0. -1.
        -11    1    4    4    0    0 -0.21921178137E-01 -0.31255717001E-02  0.25935925095E-01  0.34106312919E-01  0.51100000000E-03 0. -1.
         11    1    4    4    0    0 -0.44630069731E-01  0.18325055644E-01  0.80526637393E-01  0.93874657067E-01  0.51100000000E-03 0.  1.
</event>
<event>
 8    1  0.1213322E+005  0.1043930E+01  0.7957747E-01            NaN
         13   -1    0    0    0    0  0.00000000000E+00  0.00000000000E+00  0.74505805969E-08  0.10566000000E+00  0.10566000000E+00 0. -1.
     999900   -1    0    0    0    0 -0.00000000000E+00 -0.00000000000E+00 -0.74505805969E-08  0.93827000000E+00  0.93827000000E+00 0. -1.
     999902    2    1    2    0    0 -0.10310716051E-01 -0.13112865947E-01  0.65068766002E-02  0.10260247616E+01  0.10258685169E+01 0.  0.
     999903    2    3    3    0    0  0.33737206956E-01 -0.13060764981E+00  0.13497843315E-01  0.13709612703E+00  0.20410755717E-01 0.  0.
         14    1    1    2    0    0  0.10310716051E-01  0.13112865947E-01 -0.65068766002E-02  0.17905238393E-01  0.00000000000E+00 0.  1.
     999901    1    3    3    0    0 -0.44047923007E-01  0.11749478387E+00 -0.69909667150E-02  0.88892863458E+00  0.88000000000E+00 0. -1.
        -11    1    4    4    0    0 -0.50868789133E-03 -0.25906230542E-01  0.64676425801E-02  0.26711103792E-01  0.51100000000E-03 0.  1.
         11    1    4    4    0    0  0.34245894847E-01 -0.10470141927E+00  0.70302007351E-02  0.11038502324E+00  0.51100000000E-03 0. -1.
</event>
<event>
 8    1  0.1213322E+005  0.1043930E+01  0.7957747E-01            NaN
         13   -1    0    0    0    0  0.00000000000E+00  0.00000000000E+00  0.74505805969E-08  0.10566000000E+00  0.10566000000E+00 0. -1.
     999900   -1    0    0    0    0 -0.00000000000E+00 -0.00000000000E+00 -0.74505805969E-08  0.93827000000E+00  0.93827000000E+00 0. -1.
     999902    2    1    2    0    0 -0.80531484498E-02 -0.17160678930E-01 -0.12604669708E-01  0.10211655584E+01  0.10209117875E+01 0.  0.
     999903    2    3    3    0    0  0.93919715599E-01  0.81164245596E-01  0.28458590617E-01  0.12889180721E+00  0.19866022333E-01 0.  0.
         14    1    1    2    0    0  0.80531484498E-02  0.17160678930E-01  0.12604669708E-01  0.22764441564E-01  0.00000000000E+00 0. -1.
     999901    1    3    3    0    0 -0.10197286405E+00 -0.98324924526E-01 -0.41063260325E-01  0.89227375123E+00  0.88000000000E+00 0.  1.
        -11    1    4    4    0    0  0.76630594848E-01  0.72686150764E-01  0.29303388830E-01  0.10961055742E+00  0.51100000000E-03 0.  1.
         11    1    4    4    0    0  0.17289120751E-01  0.84780948322E-02 -0.84479821261E-03  0.19281249787E-01  0.51100000000E-03 0. -1.
</event>
<event>
 8    1  0.1213322E+005  0.1043930E+01  0.7957747E-01            NaN
         13   -1    0    0    0    0  0.00000000000E+00  0.00000000000E+00  0.74505805969E-08  0.10566000000E+00  0.10566000000E+00 0. -1.
     999900   -1    0    0    0    0 -0.00000000000E+00 -0.00000000000E+00 -0.74505805969E-08  0.93827000000E+00  0.93827000000E+00 0.  1.
     999902    2    1    2    0    0 -0.13383166492E-01 -0.19951160200E-01 -0.32858982606E-02  0.10196822152E+01  0.10193938714E+01 0.  0.
     999903    2    3    3    0    0 -0.59399671997E-01 -0.59479006445E-01  0.99619219718E-01  0.13161159151E+00  0.18208482713E-01 0.  0.
         14    1    1    2    0    0  0.13383166492E-01  0.19951160200E-01  0.32858982606E-02  0.24247784766E-01  0.00000000000E+00 0.  1.
     999901    1    3    3    0    0  0.46016505505E-01  0.39527846245E-01 -0.10290511798E+00  0.88807062372E+00  0.88000000000E+00 0.  1.
        -11    1    4    4    0    0 -0.29925076540E-01 -0.42523207223E-01  0.59795310103E-01  0.79243129606E-01  0.51100000000E-03 0.  1.
         11    1    4    4    0    0 -0.29474595457E-01 -0.16955799222E-01  0.39823909615E-01  0.52368461908E-01  0.51100000000E-03 0. -1.
</event>
<event>
 8    1  0.1213322E+005  0.1043930E+01  0.7957747E-01            NaN
         13   -1    0    0    0    0  0.00000000000E+00  0.00000000000E+00  0.74505805969E-08  0.10566000000E+00  0.10566000000E+00 0.  1.
     999900   -1    0    0    0    0 -0.00000000000E+00 -0.00000000000E+00 -0.74505805969E-08  0.93827000000E+00  0.93827000000E+00 0.  1.
     999902    2    1    2    0    0  0.19130838606E-02 -0.35575499874E-02  0.25212272334E-01  0.10183962042E+01  0.10180760551E+01 0.  0.
     999903    2    3    3    0    0  0.80029027567E-01 -0.37709522872E-02  0.10249457659E+00  0.13156211557E+00  0.19610881881E-01 0.  0.
         14    1    1    2    0    0 -0.19130838606E-02  0.35575499874E-02 -0.25212272334E-01  0.25533795801E-01  0.00000000000E+00 0. -1.
     999901    1    3    3    0    0 -0.78115943707E-01  0.21340229978E-03 -0.77282304257E-01  0.88683408863E+00  0.88000000000E+00 0.  1.
        -11    1    4    4    0    0  0.51271356012E-01 -0.10649373356E-01  0.58083811356E-01  0.78205826911E-01  0.51100000000E-03 0.  1.
         11    1    4    4    0    0  0.28757671555E-01  0.68784210692E-02  0.44410765236E-01  0.53356288659E-01  0.51100000000E-03 0. -1.
</event>
<event>
 8    1  0.1213322E+005  0.1043930E+01  0.7957747E-01            NaN
         13   -1    0    0    0    0  0.00000000000E+00  0.00000000000E+00  0.74505805969E-08  0.10566000000E+00  0.10566000000E+00 0. -1.
     999900   -1    0    0    0    0 -0.00000000000E+00 -0.00000000000E+00 -0.74505805969E-08  0.93827000000E+00  0.93827000000E+00 0. -1.
     999902    2    1    2    0    0  0.65939667401E-02  0.18393256401E-01  0.13600036294E-01  0.10201234197E+01  0.10198455953E+01 0.  0.
     999903    2    3    3    0    0  0.29194812238E-01  0.12585324628E+00  0.24971117814E-01  0.13322559631E+00  0.20835693561E-01 0.  0.
         14    1    1    2    0    0 -0.65939667401E-02 -0.18393256401E-01 -0.13600036294E-01  0.23806580301E-01  0.00000000000E+00 0.  1.
     999901    1    3    3    0    0 -0.22600845498E-01 -0.10745998988E+00 -0.11371081520E-01  0.88689782339E+00  0.88000000000E+00 0.  1.
        -11    1    4    4    0    0  0.26269345044E-01  0.67939823332E-01  0.12449461733E-01  0.73899582556E-01  0.51100000000E-03 0.  1.
         11    1    4    4    0    0  0.29254671934E-02  0.57913422947E-01  0.12521656081E-01  0.59326013752E-01  0.51100000000E-03 0. -1.
</event>
<event>
 8    1  0.1213322E+005  0.1043930E+01  0.7957747E-01            NaN
         13   -1    0    0    0    0  0.00000000000E+00  0.00000000000E+00  0.74505805969E-08  0.10566000000E+00  0.10566000000E+00 0.  1.
     999900   -1    0    0    0    0 -0.00000000000E+00 -0.00000000000E+00 -0.74505805969E-08  0.93827000000E+00  0.93827000000E+00 0.  1.
     999902    2    1    2    0    0 -0.12602223680E-01 -0.17279431318E-01  0.98530631930E-02  0.10203826510E+01  0.10201109140E+01 0.  0.
     999903    2    3    3    0    0  0.50802757878E-01 -0.12012055768E+00 -0.49134208834E-02  0.13200517609E+00  0.19782725425E-01 0.  0.
         14    1    1    2    0    0  0.12602223680E-01  0.17279431318E-01 -0.98530631930E-02  0.23547348952E-01  0.00000000000E+00 0.  1.
     999901    1    3    3    0    0 -0.63404981558E-01  0.10284112636E+00  0.14766484076E-01  0.88837747496E+00  0.88000000000E+00 0. -1.
        -11    1    4    4    0    0  0.18879646334E-01 -0.25740705934E-01 -0.53438681031E-02  0.32370403689E-01  0.51100000000E-03 0. -1.
         11    1    4    4    0    0  0.31923111544E-01 -0.94379851745E-01  0.43044721979E-03  0.99634772404E-01  0.51100000000E-03 0.  1.
</event>
<event>
 8    1  0.1213322E+005  0.1043930E+01  0.7957747E-01            NaN
         13   -1    0    0    0    0  0.00000000000E+00  0.00000000000E+00  0.74505805969E-08  0.10566000000E+00  0.10566000000E+00 0.  1.
     999900   -1    0    0    0    0 -0.00000000000E+00 -0.00000000000E+00 -0.74505805969E-08  0.93827000000E+00  0.93827000000E+00 0.  1.
     999902    2    1    2    0    0  0.23141071138E-01  0.53091301337E-02 -0.15891917469E-02  0.10201345894E+01  0.10198570286E+01 0.  0.
     999903    2    3    3    0    0 -0.46407024058E-02 -0.16752339236E-01  0.12719511696E+00  0.13005373151E+00  0.20813416643E-01 0.  0.
         14    1    1    2    0    0 -0.23141071138E-01 -0.53091301337E-02  0.15891917469E-02  0.23795410621E-01  0.00000000000E+00 0.  1.
     999901    1    3    3    0    0  0.27781773544E-01  0.22061469370E-01 -0.12878430871E+00  0.89008085787E+00  0.88000000000E+00 0.  1.
        -11    1    4    4    0    0  0.50660484277E-02 -0.16755130161E-02  0.67730180442E-01  0.67941965340E-01  0.51100000000E-03 0.  1.
         11    1    4    4    0    0 -0.97067508335E-02 -0.15076826220E-01  0.59464936521E-01  0.62111766172E-01  0.51100000000E-03 0. -1.
</event>
<event>
 8    1  0.1213322E+005  0.1043930E+01  0.7957747E-01            NaN
         13   -1    0    0    0    0  0.00000000000E+00  0.00000000000E+00  0.74505805969E-08  0.10566000000E+00  0.10566000000E+00 0.  1.
     999900   -1    0    0    0    0 -0.00000000000E+00 -0.00000000000E+00 -0.74505805969E-08  0.93827000000E+00  0.93827000000E+00 0.  1.
     999902    2    1    2    0    0  0.15547671100E-01  0.14007818137E-01 -0.14823008306E-01  0.10182849104E+01  0.10179619286E+01 0.  0.
     999903    2    3    3    0    0  0.33375421891E-01  0.10450723853E+00  0.66196844962E-01  0.12976243436E+00  0.20508178776E-01 0.  0.
         14    1    1    2    0    0 -0.15547671100E-01 -0.14007818137E-01  0.14823008306E-01  0.25645089605E-01  0.00000000000E+00 0.  1.
     999901    1    3    3    0    0 -0.17827750791E-01 -0.90499420397E-01 -0.81019853268E-01  0.88852247603E+00  0.88000000000E+00 0. -1.
        -11    1    4    4    0    0  0.81580086286E-02  0.58379169184E-01  0.37522060669E-01  0.69877368706E-01  0.51100000000E-03 0. -1.
         11    1    4    4    0    0  0.25217413263E-01  0.46128069350E-01  0.28674784293E-01  0.59885065658E-01  0.51100000000E-03 0.  1.
</event>
<event>
 8    1  0.1213322E+005  0.1043930E+01  0.7957747E-01            NaN
         13   -1    0    0    0    0  0.00000000000E+00  0.00000000000E+00  0.74505805969E-08  0.10566000000E+00  0.10566000000E+00 0. -1.
     999900   -1    0    0    0    0 -0.00000000000E+00 -0.00000000000E+00 -0.74505805969E-08  0.93827000000E+00  0.93827000000E+00 0.  1.
     999902    2    1    2    0    0  0.18827551152E-01 -0.98962440996E-05 -0.10757262659E-01  0.10222460087E+01  0.10220160012E+01 0.  0.
     999903    2    3    3    0    0  0.10071773279E+00  0.85278172247E-01 -0.15293743337E-01  0.13432673523E+00  0.19832923472E-01 0.  0.
         14    1    1    2    0    0 -0.18827551152E-01  0.98962440996E-05  0.10757262659E-01  0.21683991335E-01  0.00000000000E+00 0. -1.
     999901    1    3    3    0    0 -0.81890181635E-01 -0.85288068491E-01  0.45364806780E-02  0.88791927343E+00  0.88000000000E+00 0.  1.
        -11    1    4    4    0    0  0.62582033343E-01  0.56583106657E-01 -0.54840614896E-03  0.84372511676E-01  0.51100000000E-03 0. -1.
         11    1    4    4    0    0  0.38135699444E-01  0.28695065591E-01 -0.14745337188E-01  0.49954223556E-01  0.51100000000E-03 0.  1.
</event>
<event>
 8    1  0.1213322E+005  0.1043930E+01  0.7957747E-01            NaN
         13   -1    0    0    0    0  0.00000000000E+00  0.00000000000E+00  0.74505805969E-08  0.10566000000E+00  0.10566000000E+00 0. -1.
     999900   -1    0    0    0    0 -0.00000000000E+00 -0.00000000000E+00 -0.74505805969E-08  0.93827000000E+00  0.93827000000E+00 0. -1.
     999902    2    1    2    0    0  0.26781401828E-03 -0.11129056634E-01  0.21510177587E-01  0.10197098562E+01  0.10194221772E+01 0.  0.
     999903    2    3    3    0    0  0.12179833882E+00 -0.33083432340E-01  0.29760828658E-01  0.13104808909E+00  0.18935308226E-01 0.  0.
         14    1    1    2    0    0 -0.26781401828E-03  0.11129056634E-01 -0.21510177587E-01  0.24220143801E-01  0.00000000000E+00 0.  1.
     999901    1    3    3    0    0 -0.12153052480E+00  0.21954375706E-01 -0.82506510706E-02  0.88866176711E+00  0.88000000000E+00 0. -1.
        -11    1    4    4    0    0  0.81393162831E-01 -0.29976193755E-01  0.24819816231E-01  0.90220305621E-01  0.51100000000E-03 0.  1.
         11    1    4    4    0    0  0.40405175991E-01 -0.31072385844E-02  0.49410124274E-02  0.40827783473E-01  0.51100000000E-03 0. -1.
</event>
<event>
 8    1  0.1213322E+005  0.1043930E+01  0.7957747E-01            NaN
         13   -1    0    0    0    0  0.00000000000E+00  0.00000000000E+00  0.74505805969E-08  0.10566000000E+00  0.10566000000E+00 0.  1.
     999900   -1    0    0    0    0 -0.00000000000E+00 -0.00000000000E+00 -0.74505805969E-08  0.93827000000E+00  0.93827000000E+00 0. -1.
     999902    2    1    2    0    0  0.10035110790E-01 -0.22154839078E-01 -0.23510706709E-02  0.10194950276E+01  0.10192021602E+01 0.  0.
     999903    2    3    3    0    0  0.36507704638E-01  0.10870245680E+00  0.53108728791E-01  0.12769896376E+00  0.18369857373E-01 0.  0.
         14    1    1    2    0    0 -0.10035110790E-01  0.22154839078E-01  0.23510706709E-02  0.24434972406E-01  0.00000000000E+00 0. -1.
     999901    1    3    3    0    0 -0.26472593848E-01 -0.13085729588E+00 -0.55459799462E-01  0.89179606383E+00  0.88000000000E+00 0. -1.
        -11    1    4    4    0    0  0.38820889833E-03  0.23965324432E-01  0.12368459469E-01  0.26976422889E-01  0.51100000000E-03 0.  1.
         11    1    4    4    0    0  0.36119495740E-01  0.84737132368E-01  0.40740269322E-01  0.10072254087E+00  0.51100000000E-03 0. -1.
</event>
<event>
 8    1  0.1213322E+005  0.1043930E+01  0.7957747E-01            NaN
         13   -1    0    0    0    0  0.00000000000E+00  0.00000000000E+00  0.74505805969E-08  0.10566000000E+00  0.10566000000E+00 0. -1.
     999900   -1    0    0    0    0 -0.00000000000E+00 -0.00000000000E+00 -0.74505805969E-08  0.93827000000E+00  0.93827000000E+00 0.  1.
     999902    2    1    2    0    0 -0.17533075822E-01 -0.10391580833E-01 -0.11671071828E-01  0.10204436717E+01  0.10201733576E+01 0.  0.
     999903    2    3    3    0    0 -0.79157987377E-01  0.64603881291E-01 -0.81717073685E-01  0.13233985375E+00  0.19912516534E-01 0.  0.
         14    1    1    2    0    0  0.17533075822E-01  0.10391580833E-01  0.11671071828E-01  0.23486328313E-01  0.00000000000E+00 0. -1.
     999901    1    3    3    0    0  0.61624911555E-01 -0.74995462124E-01  0.70046001857E-01  0.88810381794E+00  0.88000000000E+00 0. -1.
        -11    1    4    4    0    0 -0.35005395862E-01  0.37370821007E-01 -0.31398170925E-01  0.60067147932E-01  0.51100000000E-03 0. -1.
         11    1    4    4    0    0 -0.44152591516E-01  0.27233060283E-01 -0.50318902760E-01  0.72272705816E-01  0.51100000000E-03 0.  1.
</event>
<event>
 8    1  0.1213322E+005  0.1043930E+01  0.7957747E-01            NaN
         13   -1    0    0    0    0  0.00000000000E+00  0.00000000000E+00  0.74505805969E-08  0.10566000000E+00  0.10566000000E+00 0.  1.
     999900   -1    0    0    0    0 -0.00000000000E+00 -0.00000000000E+00 -0.74505805969E-08  0.93827000000E+00  0.93827000000E+00 0. -1.
     999902    2    1    2    0    0  0.10558209701E-01 -0.14299677724E-01  0.16859380403E-01  0.10194311167E+01  0.10191366966E+01 0.  0.
     999903    2    3    3    0    0  0.11220417045E+00  0.61496419766E-01  0.14801234997E-01  0.13034102808E+00  0.19952983076E-01 0.  0.
         14    1    1    2    0    0 -0.10558209701E-01  0.14299677724E-01 -0.16859380403E-01  0.24498883295E-01  0.00000000000E+00 0. -1.
     999901    1    3    3    0    0 -0.10164596074E+00 -0.75796097491E-01  0.20581454065E-02  0.88909008863E+00  0.88000000000E+00 0.  1.
        -11    1    4    4    0    0  0.74353224927E-01  0.50709096843E-01  0.13040377864E-01  0.90940239364E-01  0.51100000000E-03 0. -1.
         11    1    4    4    0    0  0.37850945519E-01  0.10787322924E-01  0.17608571330E-02  0.39400788715E-01  0.51100000000E-03 0.  1.
</event>
<event>
 8    1  0.1213322E+005  0.1043930E+01  0.7957747E-01            NaN
         13   -1    0    0    0    0  0.00000000000E+00  0.00000000000E+00  0.74505805969E-08  0.10566000000E+00  0.10566000000E+00 0. -1.
     999900   -1    0    0    0    0 -0.00000000000E+00 -0.00000000000E+00 -0.74505805969E-08  0.93827000000E+00  0.93827000000E+00 0. -1.
     999902    2    1    2    0    0  0.20557686397E-01  0.17776184948E-01  0.23601135313E-02  0.10166503124E+01  0.10162842497E+01 0.  0.
     999903    2    3    3    0    0 -0.30771920739E-02  0.10023719091E+00  0.78735135332E-01  0.12918675315E+00  0.20809423411E-01 0.  0.
         14    1    1    2    0    0 -0.20557686397E-01 -0.17776184948E-01 -0.23601135313E-02  0.27279687630E-01  0.00000000000E+00 0. -1.
     999901    1    3    3    0    0  0.23634878471E-01 -0.82461005958E-01 -0.76375021801E-01  0.88746355922E+00  0.88000000000E+00 0. -1.
        -11    1    4    4    0    0  0.71819963858E-02  0.55728734398E-01  0.50038877715E-01  0.75242430275E-01  0.51100000000E-03 0. -1.
         11    1    4    4    0    0 -0.10259188460E-01  0.44508456508E-01  0.28696257617E-01  0.53944322878E-01  0.51100000000E-03 0.  1.
</event>
<event>
 8    1  0.1213322E+005  0.1043930E+01  0.7957747E-01            NaN
         13   -1    0    0    0    0  0.00000000000E+00  0.00000000000E+00  0.74505805969E-08  0.10566000000E+00  0.10566000000E+00 0. -1.
     999900   -1    0    0    0    0 -0.00000000000E+00 -0.00000000000E+00 -0.74505805969E-08  0.93827000000E+00  0.93827000000E+00 0. -1.
     999902    2    1    2    0    0 -0.10495981193E-01 -0.19060093553E-01 -0.13901332252E-01  0.10181094689E+01  0.10177819957E+01 0.  0.
     999903    2    3    3    0    0 -0.10622981788E-01 -0.66883224340E-02  0.12487023466E+00  0.12714896213E+00  0.20413271837E-01 0.  0.
         14    1    1    2    0    0  0.10495981193E-01  0.19060093553E-01  0.13901332252E-01  0.25820531091E-01  0.00000000000E+00 0.  1.
     999901    1    3    3    0    0  0.12700059542E-03 -0.12371771119E-01 -0.13877156692E+00  0.89096050678E+00  0.88000000000E+00 0. -1.
        -11    1    4    4    0    0 -0.10957975287E-02 -0.92759763180E-04  0.96388017356E-01  0.96395645064E-01  0.51100000000E-03 0. -1.
         11    1    4    4    0    0 -0.95271842595E-02 -0.65955626708E-02  0.28482217309E-01  0.30753317068E-01  0.51100000000E-03 0.  1.
</event>
<event>
 8    1  0.1213322E+005  0.1043930E+01  0.7957747E-01            NaN
         13   -1    0    0    0    0  0.00000000000E+00  0.00000000000E+00  0.74505805969E-08  0.10566000000E+00  0.10566000000E+00 0.  1.
     999900   -1    0    0    0    0 -0.00000000000E+00 -0.00000000000E+00 -0.74505805969E-08  0.93827000000E+00  0.93827000000E+00 0. -1.
     999902    2    1    2    0    0  0.41144438320E-02 -0.14762904899E-01 -0.14999441908E-01  0.10224857638E+01  0.10222608678E+01 0.  0.
     999903    2    3    3    0    0 -0.84906203256E-01  0.86417605177E-01  0.43230321718E-01  0.13032385214E+00  0.20937523364E-01 0.  0.
         14    1    1    2    0    0 -0.41144438320E-02  0.14762904899E-01  0.14999441908E-01  0.21444236211E-01  0.00000000000E+00 0.  1.
     999901    1    3    3    0    0  0.89020647088E-01 -0.10118051008E+00 -0.58229763626E-01  0.89216191165E+00  0.88000000000E+00 0. -1.
        -11    1    4    4    0    0 -0.56297806935E-01  0.48933148483E-01  0.17558862372E-01  0.76632048485E-01  0.51100000000E-03 0.  1.
         11    1    4    4    0    0 -0.28608396321E-01  0.37484456694E-01  0.25671459346E-01  0.53691803654E-01  0.51100000000E-03 0. -1.
</event>
<event>
 8    1  0.1213322E+005  0.1043930E+01  0.7957747E-01            NaN
         13   -1    0    0    0    0  0.00000000000E+00  0.00000000000E+00  0.74505805969E-08  0.10566000000E+00  0.10566000000E+00 0. -1.
     999900   -1    0    0    0    0 -0.00000000000E+00 -0.00000000000E+00 -0.74505805969E-08  0.93827000000E+00  0.93827000000E+00 0. -1.
     999902    2    1    2    0    0 -0.16463803181E-01 -0.35115203378E-02  0.16912336720E-01  0.10200675876E+01  0.10197884431E+01 0.  0.
     999903    2    3    3    0    0  0.76818667603E-01 -0.34724687128E-01  0.98127021552E-01  0.13087036195E+00  0.19779476507E-01 0.  0.
         14    1    1    2    0    0  0.16463803181E-01  0.35115203378E-02 -0.16912336720E-01  0.23862412360E-01  0.00000000000E+00 0.  1.
     999901    1    3    3    0    0 -0.93282470784E-01  0.31213166790E-01 -0.81214684831E-01  0.88919722569E+00  0.88000000000E+00 0. -1.
        -11    1    4    4    0    0  0.42929773559E-01 -0.13241244755E-01  0.63984234781E-01  0.78182731098E-01  0.51100000000E-03 0.  1.
         11    1    4    4    0    0  0.33888894044E-01 -0.21483442372E-01  0.34142786771E-01  0.52687630855E-01  0.51100000000E-03 0. -1.
</event>
<event>
 8    1  0.1213322E+005  0.1043930E+01  0.7957747E-01            NaN
         13   -1    0    0    0    0  0.00000000000E+00  0.00000000000E+00  0.74505805969E-08  0.10566000000E+00  0.10566000000E+00 0.  1.
     999900   -1    0    0    0    0 -0.00000000000E+00 -0.00000000000E+00 -0.74505805969E-08  0.93827000000E+00  0.93827000000E+00 0. -1.
     999902    2    1    2    0    0 -0.15414399746E-01 -0.43122018115E-02  0.12183943284E-01  0.10238141536E+01  0.10236165169E+01 0.  0.
     999903    2    3    3    0    0  0.31174547046E-01 -0.43303878536E-01 -0.11911003294E+00  0.13200195976E+00  0.19754471767E-01 0.  0.
         14    1    1    2    0    0  0.15414399746E-01  0.43122018115E-02 -0.12183943284E-01  0.20115846439E-01  0.00000000000E+00 0. -1.
     999901    1    3    3    0    0 -0.46588946792E-01  0.38991676725E-01  0.13129397622E+00  0.89181219380E+00  0.88000000000E+00 0.  1.
        -11    1    4    4    0    0  0.13290040474E-01 -0.26032104579E-01 -0.84275450915E-01  0.89201504430E-01  0.51100000000E-03 0.  1.
         11    1    4    4    0    0  0.17884506571E-01 -0.17271773958E-01 -0.34834582023E-01  0.42800455332E-01  0.51100000000E-03 0. -1.
</event>
<event>
 7    1  0.1213322E+005  0.1043930E+01  0.7957747E-01            NaN
         13   -1    0    0    0    0  0.00000000000E+00  0.00000000000E+00  0.74505805969E-08  0.10566000000E+00  0.10566000000E+00 0.  1.
     999900   -1    0    0    0    0 -0.00000000000E+00 -0.00000000000E+00 -0.74505805969E-08  0.93827000000E+00  0.93827000000E+00 0. -1.
     999903    2    1    2    0    0  0.10440385831E+00  0.16961773503E-01  0.29289074251E-01  0.11162034782E+00  0.20331866300E-01 0.  0.
         14    1    1    2    0    0  0.88689889825E-02 -0.38769756544E-01  0.17713774351E-01  0.43537693896E-01  0.00000000000E+00 0. -1.
     999901    1    1    2    0    0 -0.11327284729E+00  0.21807983041E-01 -0.47002848602E-01  0.88877195828E+00  0.88000000000E+00 0.  1.
        -11    1    3    3    0    0  0.36988951411E-01 -0.34955892224E-02  0.12402475593E-01  0.39172492803E-01  0.51100000000E-03 0.  1.
         11    1    3    3    0    0  0.67414906894E-01  0.20457362725E-01  0.16886598658E-01  0.72447855016E-01  0.51100000000E-03 0. -1.
</event>
<event>
 8    1  0.1213322E+005  0.1043930E+01  0.7957747E-01            NaN
         13   -1    0    0    0    0  0.00000000000E+00  0.00000000000E+00  0.74505805969E-08  0.10566000000E+00  0.10566000000E+00 0. -1.
     999900   -1    0    0    0    0 -0.00000000000E+00 -0.00000000000E+00 -0.74505805969E-08  0.93827000000E+00  0.93827000000E+00 0. -1.
     999902    2    1    2    0    0  0.12741497412E-01  0.16560151139E-05  0.20575182944E-01  0.10197290927E+01  0.10194418761E+01 0.  0.
     999903    2    3    3    0    0 -0.10213480652E+00 -0.68018121114E-01 -0.31002763421E-01  0.12816667774E+00  0.20187680445E-01 0.  0.
         14    1    1    2    0    0 -0.12741497412E-01 -0.16560151139E-05 -0.20575182944E-01  0.24200907260E-01  0.00000000000E+00 0.  1.
     999901    1    3    3    0    0  0.11487630393E+00  0.68019777129E-01  0.51577946365E-01  0.89156241500E+00  0.88000000000E+00 0.  1.
        -11    1    4    4    0    0 -0.40043535630E-01 -0.18434232547E-01 -0.18133860045E-01  0.47669735435E-01  0.51100000000E-03 0.  1.
         11    1    4    4    0    0 -0.62091270887E-01 -0.49583888566E-01 -0.12868903377E-01  0.80496942307E-01  0.51100000000E-03 0. -1.
</event>
<event>
 8    1  0.1213322E+005  0.1043930E+01  0.7957747E-01            NaN
         13   -1    0    0    0    0  0.00000000000E+00  0.00000000000E+00  0.74505805969E-08  0.10566000000E+00  0.10566000000E+00 0.  1.
     999900   -1    0    0    0    0 -0.00000000000E+00 -0.00000000000E+00 -0.74505805969E-08  0.93827000000E+00  0.93827000000E+00 0. -1.
     999902    2    1    2    0    0 -0.20962149040E-01 -0.19977243186E-02 -0.11890518580E-01  0.10197476298E+01  0.10194608583E+01 0.  0.
     999903    2    3    3    0    0  0.56526516634E-01  0.33395621531E-01  0.10752742783E+00  0.12760536082E+00  0.20259954459E-01 0.  0.
         14    1    1    2    0    0  0.20962149040E-01  0.19977243186E-02  0.11890518580E-01  0.24182370167E-01  0.00000000000E+00 0.  1.
     999901    1    3    3    0    0 -0.77488665674E-01 -0.35393345850E-01 -0.11941794641E+00  0.89214226901E+00  0.88000000000E+00 0. -1.
        -11    1    4    4    0    0  0.13688965742E-01 -0.71406396589E-03  0.17562355637E-01  0.22284414441E-01  0.51100000000E-03 0. -1.
         11    1    4    4    0    0  0.42837550892E-01  0.34109685497E-01  0.89965072188E-01  0.10532094638E+00  0.51100000000E-03 0.  1.
</event>
<event>
 8    1  0.1213322E+005  0.1043930E+01  0.7957747E-01            NaN
         13   -1    0    0    0    0  0.00000000000E+00  0.00000000000E+00  0.74505805969E-08  0.10566000000E+00  0.10566000000E+00 0.  1.
     999900   -1    0    0    0    0 -0.00000000000E+00 -0.00000000000E+00 -0.74505805969E-08  0.93827000000E+00  0.93827000000E+00 0.  1.
     999902    2    1    2    0    0 -0.20510184779E-03  0.14408752444E-01  0.19819993138E-01  0.10194251772E+01  0.10191306126E+01 0.  0.
     999903    2    3    3    0    0  0.43810095058E-01  0.14414823706E-01 -0.11747280571E+00  0.12769279007E+00  0.19454484919E-01 0.  0.
         14    1    1    2    0    0  0.20510184779E-03 -0.14408752444E-01 -0.19819993138E-01  0.24504822826E-01  0.00000000000E+00 0. -1.
     999901    1    3    3    0    0 -0.44015196906E-01 -0.60712624467E-05  0.13729279885E+00  0.89173238710E+00  0.88000000000E+00 0. -1.
        -11    1    4    4    0    0  0.28979152015E-02  0.76124568605E-02 -0.13828014759E-01  0.16056852902E-01  0.51100000000E-03 0. -1.
         11    1    4    4    0    0  0.40912179857E-01  0.68023668457E-02 -0.10364479095E+00  0.11163593717E+00  0.51100000000E-03 0.  1.
</event>
<event>
 8    1  0.1213322E+005  0.1043930E+01  0.7957747E-01            NaN
         13   -1    0    0    0    0  0.00000000000E+00  0.00000000000E+00  0.74505805969E-08  0.10566000000E+00  0.10566000000E+00 0.  1.
     999900   -1    0    0    0    0 -0.00000000000E+00 -0.00000000000E+00 -0.74505805969E-08  0.93827000000E+00  0.93827000000E+00 0. -1.
     999902    2    1    2    0    0 -0.53395865599E-02 -0.10493630873E-01 -0.19374105907E-01  0.10212587968E+01  0.10210071237E+01 0.  0.
     999903    2    3    3    0    0  0.23515315008E-01  0.11087736502E-01 -0.12968655086E+00  0.13363996181E+00  0.19108374571E-01 0.  0.
         14    1    1    2    0    0  0.53395865599E-02  0.10493630873E-01  0.19374105907E-01  0.22671203171E-01  0.00000000000E+00 0.  1.
     999901    1    3    3    0    0 -0.28854901568E-01 -0.21581367375E-01  0.11031244495E+00  0.88761883502E+00  0.88000000000E+00 0.  1.
        -11    1    4    4    0    0  0.22290154354E-01  0.12778214654E-02 -0.87008321530E-01  0.89828686651E-01  0.51100000000E-03 0. -1.
         11    1    4    4    0    0  0.12251606540E-02  0.98099150363E-02 -0.42678229330E-01  0.43811275163E-01  0.51100000000E-03 0.  1.
</event>
<event>
 8    1  0.1213322E+005  0.1043930E+01  0.7957747E-01            NaN
         13   -1    0    0    0    0  0.00000000000E+00  0.00000000000E+00  0.74505805969E-08  0.10566000000E+00  0.10566000000E+00 0. -1.
     999900   -1    0    0    0    0 -0.00000000000E+00 -0.00000000000E+00 -0.74505805969E-08  0.93827000000E+00  0.93827000000E+00 0. -1.
     999902    2    1    2    0    0 -0.17509551612E-01 -0.11543043605E-01 -0.10184565124E-01  0.10206158065E+01  0.10203494856E+01 0.  0.
     999903    2    3    3    0    0  0.15614601786E-01  0.86388904089E-01 -0.94488212935E-01  0.13056244798E+00  0.20289699375E-01 0.  0.
         14    1    1    2    0    0  0.17509551612E-01  0.11543043605E-01  0.10184565124E-01  0.23314193533E-01  0.00000000000E+00 0.  1.
     999901    1    3    3    0    0 -0.33124153398E-01 -0.97931947694E-01  0.84303647810E-01  0.89005335849E+00  0.88000000000E+00 0.  1.
        -11    1    4    4    0    0  0.10469712708E-03  0.40682149734E-01 -0.32967123856E-01  0.52365452780E-01  0.51100000000E-03 0. -1.
         11    1    4    4    0    0  0.15509904659E-01  0.45706754355E-01 -0.61521089079E-01  0.78196995202E-01  0.51100000000E-03 0.  1.
</event>
<event>
 8    1  0.1213322E+005  0.1043930E+01  0.7957747E-01            NaN
         13   -1    0    0    0    0  0.00000000000E+00  0.00000000000E+00  0.74505805969E-08  0.10566000000E+00  0.10566000000E+00 0. -1.
     999900   -1    0    0    0    0 -0.00000000000E+00 -0.00000000000E+00 -0.74505805969E-08  0.93827000000E+00  0.93827000000E+00 0. -1.
     999902    2    1    2    0    0 -0.16726807727E-01 -0.11908593132E-01 -0.10111572917E-01  0.10210423484E+01  0.10207857918E+01 0.  0.
     999903    2    3    3    0    0 -0.69093376089E-01 -0.11058946161E+00 -0.22094514646E-01  0.13389875117E+00  0.20899386328E-01 0.  0.
         14    1    1    2    0    0  0.16726807727E-01  0.11908593132E-01  0.10111572917E-01  0.22887651561E-01  0.00000000000E+00 0. -1.
     999901    1    3    3    0    0  0.52366568363E-01  0.98680868476E-01  0.11982941729E-01  0.88714359727E+00  0.88000000000E+00 0.  1.
        -11    1    4    4    0    0 -0.44137980571E-01 -0.63889169777E-01 -0.22830783228E-01  0.80941294328E-01  0.51100000000E-03 0.  1.
         11    1    4    4    0    0 -0.24955395519E-01 -0.46700291832E-01  0.73626858255E-03  0.52957456841E-01  0.51100000000E-03 0. -1.
</event>
<event>
 8    1  0.1213322E+005  0.1043930E+01  0.7957747E-01            NaN
         13   -1    0    0    0    0  0.00000000000E+00  0.00000000000E+00  0.74505805969E-08  0.10566000000E+00  0.10566000000E+00 0. -1.
     999900   -1    0    0    0    0 -0.00000000000E+00 -0.00000000000E+00 -0.74505805969E-08  0.93827000000E+00  0.93827000000E+00 0. -1.
     999902    2    1    2    0    0 -0.88595380134E-02  0.15675888975E-01  0.14310489057E-01  0.10209296738E+01  0.10206705560E+01 0.  0.
     999903    2    3    3    0    0  0.92515182049E-01  0.59724039704E-02  0.91362279210E-01  0.13171205708E+00  0.20156175218E-01 0.  0.
         14    1    1    2    0    0  0.88595380134E-02 -0.15675888975E-01 -0.14310489057E-01  0.23000326215E-01  0.00000000000E+00 0. -1.
     999901    1    3    3    0    0 -0.10137472006E+00  0.97034850041E-02 -0.77051790154E-01  0.88921761670E+00  0.88000000000E+00 0. -1.
        -11    1    4    4    0    0  0.70153891891E-01  0.69652684434E-02  0.56815741876E-01  0.90544868202E-01  0.51100000000E-03 0. -1.
         11    1    4    4    0    0  0.22361290158E-01 -0.99286447298E-03  0.34546537335E-01  0.41167188879E-01  0.51100000000E-03 0.  1.
</event>
<event>
 8    1  0.1213322E+005  0.1043930E+01  0.7957747E-01            NaN
         13   -1    0    0    0    0  0.00000000000E+00  0.00000000000E+00  0.74505805969E-08  0.10566000000E+00  0.10566000000E+00 0.  1.
     999900   -1    0    0    0    0 -0.00000000000E+00 -0.00000000000E+00 -0.74505805969E-08  0.93827000000E+00  0.93827000000E+00 0.  1.
     999902    2    1    2    0    0  0.21648077646E-01 -0.70775478981E-02 -0.73654668012E-02  0.10199929774E+01  0.10197120637E+01 0.  0.
     999903    2    3    3    0    0  0.64146499066E-02 -0.11805552586E+00 -0.55690116986E-01  0.13157672319E+00  0.15257458422E-01 0.  0.
         14    1    1    2    0    0 -0.21648077646E-01  0.70775478981E-02  0.73654668012E-02  0.23937022606E-01  0.00000000000E+00 0. -1.
     999901    1    3    3    0    0  0.15233427740E-01  0.11097797796E+00  0.48324650185E-01  0.88841625420E+00  0.88000000000E+00 0. -1.
        -11    1    4    4    0    0 -0.33624253215E-02 -0.40436154261E-01 -0.24167295550E-01  0.47230369157E-01  0.51100000000E-03 0.  1.
         11    1    4    4    0    0  0.97770752282E-02 -0.77619371596E-01 -0.31522821437E-01  0.84346354037E-01  0.51100000000E-03 0. -1.
</event>
<event>
 8    1  0.1213322E+005  0.1043930E+01  0.7957747E-01            NaN
         13   -1    0    0    0    0  0.00000000000E+00  0.00000000000E+00  0.74505805969E-08  0.10566000000E+00  0.10566000000E+00 0.  1.
     999900   -1    0    0    0    0 -0.00000000000E+00 -0.00000000000E+00 -0.74505805969E-08  0.93827000000E+00  0.93827000000E+00 0. -1.
     999902    2    1    2    0    0 -0.15138392727E-01 -0.35036272235E-02 -0.17215599182E-01  0.10207389846E+01  0.10204755027E+01 0.  0.
     999903    2    3    3    0    0 -0.12672609005E+00  0.28870570009E-01 -0.20478672023E-01  0.13309572833E+00  0.20052061746E-01 0.  0.
         14    1    1    2    0    0  0.15138392727E-01  0.35036272235E-02  0.17215599182E-01  0.23191015357E-01  0.00000000000E+00 0.  1.
     999901    1    3    3    0    0  0.11158769732E+00 -0.32374197233E-01  0.32630728407E-02  0.88764325632E+00  0.88000000000E+00 0. -1.
        -11    1    4    4    0    0 -0.73125413967E-01  0.68143550078E-02 -0.14062349543E-01  0.74778154549E-01  0.51100000000E-03 0.  1.
         11    1    4    4    0    0 -0.53600676078E-01  0.22056215002E-01 -0.64163224792E-02  0.58317573778E-01  0.51100000000E-03 0. -1.
</event>
<event>
 8    1  0.1213322E+005  0.1043930E+01  0.7957747E-01            NaN
         13   -1    0    0    0    0  0.00000000000E+00  0.00000000000E+00  0.74505805969E-08  0.10566000000E+00  0.10566000000E+00 0.  1.
     999900   -1    0    0    0    0 -0.00000000000E+00 -0.00000000000E+00 -0.74505805969E-08  0.93827000000E+00  0.93827000000E+00 0.  1.
     999902    2    1    2    0    0 -0.25905408185E-01 -0.32100768914E-03 -0.26927550582E-02  0.10178830395E+01  0.10175497226E+01 0.  0.
     999903    2    3    3    0    0  0.12247083941E-01 -0.87357672348E-01  0.90233972916E-01  0.12790193277E+00  0.20865774702E-01 0.  0.
         14    1    1    2    0    0  0.25905408185E-01  0.32100768914E-03  0.26927550582E-02  0.26046960456E-01  0.00000000000E+00 0. -1.
     999901    1    3    3    0    0 -0.38152492126E-01  0.87036664659E-01 -0.92926727974E-01  0.88998110678E+00  0.88000000000E+00 0.  1.
        -11    1    4    4    0    0 -0.21274557084E-02 -0.45382204208E-01  0.54325760902E-01  0.70821041683E-01  0.51100000000E-03 0. -1.
         11    1    4    4    0    0  0.14374539649E-01 -0.41975468140E-01  0.35908212014E-01  0.57080891083E-01  0.51100000000E-03 0.  1.
</event>
<event>
 8    1  0.1213322E+005  0.1043930E+01  0.7957747E-01            NaN
         13   -1    0    0    0    0  0.00000000000E+00  0.00000000000E+00  0.74505805969E-08  0.10566000000E+00  0.10566000000E+00 0. -1.
     999900   -1    0    0    0    0 -0.00000000000E+00 -0.00000000000E+00 -0.74505805969E-08  0.93827000000E+00  0.93827000000E+00 0.  1.
     999902    2    1    2    0    0 -0.12021256503E-02 -0.13611689861E-01 -0.20310174375E-01  0.10194508989E+01  0.10191569599E+01 0.  0.
     999903    2    3    3    0    0  0.10759778200E+00  0.60215301357E-01 -0.34522715923E-01  0.12956897367E+00  0.19827652770E-01 0.  0.
         14    1    1    2    0    0  0.12021256503E-02  0.13611689861E-01  0.20310174375E-01  0.24479101088E-01  0.00000000000E+00 0. -1.
     999901    1    3    3    0    0 -0.10879990765E+00 -0.73826991218E-01  0.14212541548E-01  0.88988192524E+00  0.88000000000E+00 0.  1.
        -11    1    4    4    0    0  0.70303097200E-01  0.28950268515E-01 -0.24468295634E-01  0.79872411602E-01  0.51100000000E-03 0. -1.
         11    1    4    4    0    0  0.37294684799E-01  0.31265032843E-01 -0.10054420290E-01  0.49696562067E-01  0.51100000000E-03 0.  1.
</event>
<event>
 8    1  0.1213322E+005  0.1043930E+01  0.7957747E-01            NaN
         13   -1    0    0    0    0  0.00000000000E+00  0.00000000000E+00  0.74505805969E-08  0.10566000000E+00  0.10566000000E+00 0. -1.
     999900   -1    0    0    0    0 -0.00000000000E+00 -0.00000000000E+00 -0.74505805969E-08  0.93827000000E+00  0.93827000000E+00 0.  1.
     999902    2    1    2    0    0  0.15518731191E-01  0.15760163501E-01 -0.89125251093E-02  0.10200836821E+01  0.10198049185E+01 0.  0.
     999903    2    3    3    0    0  0.80836836870E-02  0.12883628945E+00 -0.23613406661E-01  0.13269560125E+00  0.19656912221E-01 0.  0.
         14    1    1    2    0    0 -0.15518731191E-01 -0.15760163501E-01  0.89125251093E-02  0.23846317854E-01  0.00000000000E+00 0.  1.
     999901    1    3    3    0    0  0.74350475045E-02 -0.11307612594E+00  0.14700881552E-01  0.88738808089E+00  0.88000000000E+00 0.  1.
        -11    1    4    4    0    0 -0.26225607620E-02  0.25748157370E-01  0.19052492974E-02  0.25956435209E-01  0.51100000000E-03 0.  1.
         11    1    4    4    0    0  0.10706244449E-01  0.10308813208E+00 -0.25518655958E-01  0.10673916604E+00  0.51100000000E-03 0. -1.
</event>
<event>
 8    1  0.1213322E+005  0.1043930E+01  0.7957747E-01            NaN
         13   -1    0    0    0    0  0.00000000000E+00  0.00000000000E+00  0.74505805969E-08  0.10566000000E+00  0.10566000000E+00 0.  1.
     999900   -1    0    0    0    0 -0.00000000000E+00 -0.00000000000E+00 -0.74505805969E-08  0.93827000000E+00  0.93827000000E+00 0. -1.
     999902    2    1    2    0    0  0.17603139998E-01  0.35844376938E-02 -0.15109994548E-01  0.10204559576E+01  0.10201859295E+01 0.  0.
     999903    2    3    3    0    0 -0.79507424544E-01  0.83933702369E-01 -0.57106696942E-01  0.13048394170E+00  0.19964650106E-01 0.  0.
         14    1    1    2    0    0 -0.17603139998E-01 -0.35844376938E-02  0.15109994548E-01  0.23474042400E-01  0.00000000000E+00 0. -1.
     999901    1    3    3    0    0  0.97110564542E-01 -0.80349264676E-01  0.41996702394E-01  0.88997201590E+00  0.88000000000E+00 0. -1.
        -11    1    4    4    0    0 -0.59131061149E-01  0.72288280162E-01 -0.40891730867E-01  0.10195328644E+00  0.51100000000E-03 0. -1.
         11    1    4    4    0    0 -0.20376363395E-01  0.11645422207E-01 -0.16214966075E-01  0.28530655257E-01  0.51100000000E-03 0.  1.
</event>
<event>
 8    1  0.1213322E+005  0.1043930E+01  0.7957747E-01            NaN
         13   -1    0    0    0    0  0.00000000000E+00  0.00000000000E+00  0.74505805969E-08  0.10566000000E+00  0.10566000000E+00 0. -1.
     999900   -1    0    0    0    0 -0.00000000000E+00 -0.00000000000E+00 -0.74505805969E-08  0.93827000000E+00  0.93827000000E+00 0.  1.
     999902    2    1    2    0    0 -0.10454983133E-01 -0.12985199551E-01  0.17886257647E-01  0.10194792272E+01  0.10191859763E+01 0.  0.
     999903    2    3    3    0    0 -0.50976096493E-01 -0.19273090151E-01  0.11928971898E+00  0.13270746387E+00  0.20278547669E-01 0.  0.
         14    1    1    2    0    0  0.10454983133E-01  0.12985199551E-01 -0.17886257647E-01  0.24450772836E-01  0.00000000000E+00 0.  1.
     999901    1    3    3    0    0  0.40521113359E-01  0.62878905999E-02 -0.10140346134E+00  0.88677176329E+00  0.88000000000E+00 0.  1.
        -11    1    4    4    0    0 -0.25493691792E-01 -0.13075406688E-01  0.40099599492E-01  0.49286241302E-01  0.51100000000E-03 0. -1.
         11    1    4    4    0    0 -0.25482404700E-01 -0.61976834624E-02  0.79190119490E-01  0.83421222572E-01  0.51100000000E-03 0.  1.
</event>
<event>
 8    1  0.1213322E+005  0.1043930E+01  0.7957747E-01            NaN
         13   -1    0    0    0    0  0.00000000000E+00  0.00000000000E+00  0.74505805969E-08  0.10566000000E+00  0.10566000000E+00 0.  1.
     999900   -1    0    0    0    0 -0.00000000000E+00 -0.00000000000E+00 -0.74505805969E-08  0.93827000000E+00  0.93827000000E+00 0.  1.
     999902    2    1    2    0    0 -0.85303763673E-03 -0.23150911564E-01 -0.67121816529E-02  0.10198105937E+01  0.10195253313E+01 0.  0.
     999903    2    3    3    0    0 -0.18603610428E-01 -0.10639760880E+00 -0.75768559224E-01  0.13301079736E+00  0.16865709830E-01 0.  0.
         14    1    1    2    0    0  0.85303763673E-03  0.23150911564E-01  0.67121816529E-02  0.24119406336E-01  0.00000000000E+00 0.  1.
     999901    1    3    3    0    0  0.17750572791E-01  0.83246697240E-01  0.69056377571E-01  0.88679979630E+00  0.88000000000E+00 0. -1.
        -11    1    4    4    0    0 -0.49297860266E-03 -0.37428273937E-01 -0.19723392008E-01  0.42313024367E-01  0.51100000000E-03 0.  1.
         11    1    4    4    0    0 -0.18110631825E-01 -0.68969334867E-01 -0.56045167216E-01  0.90697772996E-01  0.51100000000E-03 0. -1.
</event>
<event>
 8    1  0.1213322E+005  0.1043930E+01  0.7957747E-01            NaN
         13   -1    0    0    0    0  0.00000000000E+00  0.00000000000E+00  0.74505805969E-08  0.10566000000E+00  0.10566000000E+00 0.  1.
     999900   -1    0    0    0    0 -0.00000000000E+00 -0.00000000000E+00 -0.74505805969E-08  0.93827000000E+00  0.93827000000E+00 0. -1.
     999902    2    1    2    0    0  0.11912076248E-01  0.13509394024E-01 -0.15255579843E-01  0.10203263138E+01  0.10200532597E+01 0.  0.
     999903    2    3    3    0    0 -0.79646527739E-01 -0.47907995206E-02 -0.10142250096E+00  0.13120168058E+00  0.23681979308E-01 0.  0.
         14    1    1    2    0    0 -0.11912076248E-01 -0.13509394024E-01  0.15255579843E-01  0.23603686233E-01  0.00000000000E+00 0.  1.
     999901    1    3    3    0    0  0.91558603987E-01  0.18300193545E-01  0.86166921120E-01  0.88912463319E+00  0.88000000000E+00 0.  1.
        -11    1    4    4    0    0 -0.14131801546E-01  0.66683009864E-02 -0.28472699816E-01  0.32482761718E-01  0.51100000000E-03 0.  1.
         11    1    4    4    0    0 -0.65514726193E-01 -0.11459100507E-01 -0.72949801147E-01  0.98718918860E-01  0.51100000000E-03 0. -1.
</event>
<event>
 8    1  0.1213322E+005  0.1043930E+01  0.7957747E-01            NaN
         13   -1    0    0    0    0  0.00000000000E+00  0.00000000000E+00  0.74505805969E-08  0.10566000000E+00  0.10566000000E+00 0. -1.
     999900   -1    0    0    0    0 -0.00000000000E+00 -0.00000000000E+00 -0.74505805969E-08  0.93827000000E+00  0.93827000000E+00 0. -1.
     999902    2    1    2    0    0  0.19035046191E-01 -0.13134459147E-01 -0.31362073049E-03  0.10208011142E+01  0.10205390582E+01 0.  0.
     999903    2    3    3    0    0  0.81378110716E-01 -0.41373707133E-01 -0.94789808642E-01  0.13310191801E+00  0.19920647850E-01 0.  0.
         14    1    1    2    0    0 -0.19035046191E-01  0.13134459147E-01  0.31362073049E-03  0.23128885804E-01  0.00000000000E+00 0.  1.
     999901    1    3    3    0    0 -0.62343064526E-01  0.28239247987E-01  0.94476187912E-01  0.88769919618E+00  0.88000000000E+00 0.  1.
        -11    1    4    4    0    0  0.36804810389E-02  0.19185489156E-02 -0.68305832817E-02  0.80090423639E-02  0.51100000000E-03 0. -1.
         11    1    4    4    0    0  0.77697629677E-01 -0.43292256049E-01 -0.87959225361E-01  0.12509287565E+00  0.51100000000E-03 0.  1.
</event>
<event>
 8    1  0.1213322E+005  0.1043930E+01  0.7957747E-01            NaN
         13   -1    0    0    0    0  0.00000000000E+00  0.00000000000E+00  0.74505805969E-08  0.10566000000E+00  0.10566000000E+00 0. -1.
     999900   -1    0    0    0    0 -0.00000000000E+00 -0.00000000000E+00 -0.74505805969E-08  0.93827000000E+00  0.93827000000E+00 0. -1.
     999902    2    1    2    0    0  0.15624217066E-01 -0.15894148212E-01  0.17376049785E-02  0.10215747014E+01  0.10213300696E+01 0.  0.
     999903    2    3    3    0    0 -0.91502704917E-01 -0.67217968936E-01 -0.62742475350E-01  0.13125566149E+00  0.20010749753E-01 0.  0.
         14    1    1    2    0    0 -0.15624217066E-01  0.15894148212E-01 -0.17376049785E-02  0.22355298642E-01  0.00000000000E+00 0.  1.
     999901    1    3    3    0    0  0.10712692198E+00  0.51323820724E-01  0.64480080329E-01  0.89031903987E+00  0.88000000000E+00 0.  1.
        -11    1    4    4    0    0 -0.53824668652E-01 -0.37481625719E-01 -0.25004386653E-01  0.70195781176E-01  0.51100000000E-03 0.  1.
         11    1    4    4    0    0 -0.37678036266E-01 -0.29736343217E-01 -0.37738088698E-01  0.61059880317E-01  0.51100000000E-03 0. -1.
</event>
<event>
 8    1  0.1213322E+005  0.1043930E+01  0.7957747E-01            NaN
         13   -1    0    0    0    0  0.00000000000E+00  0.00000000000E+00  0.74505805969E-08  0.10566000000E+00  0.10566000000E+00 0.  1.
     999900   -1    0    0    0    0 -0.00000000000E+00 -0.00000000000E+00 -0.74505805969E-08  0.93827000000E+00  0.93827000000E+00 0. -1.
     999902    2    1    2    0    0  0.10435768979E-01  0.11190540954E-01 -0.17411245728E-01  0.10207505919E+01  0.10204873767E+01 0.  0.
     999903    2    3    3    0    0  0.10225233646E+00 -0.36030573605E-01  0.69876033394E-01  0.13042526665E+00  0.19348064289E-01 0.  0.
         14    1    1    2    0    0 -0.10435768979E-01 -0.11190540954E-01  0.17411245728E-01  0.23179408078E-01  0.00000000000E+00 0.  1.
     999901    1    3    3    0    0 -0.91816567483E-01  0.47221114558E-01 -0.87287279122E-01  0.89032532527E+00  0.88000000000E+00 0. -1.
        -11    1    4    4    0    0  0.26436117767E-01 -0.64237196581E-03  0.16087463268E-01  0.30957205296E-01  0.51100000000E-03 0. -1.
         11    1    4    4    0    0  0.75816218695E-01 -0.35388201639E-01  0.53788570126E-01  0.99468061354E-01  0.51100000000E-03 0.  1.
</event>
<event>
 8    1  0.1213322E+005  0.1043930E+01  0.7957747E-01            NaN
         13   -1    0    0    0    0  0.00000000000E+00  0.00000000000E+00  0.74505805969E-08  0.10566000000E+00  0.10566000000E+00 0.  1.
     999900   -1    0    0    0    0 -0.00000000000E+00 -0.00000000000E+00 -0.74505805969E-08  0.93827000000E+00  0.93827000000E+00 0.  1.
     999902    2    1    2    0    0  0.23819742793E-01 -0.57346075970E-02  0.83349170852E-02  0.10180507281E+01  0.10177217440E+01 0.  0.
     999903    2    3    3    0    0  0.90779497693E-01  0.79040865606E-01 -0.44637215851E-01  0.12986350882E+00  0.19587604420E-01 0.  0.
         14    1    1    2    0    0 -0.23819742793E-01  0.57346075970E-02 -0.83349170852E-02  0.25879271895E-01  0.00000000000E+00 0. -1.
     999901    1    3    3    0    0 -0.66959754900E-01 -0.84775473203E-01  0.52972132936E-01  0.88818721928E+00  0.88000000000E+00 0. -1.
        -11    1    4    4    0    0  0.51336917672E-01  0.56351345440E-01 -0.24213269957E-01  0.79984353544E-01  0.51100000000E-03 0. -1.
         11    1    4    4    0    0  0.39442580021E-01  0.22689520166E-01 -0.20423945894E-01  0.49879155275E-01  0.51100000000E-03 0.  1.
</event>
<event>
 8    1  0.1213322E+005  0.1043930E+01  0.7957747E-01            NaN
         13   -1    0    0    0    0  0.00000000000E+00  0.00000000000E+00  0.74505805969E-08  0.10566000000E+00  0.10566000000E+00 0.  1.
     999900   -1    0    0    0    0 -0.00000000000E+00 -0.00000000000E+00 -0.74505805969E-08  0.93827000000E+00  0.93827000000E+00 0.  1.
     999902    2    1    2    0    0 -0.15868533147E-01  0.14501982959E-01  0.87465810748E-02  0.10207218003E+01  0.10204579232E+01 0.  0.
     999903    2    3    3    0    0 -0.59465708543E-01 -0.93997888761E-01 -0.64269739669E-01  0.12998933822E+00  0.19870959453E-01 0.  0.
         14    1    1    2    0    0  0.15868533147E-01 -0.14501982959E-01 -0.87465810748E-02  0.23208199725E-01  0.00000000000E+00 0. -1.
     999901    1    3    3    0    0  0.43597175396E-01  0.10849987172E+00  0.73016320744E-01  0.89073246206E+00  0.88000000000E+00 0. -1.
        -11    1    4    4    0    0 -0.40664568077E-01 -0.78487418958E-01 -0.47019358725E-01  0.10012473844E+00  0.51100000000E-03 0. -1.
         11    1    4    4    0    0 -0.18801140466E-01 -0.15510469803E-01 -0.17250380944E-01  0.29864599780E-01  0.51100000000E-03 0.  1.
</event>
<event>
 8    1  0.1213322E+005  0.1043930E+01  0.7957747E-01            NaN
         13   -1    0    0    0    0  0.00000000000E+00  0.00000000000E+00  0.74505805969E-08  0.10566000000E+00  0.10566000000E+00 0. -1.
     999900   -1    0    0    0    0 -0.00000000000E+00 -0.00000000000E+00 -0.74505805969E-08  0.93827000000E+00  0.93827000000E+00 0.  1.
     999902    2    1    2    0    0  0.26715064032E-01  0.83497568672E-02 -0.43771117140E-02  0.10156002949E+01  0.10152050959E+01 0.  0.
     999903    2    3    3    0    0 -0.86204271984E-01  0.80349328255E-01  0.35523892602E-01  0.12457459104E+00  0.19227343267E-01 0.  0.
         14    1    1    2    0    0 -0.26715064032E-01 -0.83497568672E-02  0.43771117140E-02  0.28329705133E-01  0.00000000000E+00 0.  1.
     999901    1    3    3    0    0  0.11291933602E+00 -0.71999571388E-01 -0.39901004316E-01  0.89102570382E+00  0.88000000000E+00 0.  1.
        -11    1    4    4    0    0 -0.69338201231E-01  0.54726641318E-01  0.21919706537E-01  0.91013878478E-01  0.51100000000E-03 0.  1.
         11    1    4    4    0    0 -0.16866070753E-01  0.25622686937E-01  0.13604186066E-01  0.33560712567E-01  0.51100000000E-03 0. -1.
</event>
<event>
 8    1  0.1213322E+005  0.1043930E+01  0.7957747E-01            NaN
         13   -1    0    0    0    0  0.00000000000E+00  0.00000000000E+00  0.74505805969E-08  0.10566000000E+00  0.10566000000E+00 0. -1.
     999900   -1    0    0    0    0 -0.00000000000E+00 -0.00000000000E+00 -0.74505805969E-08  0.93827000000E+00  0.93827000000E+00 0. -1.
     999902    2    1    2    0    0  0.20898074284E-01  0.22461764643E-02 -0.98208040952E-02  0.10207303662E+01  0.10204666861E+01 0.  0.
     999903    2    3    3    0    0 -0.10321825490E+00  0.62438079015E-01  0.40159141625E-01  0.12858356026E+00  0.19195141492E-01 0.  0.
         14    1    1    2    0    0 -0.20898074284E-01 -0.22461764643E-02  0.98208040952E-02  0.23199633845E-01  0.00000000000E+00 0.  1.
     999901    1    3    3    0    0  0.12411632918E+00 -0.60191902551E-01 -0.49979945720E-01  0.89214680590E+00  0.88000000000E+00 0.  1.
        -11    1    4    4    0    0 -0.90256385111E-01  0.56803339755E-01  0.41372481583E-01  0.11438871367E+00  0.51100000000E-03 0.  1.
         11    1    4    4    0    0 -0.12961869786E-01  0.56347392599E-02 -0.12133399579E-02  0.14194846591E-01  0.51100000000E-03 0. -1.
</event>
<event>
 8    1  0.1213322E+005  0.1043930E+01  0.7957747E-01            NaN
         13   -1    0    0    0    0  0.00000000000E+00  0.00000000000E+00  0.74505805969E-08  0.10566000000E+00  0.10566000000E+00 0. -1.
     999900   -1    0    0    0    0 -0.00000000000E+00 -0.00000000000E+00 -0.74505805969E-08  0.93827000000E+00  0.93827000000E+00 0. -1.
     999902    2    1    2    0    0 -0.25137438680E-02 -0.57875484520E-03 -0.19989073537E-01  0.10237751761E+01  0.10235767652E+01 0.  0.
     999903    2    3    3    0    0 -0.13475588941E-01 -0.11019351555E+00 -0.74637800078E-01  0.13522464793E+00  0.19766179164E-01 0.  0.
         14    1    1    2    0    0  0.25137438680E-02  0.57875484520E-03  0.19989073537E-01  0.20154823896E-01  0.00000000000E+00 0. -1.
     999901    1    3    3    0    0  0.10961845073E-01  0.10961476071E+00  0.54648726541E-01  0.88855052818E+00  0.88000000000E+00 0.  1.
        -11    1    4    4    0    0 -0.18676698922E-01 -0.86967672145E-01 -0.58564312476E-01  0.10649992910E+00  0.51100000000E-03 0. -1.
         11    1    4    4    0    0  0.52011099809E-02 -0.23225843410E-01 -0.16073487602E-01  0.28724718829E-01  0.51100000000E-03 0.  1.
</event>
<event>
 8    1  0.1213322E+005  0.1043930E+01  0.7957747E-01            NaN
         13   -1    0    0    0    0  0.00000000000E+00  0.00000000000E+00  0.74505805969E-08  0.10566000000E+00  0.10566000000E+00 0. -1.
     999900   -1    0    0    0    0 -0.00000000000E+00 -0.00000000000E+00 -0.74505805969E-08  0.93827000000E+00  0.93827000000E+00 0. -1.
     999902    2    1    2    0    0 -0.17291402942E-01 -0.13847563070E-01 -0.69244872199E-02  0.10207201714E+01  0.10204562569E+01 0.  0.
     999903    2    3    3    0    0 -0.10173870232E+00 -0.77037334066E-01 -0.34142057595E-01  0.13400427011E+00  0.22493330570E-01 0.  0.
         14    1    1    2    0    0  0.17291402942E-01  0.13847563070E-01  0.69244872199E-02  0.23209828563E-01  0.00000000000E+00 0. -1.
     999901    1    3    3    0    0  0.84447299382E-01  0.63189770995E-01  0.27217570375E-01  0.88671590133E+00  0.88000000000E+00 0. -1.
        -11    1    4    4    0    0 -0.74321855281E-01 -0.61148322371E-01 -0.16241105732E-01  0.97605789468E-01  0.51100000000E-03 0. -1.
         11    1    4    4    0    0 -0.27416847042E-01 -0.15889011695E-01 -0.17900951863E-01  0.36398480641E-01  0.51100000000E-03 0.  1.
</event>
<event>
 8    1  0.1213322E+005  0.1043930E+01  0.7957747E-01            NaN
         13   -1    0    0    0    0  0.00000000000E+00  0.00000000000E+00  0.74505805969E-08  0.10566000000E+00  0.10566000000E+00 0. -1.
     999900   -1    0    0    0    0 -0.00000000000E+00 -0.00000000000E+00 -0.74505805969E-08  0.93827000000E+00  0.93827000000E+00 0.  1.
     999902    2    1    2    0    0 -0.21810457681E-01  0.48543741150E-02  0.64209367746E-02  0.10206815712E+01  0.10204167680E+01 0.  0.
     999903    2    3    3    0    0  0.88906062652E-01  0.77749377623E-01  0.49615578711E-01  0.12970592255E+00  0.20314206753E-01 0.  0.
         14    1    1    2    0    0  0.21810457681E-01 -0.48543741150E-02 -0.64209367746E-02  0.23248428794E-01  0.00000000000E+00 0.  1.
     999901    1    3    3    0    0 -0.11071652033E+00 -0.72895003508E-01 -0.43194641936E-01  0.89097564866E+00  0.88000000000E+00 0.  1.
        -11    1    4    4    0    0  0.44965401937E-01  0.43675053654E-01  0.36625039924E-01  0.72602013426E-01  0.51100000000E-03 0. -1.
         11    1    4    4    0    0  0.43940660715E-01  0.34074323969E-01  0.12990538787E-01  0.57103909122E-01  0.51100000000E-03 0.  1.
</event>
<event>
 8    1  0.1213322E+005  0.1043930E+01  0.7957747E-01            NaN
         13   -1    0    0    0    0  0.00000000000E+00  0.00000000000E+00  0.74505805969E-08  0.10566000000E+00  0.10566000000E+00 0. -1.
     999900   -1    0    0    0    0 -0.00000000000E+00 -0.00000000000E+00 -0.74505805969E-08  0.93827000000E+00  0.93827000000E+00 0. -1.
     999902    2    1    2    0    0 -0.12149989281E-01 -0.16224499521E-01  0.14319372057E-01  0.10191126464E+01  0.10188104264E+01 0.  0.
     999903    2    3    3    0    0 -0.26076706689E-01 -0.12663020392E+00 -0.13279923673E-01  0.13167527161E+00  0.21138060582E-01 0.  0.
         14    1    1    2    0    0  0.12149989281E-01  0.16224499521E-01 -0.14319372057E-01  0.24817353613E-01  0.00000000000E+00 0. -1.
     999901    1    3    3    0    0  0.13926717407E-01  0.11040570440E+00  0.27599295730E-01  0.88743737477E+00  0.88000000000E+00 0.  1.
        -11    1    4    4    0    0 -0.29343036391E-01 -0.10379956520E+00 -0.12535548896E-01  0.10859449630E+00  0.51100000000E-03 0.  1.
         11    1    4    4    0    0  0.32663297023E-02 -0.22830638722E-01 -0.74437477731E-03  0.23080775311E-01  0.51100000000E-03 0. -1.
</event>
<event>
 8    1  0.1213322E+005  0.1043930E+01  0.7957747E-01            NaN
         13   -1    0    0    0    0  0.00000000000E+00  0.00000000000E+00  0.74505805969E-08  0.10566000000E+00  0.10566000000E+00 0. -1.
     999900   -1    0    0    0    0 -0.00000000000E+00 -0.00000000000E+00 -0.74505805969E-08  0.93827000000E+00  0.93827000000E+00 0.  1.
     999902    2    1    2    0    0 -0.73492720343E-02  0.22578991512E-01 -0.21853780423E-02  0.10200846958E+01  0.10198059560E+01 0.  0.
     999903    2    3    3    0    0  0.64012638580E-01  0.16059591375E-02  0.11096254128E+00  0.12972811437E+00  0.20408358284E-01 0.  0.
         14    1    1    2    0    0  0.73492720343E-02 -0.22578991512E-01  0.21853780423E-02  0.23845304241E-01  0.00000000000E+00 0.  1.
     999901    1    3    3    0    0 -0.71361910614E-01  0.20973032375E-01 -0.11314791932E+00  0.89035658139E+00  0.88000000000E+00 0.  1.
        -11    1    4    4    0    0  0.36629002059E-01  0.98484581214E-02  0.54051705877E-01  0.66034263442E-01  0.51100000000E-03 0. -1.
         11    1    4    4    0    0  0.27383636521E-01 -0.82424989839E-02  0.56910835405E-01  0.63693850929E-01  0.51100000000E-03 0.  1.
</event>
<event>
 8    1  0.1213322E+005  0.1043930E+01  0.7957747E-01            NaN
         13   -1    0    0    0    0  0.00000000000E+00  0.00000000000E+00  0.74505805969E-08  0.10566000000E+00  0.10566000000E+00 0. -1.
     999900   -1    0    0    0    0 -0.00000000000E+00 -0.00000000000E+00 -0.74505805969E-08  0.93827000000E+00  0.93827000000E+00 0. -1.
     999902    2    1    2    0    0 -0.17777580002E-01 -0.74787629847E-02  0.14520812827E-01  0.10197881639E+01  0.10195023644E+01 0.  0.
     999903    2    3    3    0    0 -0.69727880941E-01 -0.11076419892E-01 -0.10717005008E+00  0.12988904430E+00  0.20026975238E-01 0.  0.
         14    1    1    2    0    0  0.17777580002E-01  0.74787629847E-02 -0.14520812827E-01  0.24141836129E-01  0.00000000000E+00 0. -1.
     999901    1    3    3    0    0  0.51950300938E-01  0.35976569074E-02  0.12169086290E+00  0.88989911957E+00  0.88000000000E+00 0. -1.
        -11    1    4    4    0    0 -0.25235365313E-01 -0.77870793249E-02 -0.56535691502E-01  0.62401985557E-01  0.51100000000E-03 0. -1.
         11    1    4    4    0    0 -0.44492515628E-01 -0.32893405672E-02 -0.50634358574E-01  0.67487058741E-01  0.51100000000E-03 0.  1.
</event>
<event>
 8    1  0.1213322E+005  0.1043930E+01  0.7957747E-01            NaN
         13   -1    0    0    0    0  0.00000000000E+00  0.00000000000E+00  0.74505805969E-08  0.10566000000E+00  0.10566000000E+00 0.  1.
     999900   -1    0    0    0    0 -0.00000000000E+00 -0.00000000000E+00 -0.74505805969E-08  0.93827000000E+00  0.93827000000E+00 0.  1.
     999902    2    1    2    0    0 -0.27645115603E-01  0.18461601136E-01  0.20952199023E-02  0.10106212462E+01  0.10100721906E+01 0.  0.
     999903    2    3    3    0    0 -0.17041523719E-01  0.91386788026E-01 -0.79395350783E-01  0.12378911318E+00  0.19446445951E-01 0.  0.
         14    1    1    2    0    0  0.27645115603E-01 -0.18461601136E-01 -0.20952199023E-02  0.33308753799E-01  0.00000000000E+00 0. -1.
     999901    1    3    3    0    0 -0.10603591884E-01 -0.72925186890E-01  0.81490570685E-01  0.88683213302E+00  0.88000000000E+00 0. -1.
        -11    1    4    4    0    0 -0.20097619618E-01  0.68893651276E-01 -0.65536444843E-01  0.97188148578E-01  0.51100000000E-03 0.  1.
         11    1    4    4    0    0  0.30560958990E-02  0.22493136750E-01 -0.13858905940E-01  0.26600964604E-01  0.51100000000E-03 0. -1.
</event>
<event>
 8    1  0.1213322E+005  0.1043930E+01  0.7957747E-01            NaN
         13   -1    0    0    0    0  0.00000000000E+00  0.00000000000E+00  0.74505805969E-08  0.10566000000E+00  0.10566000000E+00 0.  1.
     999900   -1    0    0    0    0 -0.00000000000E+00 -0.00000000000E+00 -0.74505805969E-08  0.93827000000E+00  0.93827000000E+00 0. -1.
     999902    2    1    2    0    0 -0.83256716823E-02  0.13267543795E-01 -0.17950735272E-01  0.10201062005E+01  0.10198279692E+01 0.  0.
     999903    2    3    3    0    0 -0.10481453520E+00  0.67933993044E-01 -0.40350606474E-01  0.13286312459E+00  0.20574844669E-01 0.  0.
         14    1    1    2    0    0  0.83256716823E-02 -0.13267543795E-01  0.17950735272E-01  0.23823799531E-01  0.00000000000E+00 0.  1.
     999901    1    3    3    0    0  0.96488863522E-01 -0.54666449249E-01  0.22399871202E-01  0.88724307587E+00  0.88000000000E+00 0.  1.
        -11    1    4    4    0    0 -0.63687543129E-01  0.33066913581E-01 -0.30850172016E-01  0.78112215165E-01  0.51100000000E-03 0. -1.
         11    1    4    4    0    0 -0.41126992075E-01  0.34867079463E-01 -0.95004344580E-02  0.54750909429E-01  0.51100000000E-03 0.  1.
</event>
<event>
 8    1  0.1213322E+005  0.1043930E+01  0.7957747E-01            NaN
         13   -1    0    0    0    0  0.00000000000E+00  0.00000000000E+00  0.74505805969E-08  0.10566000000E+00  0.10566000000E+00 0.  1.
     999900   -1    0    0    0    0 -0.00000000000E+00 -0.00000000000E+00 -0.74505805969E-08  0.93827000000E+00  0.93827000000E+00 0.  1.
     999902    2    1    2    0    0 -0.16260497095E-01 -0.12344643342E-01 -0.10453026022E-01  0.10209940078E+01  0.10207363539E+01 0.  0.
     999903    2    3    3    0    0 -0.32299987948E-01 -0.39377895714E-01  0.11898788986E+00  0.13096984369E+00  0.20026835257E-01 0.  0.
         14    1    1    2    0    0  0.16260497095E-01  0.12344643342E-01  0.10453026022E-01  0.22935992197E-01  0.00000000000E+00 0.  1.
     999901    1    3    3    0    0  0.16039490853E-01  0.27033252372E-01 -0.12944091588E+00  0.89002416411E+00  0.88000000000E+00 0.  1.
        -11    1    4    4    0    0 -0.14006285062E-01 -0.18497610766E-01  0.78630508509E-01  0.81983874113E-01  0.51100000000E-03 0. -1.
         11    1    4    4    0    0 -0.18293702886E-01 -0.20880284948E-01  0.40357381352E-01  0.48985969577E-01  0.51100000000E-03 0.  1.
</event>
<event>
 8    1  0.1213322E+005  0.1043930E+01  0.7957747E-01            NaN
         13   -1    0    0    0    0  0.00000000000E+00  0.00000000000E+00  0.74505805969E-08  0.10566000000E+00  0.10566000000E+00 0. -1.
     999900   -1    0    0    0    0 -0.00000000000E+00 -0.00000000000E+00 -0.74505805969E-08  0.93827000000E+00  0.93827000000E+00 0.  1.
     999902    2    1    2    0    0 -0.77805905379E-03 -0.15336485165E-01 -0.17945550329E-01  0.10203110261E+01  0.10200376140E+01 0.  0.
     999903    2    3    3    0    0 -0.14726481388E-01 -0.11344415052E+00  0.60521729634E-01  0.13127965063E+00  0.22023223402E-01 0.  0.
         14    1    1    2    0    0  0.77805905379E-03  0.15336485165E-01  0.17945550329E-01  0.23618973935E-01  0.00000000000E+00 0. -1.
     999901    1    3    3    0    0  0.13948422334E-01  0.98107665358E-01 -0.78467279963E-01  0.88903137544E+00  0.88000000000E+00 0.  1.
        -11    1    4    4    0    0 -0.16654797210E-01 -0.51589579691E-01  0.33671609942E-01  0.63819318704E-01  0.51100000000E-03 0.  1.
         11    1    4    4    0    0  0.19283158218E-02 -0.61854570832E-01  0.26850119692E-01  0.67460331923E-01  0.51100000000E-03 0. -1.
</event>
<event>
 8    1  0.1213322E+005  0.1043930E+01  0.7957747E-01            NaN
         13   -1    0    0    0    0  0.00000000000E+00  0.00000000000E+00  0.74505805969E-08  0.10566000000E+00  0.10566000000E+00 0. -1.
     999900   -1    0    0    0    0 -0.00000000000E+00 -0.00000000000E+00 -0.74505805969E-08  0.93827000000E+00  0.93827000000E+00 0. -1.
     999902    2    1    2    0    0 -0.67919839158E-02 -0.22133652997E-02  0.12642085901E-01  0.10294092436E+01  0.10293068242E+01 0.  0.
     999903    2    3    3    0    0  0.73337722386E-01 -0.87650994410E-01 -0.73769109718E-01  0.13745226421E+00  0.19751583259E-01 0.  0.
         14    1    1    2    0    0  0.67919839158E-02  0.22133652997E-02 -0.12642085901E-01  0.14520756433E-01  0.00000000000E+00 0.  1.
     999901    1    3    3    0    0 -0.80129706302E-01  0.85437629111E-01  0.86411195619E-01  0.89195697936E+00  0.88000000000E+00 0. -1.
        -11    1    4    4    0    0  0.55361422395E-01 -0.76815066448E-01 -0.64051302963E-01  0.11431654323E+00  0.51100000000E-03 0.  1.
         11    1    4    4    0    0  0.17976299991E-01 -0.10835927962E-01 -0.97178067554E-02  0.23135720981E-01  0.51100000000E-03 0. -1.
</event>
<event>
 8    1  0.1213322E+005  0.1043930E+01  0.7957747E-01            NaN
         13   -1    0    0    0    0  0.00000000000E+00  0.00000000000E+00  0.74505805969E-08  0.10566000000E+00  0.10566000000E+00 0. -1.
     999900   -1    0    0    0    0 -0.00000000000E+00 -0.00000000000E+00 -0.74505805969E-08  0.93827000000E+00  0.93827000000E+00 0. -1.
     999902    2    1    2    0    0  0.10528024903E-01 -0.17037740976E-01 -0.12303238719E-01  0.10204248174E+01  0.10201540640E+01 0.  0.
     999903    2    3    3    0    0  0.46882666490E-02 -0.70737040054E-01 -0.11108016372E+00  0.13325256896E+00  0.19792313699E-01 0.  0.
         14    1    1    2    0    0 -0.10528024903E-01  0.17037740976E-01  0.12303238719E-01  0.23505182597E-01  0.00000000000E+00 0.  1.
     999901    1    3    3    0    0  0.58397582540E-02  0.53699299078E-01  0.98776925004E-01  0.88717224845E+00  0.88000000000E+00 0.  1.
        -11    1    4    4    0    0  0.70472758969E-02 -0.63376476253E-01 -0.10683457546E+00  0.12441916843E+00  0.51100000000E-03 0. -1.
         11    1    4    4    0    0 -0.23590092479E-02 -0.73605638001E-02 -0.42455882657E-02  0.88334005235E-02  0.51100000000E-03 0.  1.
</event>
<event>
 8    1  0.1213322E+005  0.1043930E+01  0.7957747E-01            NaN
         13   -1    0    0    0    0  0.00000000000E+00  0.00000000000E+00  0.74505805969E-08  0.10566000000E+00  0.10566000000E+00 0. -1.
     999900   -1    0    0    0    0 -0.00000000000E+00 -0.00000000000E+00 -0.74505805969E-08  0.93827000000E+00  0.93827000000E+00 0.  1.
     999902    2    1    2    0    0  0.93527174002E-02  0.21257283469E-01 -0.21520966793E-02  0.10206066867E+01  0.10203401550E+01 0.  0.
     999903    2    3    3    0    0  0.12939753952E+00  0.71867462234E-03  0.16744866549E-01  0.13201809292E+00  0.20103397094E-01 0.  0.
         14    1    1    2    0    0 -0.93527174002E-02 -0.21257283469E-01  0.21520966793E-02  0.23323313302E-01  0.00000000000E+00 0. -1.
     999901    1    3    3    0    0 -0.12004482212E+00  0.20538608847E-01 -0.18896963228E-01  0.88858859378E+00  0.88000000000E+00 0. -1.
        -11    1    4    4    0    0  0.89963463833E-01 -0.52790741713E-02  0.42645998241E-02  0.90220515304E-01  0.51100000000E-03 0. -1.
         11    1    4    4    0    0  0.39434075690E-01  0.59977487937E-02  0.12480266725E-01  0.41797577617E-01  0.51100000000E-03 0.  1.
</event>
<event>
 8    1  0.1213322E+005  0.1043930E+01  0.7957747E-01            NaN
         13   -1    0    0    0    0  0.00000000000E+00  0.00000000000E+00  0.74505805969E-08  0.10566000000E+00  0.10566000000E+00 0.  1.
     999900   -1    0    0    0    0 -0.00000000000E+00 -0.00000000000E+00 -0.74505805969E-08  0.93827000000E+00  0.93827000000E+00 0. -1.
     999902    2    1    2    0    0  0.21544608818E-02 -0.18724034295E-01 -0.14547975047E-01  0.10201208686E+01  0.10198429839E+01 0.  0.
     999903    2    3    3    0    0  0.91790762298E-01  0.28453285985E-01 -0.87207311772E-01  0.13133532339E+00  0.20216785553E-01 0.  0.
         14    1    1    2    0    0 -0.21544608818E-02  0.18724034295E-01  0.14547975047E-01  0.23809131441E-01  0.00000000000E+00 0.  1.
     999901    1    3    3    0    0 -0.89636301416E-01 -0.47177320280E-01  0.72659336724E-01  0.88878554516E+00  0.88000000000E+00 0. -1.
        -11    1    4    4    0    0  0.73908179746E-01  0.23857454571E-01 -0.58638937436E-01  0.97315894266E-01  0.51100000000E-03 0.  1.
         11    1    4    4    0    0  0.17882582552E-01  0.45958314142E-02 -0.28568374335E-01  0.34019429129E-01  0.51100000000E-03 0. -1.
</event>
<event>
 8    1  0.1213322E+005  0.1043930E+01  0.7957747E-01            NaN
         13   -1    0    0    0    0  0.00000000000E+00  0.00000000000E+00  0.74505805969E-08  0.10566000000E+00  0.10566000000E+00 0.  1.
     999900   -1    0    0    0    0 -0.00000000000E+00 -0.00000000000E+00 -0.74505805969E-08  0.93827000000E+00  0.93827000000E+00 0.  1.
     999902    2    1    2    0    0  0.18650903807E-02 -0.64527723910E-02  0.22830982048E-01  0.10201314586E+01  0.10198538239E+01 0.  0.
     999903    2    3    3    0    0  0.92492400390E-01 -0.77123029935E-01  0.50806272642E-01  0.13221805540E+00  0.19938178381E-01 0.  0.
         14    1    1    2    0    0 -0.18650903807E-02  0.64527723910E-02 -0.22830982048E-01  0.23798541446E-01  0.00000000000E+00 0. -1.
     999901    1    3    3    0    0 -0.90627310009E-01  0.70670257544E-01 -0.27975290594E-01  0.88791340316E+00  0.88000000000E+00 0.  1.
        -11    1    4    4    0    0  0.15400093623E-01 -0.19389104794E-01  0.38418826144E-02  0.25062351273E-01  0.51100000000E-03 0.  1.
         11    1    4    4    0    0  0.77092306767E-01 -0.57733925142E-01  0.46964390028E-01  0.10715570413E+00  0.51100000000E-03 0. -1.
</event>
<event>
 8    1  0.1213322E+005  0.1043930E+01  0.7957747E-01            NaN
         13   -1    0    0    0    0  0.00000000000E+00  0.00000000000E+00  0.74505805969E-08  0.10566000000E+00  0.10566000000E+00 0. -1.
     999900   -1    0    0    0    0 -0.00000000000E+00 -0.00000000000E+00 -0.74505805969E-08  0.93827000000E+00  0.93827000000E+00 0.  1.
     999902    2    1    2    0    0  0.88924791190E-02 -0.17882862756E-01 -0.13545739270E-01  0.10197978634E+01  0.10195122962E+01 0.  0.
     999903    2    3    3    0    0  0.52736816874E-01 -0.11024257114E+00  0.45556539935E-01  0.13190951393E+00  0.19751587028E-01 0.  0.
         14    1    1    2    0    0 -0.88924791190E-02  0.17882862756E-01  0.13545739270E-01  0.24132136615E-01  0.00000000000E+00 0. -1.
     999901    1    3    3    0    0 -0.43844337755E-01  0.92359708382E-01 -0.59102279205E-01  0.88788834945E+00  0.88000000000E+00 0.  1.
        -11    1    4    4    0    0  0.31660549638E-01 -0.86100402822E-01  0.33362969586E-01  0.97616692374E-01  0.51100000000E-03 0. -1.
         11    1    4    4    0    0  0.21076267237E-01 -0.24142168316E-01  0.12193570349E-01  0.34292821559E-01  0.51100000000E-03 0.  1.
</event>
<event>
 8    1  0.1213322E+005  0.1043930E+01  0.7957747E-01            NaN
         13   -1    0    0    0    0  0.00000000000E+00  0.00000000000E+00  0.74505805969E-08  0.10566000000E+00  0.10566000000E+00 0. -1.
     999900   -1    0    0    0    0 -0.00000000000E+00 -0.00000000000E+00 -0.74505805969E-08  0.93827000000E+00  0.93827000000E+00 0.  1.
     999902    2    1    2    0    0  0.20866779954E-01 -0.75440368536E-02  0.85217669638E-02  0.10201612072E+01  0.10198842744E+01 0.  0.
     999903    2    3    3    0    0  0.48603026772E-02 -0.11169963314E+00  0.67289681404E-01  0.13192798148E+00  0.19407742976E-01 0.  0.
         14    1    1    2    0    0 -0.20866779954E-01  0.75440368536E-02 -0.85217669638E-02  0.23768792773E-01  0.00000000000E+00 0.  1.
     999901    1    3    3    0    0  0.16006477277E-01  0.10415559629E+00 -0.58767914440E-01  0.88823322575E+00  0.88000000000E+00 0.  1.
        -11    1    4    4    0    0  0.96345047514E-02 -0.72833606494E-01  0.36077911043E-01  0.81850074545E-01  0.51100000000E-03 0.  1.
         11    1    4    4    0    0 -0.47742020742E-02 -0.38866026650E-01  0.31211770361E-01  0.50077906935E-01  0.51100000000E-03 0. -1.
</event>
<event>
 8    1  0.1213322E+005  0.1043930E+01  0.7957747E-01            NaN
         13   -1    0    0    0    0  0.00000000000E+00  0.00000000000E+00  0.74505805969E-08  0.10566000000E+00  0.10566000000E+00 0.  1.
     999900   -1    0    0    0    0 -0.00000000000E+00 -0.00000000000E+00 -0.74505805969E-08  0.93827000000E+00  0.93827000000E+00 0.  1.
     999902    2    1    2    0    0  0.10774150025E-01  0.40299724811E-02 -0.20581507389E-01  0.10203520138E+01  0.10200795609E+01 0.  0.
     999903    2    3    3    0    0 -0.10690578090E+00  0.66724454367E-01 -0.24642393631E-01  0.13029827666E+00  0.22122263349E-01 0.  0.
         14    1    1    2    0    0 -0.10774150025E-01 -0.40299724811E-02  0.20581507389E-01  0.23577986202E-01  0.00000000000E+00 0.  1.
     999901    1    3    3    0    0  0.11767993092E+00 -0.62694481886E-01  0.40608862419E-02  0.89005373714E+00  0.88000000000E+00 0. -1.
        -11    1    4    4    0    0 -0.85562368139E-01  0.42152347586E-01 -0.17592680097E-01  0.96992281975E-01  0.51100000000E-03 0.  1.
         11    1    4    4    0    0 -0.21343412760E-01  0.24572106781E-01 -0.70497135339E-02  0.33305994682E-01  0.51100000000E-03 0. -1.
</event>
<event>
 8    1  0.1213322E+005  0.1043930E+01  0.7957747E-01            NaN
         13   -1    0    0    0    0  0.00000000000E+00  0.00000000000E+00  0.74505805969E-08  0.10566000000E+00  0.10566000000E+00 0. -1.
     999900   -1    0    0    0    0 -0.00000000000E+00 -0.00000000000E+00 -0.74505805969E-08  0.93827000000E+00  0.93827000000E+00 0.  1.
     999902    2    1    2    0    0 -0.25234553463E-01 -0.36663503507E-02  0.10854748370E-02  0.10184074008E+01  0.10180875360E+01 0.  0.
     999903    2    3    3    0    0  0.10818109663E+00 -0.46732430329E-01 -0.40851680625E-01  0.12632380163E+00  0.20044284334E-01 0.  0.
         14    1    1    2    0    0  0.25234553463E-01  0.36663503507E-02 -0.10854748370E-02  0.25522599182E-01  0.00000000000E+00 0.  1.
     999901    1    3    3    0    0 -0.13341565010E+00  0.43066079978E-01  0.41937155462E-01  0.89208359919E+00  0.88000000000E+00 0. -1.
        -11    1    4    4    0    0  0.95215767921E-01 -0.43286493252E-01 -0.42292667655E-01  0.11282151310E+00  0.51100000000E-03 0.  1.
         11    1    4    4    0    0  0.12965328714E-01 -0.34459370764E-02  0.14409870305E-02  0.13502288532E-01  0.51100000000E-03 0. -1.
</event>
<event>
 8    1  0.1213322E+005  0.1043930E+01  0.7957747E-01            NaN
         13   -1    0    0    0    0  0.00000000000E+00  0.00000000000E+00  0.74505805969E-08  0.10566000000E+00  0.10566000000E+00 0.  1.
     999900   -1    0    0    0    0 -0.00000000000E+00 -0.00000000000E+00 -0.74505805969E-08  0.93827000000E+00  0.93827000000E+00 0. -1.
     999902    2    1    2    0    0  0.48083195129E-02 -0.10268583901E-01 -0.18759054441E-01  0.10220104682E+01  0.10217753820E+01 0.  0.
     999903    2    3    3    0    0  0.12870003752E+00  0.19900662964E-01  0.11796158744E-01  0.13229536642E+00  0.20079306974E-01 0.  0.
         14    1    1    2    0    0 -0.48083195129E-02  0.10268583901E-01  0.18759054441E-01  0.21919531824E-01  0.00000000000E+00 0.  1.
     999901    1    3    3    0    0 -0.12389171801E+00 -0.30169246865E-01 -0.30555213185E-01  0.88971510176E+00  0.88000000000E+00 0. -1.
        -11    1    4    4    0    0  0.84944447459E-01  0.20306768258E-01  0.14118839471E-01  0.88473310893E-01  0.51100000000E-03 0. -1.
         11    1    4    4    0    0  0.43755590065E-01 -0.40610529412E-03 -0.23226807269E-02  0.43822055523E-01  0.51100000000E-03 0.  1.
</event>
<event>
 8    1  0.1213322E+005  0.1043930E+01  0.7957747E-01            NaN
         13   -1    0    0    0    0  0.00000000000E+00  0.00000000000E+00  0.74505805969E-08  0.10566000000E+00  0.10566000000E+00 0.  1.
     999900   -1    0    0    0    0 -0.00000000000E+00 -0.00000000000E+00 -0.74505805969E-08  0.93827000000E+00  0.93827000000E+00 0.  1.
     999902    2    1    2    0    0 -0.14380491975E-01  0.16378287751E-01  0.83093563001E-02  0.10206042147E+01  0.10203376259E+01 0.  0.
     999903    2    3    3    0    0  0.91571879162E-01 -0.41384669857E-01  0.79646315494E-01  0.12950858233E+00  0.18188935482E-01 0.  0.
         14    1    1    2    0    0  0.14380491975E-01 -0.16378287751E-01 -0.83093563001E-02  0.23325785330E-01  0.00000000000E+00 0. -1.
     999901    1    3    3    0    0 -0.10595237114E+00  0.57762957609E-01 -0.71336959194E-01  0.89109563234E+00  0.88000000000E+00 0. -1.
        -11    1    4    4    0    0  0.55045302759E-01 -0.33432884743E-01  0.45297276260E-01  0.78739110331E-01  0.51100000000E-03 0.  1.
         11    1    4    4    0    0  0.36526576403E-01 -0.79517851140E-02  0.34349039234E-01  0.50769472004E-01  0.51100000000E-03 0. -1.
</event>
<event>
 8    1  0.1213322E+005  0.1043930E+01  0.7957747E-01            NaN
         13   -1    0    0    0    0  0.00000000000E+00  0.00000000000E+00  0.74505805969E-08  0.10566000000E+00  0.10566000000E+00 0. -1.
     999900   -1    0    0    0    0 -0.00000000000E+00 -0.00000000000E+00 -0.74505805969E-08  0.93827000000E+00  0.93827000000E+00 0.  1.
     999902    2    1    2    0    0  0.38512733862E-03 -0.12125233434E-01  0.21483157896E-01  0.10192582412E+01  0.10189596001E+01 0.  0.
     999903    2    3    3    0    0 -0.34203802826E-01  0.11376121538E+00 -0.41520514817E-01  0.12739880449E+00  0.19874304554E-01 0.  0.
         14    1    1    2    0    0 -0.38512733862E-03  0.12125233434E-01 -0.21483157896E-01  0.24671758796E-01  0.00000000000E+00 0.  1.
     999901    1    3    3    0    0  0.34588930164E-01 -0.12588644881E+00  0.63003672714E-01  0.89185943672E+00  0.88000000000E+00 0. -1.
        -11    1    4    4    0    0 -0.12587543161E-01  0.49714763415E-01 -0.28106629625E-01  0.58482883771E-01  0.51100000000E-03 0.  1.
         11    1    4    4    0    0 -0.21616259665E-01  0.64046451965E-01 -0.13413885192E-01  0.68915920716E-01  0.51100000000E-03 0. -1.
</event>
<event>
 8    1  0.1213322E+005  0.1043930E+01  0.7957747E-01            NaN
         13   -1    0    0    0    0  0.00000000000E+00  0.00000000000E+00  0.74505805969E-08  0.10566000000E+00  0.10566000000E+00 0.  1.
     999900   -1    0    0    0    0 -0.00000000000E+00 -0.00000000000E+00 -0.74505805969E-08  0.93827000000E+00  0.93827000000E+00 0.  1.
     999902    2    1    2    0    0 -0.48174813377E-02  0.21595051420E-01 -0.78228110899E-02  0.10204619207E+01  0.10201920314E+01 0.  0.
     999903    2    3    3    0    0  0.81227458488E-01 -0.62670218709E-01  0.76099609549E-01  0.12830311192E+00  0.12044983537E-01 0.  0.
         14    1    1    2    0    0  0.48174813377E-02 -0.21595051420E-01  0.78228110899E-02  0.23468079292E-01  0.00000000000E+00 0.  1.
     999901    1    3    3    0    0 -0.86044939826E-01  0.84265270129E-01 -0.83922420639E-01  0.89215880879E+00  0.88000000000E+00 0.  1.
        -11    1    4    4    0    0  0.98910732358E-02 -0.10665946817E-01  0.15257953128E-01  0.21087010360E-01  0.51100000000E-03 0.  1.
         11    1    4    4    0    0  0.71336385253E-01 -0.52004271892E-01  0.60841656421E-01  0.10721610156E+00  0.51100000000E-03 0. -1.
</event>
<event>
 8    1  0.1213322E+005  0.1043930E+01  0.7957747E-01            NaN
         13   -1    0    0    0    0  0.00000000000E+00  0.00000000000E+00  0.74505805969E-08  0.10566000000E+00  0.10566000000E+00 0. -1.
     999900   -1    0    0    0    0 -0.00000000000E+00 -0.00000000000E+00 -0.74505805969E-08  0.93827000000E+00  0.93827000000E+00 0. -1.
     999902    2    1    2    0    0 -0.17541671697E-01 -0.13923329561E-01 -0.66982557080E-02  0.10205540298E+01  0.10202862793E+01 0.  0.
     999903    2    3    3    0    0 -0.80419680022E-01  0.87871508091E-01 -0.51616585460E-01  0.13132206389E+00  0.19811251850E-01 0.  0.
         14    1    1    2    0    0  0.17541671697E-01  0.13923329561E-01  0.66982557080E-02  0.23375970172E-01  0.00000000000E+00 0.  1.
     999901    1    3    3    0    0  0.62878008325E-01 -0.10179483765E+00  0.44918329752E-01  0.88923196594E+00  0.88000000000E+00 0.  1.
        -11    1    4    4    0    0 -0.47743540656E-01  0.65858298855E-01 -0.35327598013E-01  0.88685181991E-01  0.51100000000E-03 0. -1.
         11    1    4    4    0    0 -0.32676139366E-01  0.22013209237E-01 -0.16288987447E-01  0.42636881896E-01  0.51100000000E-03 0.  1.
</event>
<event>
 8    1  0.1213322E+005  0.1043930E+01  0.7957747E-01            NaN
         13   -1    0    0    0    0  0.00000000000E+00  0.00000000000E+00  0.74505805969E-08  0.10566000000E+00  0.10566000000E+00 0.  1.
     999900   -1    0    0    0    0 -0.00000000000E+00 -0.00000000000E+00 -0.74505805969E-08  0.93827000000E+00  0.93827000000E+00 0. -1.
     999902    2    1    2    0    0 -0.17397687319E-01  0.26496867959E-02  0.15700512342E-01  0.10203459704E+01  0.10200733762E+01 0.  0.
     999903    2    3    3    0    0  0.11108500473E+00  0.25782808597E-01 -0.54435703478E-01  0.12795478250E+00  0.20113404922E-01 0.  0.
         14    1    1    2    0    0  0.17397687319E-01 -0.26496867959E-02 -0.15700512342E-01  0.23584029596E-01  0.00000000000E+00 0. -1.
     999901    1    3    3    0    0 -0.12848269204E+00 -0.23133121801E-01  0.70136215820E-01  0.89239118790E+00  0.88000000000E+00 0.  1.
        -11    1    4    4    0    0  0.69982860159E-01  0.26095201364E-01 -0.35108487505E-01  0.82531371406E-01  0.51100000000E-03 0.  1.
         11    1    4    4    0    0  0.41102144566E-01 -0.31239276627E-03 -0.19327215973E-01  0.45423411094E-01  0.51100000000E-03 0. -1.
</event>
<event>
 8    1  0.1213322E+005  0.1043930E+01  0.7957747E-01            NaN
         13   -1    0    0    0    0  0.00000000000E+00  0.00000000000E+00  0.74505805969E-08  0.10566000000E+00  0.10566000000E+00 0. -1.
     999900   -1    0    0    0    0 -0.00000000000E+00 -0.00000000000E+00 -0.74505805969E-08  0.93827000000E+00  0.93827000000E+00 0.  1.
     999902    2    1    2    0    0  0.21646980169E-02 -0.10713259637E-02 -0.23090156268E-01  0.10207138639E+01  0.10204498043E+01 0.  0.
     999903    2    3    3    0    0 -0.56006662957E-01  0.11386825971E+00 -0.27609210300E-01  0.13132337746E+00  0.19514971422E-01 0.  0.
         14    1    1    2    0    0 -0.21646980169E-02  0.10713259637E-02  0.23090156268E-01  0.23216136054E-01  0.00000000000E+00 0. -1.
     999901    1    3    3    0    0  0.58171360973E-01 -0.11493958568E+00  0.45190540319E-02  0.88939048648E+00  0.88000000000E+00 0.  1.
        -11    1    4    4    0    0 -0.43008258655E-01  0.93535204757E-01 -0.29549485434E-01  0.10710732025E+00  0.51100000000E-03 0. -1.
         11    1    4    4    0    0 -0.12998404302E-01  0.20333054957E-01  0.19402751344E-02  0.24216057212E-01  0.51100000000E-03 0.  1.
</event>
<event>
 8    1  0.1213322E+005  0.1043930E+01  0.7957747E-01            NaN
         13   -1    0    0    0    0  0.00000000000E+00  0.00000000000E+00  0.74505805969E-08  0.10566000000E+00  0.10566000000E+00 0. -1.
     999900   -1    0    0    0    0 -0.00000000000E+00 -0.00000000000E+00 -0.74505805969E-08  0.93827000000E+00  0.93827000000E+00 0. -1.
     999902    2    1    2    0    0  0.23741557805E-01  0.45871499288E-02  0.42910559283E-02  0.10193715662E+01  0.10190756955E+01 0.  0.
     999903    2    3    3    0    0 -0.24750609788E-01  0.11281044397E-01  0.12458038508E+00  0.12984032936E+00  0.24461891477E-01 0.  0.
         14    1    1    2    0    0 -0.23741557805E-01 -0.45871499288E-02 -0.42910559283E-02  0.24558433836E-01  0.00000000000E+00 0.  1.
     999901    1    3    3    0    0  0.48492167593E-01 -0.66938944685E-02 -0.12028932915E+00  0.88953123680E+00  0.88000000000E+00 0. -1.
        -11    1    4    4    0    0  0.20953265749E-02 -0.21256872408E-02  0.39609468254E-01  0.39725055520E-01  0.51100000000E-03 0. -1.
         11    1    4    4    0    0 -0.26845936363E-01  0.13406731638E-01  0.84970916825E-01  0.90115273842E-01  0.51100000000E-03 0.  1.
</event>
<event>
 8    1  0.1213322E+005  0.1043930E+01  0.7957747E-01            NaN
         13   -1    0    0    0    0  0.00000000000E+00  0.00000000000E+00  0.74505805969E-08  0.10566000000E+00  0.10566000000E+00 0.  1.
     999900   -1    0    0    0    0 -0.00000000000E+00 -0.00000000000E+00 -0.74505805969E-08  0.93827000000E+00  0.93827000000E+00 0. -1.
     999902    2    1    2    0    0  0.14225513260E-02  0.12334031190E-01 -0.20981030570E-01  0.10195505902E+01  0.10192590693E+01 0.  0.
     999903    2    3    3    0    0  0.30700535257E-01  0.11064686273E+00 -0.63229847961E-01  0.13258521560E+00  0.19889057957E-01 0.  0.
         14    1    1    2    0    0 -0.14225513260E-02 -0.12334031190E-01  0.20981030570E-01  0.24379409784E-01  0.00000000000E+00 0.  1.
     999901    1    3    3    0    0 -0.29277983931E-01 -0.98312831541E-01  0.42248817391E-01  0.88696537461E+00  0.88000000000E+00 0. -1.
        -11    1    4    4    0    0  0.12229060844E-01  0.76844384755E-01 -0.45912075650E-01  0.90348155538E-01  0.51100000000E-03 0.  1.
         11    1    4    4    0    0  0.18471474413E-01  0.33802477975E-01 -0.17317772311E-01  0.42237060066E-01  0.51100000000E-03 0. -1.
</event>
<event>
 8    1  0.1213322E+005  0.1043930E+01  0.7957747E-01            NaN
         13   -1    0    0    0    0  0.00000000000E+00  0.00000000000E+00  0.74505805969E-08  0.10566000000E+00  0.10566000000E+00 0. -1.
     999900   -1    0    0    0    0 -0.00000000000E+00 -0.00000000000E+00 -0.74505805969E-08  0.93827000000E+00  0.93827000000E+00 0.  1.
     999902    2    1    2    0    0  0.14583951545E-01  0.20065457452E-01 -0.19629962024E-02  0.10190469218E+01  0.10187430791E+01 0.  0.
     999903    2    3    3    0    0  0.86842932930E-01 -0.72967863587E-01 -0.58909637503E-01  0.12937311690E+00  0.20026329400E-01 0.  0.
         14    1    1    2    0    0 -0.14583951545E-01 -0.20065457452E-01  0.19629962024E-02  0.24883078176E-01  0.00000000000E+00 0. -1.
     999901    1    3    3    0    0 -0.72258981385E-01  0.93033321039E-01  0.56946641300E-01  0.88967380492E+00  0.88000000000E+00 0. -1.
        -11    1    4    4    0    0  0.22367481351E-01 -0.30764159214E-01 -0.17192118265E-01  0.41744074617E-01  0.51100000000E-03 0.  1.
         11    1    4    4    0    0  0.64475451579E-01 -0.42203704372E-01 -0.41717519237E-01  0.87629042283E-01  0.51100000000E-03 0. -1.
</event>
<event>
 8    1  0.1213322E+005  0.1043930E+01  0.7957747E-01            NaN
         13   -1    0    0    0    0  0.00000000000E+00  0.00000000000E+00  0.74505805969E-08  0.10566000000E+00  0.10566000000E+00 0.  1.
     999900   -1    0    0    0    0 -0.00000000000E+00 -0.00000000000E+00 -0.74505805969E-08  0.93827000000E+00  0.93827000000E+00 0.  1.
     999902    2    1    2    0    0  0.19046396905E-01 -0.12609171021E-01 -0.83898045998E-02  0.10195959652E+01  0.10193055415E+01 0.  0.
     999903    2    3    3    0    0  0.10137722778E-01 -0.25370731652E-01  0.12586326643E+00  0.12927798324E+00  0.11170840054E-01 0.  0.
         14    1    1    2    0    0 -0.19046396905E-01  0.12609171021E-01  0.83898045998E-02  0.24334034810E-01  0.00000000000E+00 0.  1.
     999901    1    3    3    0    0  0.89086741274E-02  0.12761560631E-01 -0.13425307103E+00  0.89031798195E+00  0.88000000000E+00 0.  1.
        -11    1    4    4    0    0  0.62086874460E-02 -0.15897501522E-01  0.52683840280E-01  0.55381644090E-01  0.51100000000E-03 0.  1.
         11    1    4    4    0    0  0.39290353319E-02 -0.94732301296E-02  0.73179426146E-01  0.73896339150E-01  0.51100000000E-03 0. -1.
</event>
<event>
 8    1  0.1213322E+005  0.1043930E+01  0.7957747E-01            NaN
         13   -1    0    0    0    0  0.00000000000E+00  0.00000000000E+00  0.74505805969E-08  0.10566000000E+00  0.10566000000E+00 0. -1.
     999900   -1    0    0    0    0 -0.00000000000E+00 -0.00000000000E+00 -0.74505805969E-08  0.93827000000E+00  0.93827000000E+00 0.  1.
     999902    2    1    2    0    0  0.88020706653E-02 -0.13072621922E-01 -0.17338269691E-01  0.10204995607E+01  0.10202305464E+01 0.  0.
     999903    2    3    3    0    0 -0.10683458181E+00 -0.20664522234E-02  0.66612958610E-01  0.12890504525E+00  0.27592142756E-01 0.  0.
         14    1    1    2    0    0 -0.88020706653E-02  0.13072621922E-01  0.17338269691E-01  0.23430439343E-01  0.00000000000E+00 0. -1.
     999901    1    3    3    0    0  0.11563665247E+00 -0.11006169698E-01 -0.83951228301E-01  0.89159451540E+00  0.88000000000E+00 0.  1.
        -11    1    4    4    0    0 -0.51889335579E-01 -0.46972850014E-02  0.47964169270E-01  0.70819420274E-01  0.51100000000E-03 0.  1.
         11    1    4    4    0    0 -0.54945246229E-01  0.26308327780E-02  0.18648789340E-01  0.58085624978E-01  0.51100000000E-03 0. -1.
</event>
<event>
 8    1  0.1344142E+005  0.1043930E+01  0.7957747E-01            NaN
         13   -1    0    0    0    0  0.00000000000E+00  0.00000000000E+00  0.74505805969E-08  0.10566000000E+00  0.10566000000E+00 0.  1.
     999900   -1    0    0    0    0 -0.00000000000E+00 -0.00000000000E+00 -0.74505805969E-08  0.93827000000E+00  0.93827000000E+00 0.  1.
     999902    2    1    2    0    0 -0.14142369046E-01 -0.19643694197E-01 -0.69699427810E-02  0.10187414823E+01  0.10184300399E+01 0.  0.
     999903    2    3    3    0    0 -0.88428588236E-01  0.47927716184E-01 -0.80012384820E-01  0.13002356514E+00  0.19684119753E-01 0.  0.
         14    1    1    2    0    0  0.14142369046E-01  0.19643694197E-01  0.69699427810E-02  0.25188517748E-01  0.00000000000E+00 0.  1.
     999901    1    3    3    0    0  0.74286219190E-01 -0.67571410381E-01  0.73042442039E-01  0.88871791712E+00  0.88000000000E+00 0. -1.
        -11    1    4    4    0    0 -0.24348080158E-01  0.54211538940E-02 -0.26116589523E-01  0.36118627967E-01  0.51100000000E-03 0.  1.
         11    1    4    4    0    0 -0.64080508078E-01  0.42506562290E-01 -0.53895795297E-01  0.93904937170E-01  0.51100000000E-03 0. -1.
</event>
<event>
 8    1  0.1213322E+005  0.1043930E+01  0.7957747E-01            NaN
         13   -1    0    0    0    0  0.00000000000E+00  0.00000000000E+00  0.74505805969E-08  0.10566000000E+00  0.10566000000E+00 0.  1.
     999900   -1    0    0    0    0 -0.00000000000E+00 -0.00000000000E+00 -0.74505805969E-08  0.93827000000E+00  0.93827000000E+00 0. -1.
     999902    2    1    2    0    0 -0.49675301448E-02  0.24713145377E-01 -0.42564278664E-02  0.10183657068E+01  0.10180447827E+01 0.  0.
     999903    2    3    3    0    0  0.11371580370E+00  0.19892358520E-02  0.55501771517E-01  0.12809993062E+00  0.19847027775E-01 0.  0.
         14    1    1    2    0    0  0.49675301448E-02 -0.24713145377E-01  0.42564278664E-02  0.25564293230E-01  0.00000000000E+00 0.  1.
     999901    1    3    3    0    0 -0.11868333385E+00  0.22723909525E-01 -0.59758199384E-01  0.89026577615E+00  0.88000000000E+00 0.  1.
        -11    1    4    4    0    0  0.84130593584E-01 -0.56160930547E-02  0.34929978534E-01  0.91268076563E-01  0.51100000000E-03 0.  1.
         11    1    4    4    0    0  0.29585210117E-01  0.76053289067E-02  0.20571792984E-01  0.36831854053E-01  0.51100000000E-03 0. -1.
</event>
<event>
 8    1  0.1213322E+005  0.1043930E+01  0.7957747E-01            NaN
         13   -1    0    0    0    0  0.00000000000E+00  0.00000000000E+00  0.74505805969E-08  0.10566000000E+00  0.10566000000E+00 0. -1.
     999900   -1    0    0    0    0 -0.00000000000E+00 -0.00000000000E+00 -0.74505805969E-08  0.93827000000E+00  0.93827000000E+00 0. -1.
     999902    2    1    2    0    0 -0.69009502048E-02  0.65410711382E-02 -0.21273025522E-01  0.10206287052E+01  0.10203626823E+01 0.  0.
     999903    2    3    3    0    0 -0.35124308846E-01  0.43644496460E-01 -0.11999617310E+00  0.13388213371E+00  0.19666850923E-01 0.  0.
         14    1    1    2    0    0  0.69009502048E-02 -0.65410711382E-02  0.21273025522E-01  0.23301294819E-01  0.00000000000E+00 0. -1.
     999901    1    3    3    0    0  0.28223358641E-01 -0.37103425322E-01  0.98723147580E-01  0.88674657147E+00  0.88000000000E+00 0.  1.
        -11    1    4    4    0    0 -0.48865414643E-02  0.18494974508E-01 -0.50850685501E-01  0.54332271317E-01  0.51100000000E-03 0.  1.
         11    1    4    4    0    0 -0.30237767382E-01  0.25149521952E-01 -0.69145487601E-01  0.79549862396E-01  0.51100000000E-03 0. -1.
</event>
<event>
 8    1  0.1213322E+005  0.1043930E+01  0.7957747E-01            NaN
         13   -1    0    0    0    0  0.00000000000E+00  0.00000000000E+00  0.74505805969E-08  0.10566000000E+00  0.10566000000E+00 0.  1.
     999900   -1    0    0    0    0 -0.00000000000E+00 -0.00000000000E+00 -0.74505805969E-08  0.93827000000E+00  0.93827000000E+00 0.  1.
     999902    2    1    2    0    0  0.37522871240E-02 -0.19381479442E-01 -0.10265077191E-01  0.10216793098E+01  0.10214369872E+01 0.  0.
     999903    2    3    3    0    0  0.73423542019E-01 -0.64922745898E-01  0.86807155665E-01  0.13243743659E+00  0.19955271919E-01 0.  0.
         14    1    1    2    0    0 -0.37522871240E-02  0.19381479442E-01  0.10265077191E-01  0.22250690186E-01  0.00000000000E+00 0.  1.
     999901    1    3    3    0    0 -0.69671254895E-01  0.45541266456E-01 -0.97072232857E-01  0.88924187323E+00  0.88000000000E+00 0.  1.
        -11    1    4    4    0    0  0.39669262591E-01 -0.47462737375E-01  0.57319102993E-01  0.84333282413E-01  0.51100000000E-03 0.  1.
         11    1    4    4    0    0  0.33754279428E-01 -0.17460008523E-01  0.29488052672E-01  0.48104154174E-01  0.51100000000E-03 0. -1.
</event>
<event>
 8    1  0.1213322E+005  0.1043930E+01  0.7957747E-01            NaN
         13   -1    0    0    0    0  0.00000000000E+00  0.00000000000E+00  0.74505805969E-08  0.10566000000E+00  0.10566000000E+00 0.  1.
     999900   -1    0    0    0    0 -0.00000000000E+00 -0.00000000000E+00 -0.74505805969E-08  0.93827000000E+00  0.93827000000E+00 0. -1.
     999902    2    1    2    0    0 -0.48530628379E-02  0.12256769677E-01 -0.19728603945E-01  0.10202024119E+01  0.10199264497E+01 0.  0.
     999903    2    3    3    0    0  0.20255911068E-01  0.88723034312E-01  0.90132545719E-01  0.12972668380E+00  0.20568372322E-01 0.  0.
         14    1    1    2    0    0  0.48530628379E-02 -0.12256769677E-01  0.19728603945E-01  0.23727588066E-01  0.00000000000E+00 0. -1.
     999901    1    3    3    0    0 -0.25108973906E-01 -0.76466264635E-01 -0.10986114966E+00  0.89047572814E+00  0.88000000000E+00 0. -1.
        -11    1    4    4    0    0  0.13183512870E-01  0.25331865614E-01  0.36789121359E-01  0.46574767830E-01  0.51100000000E-03 0. -1.
         11    1    4    4    0    0  0.70723981988E-02  0.63391168699E-01  0.53343424360E-01  0.83151915965E-01  0.51100000000E-03 0.  1.
</event>
<event>
 8    1  0.1213322E+005  0.1043930E+01  0.7957747E-01            NaN
         13   -1    0    0    0    0  0.00000000000E+00  0.00000000000E+00  0.74505805969E-08  0.10566000000E+00  0.10566000000E+00 0. -1.
     999900   -1    0    0    0    0 -0.00000000000E+00 -0.00000000000E+00 -0.74505805969E-08  0.93827000000E+00  0.93827000000E+00 0. -1.
     999902    2    1    2    0    0 -0.19200551649E-02 -0.15723049398E-01 -0.17738478624E-01  0.10201486098E+01  0.10198713799E+01 0.  0.
     999903    2    3    3    0    0  0.75877370429E-01  0.77437831071E-01 -0.69418597119E-01  0.13031591560E+00  0.20231243400E-01 0.  0.
         14    1    1    2    0    0  0.19200551649E-02  0.15723049398E-01  0.17738478624E-01  0.23781390163E-01  0.00000000000E+00 0. -1.
     999901    1    3    3    0    0 -0.77797425594E-01 -0.93160880469E-01  0.51680118495E-01  0.88983269423E+00  0.88000000000E+00 0.  1.
        -11    1    4    4    0    0  0.48067886389E-01  0.43264465829E-01 -0.30402325876E-01  0.71462565341E-01  0.51100000000E-03 0.  1.
         11    1    4    4    0    0  0.27809484040E-01  0.34173365242E-01 -0.39016271242E-01  0.58853350263E-01  0.51100000000E-03 0. -1.
</event>
<event>
 8    1  0.1213322E+005  0.1043930E+01  0.7957747E-01            NaN
         13   -1    0    0    0    0  0.00000000000E+00  0.00000000000E+00  0.74505805969E-08  0.10566000000E+00  0.10566000000E+00 0. -1.
     999900   -1    0    0    0    0 -0.00000000000E+00 -0.00000000000E+00 -0.74505805969E-08  0.93827000000E+00  0.93827000000E+00 0. -1.
     999902    2    1    2    0    0 -0.50353868831E-02 -0.22664162956E-01 -0.63585775932E-02  0.10198582133E+01  0.10195740897E+01 0.  0.
     999903    2    3    3    0    0 -0.11754107631E-01 -0.17726948397E-01  0.12635544607E+00  0.12986802836E+00  0.21156613472E-01 0.  0.
         14    1    1    2    0    0  0.50353868831E-02  0.22664162956E-01  0.63585775932E-02  0.24071786651E-01  0.00000000000E+00 0. -1.
     999901    1    3    3    0    0  0.67187207484E-02 -0.49372145584E-02 -0.13271402366E+00  0.88999018499E+00  0.88000000000E+00 0. -1.
        -11    1    4    4    0    0 -0.28440796419E-02 -0.13791112974E-01  0.31445098575E-01  0.34457784773E-01  0.51100000000E-03 0. -1.
         11    1    4    4    0    0 -0.89100279895E-02 -0.39358354234E-02  0.94910347494E-01  0.95410243589E-01  0.51100000000E-03 0.  1.
</event>
<event>
 8    1  0.1213322E+005  0.1043930E+01  0.7957747E-01            NaN
         13   -1    0    0    0    0  0.00000000000E+00  0.00000000000E+00  0.74505805969E-08  0.10566000000E+00  0.10566000000E+00 0.  1.
     999900   -1    0    0    0    0 -0.00000000000E+00 -0.00000000000E+00 -0.74505805969E-08  0.93827000000E+00  0.93827000000E+00 0.  1.
     999902    2    1    2    0    0 -0.10219154852E-01  0.14720932844E-01 -0.15038185095E-01  0.10205358982E+01  0.10202677273E+01 0.  0.
     999903    2    3    3    0    0  0.37893905488E-01  0.23316502074E-01  0.11965464059E+00  0.12894691905E+00  0.18178767147E-01 0.  0.
         14    1    1    2    0    0  0.10219154852E-01 -0.14720932844E-01  0.15038185095E-01  0.23394101834E-01  0.00000000000E+00 0. -1.
     999901    1    3    3    0    0 -0.48113060340E-01 -0.85955692306E-02 -0.13469282569E+00  0.89158897911E+00  0.88000000000E+00 0.  1.
        -11    1    4    4    0    0 -0.79453526429E-03  0.51739496487E-02  0.15419458801E-01  0.16291773138E-01  0.51100000000E-03 0.  1.
         11    1    4    4    0    0  0.38688440752E-01  0.18142552426E-01  0.10423518179E+00  0.11265514591E+00  0.51100000000E-03 0. -1.
</event>
<event>
 8    1  0.1213322E+005  0.1043930E+01  0.7957747E-01            NaN
         13   -1    0    0    0    0  0.00000000000E+00  0.00000000000E+00  0.74505805969E-08  0.10566000000E+00  0.10566000000E+00 0. -1.
     999900   -1    0    0    0    0 -0.00000000000E+00 -0.00000000000E+00 -0.74505805969E-08  0.93827000000E+00  0.93827000000E+00 0.  1.
     999902    2    1    2    0    0 -0.15570160571E-01  0.85480093892E-02 -0.10267640001E-01  0.10234135969E+01  0.10232079298E+01 0.  0.
     999903    2    3    3    0    0  0.97457932005E-01  0.98742843487E-02  0.82195984369E-01  0.13137849079E+00  0.30142627505E-01 0.  0.
         14    1    1    2    0    0  0.15570160571E-01 -0.85480093892E-02  0.10267640001E-01  0.20516403094E-01  0.00000000000E+00 0. -1.
     999901    1    3    3    0    0 -0.11302809258E+00 -0.13262749595E-02 -0.92463624371E-01  0.89203510612E+00  0.88000000000E+00 0.  1.
        -11    1    4    4    0    0  0.44418985774E-01 -0.10322518022E-01  0.39889888858E-01  0.60589314483E-01  0.51100000000E-03 0.  1.
         11    1    4    4    0    0  0.53038946231E-01  0.20196802370E-01  0.42306095512E-01  0.70789176304E-01  0.51100000000E-03 0. -1.
</event>
<event>
 8    1  0.1213322E+005  0.1043930E+01  0.7957747E-01            NaN
         13   -1    0    0    0    0  0.00000000000E+00  0.00000000000E+00  0.74505805969E-08  0.10566000000E+00  0.10566000000E+00 0.  1.
     999900   -1    0    0    0    0 -0.00000000000E+00 -0.00000000000E+00 -0.74505805969E-08  0.93827000000E+00  0.93827000000E+00 0.  1.
     999902    2    1    2    0    0 -0.13260377513E-01 -0.38316374749E-02 -0.18981121929E-01  0.10204608277E+01  0.10201909130E+01 0.  0.
     999903    2    3    3    0    0 -0.11236022957E+00 -0.35063774136E-01 -0.59372437077E-01  0.13342774752E+00  0.20581255490E-01 0.  0.
         14    1    1    2    0    0  0.13260377513E-01  0.38316374749E-02  0.18981121929E-01  0.23469172273E-01  0.00000000000E+00 0.  1.
     999901    1    3    3    0    0  0.99099852061E-01  0.31232136661E-01  0.40391315149E-01  0.88703308021E+00  0.88000000000E+00 0. -1.
        -11    1    4    4    0    0 -0.35919505538E-01 -0.14775220695E-02 -0.16272562239E-01  0.39464558180E-01  0.51100000000E-03 0.  1.
         11    1    4    4    0    0 -0.76440724036E-01 -0.33586252067E-01 -0.43099874839E-01  0.93963189341E-01  0.51100000000E-03 0. -1.
</event>
<event>
 8    1  0.1213322E+005  0.1043930E+01  0.7957747E-01            NaN
         13   -1    0    0    0    0  0.00000000000E+00  0.00000000000E+00  0.74505805969E-08  0.10566000000E+00  0.10566000000E+00 0.  1.
     999900   -1    0    0    0    0 -0.00000000000E+00 -0.00000000000E+00 -0.74505805969E-08  0.93827000000E+00  0.93827000000E+00 0.  1.
     999902    2    1    2    0    0  0.85753035166E-02  0.40705032126E-02  0.10672779447E-01  0.10296466864E+01  0.10295476122E+01 0.  0.
     999903    2    3    3    0    0 -0.88253759013E-02  0.13177231276E+00  0.41128331892E-01  0.13973765930E+00  0.19830382589E-01 0.  0.
         14    1    1    2    0    0 -0.85753035166E-02 -0.40705032126E-02 -0.10672779447E-01  0.14283313619E-01  0.00000000000E+00 0. -1.
     999901    1    3    3    0    0  0.17400679418E-01 -0.12770180954E+00 -0.30455552444E-01  0.88990902708E+00  0.88000000000E+00 0.  1.
        -11    1    4    4    0    0 -0.11860274377E-01  0.41086354583E-01  0.14831648921E-01  0.45265810188E-01  0.51100000000E-03 0. -1.
         11    1    4    4    0    0  0.30348984753E-02  0.90685958173E-01  0.26296682970E-01  0.94471849113E-01  0.51100000000E-03 0.  1.
</event>
<event>
 8    1  0.1213322E+005  0.1043930E+01  0.7957747E-01            NaN
         13   -1    0    0    0    0  0.00000000000E+00  0.00000000000E+00  0.74505805969E-08  0.10566000000E+00  0.10566000000E+00 0.  1.
     999900   -1    0    0    0    0 -0.00000000000E+00 -0.00000000000E+00 -0.74505805969E-08  0.93827000000E+00  0.93827000000E+00 0. -1.
     999902    2    1    2    0    0 -0.21045269587E-01 -0.15664718494E-01  0.81126491544E-02  0.10164690850E+01  0.10160980754E+01 0.  0.
     999903    2    3    3    0    0 -0.75001395713E-03 -0.12603715188E+00  0.19595674862E-01  0.12926796272E+00  0.20983077413E-01 0.  0.
         14    1    1    2    0    0  0.21045269587E-01  0.15664718494E-01 -0.81126491544E-02  0.27460915021E-01  0.00000000000E+00 0. -1.
     999901    1    3    3    0    0 -0.20295255630E-01  0.11037243339E+00 -0.11483025707E-01  0.88720112226E+00  0.88000000000E+00 0. -1.
        -11    1    4    4    0    0 -0.88220541223E-02 -0.27999399037E-01  0.59100635060E-02  0.29949707128E-01  0.51100000000E-03 0. -1.
         11    1    4    4    0    0  0.80720401651E-02 -0.98037752845E-01  0.13685611355E-01  0.99318255596E-01  0.51100000000E-03 0.  1.
</event>
<event>
 8    1  0.1213322E+005  0.1043930E+01  0.7957747E-01            NaN
         13   -1    0    0    0    0  0.00000000000E+00  0.00000000000E+00  0.74505805969E-08  0.10566000000E+00  0.10566000000E+00 0.  1.
     999900   -1    0    0    0    0 -0.00000000000E+00 -0.00000000000E+00 -0.74505805969E-08  0.93827000000E+00  0.93827000000E+00 0.  1.
     999902    2    1    2    0    0  0.25658537673E-01  0.79341347953E-02  0.74014043845E-02  0.10160715751E+01  0.10156895953E+01 0.  0.
     999903    2    3    3    0    0  0.85408302328E-01  0.94018869155E-01  0.18632279554E-01  0.12978338923E+00  0.19037867945E-01 0.  0.
         14    1    1    2    0    0 -0.25658537673E-01 -0.79341347953E-02 -0.74014043845E-02  0.27858424890E-01  0.00000000000E+00 0. -1.
     999901    1    3    3    0    0 -0.59749764655E-01 -0.86084734360E-01 -0.11230875170E-01  0.88628818588E+00  0.88000000000E+00 0. -1.
        -11    1    4    4    0    0  0.48540942198E-01  0.66720537490E-01  0.10218696246E-01  0.83141662640E-01  0.51100000000E-03 0.  1.
         11    1    4    4    0    0  0.36867360130E-01  0.27298331665E-01  0.84135833085E-02  0.46641726595E-01  0.51100000000E-03 0. -1.
</event>
<event>
 8    1  0.1213322E+005  0.1043930E+01  0.7957747E-01            NaN
         13   -1    0    0    0    0  0.00000000000E+00  0.00000000000E+00  0.74505805969E-08  0.10566000000E+00  0.10566000000E+00 0.  1.
     999900   -1    0    0    0    0 -0.00000000000E+00 -0.00000000000E+00 -0.74505805969E-08  0.93827000000E+00  0.93827000000E+00 0. -1.
     999902    2    1    2    0    0  0.17632459044E-01  0.15197934238E-01  0.12852484069E-02  0.10206162127E+01  0.10203499012E+01 0.  0.
     999903    2    3    3    0    0  0.77579265076E-01 -0.87939455899E-01  0.56823048893E-01  0.13083231300E+00  0.11676684702E-01 0.  0.
         14    1    1    2    0    0 -0.17632459044E-01 -0.15197934238E-01 -0.12852484069E-02  0.23313787348E-01  0.00000000000E+00 0. -1.
     999901    1    3    3    0    0 -0.59946806032E-01  0.10313739014E+00 -0.55537800486E-01  0.88978389965E+00  0.88000000000E+00 0. -1.
        -11    1    4    4    0    0  0.57322277789E-01 -0.59634874075E-01  0.35534873684E-01  0.90028607152E-01  0.51100000000E-03 0. -1.
         11    1    4    4    0    0  0.20256987287E-01 -0.28304581824E-01  0.21288175209E-01  0.40803705848E-01  0.51100000000E-03 0.  1.
</event>
<event>
 8    1  0.1213322E+005  0.1043930E+01  0.7957747E-01            NaN
         13   -1    0    0    0    0  0.00000000000E+00  0.00000000000E+00  0.74505805969E-08  0.10566000000E+00  0.10566000000E+00 0.  1.
     999900   -1    0    0    0    0 -0.00000000000E+00 -0.00000000000E+00 -0.74505805969E-08  0.93827000000E+00  0.93827000000E+00 0.  1.
     999902    2    1    2    0    0 -0.13020691493E-01 -0.11699914109E-01  0.19925349086E-01  0.10174074448E+01  0.10170616809E+01 0.  0.
     999903    2    3    3    0    0  0.43274708545E-01  0.95418582572E-01  0.70203199189E-01  0.12770445696E+00  0.20063221358E-01 0.  0.
         14    1    1    2    0    0  0.13020691493E-01  0.11699914109E-01 -0.19925349086E-01  0.26522555180E-01  0.00000000000E+00 0. -1.
     999901    1    3    3    0    0 -0.56295400037E-01 -0.10711849668E+00 -0.50277850103E-01  0.88970298786E+00  0.88000000000E+00 0.  1.
        -11    1    4    4    0    0  0.42484731138E-01  0.75219766391E-01  0.55097826939E-01  0.10246461482E+00  0.51100000000E-03 0.  1.
         11    1    4    4    0    0  0.78997740655E-03  0.20198816181E-01  0.15105372250E-01  0.25239842139E-01  0.51100000000E-03 0. -1.
</event>
<event>
 8    1  0.1213322E+005  0.1043930E+01  0.7957747E-01            NaN
         13   -1    0    0    0    0  0.00000000000E+00  0.00000000000E+00  0.74505805969E-08  0.10566000000E+00  0.10566000000E+00 0. -1.
     999900   -1    0    0    0    0 -0.00000000000E+00 -0.00000000000E+00 -0.74505805969E-08  0.93827000000E+00  0.93827000000E+00 0. -1.
     999902    2    1    2    0    0 -0.10250305491E-01  0.22057858864E-01 -0.19211704322E-02  0.10195310493E+01  0.10192390552E+01 0.  0.
     999903    2    3    3    0    0 -0.31276131542E-01  0.11361844729E+00 -0.58360610170E-01  0.13273296794E+00  0.18020321559E-01 0.  0.
         14    1    1    2    0    0  0.10250305491E-01 -0.22057858864E-01  0.19211704322E-02  0.24398950718E-01  0.00000000000E+00 0. -1.
     999901    1    3    3    0    0  0.21025826051E-01 -0.91560588430E-01  0.56439439738E-01  0.88679808134E+00  0.88000000000E+00 0.  1.
        -11    1    4    4    0    0  0.12642568409E-02  0.19008415209E-01 -0.11428043068E-01  0.22221149464E-01  0.51100000000E-03 0. -1.
         11    1    4    4    0    0 -0.32540388383E-01  0.94610032084E-01 -0.46932567102E-01  0.11051181848E+00  0.51100000000E-03 0.  1.
</event>
<event>
 8    1  0.1213322E+005  0.1043930E+01  0.7957747E-01            NaN
         13   -1    0    0    0    0  0.00000000000E+00  0.00000000000E+00  0.74505805969E-08  0.10566000000E+00  0.10566000000E+00 0. -1.
     999900   -1    0    0    0    0 -0.00000000000E+00 -0.00000000000E+00 -0.74505805969E-08  0.93827000000E+00  0.93827000000E+00 0. -1.
     999902    2    1    2    0    0 -0.21019285458E-01  0.10167234523E-01  0.44465371057E-02  0.10201612240E+01  0.10198842916E+01 0.  0.
     999903    2    3    3    0    0  0.82710704690E-01 -0.70380043211E-01 -0.64235044813E-01  0.12776841002E+00  0.20105085501E-01 0.  0.
         14    1    1    2    0    0  0.21019285458E-01 -0.10167234523E-01 -0.44465371057E-02  0.23768775972E-01  0.00000000000E+00 0.  1.
     999901    1    3    3    0    0 -0.10372999015E+00  0.80547277733E-01  0.68681581919E-01  0.89239281401E+00  0.88000000000E+00 0.  1.
        -11    1    4    4    0    0  0.41299610280E-01 -0.46468228681E-01 -0.30530324240E-01  0.69262658808E-01  0.51100000000E-03 0. -1.
         11    1    4    4    0    0  0.41411094410E-01 -0.23911814530E-01 -0.33704720573E-01  0.58505751207E-01  0.51100000000E-03 0.  1.
</event>
<event>
 8    1  0.1213322E+005  0.1043930E+01  0.7957747E-01            NaN
         13   -1    0    0    0    0  0.00000000000E+00  0.00000000000E+00  0.74505805969E-08  0.10566000000E+00  0.10566000000E+00 0.  1.
     999900   -1    0    0    0    0 -0.00000000000E+00 -0.00000000000E+00 -0.74505805969E-08  0.93827000000E+00  0.93827000000E+00 0. -1.
     999902    2    1    2    0    0 -0.17279916790E-01 -0.10437472903E-01  0.19144470954E-01  0.10161082974E+01  0.10157273379E+01 0.  0.
     999903    2    3    3    0    0  0.25776061056E-01  0.35185361696E-01  0.11889475017E+00  0.12825392962E+00  0.20265582744E-01 0.  0.
         14    1    1    2    0    0  0.17279916790E-01  0.10437472903E-01 -0.19144470954E-01  0.27821702554E-01  0.00000000000E+00 0. -1.
     999901    1    3    3    0    0 -0.43055977847E-01 -0.45622834598E-01 -0.99750279215E-01  0.88785436783E+00  0.88000000000E+00 0. -1.
        -11    1    4    4    0    0  0.62359448552E-03  0.16256312449E-01  0.47948332981E-01  0.50635563798E-01  0.51100000000E-03 0.  1.
         11    1    4    4    0    0  0.25152466571E-01  0.18929049247E-01  0.70946417188E-01  0.77618365821E-01  0.51100000000E-03 0. -1.
</event>
<event>
 8    1  0.1213322E+005  0.1043930E+01  0.7957747E-01            NaN
         13   -1    0    0    0    0  0.00000000000E+00  0.00000000000E+00  0.74505805969E-08  0.10566000000E+00  0.10566000000E+00 0.  1.
     999900   -1    0    0    0    0 -0.00000000000E+00 -0.00000000000E+00 -0.74505805969E-08  0.93827000000E+00  0.93827000000E+00 0. -1.
     999902    2    1    2    0    0  0.89943589535E-02 -0.94691499635E-03  0.17381151687E-01  0.10243366446E+01  0.10241492381E+01 0.  0.
     999903    2    3    3    0    0  0.11027931528E+00 -0.23011496117E-01  0.75554253541E-01  0.13634475395E+00  0.13798201674E-01 0.  0.
         14    1    1    2    0    0 -0.89943589535E-02  0.94691499635E-03 -0.17381151687E-01  0.19593355378E-01  0.00000000000E+00 0. -1.
     999901    1    3    3    0    0 -0.10128495633E+00  0.22064581121E-01 -0.58173101854E-01  0.88799189067E+00  0.88000000000E+00 0. -1.
        -11    1    4    4    0    0  0.59681595012E-01 -0.87171721593E-02  0.33360974738E-01  0.68928206347E-01  0.51100000000E-03 0.  1.
         11    1    4    4    0    0  0.50597720269E-01 -0.14294323958E-01  0.42193278802E-01  0.67416547605E-01  0.51100000000E-03 0. -1.
</event>
<event>
 8    1  0.1213322E+005  0.1043930E+01  0.7957747E-01            NaN
         13   -1    0    0    0    0  0.00000000000E+00  0.00000000000E+00  0.74505805969E-08  0.10566000000E+00  0.10566000000E+00 0.  1.
     999900   -1    0    0    0    0 -0.00000000000E+00 -0.00000000000E+00 -0.74505805969E-08  0.93827000000E+00  0.93827000000E+00 0.  1.
     999902    2    1    2    0    0  0.16158828921E-01  0.41391810691E-02 -0.17385365377E-01  0.10198366088E+01  0.10195519688E+01 0.  0.
     999903    2    3    3    0    0 -0.78839325265E-01  0.67289701067E-01  0.72148527225E-01  0.12796836995E+00  0.20662784168E-01 0.  0.
         14    1    1    2    0    0 -0.16158828921E-01 -0.41391810691E-02  0.17385365377E-01  0.24093391237E-01  0.00000000000E+00 0.  1.
     999901    1    3    3    0    0  0.94998154186E-01 -0.63150519998E-01 -0.89533892602E-01  0.89186823881E+00  0.88000000000E+00 0.  1.
        -11    1    4    4    0    0 -0.30545419804E-01  0.21649835670E-01  0.37641638185E-01  0.53093239700E-01  0.51100000000E-03 0.  1.
         11    1    4    4    0    0 -0.48293905461E-01  0.45639865397E-01  0.34506889040E-01  0.74875130253E-01  0.51100000000E-03 0. -1.
</event>
<event>
 8    1  0.1213322E+005  0.1043930E+01  0.7957747E-01            NaN
         13   -1    0    0    0    0  0.00000000000E+00  0.00000000000E+00  0.74505805969E-08  0.10566000000E+00  0.10566000000E+00 0.  1.
     999900   -1    0    0    0    0 -0.00000000000E+00 -0.00000000000E+00 -0.74505805969E-08  0.93827000000E+00  0.93827000000E+00 0. -1.
     999902    2    1    2    0    0  0.21064482553E-01  0.98956106830E-02  0.14018015753E-01  0.10167612624E+01  0.10163982116E+01 0.  0.
     999903    2    3    3    0    0 -0.68532119648E-01 -0.14060238623E-01 -0.10097473226E+00  0.12444698710E+00  0.19920198547E-01 0.  0.
         14    1    1    2    0    0 -0.21064482553E-01 -0.98956106830E-02 -0.14018015753E-01  0.27168737580E-01  0.00000000000E+00 0. -1.
     999901    1    3    3    0    0  0.89596602201E-01  0.23955849306E-01  0.11499274801E+00  0.89231427532E+00  0.88000000000E+00 0.  1.
        -11    1    4    4    0    0 -0.47877977704E-01 -0.14726909793E-02 -0.58988200700E-01  0.75989068362E-01  0.51100000000E-03 0.  1.
         11    1    4    4    0    0 -0.20654141945E-01 -0.12587547644E-01 -0.41986531560E-01  0.48457918739E-01  0.51100000000E-03 0. -1.
</event>
<event>
 8    1  0.1213322E+005  0.1043930E+01  0.7957747E-01            NaN
         13   -1    0    0    0    0  0.00000000000E+00  0.00000000000E+00  0.74505805969E-08  0.10566000000E+00  0.10566000000E+00 0. -1.
     999900   -1    0    0    0    0 -0.00000000000E+00 -0.00000000000E+00 -0.74505805969E-08  0.93827000000E+00  0.93827000000E+00 0.  1.
     999902    2    1    2    0    0 -0.44786491434E-03  0.23084186032E-01  0.53579575190E-02  0.10202279339E+01  0.10199525720E+01 0.  0.
     999903    2    3    3    0    0 -0.76015029932E-02 -0.11644708745E+00 -0.48725107134E-01  0.12756611178E+00  0.16771099783E-01 0.  0.
         14    1    1    2    0    0  0.44786491434E-03 -0.23084186032E-01 -0.53579575190E-02  0.23702066081E-01  0.00000000000E+00 0. -1.
     999901    1    3    3    0    0  0.71536380789E-02  0.13953127348E+00  0.54083064653E-01  0.89266182214E+00  0.88000000000E+00 0. -1.
        -11    1    4    4    0    0 -0.62089439079E-03 -0.36961623212E-01 -0.23808215964E-01  0.43973166462E-01  0.51100000000E-03 0. -1.
         11    1    4    4    0    0 -0.69806086025E-02 -0.79485464233E-01 -0.24916891170E-01  0.83592945321E-01  0.51100000000E-03 0.  1.
</event>
<event>
 8    1  0.1213322E+005  0.1043930E+01  0.7957747E-01            NaN
         13   -1    0    0    0    0  0.00000000000E+00  0.00000000000E+00  0.74505805969E-08  0.10566000000E+00  0.10566000000E+00 0.  1.
     999900   -1    0    0    0    0 -0.00000000000E+00 -0.00000000000E+00 -0.74505805969E-08  0.93827000000E+00  0.93827000000E+00 0. -1.
     999902    2    1    2    0    0 -0.15247191781E-01  0.92757447484E-02 -0.17635142486E-01  0.10188398715E+01  0.10185308877E+01 0.  0.
     999903    2    3    3    0    0  0.83017267885E-01 -0.91899720735E-01  0.18561880706E-01  0.12687428733E+00  0.20374394027E-01 0.  0.
         14    1    1    2    0    0  0.15247191781E-01 -0.92757447484E-02  0.17635142486E-01  0.25090128503E-01  0.00000000000E+00 0.  1.
     999901    1    3    3    0    0 -0.98264459666E-01  0.10117546548E+00 -0.36197023191E-01  0.89196558417E+00  0.88000000000E+00 0. -1.
        -11    1    4    4    0    0  0.15599351560E-01 -0.23449139854E-01  0.11859174274E-01  0.30563099720E-01  0.51100000000E-03 0.  1.
         11    1    4    4    0    0  0.67417916325E-01 -0.68450580881E-01  0.67027064316E-02  0.96311187611E-01  0.51100000000E-03 0. -1.
</event>
<event>
 8    1  0.1213322E+005  0.1043930E+01  0.7957747E-01            NaN
         13   -1    0    0    0    0  0.00000000000E+00  0.00000000000E+00  0.74505805969E-08  0.10566000000E+00  0.10566000000E+00 0. -1.
     999900   -1    0    0    0    0 -0.00000000000E+00 -0.00000000000E+00 -0.74505805969E-08  0.93827000000E+00  0.93827000000E+00 0. -1.
     999902    2    1    2    0    0  0.48456186004E-02 -0.17631268406E-01  0.15231904094E-01  0.10201318373E+01  0.10198542116E+01 0.  0.
     999903    2    3    3    0    0 -0.10972948155E+00 -0.56584186992E-01  0.40970752797E-01  0.13147708333E+00  0.19112600972E-01 0.  0.
         14    1    1    2    0    0 -0.48456186004E-02  0.17631268406E-01 -0.15231904094E-01  0.23798162693E-01  0.00000000000E+00 0.  1.
     999901    1    3    3    0    0  0.11457510015E+00  0.38952918585E-01 -0.25738848703E-01  0.88865475398E+00  0.88000000000E+00 0. -1.
        -11    1    4    4    0    0 -0.10618163520E-01 -0.36652102687E-02  0.97024810696E-02  0.14851882802E-01  0.51100000000E-03 0. -1.
         11    1    4    4    0    0 -0.99111318032E-01 -0.52918976723E-01  0.31268271728E-01  0.11662520052E+00  0.51100000000E-03 0.  1.
</event>
<event>
 8    1  0.1213322E+005  0.1043930E+01  0.7957747E-01            NaN
         13   -1    0    0    0    0  0.00000000000E+00  0.00000000000E+00  0.74505805969E-08  0.10566000000E+00  0.10566000000E+00 0. -1.
     999900   -1    0    0    0    0 -0.00000000000E+00 -0.00000000000E+00 -0.74505805969E-08  0.93827000000E+00  0.93827000000E+00 0. -1.
     999902    2    1    2    0    0  0.64072936455E-02 -0.25406061864E-01 -0.16796693934E-02  0.10176746638E+01  0.10173359222E+01 0.  0.
     999903    2    3    3    0    0 -0.19449954986E-01  0.11464602462E+00  0.41793552891E-01  0.12516522108E+00  0.19940406078E-01 0.  0.
         14    1    1    2    0    0 -0.64072936455E-02  0.25406061864E-01  0.16796693934E-02  0.26255336230E-01  0.00000000000E+00 0.  1.
     999901    1    3    3    0    0  0.25857248631E-01 -0.14005208648E+00 -0.43473222285E-01  0.89250944269E+00  0.88000000000E+00 0.  1.
        -11    1    4    4    0    0 -0.16799077937E-01  0.94855445103E-01  0.42239198562E-01  0.10518638458E+00  0.51100000000E-03 0. -1.
         11    1    4    4    0    0 -0.26508770482E-02  0.19790579517E-01 -0.44564567085E-03  0.19978836498E-01  0.51100000000E-03 0.  1.
</event>
<event>
 8    1  0.1213322E+005  0.1043930E+01  0.7957747E-01            NaN
         13   -1    0    0    0    0  0.00000000000E+00  0.00000000000E+00  0.74505805969E-08  0.10566000000E+00  0.10566000000E+00 0. -1.
     999900   -1    0    0    0    0 -0.00000000000E+00 -0.00000000000E+00 -0.74505805969E-08  0.93827000000E+00  0.93827000000E+00 0.  1.
     999902    2    1    2    0    0 -0.72425369966E-02 -0.35162802634E-02 -0.22877152728E-01  0.10196775221E+01  0.10193890652E+01 0.  0.
     999903    2    3    3    0    0 -0.86374693262E-01 -0.86528391190E-01 -0.45334525164E-01  0.13195163966E+00  0.20205591276E-01 0.  0.
         14    1    1    2    0    0  0.72425369966E-02  0.35162802634E-02  0.22877152728E-01  0.24252477935E-01  0.00000000000E+00 0. -1.
     999901    1    3    3    0    0  0.79132156266E-01  0.83012110927E-01  0.22457372436E-01  0.88772588241E+00  0.88000000000E+00 0.  1.
        -11    1    4    4    0    0 -0.32496725088E-01 -0.41396093984E-01 -0.27759600770E-01  0.59502355369E-01  0.51100000000E-03 0.  1.
         11    1    4    4    0    0 -0.53877968174E-01 -0.45132297206E-01 -0.17574924394E-01  0.72449284290E-01  0.51100000000E-03 0. -1.
</event>
<event>
 8    1  0.1213322E+005  0.1043930E+01  0.7957747E-01            NaN
         13   -1    0    0    0    0  0.00000000000E+00  0.00000000000E+00  0.74505805969E-08  0.10566000000E+00  0.10566000000E+00 0.  1.
     999900   -1    0    0    0    0 -0.00000000000E+00 -0.00000000000E+00 -0.74505805969E-08  0.93827000000E+00  0.93827000000E+00 0.  1.
     999902    2    1    2    0    0  0.23576550953E-01  0.11494670126E-02 -0.44931940446E-02  0.10199016038E+01  0.10196185158E+01 0.  0.
     999903    2    3    3    0    0 -0.61332780150E-01  0.11024301010E+00  0.17250640920E-01  0.12884392332E+00  0.19696212007E-01 0.  0.
         14    1    1    2    0    0 -0.23576550953E-01 -0.11494670126E-02  0.44931940446E-02  0.24028396159E-01  0.00000000000E+00 0.  1.
     999901    1    3    3    0    0  0.84909331104E-01 -0.10909354309E+00 -0.21743834964E-01  0.89105768052E+00  0.88000000000E+00 0.  1.
        -11    1    4    4    0    0 -0.13130507727E-01  0.10206940407E-01  0.23303701860E-02  0.16801297921E-01  0.51100000000E-03 0.  1.
         11    1    4    4    0    0 -0.48202272424E-01  0.10003606970E+00  0.14920270734E-01  0.11204262540E+00  0.51100000000E-03 0. -1.
</event>
<event>
 8    1  0.1213322E+005  0.1043930E+01  0.7957747E-01            NaN
         13   -1    0    0    0    0  0.00000000000E+00  0.00000000000E+00  0.74505805969E-08  0.10566000000E+00  0.10566000000E+00 0. -1.
     999900   -1    0    0    0    0 -0.00000000000E+00 -0.00000000000E+00 -0.74505805969E-08  0.93827000000E+00  0.93827000000E+00 0.  1.
     999902    2    1    2    0    0 -0.19162425468E-01 -0.12134672720E-01  0.55372030570E-02  0.10205824209E+01  0.10203153279E+01 0.  0.
     999903    2    3    3    0    0 -0.10815843040E-01 -0.67456713857E-02  0.12998653124E+00  0.13177066240E+00  0.17450576539E-01 0.  0.
         14    1    1    2    0    0  0.19162425468E-01  0.12134672720E-01 -0.55372030570E-02  0.23347579094E-01  0.00000000000E+00 0.  1.
     999901    1    3    3    0    0 -0.83465824282E-02 -0.53890013346E-02 -0.12444932819E+00  0.88881175851E+00  0.88000000000E+00 0.  1.
        -11    1    4    4    0    0 -0.95366783611E-02 -0.79722165709E-02  0.42970929538E-01  0.44735515841E-01  0.51100000000E-03 0.  1.
         11    1    4    4    0    0 -0.12791646789E-02  0.12265451852E-02  0.87015601705E-01  0.87035146559E-01  0.51100000000E-03 0. -1.
</event>
<event>
 8    1  0.1213322E+005  0.1043930E+01  0.7957747E-01            NaN
         13   -1    0    0    0    0  0.00000000000E+00  0.00000000000E+00  0.74505805969E-08  0.10566000000E+00  0.10566000000E+00 0.  1.
     999900   -1    0    0    0    0 -0.00000000000E+00 -0.00000000000E+00 -0.74505805969E-08  0.93827000000E+00  0.93827000000E+00 0. -1.
     999902    2    1    2    0    0 -0.19652244118E-01  0.13753707674E-01  0.38498139848E-02  0.10196360452E+01  0.10193465889E+01 0.  0.
     999903    2    3    3    0    0  0.87680592264E-02 -0.13551627943E-01 -0.12651016123E+00  0.12916031943E+00  0.20421599798E-01 0.  0.
         14    1    1    2    0    0  0.19652244118E-01 -0.13753707674E-01 -0.38498139848E-02  0.24293954832E-01  0.00000000000E+00 0. -1.
     999901    1    3    3    0    0 -0.28420303345E-01  0.27305335617E-01  0.13035997521E+00  0.89047572574E+00  0.88000000000E+00 0.  1.
        -11    1    4    4    0    0  0.15188205427E-01 -0.78325064500E-02 -0.74066831981E-01  0.76014383258E-01  0.51100000000E-03 0. -1.
         11    1    4    4    0    0 -0.64201462006E-02 -0.57191214932E-02 -0.52443329247E-01  0.53145936170E-01  0.51100000000E-03 0.  1.
</event>
<event>
 8    1  0.1225340E+005  0.1043930E+01  0.7957747E-01            NaN
         13   -1    0    0    0    0  0.00000000000E+00  0.00000000000E+00  0.74505805969E-08  0.10566000000E+00  0.10566000000E+00 0. -1.
     999900   -1    0    0    0    0 -0.00000000000E+00 -0.00000000000E+00 -0.74505805969E-08  0.93827000000E+00  0.93827000000E+00 0.  1.
     999902    2    1    2    0    0  0.62513773703E-02  0.20740173928E-01 -0.91255557969E-02  0.10204244623E+01  0.10201537007E+01 0.  0.
     999903    2    3    3    0    0  0.13265044747E-01 -0.90104325526E-01 -0.90345958272E-01  0.12973234470E+00  0.19321961464E-01 0.  0.
         14    1    1    2    0    0 -0.62513773703E-02 -0.20740173928E-01  0.91255557969E-02  0.23505537692E-01  0.00000000000E+00 0.  1.
     999901    1    3    3    0    0 -0.70136673768E-02  0.11084449945E+00  0.81220402475E-01  0.89069211761E+00  0.88000000000E+00 0. -1.
        -11    1    4    4    0    0 -0.24956354166E-02 -0.44961363927E-01 -0.48585751610E-01  0.66246424982E-01  0.51100000000E-03 0.  1.
         11    1    4    4    0    0  0.15760680164E-01 -0.45142961599E-01 -0.41760206663E-01  0.63485919720E-01  0.51100000000E-03 0. -1.
</event>
<event>
 8    1  0.1213322E+005  0.1043930E+01  0.7957747E-01            NaN
         13   -1    0    0    0    0  0.00000000000E+00  0.00000000000E+00  0.74505805969E-08  0.10566000000E+00  0.10566000000E+00 0.  1.
     999900   -1    0    0    0    0 -0.00000000000E+00 -0.00000000000E+00 -0.74505805969E-08  0.93827000000E+00  0.93827000000E+00 0. -1.
     999902    2    1    2    0    0  0.85201753850E-02 -0.22026384420E-02  0.22124744669E-01  0.10201193022E+01  0.10198413805E+01 0.  0.
     999903    2    3    3    0    0  0.76049094996E-01 -0.10145366163E+00 -0.24998503564E-01  0.13071977377E+00  0.19657664329E-01 0.  0.
         14    1    1    2    0    0 -0.85201753850E-02  0.22026384420E-02 -0.22124744669E-01  0.23810697834E-01  0.00000000000E+00 0. -1.
     999901    1    3    3    0    0 -0.67528919611E-01  0.99251023184E-01  0.47123248232E-01  0.88939952840E+00  0.88000000000E+00 0. -1.
        -11    1    4    4    0    0  0.22743314503E-01 -0.30778746346E-01 -0.16856440680E-01  0.41820931298E-01  0.51100000000E-03 0. -1.
         11    1    4    4    0    0  0.53305780494E-01 -0.70674915280E-01 -0.81420628838E-02  0.88898842472E-01  0.51100000000E-03 0.  1.
</event>
<event>
 8    1  0.1213322E+005  0.1043930E+01  0.7957747E-01            NaN
         13   -1    0    0    0    0  0.00000000000E+00  0.00000000000E+00  0.74505805969E-08  0.10566000000E+00  0.10566000000E+00 0.  1.
     999900   -1    0    0    0    0 -0.00000000000E+00 -0.00000000000E+00 -0.74505805969E-08  0.93827000000E+00  0.93827000000E+00 0. -1.
     999902    2    1    2    0    0 -0.10004132308E-01  0.79741640280E-02  0.19151984645E-01  0.10208980988E+01  0.10206382610E+01 0.  0.
     999903    2    3    3    0    0  0.29088939738E-01  0.76285131134E-01 -0.98677722203E-01  0.12956286655E+00  0.19587135618E-01 0.  0.
         14    1    1    2    0    0  0.10004132308E-01 -0.79741640280E-02 -0.19151984645E-01  0.23031901160E-01  0.00000000000E+00 0.  1.
     999901    1    3    3    0    0 -0.39093072046E-01 -0.68310967107E-01  0.11782970685E+00  0.89133523229E+00  0.88000000000E+00 0.  1.
        -11    1    4    4    0    0  0.11637616549E-01  0.20097913951E-01 -0.41273035861E-01  0.47361216985E-01  0.51100000000E-03 0. -1.
         11    1    4    4    0    0  0.17451323189E-01  0.56187217184E-01 -0.57404686343E-01  0.82201649563E-01  0.51100000000E-03 0.  1.
</event>
<event>
 8    1  0.1213322E+005  0.1043930E+01  0.7957747E-01            NaN
         13   -1    0    0    0    0  0.00000000000E+00  0.00000000000E+00  0.74505805969E-08  0.10566000000E+00  0.10566000000E+00 0.  1.
     999900   -1    0    0    0    0 -0.00000000000E+00 -0.00000000000E+00 -0.74505805969E-08  0.93827000000E+00  0.93827000000E+00 0. -1.
     999902    2    1    2    0    0  0.86987157535E-02  0.11076568989E-01 -0.19331238775E-01  0.10200123323E+01  0.10197318781E+01 0.  0.
     999903    2    3    3    0    0 -0.79575159906E-01  0.10184064261E+00 -0.19313809731E-02  0.13078055753E+00  0.19902297215E-01 0.  0.
         14    1    1    2    0    0 -0.86987157535E-02 -0.11076568989E-01  0.19331238775E-01  0.23917667714E-01  0.00000000000E+00 0. -1.
     999901    1    3    3    0    0  0.88273875660E-01 -0.90764073619E-01 -0.17399857802E-01  0.88923177476E+00  0.88000000000E+00 0.  1.
        -11    1    4    4    0    0 -0.63147162723E-01  0.72655073380E-01  0.56827767865E-02  0.96430694910E-01  0.51100000000E-03 0. -1.
         11    1    4    4    0    0 -0.16427997183E-01  0.29185569228E-01 -0.76141577595E-02  0.34349862620E-01  0.51100000000E-03 0.  1.
</event>
<event>
 8    1  0.1213322E+005  0.1043930E+01  0.7957747E-01            NaN
         13   -1    0    0    0    0  0.00000000000E+00  0.00000000000E+00  0.74505805969E-08  0.10566000000E+00  0.10566000000E+00 0.  1.
     999900   -1    0    0    0    0 -0.00000000000E+00 -0.00000000000E+00 -0.74505805969E-08  0.93827000000E+00  0.93827000000E+00 0. -1.
     999902    2    1    2    0    0  0.22936903066E-01 -0.54913948380E-02  0.33029359854E-02  0.10201147459E+01  0.10198367166E+01 0.  0.
     999903    2    3    3    0    0  0.90128404510E-01  0.19343895249E-01 -0.92457493859E-01  0.13202604012E+00  0.19625786992E-01 0.  0.
         14    1    1    2    0    0 -0.22936903066E-01  0.54913948380E-02 -0.33029359854E-02  0.23815254054E-01  0.00000000000E+00 0. -1.
     999901    1    3    3    0    0 -0.67191501444E-01 -0.24835290087E-01  0.95760429844E-01  0.88808870583E+00  0.88000000000E+00 0.  1.
        -11    1    4    4    0    0  0.49818715305E-01  0.95810129616E-02 -0.64246952405E-01  0.81863497472E-01  0.51100000000E-03 0. -1.
         11    1    4    4    0    0  0.40309689205E-01  0.97628822870E-02 -0.28210541453E-01  0.50162542643E-01  0.51100000000E-03 0.  1.
</event>
<event>
 7    1  0.1213322E+005  0.1043930E+01  0.7957747E-01            NaN
         13   -1    0    0    0    0  0.00000000000E+00  0.00000000000E+00  0.74505805969E-08  0.10566000000E+00  0.10566000000E+00 0. -1.
     999900   -1    0    0    0    0 -0.00000000000E+00 -0.00000000000E+00 -0.74505805969E-08  0.93827000000E+00  0.93827000000E+00 0.  1.
     999903    2    1    2    0    0  0.47484416304E-01 -0.54782345365E-01  0.69507769952E-01  0.10240417486E+00  0.19985239280E-01 0.  0.
         14    1    1    2    0    0 -0.37869348163E-01  0.40428832383E-01  0.14771619256E-01  0.57330434793E-01  0.00000000000E+00 0.  1.
     999901    1    1    2    0    0 -0.96150681416E-02  0.14353512982E-01 -0.84279389208E-01  0.88419539035E+00  0.88000000000E+00 0.  1.
        -11    1    3    3    0    0  0.27248008149E-01 -0.17069229389E-01  0.33914141963E-01  0.46735882212E-01  0.51100000000E-03 0. -1.
         11    1    3    3    0    0  0.20236408155E-01 -0.37713115976E-01  0.35593627989E-01  0.55668292646E-01  0.51100000000E-03 0.  1.
</event>
<event>
 8    1  0.1213322E+005  0.1043930E+01  0.7957747E-01            NaN
         13   -1    0    0    0    0  0.00000000000E+00  0.00000000000E+00  0.74505805969E-08  0.10566000000E+00  0.10566000000E+00 0.  1.
     999900   -1    0    0    0    0 -0.00000000000E+00 -0.00000000000E+00 -0.74505805969E-08  0.93827000000E+00  0.93827000000E+00 0. -1.
     999902    2    1    2    0    0  0.25395863525E-02 -0.15256522469E-01 -0.16829734798E-01  0.10210728140E+01  0.10208169477E+01 0.  0.
     999903    2    3    3    0    0  0.11918978962E+00 -0.37792700987E-01  0.35556304360E-01  0.13154516053E+00  0.20134157083E-01 0.  0.
         14    1    1    2    0    0 -0.25395863525E-02  0.15256522469E-01  0.16829734798E-01  0.22857185961E-01  0.00000000000E+00 0.  1.
     999901    1    3    3    0    0 -0.11665020326E+00  0.22536178519E-01 -0.52386039158E-01  0.88952765351E+00  0.88000000000E+00 0.  1.
        -11    1    4    4    0    0  0.73921357726E-01 -0.30606757467E-01  0.15429184119E-01  0.81482891298E-01  0.51100000000E-03 0.  1.
         11    1    4    4    0    0  0.45268431891E-01 -0.71859435203E-02  0.20127120241E-01  0.50062269229E-01  0.51100000000E-03 0. -1.
</event>
<event>
 8    1  0.1213322E+005  0.1043930E+01  0.7957747E-01            NaN
         13   -1    0    0    0    0  0.00000000000E+00  0.00000000000E+00  0.74505805969E-08  0.10566000000E+00  0.10566000000E+00 0.  1.
     999900   -1    0    0    0    0 -0.00000000000E+00 -0.00000000000E+00 -0.74505805969E-08  0.93827000000E+00  0.93827000000E+00 0. -1.
     999902    2    1    2    0    0 -0.23048453569E-01  0.30000033702E-02 -0.14230065986E-02  0.10206436053E+01  0.10203779264E+01 0.  0.
     999903    2    3    3    0    0 -0.72827000862E-01 -0.21012799006E-01 -0.10693163507E+00  0.13261962522E+00  0.20205955484E-01 0.  0.
         14    1    1    2    0    0  0.23048453569E-01 -0.30000033702E-02  0.14230065986E-02  0.23286394739E-01  0.00000000000E+00 0. -1.
     999901    1    3    3    0    0  0.49778547293E-01  0.24012802376E-01  0.10550862847E+00  0.88802398004E+00  0.88000000000E+00 0.  1.
        -11    1    4    4    0    0 -0.17518054258E-01  0.79784003990E-03 -0.14716900966E-01  0.22899062617E-01  0.51100000000E-03 0.  1.
         11    1    4    4    0    0 -0.55308946605E-01 -0.21810639046E-01 -0.92214734107E-01  0.10972056260E+00  0.51100000000E-03 0. -1.
</event>
<event>
 8    1  0.1213322E+005  0.1043930E+01  0.7957747E-01            NaN
         13   -1    0    0    0    0  0.00000000000E+00  0.00000000000E+00  0.74505805969E-08  0.10566000000E+00  0.10566000000E+00 0. -1.
     999900   -1    0    0    0    0 -0.00000000000E+00 -0.00000000000E+00 -0.74505805969E-08  0.93827000000E+00  0.93827000000E+00 0.  1.
     999902    2    1    2    0    0 -0.74020014181E-02 -0.72230188918E-02 -0.21166679873E-01  0.10203717750E+01  0.10200997840E+01 0.  0.
     999903    2    3    3    0    0  0.13742858897E-01 -0.99593982163E-02 -0.13107501391E+00  0.13327852470E+00  0.17159548131E-01 0.  0.
         14    1    1    2    0    0  0.74020014181E-02  0.72230188918E-02  0.21166679873E-01  0.23558224970E-01  0.00000000000E+00 0. -1.
     999901    1    3    3    0    0 -0.21144860315E-01  0.27363793245E-02  0.10990833403E+00  0.88709325033E+00  0.88000000000E+00 0. -1.
        -11    1    4    4    0    0  0.15641885361E-01 -0.86890987011E-02 -0.73227849555E-01  0.75384004174E-01  0.51100000000E-03 0. -1.
         11    1    4    4    0    0 -0.18990264646E-02 -0.12702995152E-02 -0.57847164353E-01  0.57894520527E-01  0.51100000000E-03 0.  1.
</event>
<event>
 8    1  0.1213322E+005  0.1043930E+01  0.7957747E-01            NaN
         13   -1    0    0    0    0  0.00000000000E+00  0.00000000000E+00  0.74505805969E-08  0.10566000000E+00  0.10566000000E+00 0. -1.
     999900   -1    0    0    0    0 -0.00000000000E+00 -0.00000000000E+00 -0.74505805969E-08  0.93827000000E+00  0.93827000000E+00 0.  1.
     999902    2    1    2    0    0  0.19963607119E-01  0.59766627137E-02 -0.11674708385E-01  0.10200434992E+01  0.10197637841E+01 0.  0.
     999903    2    3    3    0    0 -0.20949719515E-01  0.12327338514E+00 -0.33594619027E-01  0.13104805268E+00  0.20242911106E-01 0.  0.
         14    1    1    2    0    0 -0.19963607119E-01 -0.59766627137E-02  0.11674708385E-01  0.23886500837E-01  0.00000000000E+00 0. -1.
     999901    1    3    3    0    0  0.40913326634E-01 -0.11729672243E+00  0.21919910642E-01  0.88899544649E+00  0.88000000000E+00 0. -1.
        -11    1    4    4    0    0 -0.19795083162E-01  0.58329470589E-01 -0.19126852664E-01  0.64500155584E-01  0.51100000000E-03 0.  1.
         11    1    4    4    0    0 -0.11546363538E-02  0.64943914556E-01 -0.14467766363E-01  0.66547897093E-01  0.51100000000E-03 0. -1.
</event>
<event>
 8    1  0.1213322E+005  0.1043930E+01  0.7957747E-01            NaN
         13   -1    0    0    0    0  0.00000000000E+00  0.00000000000E+00  0.74505805969E-08  0.10566000000E+00  0.10566000000E+00 0. -1.
     999900   -1    0    0    0    0 -0.00000000000E+00 -0.00000000000E+00 -0.74505805969E-08  0.93827000000E+00  0.93827000000E+00 0.  1.
     999902    2    1    2    0    0 -0.66761427368E-02 -0.15013744513E-01  0.17157129938E-01  0.10201739373E+01  0.10198973046E+01 0.  0.
     999903    2    3    3    0    0  0.85481534682E-01  0.90541406367E-01  0.27570183066E-01  0.12902672218E+00  0.19568878444E-01 0.  0.
         14    1    1    2    0    0  0.66761427368E-02  0.15013744513E-01 -0.17157129938E-01  0.23756062676E-01  0.00000000000E+00 0.  1.
     999901    1    3    3    0    0 -0.92157677418E-01 -0.10555515088E+00 -0.10413053128E-01  0.89114721514E+00  0.88000000000E+00 0. -1.
        -11    1    4    4    0    0  0.51112538700E-01  0.55063677682E-01  0.26334749565E-01  0.79613317780E-01  0.51100000000E-03 0. -1.
         11    1    4    4    0    0  0.34368995982E-01  0.35477728685E-01  0.12354335014E-02  0.49413404399E-01  0.51100000000E-03 0.  1.
</event>
<event>
 8    1  0.1213322E+005  0.1043930E+01  0.7957747E-01            NaN
         13   -1    0    0    0    0  0.00000000000E+00  0.00000000000E+00  0.74505805969E-08  0.10566000000E+00  0.10566000000E+00 0.  1.
     999900   -1    0    0    0    0 -0.00000000000E+00 -0.00000000000E+00 -0.74505805969E-08  0.93827000000E+00  0.93827000000E+00 0.  1.
     999902    2    1    2    0    0  0.31367638065E-02 -0.23201307663E-01 -0.19835681673E-02  0.10204337342E+01  0.10201631886E+01 0.  0.
     999903    2    3    3    0    0 -0.11793907446E+00  0.27825248340E-01 -0.41767605348E-01  0.12979023781E+00  0.20423105622E-01 0.  0.
         14    1    1    2    0    0 -0.31367638065E-02  0.23201307663E-01  0.19835681673E-02  0.23496265813E-01  0.00000000000E+00 0. -1.
     999901    1    3    3    0    0  0.12107583827E+00 -0.51026556003E-01  0.39784037181E-01  0.89064349638E+00  0.88000000000E+00 0. -1.
        -11    1    4    4    0    0 -0.30460938616E-01  0.15929497262E-01 -0.15249638543E-01  0.37608911990E-01  0.51100000000E-03 0.  1.
         11    1    4    4    0    0 -0.87478135846E-01  0.11895751078E-01 -0.26517966805E-01  0.92181325817E-01  0.51100000000E-03 0. -1.
</event>
<event>
 8    1  0.1213322E+005  0.1043930E+01  0.7957747E-01            NaN
         13   -1    0    0    0    0  0.00000000000E+00  0.00000000000E+00  0.74505805969E-08  0.10566000000E+00  0.10566000000E+00 0.  1.
     999900   -1    0    0    0    0 -0.00000000000E+00 -0.00000000000E+00 -0.74505805969E-08  0.93827000000E+00  0.93827000000E+00 0.  1.
     999902    2    1    2    0    0 -0.63579356546E-02 -0.16495302330E-01 -0.15583640020E-01  0.10203637491E+01  0.10200915706E+01 0.  0.
     999903    2    3    3    0    0 -0.71686119534E-01  0.99491330914E-01 -0.38457057391E-01  0.13005826001E+00  0.19969503570E-01 0.  0.
         14    1    1    2    0    0  0.63579356546E-02  0.16495302330E-01  0.15583640020E-01  0.23566250890E-01  0.00000000000E+00 0.  1.
     999901    1    3    3    0    0  0.65328183879E-01 -0.11598663324E+00  0.22873417371E-01  0.89030548910E+00  0.88000000000E+00 0.  1.
        -11    1    4    4    0    0 -0.32740207132E-01  0.57835834159E-01 -0.27805248296E-01  0.72043721654E-01  0.51100000000E-03 0. -1.
         11    1    4    4    0    0 -0.38945912402E-01  0.41655496754E-01 -0.10651809095E-01  0.58014538356E-01  0.51100000000E-03 0.  1.
</event>
<event>
 8    1  0.1213322E+005  0.1043930E+01  0.7957747E-01            NaN
         13   -1    0    0    0    0  0.00000000000E+00  0.00000000000E+00  0.74505805969E-08  0.10566000000E+00  0.10566000000E+00 0.  1.
     999900   -1    0    0    0    0 -0.00000000000E+00 -0.00000000000E+00 -0.74505805969E-08  0.93827000000E+00  0.93827000000E+00 0. -1.
     999902    2    1    2    0    0 -0.94723115445E-02  0.21381570203E-01  0.30337316406E-02  0.10203482325E+01  0.10200756912E+01 0.  0.
     999903    2    3    3    0    0 -0.59228982471E-01  0.88124367007E-01 -0.77163485883E-01  0.13278870159E+00  0.20116145042E-01 0.  0.
         14    1    1    2    0    0  0.94723115445E-02 -0.21381570203E-01 -0.30337316406E-02  0.23581767491E-01  0.00000000000E+00 0. -1.
     999901    1    3    3    0    0  0.49756670927E-01 -0.66742796804E-01  0.80197217523E-01  0.88755953092E+00  0.88000000000E+00 0.  1.
        -11    1    4    4    0    0 -0.37391438582E-01  0.54398027600E-01 -0.59597523584E-01  0.88934757122E-01  0.51100000000E-03 0.  1.
         11    1    4    4    0    0 -0.21837543889E-01  0.33726339407E-01 -0.17565962299E-01  0.43853944467E-01  0.51100000000E-03 0. -1.
</event>
<event>
 8    1  0.1213322E+005  0.1043930E+01  0.7957747E-01            NaN
         13   -1    0    0    0    0  0.00000000000E+00  0.00000000000E+00  0.74505805969E-08  0.10566000000E+00  0.10566000000E+00 0.  1.
     999900   -1    0    0    0    0 -0.00000000000E+00 -0.00000000000E+00 -0.74505805969E-08  0.93827000000E+00  0.93827000000E+00 0. -1.
     999902    2    1    2    0    0 -0.49419853660E-02  0.16486548130E-01 -0.80513193711E-02  0.10249285992E+01  0.10247524483E+01 0.  0.
     999903    2    3    3    0    0  0.77596550033E-01  0.86793490963E-01  0.65556560136E-01  0.13522426856E+00  0.20823198140E-01 0.  0.
         14    1    1    2    0    0  0.49419853660E-02 -0.16486548130E-01  0.80513193711E-02  0.19001400796E-01  0.00000000000E+00 0.  1.
     999901    1    3    3    0    0 -0.82538535399E-01 -0.70306942832E-01 -0.73607879507E-01  0.88970433064E+00  0.88000000000E+00 0. -1.
        -11    1    4    4    0    0  0.72299185683E-01  0.81108434410E-01  0.54118929979E-01  0.12138727316E+00  0.51100000000E-03 0.  1.
         11    1    4    4    0    0  0.52973643499E-02  0.56850565523E-02  0.11437630157E-01  0.13836995399E-01  0.51100000000E-03 0. -1.
</event>
<event>
 8    1  0.1213322E+005  0.1043930E+01  0.7957747E-01            NaN
         13   -1    0    0    0    0  0.00000000000E+00  0.00000000000E+00  0.74505805969E-08  0.10566000000E+00  0.10566000000E+00 0.  1.
     999900   -1    0    0    0    0 -0.00000000000E+00 -0.00000000000E+00 -0.74505805969E-08  0.93827000000E+00  0.93827000000E+00 0.  1.
     999902    2    1    2    0    0 -0.14543005878E-01 -0.13310082041E-01  0.12011149254E-01  0.10208448314E+01  0.10205837764E+01 0.  0.
     999903    2    3    3    0    0  0.18269223778E-01 -0.58753261268E-01 -0.11300863910E+00  0.13024297172E+00  0.20163554321E-01 0.  0.
         14    1    1    2    0    0  0.14543005878E-01  0.13310082041E-01 -0.12011149254E-01  0.23085168622E-01  0.00000000000E+00 0. -1.
     999901    1    3    3    0    0 -0.32812229656E-01  0.45443179227E-01  0.12501978836E+00  0.89060185966E+00  0.88000000000E+00 0. -1.
        -11    1    4    4    0    0 -0.99672506073E-03 -0.24361514108E-01 -0.54308122657E-01  0.59532429297E-01  0.51100000000E-03 0.  1.
         11    1    4    4    0    0  0.19265948839E-01 -0.34391747160E-01 -0.58700516444E-01  0.70710542419E-01  0.51100000000E-03 0. -1.
</event>
<event>
 8    1  0.1213322E+005  0.1043930E+01  0.7957747E-01            NaN
         13   -1    0    0    0    0  0.00000000000E+00  0.00000000000E+00  0.74505805969E-08  0.10566000000E+00  0.10566000000E+00 0.  1.
     999900   -1    0    0    0    0 -0.00000000000E+00 -0.00000000000E+00 -0.74505805969E-08  0.93827000000E+00  0.93827000000E+00 0. -1.
     999902    2    1    2    0    0 -0.20058391960E-01  0.10297200051E-01  0.20131309261E-02  0.10212932133E+01  0.10210423122E+01 0.  0.
     999903    2    3    3    0    0 -0.51453728325E-01 -0.70986891908E-01 -0.95970993764E-01  0.13157771974E+00  0.20387243733E-01 0.  0.
         14    1    1    2    0    0  0.20058391960E-01 -0.10297200051E-01 -0.20131309261E-02  0.22636786721E-01  0.00000000000E+00 0.  1.
     999901    1    3    3    0    0  0.31395336365E-01  0.81284091959E-01  0.97984124690E-01  0.88971549354E+00  0.88000000000E+00 0.  1.
        -11    1    4    4    0    0 -0.39193628410E-01 -0.37525488922E-01 -0.54744273797E-01  0.77081122600E-01  0.51100000000E-03 0.  1.
         11    1    4    4    0    0 -0.12260099915E-01 -0.33461402986E-01 -0.41226719966E-01  0.54496597141E-01  0.51100000000E-03 0. -1.
</event>
<event>
 8    1  0.1213322E+005  0.1043930E+01  0.7957747E-01            NaN
         13   -1    0    0    0    0  0.00000000000E+00  0.00000000000E+00  0.74505805969E-08  0.10566000000E+00  0.10566000000E+00 0. -1.
     999900   -1    0    0    0    0 -0.00000000000E+00 -0.00000000000E+00 -0.74505805969E-08  0.93827000000E+00  0.93827000000E+00 0. -1.
     999902    2    1    2    0    0  0.34040879105E-02  0.25049653030E-01  0.23870181678E-02  0.10185376628E+01  0.10182210957E+01 0.  0.
     999903    2    3    3    0    0  0.20139928651E-02  0.97921440067E-01  0.85559511871E-01  0.13161608037E+00  0.20240996748E-01 0.  0.
         14    1    1    2    0    0 -0.34040879105E-02 -0.25049653030E-01 -0.23870181678E-02  0.25392337174E-01  0.00000000000E+00 0.  1.
     999901    1    3    3    0    0  0.13900950454E-02 -0.72871787037E-01 -0.83172493703E-01  0.88692158245E+00  0.88000000000E+00 0. -1.
        -11    1    4    4    0    0 -0.46030194947E-02  0.87596358789E-01  0.75887287306E-01  0.11598901395E+00  0.51100000000E-03 0.  1.
         11    1    4    4    0    0  0.66170123598E-02  0.10325081278E-01  0.96722245653E-02  0.15627066424E-01  0.51100000000E-03 0. -1.
</event>
<event>
 8    1  0.1213322E+005  0.1043930E+01  0.7957747E-01            NaN
         13   -1    0    0    0    0  0.00000000000E+00  0.00000000000E+00  0.74505805969E-08  0.10566000000E+00  0.10566000000E+00 0.  1.
     999900   -1    0    0    0    0 -0.00000000000E+00 -0.00000000000E+00 -0.74505805969E-08  0.93827000000E+00  0.93827000000E+00 0. -1.
     999902    2    1    2    0    0 -0.21891980616E-01  0.98272934167E-02 -0.98983826752E-03  0.10199130416E+01  0.10196302262E+01 0.  0.
     999903    2    3    3    0    0 -0.69644191100E-01  0.59182462044E-01 -0.93812500005E-01  0.13237022414E+00  0.19188900842E-01 0.  0.
         14    1    1    2    0    0  0.21891980616E-01 -0.98272934167E-02  0.98983826752E-03  0.24016958404E-01  0.00000000000E+00 0.  1.
     999901    1    3    3    0    0  0.47752210483E-01 -0.49355168627E-01  0.92822661738E-01  0.88754281745E+00  0.88000000000E+00 0. -1.
        -11    1    4    4    0    0 -0.56011425455E-01  0.47887131161E-01 -0.85283834806E-01  0.11271224739E+00  0.51100000000E-03 0.  1.
         11    1    4    4    0    0 -0.13632765645E-01  0.11295330882E-01 -0.85286651990E-02  0.19657976751E-01  0.51100000000E-03 0. -1.
</event>
<event>
 8    1  0.1213322E+005  0.1043930E+01  0.7957747E-01            NaN
         13   -1    0    0    0    0  0.00000000000E+00  0.00000000000E+00  0.74505805969E-08  0.10566000000E+00  0.10566000000E+00 0. -1.
     999900   -1    0    0    0    0 -0.00000000000E+00 -0.00000000000E+00 -0.74505805969E-08  0.93827000000E+00  0.93827000000E+00 0. -1.
     999902    2    1    2    0    0  0.19650532469E-01  0.13115238000E-01 -0.22728726006E-02  0.10201956611E+01  0.10199195400E+01 0.  0.
     999903    2    3    3    0    0 -0.43609119109E-01  0.10122548055E+00 -0.68227950982E-01  0.13108640417E+00  0.19499714914E-01 0.  0.
         14    1    1    2    0    0 -0.19650532469E-01 -0.13115238000E-01  0.22728726006E-02  0.23734338920E-01  0.00000000000E+00 0. -1.
     999901    1    3    3    0    0  0.63259651579E-01 -0.88110242546E-01  0.65955078382E-01  0.88910925691E+00  0.88000000000E+00 0.  1.
        -11    1    4    4    0    0 -0.11658100256E-01  0.11653265303E-01 -0.13851506352E-01  0.21536834563E-01  0.51100000000E-03 0.  1.
         11    1    4    4    0    0 -0.31951018854E-01  0.89572215243E-01 -0.54376444630E-01  0.10954956961E+00  0.51100000000E-03 0. -1.
</event>
<event>
 8    1  0.1213322E+005  0.1043930E+01  0.7957747E-01            NaN
         13   -1    0    0    0    0  0.00000000000E+00  0.00000000000E+00  0.74505805969E-08  0.10566000000E+00  0.10566000000E+00 0.  1.
     999900   -1    0    0    0    0 -0.00000000000E+00 -0.00000000000E+00 -0.74505805969E-08  0.93827000000E+00  0.93827000000E+00 0.  1.
     999902    2    1    2    0    0  0.18963261053E-01 -0.48652389867E-02  0.12984991020E-01  0.10204377500E+01  0.10201672979E+01 0.  0.
     999903    2    3    3    0    0 -0.10345907439E+00  0.57953780747E-01 -0.43777768059E-01  0.12793818790E+00  0.19729829487E-01 0.  0.
         14    1    1    2    0    0 -0.18963261053E-01  0.48652389867E-02 -0.12984991020E-01  0.23492250040E-01  0.00000000000E+00 0. -1.
     999901    1    3    3    0    0  0.12242233544E+00 -0.62819019734E-01  0.56762759079E-01  0.89249956206E+00  0.88000000000E+00 0. -1.
        -11    1    4    4    0    0 -0.40115067209E-01  0.25654472944E-01 -0.27513038062E-01  0.54996354276E-01  0.51100000000E-03 0.  1.
         11    1    4    4    0    0 -0.63344007178E-01  0.32299307803E-01 -0.16264729997E-01  0.72941833627E-01  0.51100000000E-03 0. -1.
</event>
<event>
 8    1  0.1213322E+005  0.1043930E+01  0.7957747E-01            NaN
         13   -1    0    0    0    0  0.00000000000E+00  0.00000000000E+00  0.74505805969E-08  0.10566000000E+00  0.10566000000E+00 0. -1.
     999900   -1    0    0    0    0 -0.00000000000E+00 -0.00000000000E+00 -0.74505805969E-08  0.93827000000E+00  0.93827000000E+00 0. -1.
     999902    2    1    2    0    0  0.12656622911E-02  0.77258360380E-02  0.22368769369E-01  0.10202307957E+01  0.10199555010E+01 0.  0.
     999903    2    3    3    0    0  0.20379958169E-01  0.12257571553E+00 -0.34682212826E-01  0.13073056199E+00  0.21153610049E-01 0.  0.
         14    1    1    2    0    0 -0.12656622911E-02 -0.77258360380E-02 -0.22368769369E-01  0.23699204345E-01  0.00000000000E+00 0.  1.
     999901    1    3    3    0    0 -0.19114295878E-01 -0.11484987949E+00  0.57050982195E-01  0.88950023367E+00  0.88000000000E+00 0.  1.
        -11    1    4    4    0    0  0.84386755664E-02  0.82524138092E-01 -0.31772678234E-01  0.88832476135E-01  0.51100000000E-03 0. -1.
         11    1    4    4    0    0  0.11941282603E-01  0.40051577438E-01 -0.29095345925E-02  0.41898085852E-01  0.51100000000E-03 0.  1.
</event>
<event>
 8    1  0.1213322E+005  0.1043930E+01  0.7957747E-01            NaN
         13   -1    0    0    0    0  0.00000000000E+00  0.00000000000E+00  0.74505805969E-08  0.10566000000E+00  0.10566000000E+00 0. -1.
     999900   -1    0    0    0    0 -0.00000000000E+00 -0.00000000000E+00 -0.74505805969E-08  0.93827000000E+00  0.93827000000E+00 0. -1.
     999902    2    1    2    0    0  0.47851373907E-02  0.24221822701E-01 -0.42494025671E-03  0.10192363812E+01  0.10189372041E+01 0.  0.
     999903    2    3    3    0    0  0.10576370641E+00 -0.25226766270E-01  0.67448021634E-01  0.12949002785E+00  0.19901767767E-01 0.  0.
         14    1    1    2    0    0 -0.47851373907E-02 -0.24221822701E-01  0.42494025671E-03  0.24693618791E-01  0.00000000000E+00 0. -1.
     999901    1    3    3    0    0 -0.10097856902E+00  0.49448588971E-01 -0.67872961891E-01  0.88974635336E+00  0.88000000000E+00 0. -1.
        -11    1    4    4    0    0  0.38157043010E-01  0.28075571972E-03  0.26142399332E-01  0.46257160731E-01  0.51100000000E-03 0.  1.
         11    1    4    4    0    0  0.67606663403E-01 -0.25507521990E-01  0.41305622303E-01  0.83232867122E-01  0.51100000000E-03 0. -1.
</event>
<event>
 8    1  0.1213322E+005  0.1043930E+01  0.7957747E-01            NaN
         13   -1    0    0    0    0  0.00000000000E+00  0.00000000000E+00  0.74505805969E-08  0.10566000000E+00  0.10566000000E+00 0.  1.
     999900   -1    0    0    0    0 -0.00000000000E+00 -0.00000000000E+00 -0.74505805969E-08  0.93827000000E+00  0.93827000000E+00 0. -1.
     999902    2    1    2    0    0 -0.20647409532E-02  0.14845044935E-01  0.56923140461E-02  0.10278975032E+01  0.10277724632E+01 0.  0.
     999903    2    3    3    0    0 -0.26431430044E-02  0.90919334622E-01 -0.10163401669E+00  0.13811855685E+00  0.21770410777E-01 0.  0.
         14    1    1    2    0    0  0.20647409532E-02 -0.14845044935E-01 -0.56923140461E-02  0.16032496797E-01  0.00000000000E+00 0. -1.
     999901    1    3    3    0    0  0.57840205122E-03 -0.76074289687E-01  0.10732633074E+00  0.88977894635E+00  0.88000000000E+00 0.  1.
        -11    1    4    4    0    0 -0.62002938315E-02  0.78422577146E-01 -0.76043966850E-01  0.10941430558E+00  0.51100000000E-03 0. -1.
         11    1    4    4    0    0  0.35571508271E-02  0.12496757476E-01 -0.25590049840E-01  0.28704251275E-01  0.51100000000E-03 0.  1.
</event>
<event>
 8    1  0.1213322E+005  0.1043930E+01  0.7957747E-01            NaN
         13   -1    0    0    0    0  0.00000000000E+00  0.00000000000E+00  0.74505805969E-08  0.10566000000E+00  0.10566000000E+00 0.  1.
     999900   -1    0    0    0    0 -0.00000000000E+00 -0.00000000000E+00 -0.74505805969E-08  0.93827000000E+00  0.93827000000E+00 0. -1.
     999902    2    1    2    0    0 -0.66267169689E-02 -0.15966554096E-02  0.17838523594E-01  0.10248335184E+01  0.10246555835E+01 0.  0.
     999903    2    3    3    0    0  0.31295387370E-02 -0.39533544156E-01  0.12951189273E+00  0.13691159984E+00  0.19968993082E-01 0.  0.
         14    1    1    2    0    0  0.66267169689E-02  0.15966554096E-02 -0.17838523594E-01  0.19096481621E-01  0.00000000000E+00 0. -1.
     999901    1    3    3    0    0 -0.97562557059E-02  0.37936888746E-01 -0.11167336914E+00  0.88792191854E+00  0.88000000000E+00 0. -1.
        -11    1    4    4    0    0  0.98217895173E-02 -0.22151977524E-01  0.90329981005E-01  0.93525099556E-01  0.51100000000E-03 0.  1.
         11    1    4    4    0    0 -0.66922507803E-02 -0.17381566632E-01  0.39181911727E-01  0.43386500281E-01  0.51100000000E-03 0. -1.
</event>
<event>
 8    1  0.1213322E+005  0.1043930E+01  0.7957747E-01            NaN
         13   -1    0    0    0    0  0.00000000000E+00  0.00000000000E+00  0.74505805969E-08  0.10566000000E+00  0.10566000000E+00 0.  1.
     999900   -1    0    0    0    0 -0.00000000000E+00 -0.00000000000E+00 -0.74505805969E-08  0.93827000000E+00  0.93827000000E+00 0. -1.
     999902    2    1    2    0    0  0.15999117572E-01  0.15286817452E-02 -0.17179865693E-01  0.10204043456E+01  0.10201331149E+01 0.  0.
     999903    2    3    3    0    0 -0.26103270445E-01  0.49004012628E-01  0.11406353489E+00  0.12841143735E+00  0.19905609031E-01 0.  0.
         14    1    1    2    0    0 -0.15999117572E-01 -0.15286817452E-02  0.17179865693E-01  0.23525654426E-01  0.00000000000E+00 0.  1.
     999901    1    3    3    0    0  0.42102388017E-01 -0.47475330883E-01 -0.13124340058E+00  0.89199290822E+00  0.88000000000E+00 0. -1.
        -11    1    4    4    0    0 -0.15044456720E-01  0.21867274260E-01  0.33897318508E-01  0.43055808952E-01  0.51100000000E-03 0.  1.
         11    1    4    4    0    0 -0.11058813725E-01  0.27136738368E-01  0.80166216379E-01  0.85355628401E-01  0.51100000000E-03 0. -1.
</event>
<event>
 8    1  0.1213322E+005  0.1043930E+01  0.7957747E-01            NaN
         13   -1    0    0    0    0  0.00000000000E+00  0.00000000000E+00  0.74505805969E-08  0.10566000000E+00  0.10566000000E+00 0.  1.
     999900   -1    0    0    0    0 -0.00000000000E+00 -0.00000000000E+00 -0.74505805969E-08  0.93827000000E+00  0.93827000000E+00 0.  1.
     999902    2    1    2    0    0 -0.46730693582E-02  0.40857977652E-02  0.23183219635E-01  0.10199301460E+01  0.10196477380E+01 0.  0.
     999903    2    3    3    0    0 -0.52885431052E-01 -0.11213506803E+00 -0.30161949301E-01  0.12938119813E+00  0.21415156865E-01 0.  0.
         14    1    1    2    0    0  0.46730693582E-02 -0.40857977652E-02 -0.23183219635E-01  0.23999854025E-01  0.00000000000E+00 0. -1.
     999901    1    3    3    0    0  0.48212361694E-01  0.11622086579E+00  0.53345168935E-01  0.89054894785E+00  0.88000000000E+00 0.  1.
        -11    1    4    4    0    0 -0.26330532904E-01 -0.54858366097E-01 -0.38229699544E-02  0.60972235600E-01  0.51100000000E-03 0.  1.
         11    1    4    4    0    0 -0.26554898148E-01 -0.57276701932E-01 -0.26338979346E-01  0.68408962526E-01  0.51100000000E-03 0. -1.
</event>
<event>
 8    1  0.1213322E+005  0.1043930E+01  0.7957747E-01            NaN
         13   -1    0    0    0    0  0.00000000000E+00  0.00000000000E+00  0.74505805969E-08  0.10566000000E+00  0.10566000000E+00 0. -1.
     999900   -1    0    0    0    0 -0.00000000000E+00 -0.00000000000E+00 -0.74505805969E-08  0.93827000000E+00  0.93827000000E+00 0. -1.
     999902    2    1    2    0    0  0.15275933537E-01 -0.90405880976E-02 -0.15063331461E-01  0.10206493142E+01  0.10203837671E+01 0.  0.
     999903    2    3    3    0    0 -0.56528640190E-01 -0.31439752079E-01  0.10939355658E+00  0.12871482310E+00  0.20411033620E-01 0.  0.
         14    1    1    2    0    0 -0.15275933537E-01  0.90405880976E-02  0.15063331461E-01  0.23280685842E-01  0.00000000000E+00 0.  1.
     999901    1    3    3    0    0  0.71804573727E-01  0.22399163981E-01 -0.12445688804E+00  0.89193449106E+00  0.88000000000E+00 0. -1.
        -11    1    4    4    0    0 -0.34602014309E-01 -0.13186729916E-01  0.44977343910E-01  0.58261581049E-01  0.51100000000E-03 0.  1.
         11    1    4    4    0    0 -0.21926625880E-01 -0.18253022163E-01  0.64416212665E-01  0.70453242053E-01  0.51100000000E-03 0. -1.
</event>
<event>
 8    1  0.1213322E+005  0.1043930E+01  0.7957747E-01            NaN
         13   -1    0    0    0    0  0.00000000000E+00  0.00000000000E+00  0.74505805969E-08  0.10566000000E+00  0.10566000000E+00 0. -1.
     999900   -1    0    0    0    0 -0.00000000000E+00 -0.00000000000E+00 -0.74505805969E-08  0.93827000000E+00  0.93827000000E+00 0.  1.
     999902    2    1    2    0    0  0.75684950318E-02 -0.16037526209E-01  0.16313294157E-01  0.10198341927E+01  0.10195494949E+01 0.  0.
     999903    2    3    3    0    0  0.22862726070E-01  0.62438737470E-01 -0.10710368891E+00  0.12763231577E+00  0.19937594368E-01 0.  0.
         14    1    1    2    0    0 -0.75684950318E-02  0.16037526209E-01 -0.16313294157E-01  0.24095807316E-01  0.00000000000E+00 0.  1.
     999901    1    3    3    0    0 -0.15294231038E-01 -0.78476263679E-01  0.12341698307E+00  0.89220187692E+00  0.88000000000E+00 0. -1.
        -11    1    4    4    0    0  0.53553861608E-02  0.39482171667E-01 -0.53033423031E-01  0.66334961520E-01  0.51100000000E-03 0. -1.
         11    1    4    4    0    0  0.17507339909E-01  0.22956565803E-01 -0.54070265882E-01  0.61297354247E-01  0.51100000000E-03 0.  1.
</event>
<event>
 8    1  0.1213322E+005  0.1043930E+01  0.7957747E-01            NaN
         13   -1    0    0    0    0  0.00000000000E+00  0.00000000000E+00  0.74505805969E-08  0.10566000000E+00  0.10566000000E+00 0.  1.
     999900   -1    0    0    0    0 -0.00000000000E+00 -0.00000000000E+00 -0.74505805969E-08  0.93827000000E+00  0.93827000000E+00 0. -1.
     999902    2    1    2    0    0 -0.30553564769E-02 -0.12182790612E-01 -0.19803989645E-01  0.10204789106E+01  0.10202094164E+01 0.  0.
     999903    2    3    3    0    0 -0.45475553025E-01 -0.11425682040E+00 -0.47415708903E-01  0.13313400147E+00  0.18808667359E-01 0.  0.
         14    1    1    2    0    0  0.30553564769E-02  0.12182790612E-01  0.19803989645E-01  0.23451089444E-01  0.00000000000E+00 0.  1.
     999901    1    3    3    0    0  0.42420196548E-01  0.10207402978E+00  0.27611719259E-01  0.88734490908E+00  0.88000000000E+00 0. -1.
        -11    1    4    4    0    0 -0.48627546721E-02 -0.29984759264E-01 -0.16718537222E-01  0.34677121838E-01  0.51100000000E-03 0. -1.
         11    1    4    4    0    0 -0.40612798353E-01 -0.84272061132E-01 -0.30697171681E-01  0.98456879636E-01  0.51100000000E-03 0.  1.
</event>
<event>
 8    1  0.1213322E+005  0.1043930E+01  0.7957747E-01            NaN
         13   -1    0    0    0    0  0.00000000000E+00  0.00000000000E+00  0.74505805969E-08  0.10566000000E+00  0.10566000000E+00 0.  1.
     999900   -1    0    0    0    0 -0.00000000000E+00 -0.00000000000E+00 -0.74505805969E-08  0.93827000000E+00  0.93827000000E+00 0.  1.
     999902    2    1    2    0    0 -0.12695802851E-01 -0.17675971313E-01 -0.16039523695E-02  0.10221080836E+01  0.10218751091E+01 0.  0.
     999903    2    3    3    0    0 -0.11024085379E+00 -0.46668203558E-01  0.57221099809E-01  0.13429280256E+00  0.20720412341E-01 0.  0.
         14    1    1    2    0    0  0.12695802851E-01  0.17675971313E-01  0.16039523695E-02  0.21821916394E-01  0.00000000000E+00 0. -1.
     999901    1    3    3    0    0  0.97545050943E-01  0.28992232246E-01 -0.58825052178E-01  0.88781528105E+00  0.88000000000E+00 0.  1.
        -11    1    4    4    0    0 -0.77983980758E-01 -0.35858371537E-01  0.30721542820E-01  0.91166871057E-01  0.51100000000E-03 0.  1.
         11    1    4    4    0    0 -0.32256873037E-01 -0.10809832021E-01  0.26499556989E-01  0.43125931504E-01  0.51100000000E-03 0. -1.
</event>
<event>
 8    1  0.1213322E+005  0.1043930E+01  0.7957747E-01            NaN
         13   -1    0    0    0    0  0.00000000000E+00  0.00000000000E+00  0.74505805969E-08  0.10566000000E+00  0.10566000000E+00 0. -1.
     999900   -1    0    0    0    0 -0.00000000000E+00 -0.00000000000E+00 -0.74505805969E-08  0.93827000000E+00  0.93827000000E+00 0. -1.
     999902    2    1    2    0    0  0.30300723554E-02 -0.40855169524E-02  0.21964496904E-01  0.10213842263E+01  0.10211353612E+01 0.  0.
     999903    2    3    3    0    0  0.12066499906E+00  0.22509040429E-01 -0.42316592038E-01  0.13083534788E+00  0.16139869706E-01 0.  0.
         14    1    1    2    0    0 -0.30300723554E-02  0.40855169524E-02 -0.21964496904E-01  0.22545773695E-01  0.00000000000E+00 0.  1.
     999901    1    3    3    0    0 -0.11763492671E+00 -0.26594557382E-01  0.64281088943E-01  0.89054887842E+00  0.88000000000E+00 0. -1.
        -11    1    4    4    0    0  0.87178856520E-01  0.88579702640E-02 -0.30648640726E-01  0.92834352266E-01  0.51100000000E-03 0.  1.
         11    1    4    4    0    0  0.33486142542E-01  0.13651070165E-01 -0.11667951312E-01  0.38000995616E-01  0.51100000000E-03 0. -1.
</event>
<event>
 8    1  0.1213322E+005  0.1043930E+01  0.7957747E-01            NaN
         13   -1    0    0    0    0  0.00000000000E+00  0.00000000000E+00  0.74505805969E-08  0.10566000000E+00  0.10566000000E+00 0. -1.
     999900   -1    0    0    0    0 -0.00000000000E+00 -0.00000000000E+00 -0.74505805969E-08  0.93827000000E+00  0.93827000000E+00 0.  1.
     999902    2    1    2    0    0 -0.35579134867E-02  0.39436236678E-02  0.22490870768E-01  0.10208204742E+01  0.10205588618E+01 0.  0.
     999903    2    3    3    0    0  0.10124912559E+00  0.28327700030E-01 -0.72313713949E-01  0.12921125041E+00  0.20308372294E-01 0.  0.
         14    1    1    2    0    0  0.35579134867E-02 -0.39436236678E-02 -0.22490870768E-01  0.23109525826E-01  0.00000000000E+00 0.  1.
     999901    1    3    3    0    0 -0.10480703908E+00 -0.24384076362E-01  0.94804584717E-01  0.89160922377E+00  0.88000000000E+00 0. -1.
        -11    1    4    4    0    0  0.50034128546E-01  0.17935583182E-01 -0.25104219927E-01  0.58784199770E-01  0.51100000000E-03 0. -1.
         11    1    4    4    0    0  0.51214997044E-01  0.10392116848E-01 -0.47209494023E-01  0.70427050639E-01  0.51100000000E-03 0.  1.
</event>
<event>
 8    1  0.1213322E+005  0.1043930E+01  0.7957747E-01            NaN
         13   -1    0    0    0    0  0.00000000000E+00  0.00000000000E+00  0.74505805969E-08  0.10566000000E+00  0.10566000000E+00 0. -1.
     999900   -1    0    0    0    0 -0.00000000000E+00 -0.00000000000E+00 -0.74505805969E-08  0.93827000000E+00  0.93827000000E+00 0.  1.
     999902    2    1    2    0    0  0.83788908365E-02  0.84313149394E-02 -0.21352914187E-01  0.10194915093E+01  0.10191985566E+01 0.  0.
     999903    2    3    3    0    0  0.12753791687E+00 -0.15380261443E-01 -0.19302632400E-01  0.13113906331E+00  0.17955211673E-01 0.  0.
         14    1    1    2    0    0 -0.83788908365E-02 -0.84313149394E-02  0.21352914187E-01  0.24438490697E-01  0.00000000000E+00 0.  1.
     999901    1    3    3    0    0 -0.11915902603E+00  0.23811576382E-01 -0.20502817876E-02  0.88835244600E+00  0.88000000000E+00 0.  1.
        -11    1    4    4    0    0  0.72632295890E-01 -0.25294261826E-02 -0.17315155363E-01  0.74712275627E-01  0.51100000000E-03 0. -1.
         11    1    4    4    0    0  0.54905620977E-01 -0.12850835260E-01 -0.19874770365E-02  0.56426787679E-01  0.51100000000E-03 0.  1.
</event>
<event>
 8    1  0.1213322E+005  0.1043930E+01  0.7957747E-01            NaN
         13   -1    0    0    0    0  0.00000000000E+00  0.00000000000E+00  0.74505805969E-08  0.10566000000E+00  0.10566000000E+00 0.  1.
     999900   -1    0    0    0    0 -0.00000000000E+00 -0.00000000000E+00 -0.74505805969E-08  0.93827000000E+00  0.93827000000E+00 0. -1.
     999902    2    1    2    0    0 -0.20401152517E-01  0.95321677900E-02 -0.91076515484E-02  0.10196397023E+01  0.10193503342E+01 0.  0.
     999903    2    3    3    0    0  0.11643930544E-01 -0.79610701541E-01 -0.99816846407E-01  0.12991980448E+00  0.21031116263E-01 0.  0.
         14    1    1    2    0    0  0.20401152517E-01 -0.95321677900E-02  0.91076515484E-02  0.24290297724E-01  0.00000000000E+00 0. -1.
     999901    1    3    3    0    0 -0.32045083061E-01  0.89142869331E-01  0.90709194859E-01  0.88971989780E+00  0.88000000000E+00 0.  1.
        -11    1    4    4    0    0 -0.21582154473E-02 -0.35330380562E-01 -0.55093417399E-01  0.65486177520E-01  0.51100000000E-03 0. -1.
         11    1    4    4    0    0  0.13802145992E-01 -0.44280320979E-01 -0.44723429009E-01  0.64433626960E-01  0.51100000000E-03 0.  1.
</event>
<event>
 8    1  0.1213322E+005  0.1043930E+01  0.7957747E-01            NaN
         13   -1    0    0    0    0  0.00000000000E+00  0.00000000000E+00  0.74505805969E-08  0.10566000000E+00  0.10566000000E+00 0. -1.
     999900   -1    0    0    0    0 -0.00000000000E+00 -0.00000000000E+00 -0.74505805969E-08  0.93827000000E+00  0.93827000000E+00 0. -1.
     999902    2    1    2    0    0  0.17619864543E-01  0.14048947658E-01  0.11549709044E-01  0.10186075132E+01  0.10182927073E+01 0.  0.
     999903    2    3    3    0    0  0.42685236606E-01  0.71652507474E-01  0.10022244795E+00  0.13192307241E+00  0.20076023235E-01 0.  0.
         14    1    1    2    0    0 -0.17619864543E-01 -0.14048947658E-01 -0.11549709044E-01  0.25322486762E-01  0.00000000000E+00 0.  1.
     999901    1    3    3    0    0 -0.25065372063E-01 -0.57603559817E-01 -0.88672738910E-01  0.88668444083E+00  0.88000000000E+00 0. -1.
        -11    1    4    4    0    0  0.99150666149E-02  0.22797219863E-01  0.17465058216E-01  0.30386035591E-01  0.51100000000E-03 0. -1.
         11    1    4    4    0    0  0.32770169991E-01  0.48855287611E-01  0.82757389739E-01  0.10153703682E+00  0.51100000000E-03 0.  1.
</event>
<event>
 8    1  0.1213322E+005  0.1043930E+01  0.7957747E-01            NaN
         13   -1    0    0    0    0  0.00000000000E+00  0.00000000000E+00  0.74505805969E-08  0.10566000000E+00  0.10566000000E+00 0. -1.
     999900   -1    0    0    0    0 -0.00000000000E+00 -0.00000000000E+00 -0.74505805969E-08  0.93827000000E+00  0.93827000000E+00 0.  1.
     999902    2    1    2    0    0  0.21011162450E-01  0.66097528398E-02 -0.66725810839E-02  0.10209151978E+01  0.10206557500E+01 0.  0.
     999903    2    3    3    0    0  0.11221707724E+00  0.50083179070E-01 -0.49508495328E-01  0.13409877195E+00  0.20745897885E-01 0.  0.
         14    1    1    2    0    0 -0.21011162450E-01 -0.66097528398E-02  0.66725810839E-02  0.23014802159E-01  0.00000000000E+00 0.  1.
     999901    1    3    3    0    0 -0.91205914788E-01 -0.43473426231E-01  0.42835914245E-01  0.88681642589E+00  0.88000000000E+00 0. -1.
        -11    1    4    4    0    0  0.60328859260E-01  0.36119083200E-01 -0.21674924994E-01  0.73581403393E-01  0.51100000000E-03 0.  1.
         11    1    4    4    0    0  0.51888217979E-01  0.13964095870E-01 -0.27833570335E-01  0.60517368557E-01  0.51100000000E-03 0. -1.
</event>
<event>
 8    1  0.1213322E+005  0.1043930E+01  0.7957747E-01            NaN
         13   -1    0    0    0    0  0.00000000000E+00  0.00000000000E+00  0.74505805969E-08  0.10566000000E+00  0.10566000000E+00 0. -1.
     999900   -1    0    0    0    0 -0.00000000000E+00 -0.00000000000E+00 -0.74505805969E-08  0.93827000000E+00  0.93827000000E+00 0.  1.
     999902    2    1    2    0    0  0.20219266618E-01  0.10541251572E-01 -0.77096980080E-02  0.10198597659E+01  0.10195756793E+01 0.  0.
     999903    2    3    3    0    0  0.11791045687E+00 -0.24070960470E-01  0.49948335121E-01  0.13190367312E+00  0.20529389320E-01 0.  0.
         14    1    1    2    0    0 -0.20219266618E-01 -0.10541251572E-01  0.77096980080E-02  0.24070234121E-01  0.00000000000E+00 0. -1.
     999901    1    3    3    0    0 -0.97691190249E-01  0.34612212042E-01 -0.57658033129E-01  0.88795609275E+00  0.88000000000E+00 0. -1.
        -11    1    4    4    0    0  0.78014749265E-01 -0.21980978436E-01  0.41525112504E-01  0.91071733295E-01  0.51100000000E-03 0.  1.
         11    1    4    4    0    0  0.39895707603E-01 -0.20899820339E-02  0.84232226165E-02  0.40831939830E-01  0.51100000000E-03 0. -1.
</event>
<event>
 8    1  0.1213322E+005  0.1043930E+01  0.7957747E-01            NaN
         13   -1    0    0    0    0  0.00000000000E+00  0.00000000000E+00  0.74505805969E-08  0.10566000000E+00  0.10566000000E+00 0.  1.
     999900   -1    0    0    0    0 -0.00000000000E+00 -0.00000000000E+00 -0.74505805969E-08  0.93827000000E+00  0.93827000000E+00 0. -1.
     999902    2    1    2    0    0 -0.55572781443E-02 -0.30736826414E-02 -0.22983369806E-01  0.10200853748E+01  0.10198066511E+01 0.  0.
     999903    2    3    3    0    0 -0.39594729344E-01 -0.98403149149E-01 -0.76821270453E-01  0.13264817990E+00  0.21050170606E-01 0.  0.
         14    1    1    2    0    0  0.55572781443E-02  0.30736826414E-02  0.22983369806E-01  0.23844625243E-01  0.00000000000E+00 0.  1.
     999901    1    3    3    0    0  0.34037451200E-01  0.95329466508E-01  0.53837900647E-01  0.88743719486E+00  0.88000000000E+00 0.  1.
        -11    1    4    4    0    0 -0.19551437022E-01 -0.45499294351E-01 -0.23163650287E-01  0.54674128175E-01  0.51100000000E-03 0. -1.
         11    1    4    4    0    0 -0.20043292322E-01 -0.52903854799E-01 -0.53657620166E-01  0.77974051726E-01  0.51100000000E-03 0.  1.
</event>
<event>
 8    1  0.1213322E+005  0.1043930E+01  0.7957747E-01            NaN
         13   -1    0    0    0    0  0.00000000000E+00  0.00000000000E+00  0.74505805969E-08  0.10566000000E+00  0.10566000000E+00 0.  1.
     999900   -1    0    0    0    0 -0.00000000000E+00 -0.00000000000E+00 -0.74505805969E-08  0.93827000000E+00  0.93827000000E+00 0.  1.
     999902    2    1    2    0    0 -0.39638828411E-02 -0.46936312822E-02  0.22981990417E-01  0.10201410440E+01  0.10198636357E+01 0.  0.
     999903    2    3    3    0    0  0.49755609208E-01 -0.11442065279E+00  0.36770297088E-01  0.13159396005E+00  0.19930106387E-01 0.  0.
         14    1    1    2    0    0  0.39638828411E-02  0.46936312822E-02 -0.22981990417E-01  0.23788955953E-01  0.00000000000E+00 0. -1.
     999901    1    3    3    0    0 -0.53719492049E-01  0.10972702151E+00 -0.13788306671E-01  0.88854708400E+00  0.88000000000E+00 0. -1.
        -11    1    4    4    0    0  0.17812743918E-01 -0.45069419356E-01  0.24339306364E-01  0.54232917700E-01  0.51100000000E-03 0.  1.
         11    1    4    4    0    0  0.31942865290E-01 -0.69351233438E-01  0.12430990724E-01  0.77361042352E-01  0.51100000000E-03 0. -1.
</event>
<event>
 8    1  0.1213322E+005  0.1043930E+01  0.7957747E-01            NaN
         13   -1    0    0    0    0  0.00000000000E+00  0.00000000000E+00  0.74505805969E-08  0.10566000000E+00  0.10566000000E+00 0.  1.
     999900   -1    0    0    0    0 -0.00000000000E+00 -0.00000000000E+00 -0.74505805969E-08  0.93827000000E+00  0.93827000000E+00 0. -1.
     999902    2    1    2    0    0 -0.33145783075E-02 -0.23499115680E-01 -0.66501363103E-03  0.10201889573E+01  0.10199126783E+01 0.  0.
     999903    2    3    3    0    0 -0.73397966705E-01  0.10316581275E+00 -0.27858881488E-02  0.12835927423E+00  0.20925956903E-01 0.  0.
         14    1    1    2    0    0  0.33145783075E-02  0.23499115680E-01  0.66501363103E-03  0.23741042737E-01  0.00000000000E+00 0.  1.
     999901    1    3    3    0    0  0.70083388398E-01 -0.12666492843E+00  0.21208745178E-02  0.89182968303E+00  0.88000000000E+00 0. -1.
        -11    1    4    4    0    0 -0.52501882593E-01  0.75752344446E-01  0.72532910085E-02  0.92453970798E-01  0.51100000000E-03 0. -1.
         11    1    4    4    0    0 -0.20896084112E-01  0.27413468303E-01 -0.10039179157E-01  0.35905303435E-01  0.51100000000E-03 0.  1.
</event>
<event>
 8    1  0.1213322E+005  0.1043930E+01  0.7957747E-01            NaN
         13   -1    0    0    0    0  0.00000000000E+00  0.00000000000E+00  0.74505805969E-08  0.10566000000E+00  0.10566000000E+00 0. -1.
     999900   -1    0    0    0    0 -0.00000000000E+00 -0.00000000000E+00 -0.74505805969E-08  0.93827000000E+00  0.93827000000E+00 0.  1.
     999902    2    1    2    0    0  0.53331087706E-02  0.55360496524E-03 -0.23941834139E-01  0.10193951279E+01  0.10190998316E+01 0.  0.
     999903    2    3    3    0    0  0.54948530997E-01  0.11609736556E+00 -0.88946020876E-02  0.13032906177E+00  0.20214129844E-01 0.  0.
         14    1    1    2    0    0 -0.53331087706E-02 -0.55360496524E-03  0.23941834139E-01  0.24534872112E-01  0.00000000000E+00 0. -1.
     999901    1    3    3    0    0 -0.49615422227E-01 -0.11554376060E+00 -0.15047232051E-01  0.88906606612E+00  0.88000000000E+00 0. -1.
        -11    1    4    4    0    0  0.43604949897E-01  0.10400545015E+00 -0.33088767358E-02  0.11282612775E+00  0.51100000000E-03 0.  1.
         11    1    4    4    0    0  0.11343581100E-01  0.12091915410E-01 -0.55857253518E-02  0.17502934016E-01  0.51100000000E-03 0. -1.
</event>
<event>
 8    1  0.1213322E+005  0.1043930E+01  0.7957747E-01            NaN
         13   -1    0    0    0    0  0.00000000000E+00  0.00000000000E+00  0.74505805969E-08  0.10566000000E+00  0.10566000000E+00 0.  1.
     999900   -1    0    0    0    0 -0.00000000000E+00 -0.00000000000E+00 -0.74505805969E-08  0.93827000000E+00  0.93827000000E+00 0.  1.
     999902    2    1    2    0    0  0.15166580066E-01  0.14625481026E-02 -0.18390946557E-01  0.10200471377E+01  0.10197675088E+01 0.  0.
     999903    2    3    3    0    0 -0.48924503425E-01  0.82736370681E-01  0.82547996547E-01  0.12825020369E+00  0.19875335060E-01 0.  0.
         14    1    1    2    0    0 -0.15166580066E-01 -0.14625481026E-02  0.18390946557E-01  0.23882862331E-01  0.00000000000E+00 0.  1.
     999901    1    3    3    0    0  0.64091083492E-01 -0.81273822578E-01 -0.10093894310E+00  0.89179693398E+00  0.88000000000E+00 0.  1.
        -11    1    4    4    0    0 -0.26411656156E-01  0.50426233089E-01  0.60681178785E-01  0.83203648623E-01  0.51100000000E-03 0.  1.
         11    1    4    4    0    0 -0.22512847269E-01  0.32310137592E-01  0.21866817762E-01  0.45046555067E-01  0.51100000000E-03 0. -1.
</event>
<event>
 8    1  0.1213322E+005  0.1043930E+01  0.7957747E-01            NaN
         13   -1    0    0    0    0  0.00000000000E+00  0.00000000000E+00  0.74505805969E-08  0.10566000000E+00  0.10566000000E+00 0.  1.
     999900   -1    0    0    0    0 -0.00000000000E+00 -0.00000000000E+00 -0.74505805969E-08  0.93827000000E+00  0.93827000000E+00 0.  1.
     999902    2    1    2    0    0  0.21802797416E-01 -0.10238821556E-01  0.94868486243E-02  0.10180418610E+01  0.10177126486E+01 0.  0.
     999903    2    3    3    0    0  0.11158222345E+00 -0.33093601608E-01 -0.55933325651E-01  0.13076372792E+00  0.20611563808E-01 0.  0.
         14    1    1    2    0    0 -0.21802797416E-01  0.10238821556E-01 -0.94868486243E-02  0.25888138961E-01  0.00000000000E+00 0. -1.
     999901    1    3    3    0    0 -0.89779426037E-01  0.22854780053E-01  0.65420174275E-01  0.88727813312E+00  0.88000000000E+00 0. -1.
        -11    1    4    4    0    0  0.50052205070E-01 -0.21141544156E-01 -0.16824007257E-01  0.56881424585E-01  0.51100000000E-03 0. -1.
         11    1    4    4    0    0  0.61530018384E-01 -0.11952057452E-01 -0.39109318394E-01  0.73882303334E-01  0.51100000000E-03 0.  1.
</event>
<event>
 8    1  0.1213322E+005  0.1043930E+01  0.7957747E-01            NaN
         13   -1    0    0    0    0  0.00000000000E+00  0.00000000000E+00  0.74505805969E-08  0.10566000000E+00  0.10566000000E+00 0. -1.
     999900   -1    0    0    0    0 -0.00000000000E+00 -0.00000000000E+00 -0.74505805969E-08  0.93827000000E+00  0.93827000000E+00 0. -1.
     999902    2    1    2    0    0 -0.19314684690E-01 -0.16506289660E-01  0.27726312559E-02  0.10183721807E+01  0.10180514212E+01 0.  0.
     999903    2    3    3    0    0 -0.57305852660E-01 -0.10860448165E+00  0.43683582447E-01  0.13180627129E+00  0.19640356233E-01 0.  0.
         14    1    1    2    0    0  0.19314684690E-01  0.16506289660E-01 -0.27726312559E-02  0.25557819295E-01  0.00000000000E+00 0.  1.
     999901    1    3    3    0    0  0.37991167970E-01  0.92098191987E-01 -0.40910951191E-01  0.88656590942E+00  0.88000000000E+00 0. -1.
        -11    1    4    4    0    0 -0.32056793933E-01 -0.45359988388E-01  0.26645994546E-01  0.61607115906E-01  0.51100000000E-03 0. -1.
         11    1    4    4    0    0 -0.25249058727E-01 -0.63244493258E-01  0.17037587900E-01  0.70199155383E-01  0.51100000000E-03 0.  1.
</event>
<event>
 8    1  0.1213322E+005  0.1043930E+01  0.7957747E-01            NaN
         13   -1    0    0    0    0  0.00000000000E+00  0.00000000000E+00  0.74505805969E-08  0.10566000000E+00  0.10566000000E+00 0. -1.
     999900   -1    0    0    0    0 -0.00000000000E+00 -0.00000000000E+00 -0.74505805969E-08  0.93827000000E+00  0.93827000000E+00 0.  1.
     999902    2    1    2    0    0 -0.19365462819E-01 -0.12011475285E-01  0.77845182794E-03  0.10211286256E+01  0.10208740213E+01 0.  0.
     999903    2    3    3    0    0 -0.50060150840E-01 -0.11262170695E+00 -0.47321044161E-01  0.13355995549E+00  0.20231483181E-01 0.  0.
         14    1    1    2    0    0  0.19365462819E-01  0.12011475285E-01 -0.77845182794E-03  0.22801374431E-01  0.00000000000E+00 0. -1.
     999901    1    3    3    0    0  0.30694688021E-01  0.10061023167E+00  0.48099495989E-01  0.88756867008E+00  0.88000000000E+00 0. -1.
        -11    1    4    4    0    0 -0.33753044768E-01 -0.86892828460E-01 -0.27413952260E-01  0.97166957184E-01  0.51100000000E-03 0. -1.
         11    1    4    4    0    0 -0.16307106072E-01 -0.25728878491E-01 -0.19907091901E-01  0.36392998308E-01  0.51100000000E-03 0.  1.
</event>
<event>
 8    1  0.1213322E+005  0.1043930E+01  0.7957747E-01            NaN
         13   -1    0    0    0    0  0.00000000000E+00  0.00000000000E+00  0.74505805969E-08  0.10566000000E+00  0.10566000000E+00 0.  1.
     999900   -1    0    0    0    0 -0.00000000000E+00 -0.00000000000E+00 -0.74505805969E-08  0.93827000000E+00  0.93827000000E+00 0.  1.
     999902    2    1    2    0    0  0.72300075000E-02 -0.20408533247E-01 -0.10368206255E-01  0.10199241478E+01  0.10196415970E+01 0.  0.
     999903    2    3    3    0    0 -0.16898005655E-01 -0.47773668075E-01  0.11621555922E+00  0.13011829186E+00  0.29271961264E-01 0.  0.
         14    1    1    2    0    0 -0.72300075000E-02  0.20408533247E-01  0.10368206255E-01  0.24005852176E-01  0.00000000000E+00 0.  1.
     999901    1    3    3    0    0  0.24128013155E-01  0.27365134828E-01 -0.12658376547E+00  0.88980585596E+00  0.88000000000E+00 0.  1.
        -11    1    4    4    0    0 -0.39094719974E-02 -0.48714373783E-02  0.48536032416E-01  0.48938966449E-01  0.51100000000E-03 0. -1.
         11    1    4    4    0    0 -0.12988533658E-01 -0.42902230696E-01  0.67679526803E-01  0.81179325413E-01  0.51100000000E-03 0.  1.
</event>
<event>
 8    1  0.1213322E+005  0.1043930E+01  0.7957747E-01            NaN
         13   -1    0    0    0    0  0.00000000000E+00  0.00000000000E+00  0.74505805969E-08  0.10566000000E+00  0.10566000000E+00 0.  1.
     999900   -1    0    0    0    0 -0.00000000000E+00 -0.00000000000E+00 -0.74505805969E-08  0.93827000000E+00  0.93827000000E+00 0.  1.
     999902    2    1    2    0    0  0.16502578924E-01  0.19024084842E-01 -0.68576810462E-02  0.10178286839E+01  0.10174939562E+01 0.  0.
     999903    2    3    3    0    0  0.80957412246E-01  0.61593689718E-01  0.78969546402E-01  0.13028549630E+00  0.19754393869E-01 0.  0.
         14    1    1    2    0    0 -0.16502578924E-01 -0.19024084842E-01  0.68576810462E-02  0.26101316146E-01  0.00000000000E+00 0. -1.
     999901    1    3    3    0    0 -0.64454833322E-01 -0.42569604876E-01 -0.85827227448E-01  0.88754318755E+00  0.88000000000E+00 0. -1.
        -11    1    4    4    0    0  0.34035439621E-01  0.24184329758E-01  0.20566832258E-01  0.46546199267E-01  0.51100000000E-03 0.  1.
         11    1    4    4    0    0  0.46921972625E-01  0.37409359960E-01  0.58402714144E-01  0.83739297035E-01  0.51100000000E-03 0. -1.
</event>
<event>
 8    1  0.1213322E+005  0.1043930E+01  0.7957747E-01            NaN
         13   -1    0    0    0    0  0.00000000000E+00  0.00000000000E+00  0.74505805969E-08  0.10566000000E+00  0.10566000000E+00 0.  1.
     999900   -1    0    0    0    0 -0.00000000000E+00 -0.00000000000E+00 -0.74505805969E-08  0.93827000000E+00  0.93827000000E+00 0.  1.
     999902    2    1    2    0    0 -0.22796378126E-01  0.84626828026E-02  0.46617004157E-02  0.10191706925E+01  0.10188699020E+01 0.  0.
     999903    2    3    3    0    0  0.80232076662E-01  0.38118922754E-01  0.90582532345E-01  0.12850984550E+00  0.20477959539E-01 0.  0.
         14    1    1    2    0    0  0.22796378126E-01 -0.84626828026E-02 -0.46617004157E-02  0.24759307475E-01  0.00000000000E+00 0.  1.
     999901    1    3    3    0    0 -0.10302845479E+00 -0.29656239952E-01 -0.85920831930E-01  0.89066084703E+00  0.88000000000E+00 0.  1.
        -11    1    4    4    0    0  0.75121800365E-01  0.36827399618E-01  0.90451828470E-01  0.12321256692E+00  0.51100000000E-03 0. -1.
         11    1    4    4    0    0  0.51102762970E-02  0.12915231363E-02  0.13070387591E-03  0.52972785793E-02  0.51100000000E-03 0.  1.
</event>
<event>
 8    1  0.1213322E+005  0.1043930E+01  0.7957747E-01            NaN
         13   -1    0    0    0    0  0.00000000000E+00  0.00000000000E+00  0.74505805969E-08  0.10566000000E+00  0.10566000000E+00 0.  1.
     999900   -1    0    0    0    0 -0.00000000000E+00 -0.00000000000E+00 -0.74505805969E-08  0.93827000000E+00  0.93827000000E+00 0. -1.
     999902    2    1    2    0    0  0.10559746842E-01 -0.20527527046E-01 -0.50733839917E-02  0.10202947119E+01  0.10200209175E+01 0.  0.
     999903    2    3    3    0    0 -0.68657505664E-01 -0.10112837616E+00 -0.45759002566E-01  0.13213527262E+00  0.20616556584E-01 0.  0.
         14    1    1    2    0    0 -0.10559746842E-01  0.20527527046E-01  0.50733839917E-02  0.23635288133E-01  0.00000000000E+00 0.  1.
     999901    1    3    3    0    0  0.79217252506E-01  0.80600849110E-01  0.40685618574E-01  0.88815943925E+00  0.88000000000E+00 0.  1.
        -11    1    4    4    0    0 -0.49584621041E-01 -0.72522184809E-01 -0.42505074492E-01  0.97596334007E-01  0.51100000000E-03 0. -1.
         11    1    4    4    0    0 -0.19072884623E-01 -0.28606191348E-01 -0.32539280745E-02  0.34538938608E-01  0.51100000000E-03 0.  1.
</event>
<event>
 8    1  0.1213322E+005  0.1043930E+01  0.7957747E-01            NaN
         13   -1    0    0    0    0  0.00000000000E+00  0.00000000000E+00  0.74505805969E-08  0.10566000000E+00  0.10566000000E+00 0.  1.
     999900   -1    0    0    0    0 -0.00000000000E+00 -0.00000000000E+00 -0.74505805969E-08  0.93827000000E+00  0.93827000000E+00 0.  1.
     999902    2    1    2    0    0 -0.77829708118E-02  0.77323823928E-02 -0.20091370997E-01  0.10210383517E+01  0.10207817044E+01 0.  0.
     999903    2    3    3    0    0 -0.75675163056E-01  0.10227691837E+00  0.29071027416E-01  0.13201362740E+00  0.19879005254E-01 0.  0.
         14    1    1    2    0    0  0.77829708118E-02 -0.77323823928E-02  0.20091370997E-01  0.22891648273E-01  0.00000000000E+00 0.  1.
     999901    1    3    3    0    0  0.67892192244E-01 -0.94544535973E-01 -0.49162398413E-01  0.88902472433E+00  0.88000000000E+00 0.  1.
        -11    1    4    4    0    0 -0.35777910854E-01  0.32643687566E-01  0.86457505174E-02  0.49200400059E-01  0.51100000000E-03 0. -1.
         11    1    4    4    0    0 -0.39897252201E-01  0.69633230801E-01  0.20425276899E-01  0.82813227339E-01  0.51100000000E-03 0.  1.
</event>
<event>
 8    1  0.1213322E+005  0.1043930E+01  0.7957747E-01            NaN
         13   -1    0    0    0    0  0.00000000000E+00  0.00000000000E+00  0.74505805969E-08  0.10566000000E+00  0.10566000000E+00 0. -1.
     999900   -1    0    0    0    0 -0.00000000000E+00 -0.00000000000E+00 -0.74505805969E-08  0.93827000000E+00  0.93827000000E+00 0. -1.
     999902    2    1    2    0    0 -0.12435588085E-01  0.19128571135E-01  0.11859950634E-02  0.10210837165E+01  0.10208280969E+01 0.  0.
     999903    2    3    3    0    0 -0.45239139342E-01 -0.81010368553E-01  0.88166005847E-01  0.13053927490E+00  0.25651474871E-01 0.  0.
         14    1    1    2    0    0  0.12435588085E-01 -0.19128571135E-01 -0.11859950634E-02  0.22846283483E-01  0.00000000000E+00 0. -1.
     999901    1    3    3    0    0  0.32803551258E-01  0.10013893969E+00 -0.86980010784E-01  0.89054444162E+00  0.88000000000E+00 0. -1.
        -11    1    4    4    0    0 -0.16094984798E-01 -0.24469379017E-01  0.12941665899E-01  0.32024160915E-01  0.51100000000E-03 0.  1.
         11    1    4    4    0    0 -0.29144154544E-01 -0.56540989537E-01  0.75224339949E-01  0.98515113986E-01  0.51100000000E-03 0. -1.
</event>
<event>
 8    1  0.1213322E+005  0.1043930E+01  0.7957747E-01            NaN
         13   -1    0    0    0    0  0.00000000000E+00  0.00000000000E+00  0.74505805969E-08  0.10566000000E+00  0.10566000000E+00 0. -1.
     999900   -1    0    0    0    0 -0.00000000000E+00 -0.00000000000E+00 -0.74505805969E-08  0.93827000000E+00  0.93827000000E+00 0.  1.
     999902    2    1    2    0    0 -0.73591245556E-02 -0.12629736595E-01  0.19409628061E-01  0.10196318391E+01  0.10193422814E+01 0.  0.
     999903    2    3    3    0    0  0.35712839992E-01 -0.90097928121E-02 -0.12059263682E+00  0.12751697415E+00  0.19010821545E-01 0.  0.
         14    1    1    2    0    0  0.73591245556E-02  0.12629736595E-01 -0.19409628061E-01  0.24298160880E-01  0.00000000000E+00 0.  1.
     999901    1    3    3    0    0 -0.43071964547E-01 -0.36199437834E-02  0.14000226488E+00  0.89211486497E+00  0.88000000000E+00 0. -1.
        -11    1    4    4    0    0  0.29874701653E-01 -0.40414793691E-02 -0.68248659872E-01  0.74612144117E-01  0.51100000000E-03 0. -1.
         11    1    4    4    0    0  0.58381383386E-02 -0.49683134430E-02 -0.52343976945E-01  0.52904830037E-01  0.51100000000E-03 0.  1.
</event>
<event>
 8    1  0.1213322E+005  0.1043930E+01  0.7957747E-01            NaN
         13   -1    0    0    0    0  0.00000000000E+00  0.00000000000E+00  0.74505805969E-08  0.10566000000E+00  0.10566000000E+00 0.  1.
     999900   -1    0    0    0    0 -0.00000000000E+00 -0.00000000000E+00 -0.74505805969E-08  0.93827000000E+00  0.93827000000E+00 0.  1.
     999902    2    1    2    0    0 -0.97615499012E-02  0.72622238764E-02 -0.18607220004E-01  0.10216981222E+01  0.10214562138E+01 0.  0.
     999903    2    3    3    0    0  0.72320989466E-01  0.10613556156E+00  0.19246143332E-01  0.13155973004E+00  0.21034866055E-01 0.  0.
         14    1    1    2    0    0  0.97615499012E-02 -0.72622238764E-02  0.18607220004E-01  0.22231877752E-01  0.00000000000E+00 0.  1.
     999901    1    3    3    0    0 -0.82082539367E-01 -0.98873337680E-01 -0.37853363336E-01  0.89013839221E+00  0.88000000000E+00 0.  1.
        -11    1    4    4    0    0  0.29256183245E-01  0.57415054519E-01  0.28843545617E-02  0.64505762268E-01  0.51100000000E-03 0.  1.
         11    1    4    4    0    0  0.43064806221E-01  0.48720507037E-01  0.16361788770E-01  0.67053967769E-01  0.51100000000E-03 0. -1.
</event>
<event>
 8    1  0.1213322E+005  0.1043930E+01  0.7957747E-01            NaN
         13   -1    0    0    0    0  0.00000000000E+00  0.00000000000E+00  0.74505805969E-08  0.10566000000E+00  0.10566000000E+00 0. -1.
     999900   -1    0    0    0    0 -0.00000000000E+00 -0.00000000000E+00 -0.74505805969E-08  0.93827000000E+00  0.93827000000E+00 0.  1.
     999902    2    1    2    0    0 -0.18868286209E-01  0.17046215692E-02  0.14394359164E-01  0.10201368175E+01  0.10198593093E+01 0.  0.
     999903    2    3    3    0    0  0.10298520765E+00  0.71783494707E-01  0.21045823328E-01  0.12895582328E+00  0.20684645787E-01 0.  0.
         14    1    1    2    0    0  0.18868286209E-01 -0.17046215692E-02 -0.14394359164E-01  0.23793182530E-01  0.00000000000E+00 0.  1.
     999901    1    3    3    0    0 -0.12185349386E+00 -0.70078873138E-01 -0.66514641641E-02  0.89118099419E+00  0.88000000000E+00 0. -1.
        -11    1    4    4    0    0  0.76989405529E-01  0.53486048473E-01  0.24719153443E-01  0.96950624614E-01  0.51100000000E-03 0. -1.
         11    1    4    4    0    0  0.25995802122E-01  0.18297446234E-01 -0.36733301145E-02  0.32005198668E-01  0.51100000000E-03 0.  1.
</event>
<event>
 8    1  0.1213322E+005  0.1043930E+01  0.7957747E-01            NaN
         13   -1    0    0    0    0  0.00000000000E+00  0.00000000000E+00  0.74505805969E-08  0.10566000000E+00  0.10566000000E+00 0.  1.
     999900   -1    0    0    0    0 -0.00000000000E+00 -0.00000000000E+00 -0.74505805969E-08  0.93827000000E+00  0.93827000000E+00 0.  1.
     999902    2    1    2    0    0 -0.15372711885E-01 -0.15667254332E-01  0.51243201317E-02  0.10213902177E+01  0.10211414863E+01 0.  0.
     999903    2    3    3    0    0  0.74335542364E-01 -0.34134077202E-02 -0.10433886682E+00  0.12999809471E+00  0.21805533460E-01 0.  0.
         14    1    1    2    0    0  0.15372711885E-01  0.15667254332E-01 -0.51243201317E-02  0.22539782293E-01  0.00000000000E+00 0.  1.
     999901    1    3    3    0    0 -0.89708254249E-01 -0.12253846612E-01  0.10946318695E+00  0.89139212299E+00  0.88000000000E+00 0. -1.
        -11    1    4    4    0    0  0.28712292863E-01  0.33215239956E-02 -0.24957321610E-01  0.38191063171E-01  0.51100000000E-03 0.  1.
         11    1    4    4    0    0  0.45623249500E-01 -0.67349317159E-02 -0.79381545208E-01  0.91807031543E-01  0.51100000000E-03 0. -1.
</event>
<event>
 8    1  0.1213322E+005  0.1043930E+01  0.7957747E-01            NaN
         13   -1    0    0    0    0  0.00000000000E+00  0.00000000000E+00  0.74505805969E-08  0.10566000000E+00  0.10566000000E+00 0.  1.
     999900   -1    0    0    0    0 -0.00000000000E+00 -0.00000000000E+00 -0.74505805969E-08  0.93827000000E+00  0.93827000000E+00 0.  1.
     999902    2    1    2    0    0 -0.22442201920E-01  0.80445845911E-02  0.26173608488E-02  0.10199462900E+01  0.10196642664E+01 0.  0.
     999903    2    3    3    0    0  0.37869210910E-01  0.89735642300E-01 -0.84012810794E-01  0.12988130243E+00  0.18012154519E-01 0.  0.
         14    1    1    2    0    0  0.22442201920E-01 -0.80445845911E-02 -0.26173608488E-02  0.23983710014E-01  0.00000000000E+00 0.  1.
     999901    1    3    3    0    0 -0.60311412829E-01 -0.81691057709E-01  0.86630171643E-01  0.89006498755E+00  0.88000000000E+00 0. -1.
        -11    1    4    4    0    0  0.27893231183E-01  0.65113050276E-01 -0.49937351598E-01  0.86670305570E-01  0.51100000000E-03 0.  1.
         11    1    4    4    0    0  0.99759797263E-02  0.24622592024E-01 -0.34075459196E-01  0.43210996863E-01  0.51100000000E-03 0. -1.
</event>
<event>
 8    1  0.1213322E+005  0.1043930E+01  0.7957747E-01            NaN
         13   -1    0    0    0    0  0.00000000000E+00  0.00000000000E+00  0.74505805969E-08  0.10566000000E+00  0.10566000000E+00 0. -1.
     999900   -1    0    0    0    0 -0.00000000000E+00 -0.00000000000E+00 -0.74505805969E-08  0.93827000000E+00  0.93827000000E+00 0. -1.
     999902    2    1    2    0    0 -0.19837412842E-01  0.12388364347E-01 -0.62153581147E-03  0.10205338288E+01  0.10202656100E+01 0.  0.
     999903    2    3    3    0    0  0.72299786011E-01  0.10589852267E+00 -0.15068245447E-01  0.13067871671E+00  0.20201950830E-01 0.  0.
         14    1    1    2    0    0  0.19837412842E-01 -0.12388364347E-01  0.62153581147E-03  0.23396171187E-01  0.00000000000E+00 0.  1.
     999901    1    3    3    0    0 -0.92137198852E-01 -0.93510158327E-01  0.14446709636E-01  0.88985511211E+00  0.88000000000E+00 0.  1.
        -11    1    4    4    0    0  0.63099591459E-01  0.87409574975E-01 -0.55930968670E-02  0.10795154512E+00  0.51100000000E-03 0. -1.
         11    1    4    4    0    0  0.92001945512E-02  0.18488947700E-01 -0.94751485804E-02  0.22727171589E-01  0.51100000000E-03 0.  1.
</event>
<event>
 8    1  0.1213322E+005  0.1043930E+01  0.7957747E-01            NaN
         13   -1    0    0    0    0  0.00000000000E+00  0.00000000000E+00  0.74505805969E-08  0.10566000000E+00  0.10566000000E+00 0. -1.
     999900   -1    0    0    0    0 -0.00000000000E+00 -0.00000000000E+00 -0.74505805969E-08  0.93827000000E+00  0.93827000000E+00 0.  1.
     999902    2    1    2    0    0  0.88965157449E-02  0.21305491208E-01 -0.93181518043E-02  0.10190322109E+01  0.10187280044E+01 0.  0.
     999903    2    3    3    0    0  0.27127335964E-01 -0.86875500179E-01  0.86450051581E-01  0.12706414059E+00  0.19708869031E-01 0.  0.
         14    1    1    2    0    0 -0.88965157449E-02 -0.21305491208E-01  0.93181518043E-02  0.24897789080E-01  0.00000000000E+00 0. -1.
     999901    1    3    3    0    0 -0.18230820219E-01  0.10818099139E+00 -0.95768203385E-01  0.89196807033E+00  0.88000000000E+00 0.  1.
        -11    1    4    4    0    0  0.51632439919E-02 -0.74945905957E-02  0.17156519071E-01  0.19427692719E-01  0.51100000000E-03 0.  1.
         11    1    4    4    0    0  0.21964091972E-01 -0.79380909583E-01  0.69293532509E-01  0.10763644787E+00  0.51100000000E-03 0. -1.
</event>
<event>
 8    1  0.1213322E+005  0.1043930E+01  0.7957747E-01            NaN
         13   -1    0    0    0    0  0.00000000000E+00  0.00000000000E+00  0.74505805969E-08  0.10566000000E+00  0.10566000000E+00 0.  1.
     999900   -1    0    0    0    0 -0.00000000000E+00 -0.00000000000E+00 -0.74505805969E-08  0.93827000000E+00  0.93827000000E+00 0. -1.
     999902    2    1    2    0    0 -0.19079286493E-01  0.66176651400E-02 -0.11253168400E-01  0.10208119018E+01  0.10205500930E+01 0.  0.
     999903    2    3    3    0    0 -0.22802358487E-01  0.88618567672E-01  0.91646949468E-01  0.13102178974E+00  0.19858196052E-01 0.  0.
         14    1    1    2    0    0  0.19079286493E-01 -0.66176651400E-02  0.11253168400E-01  0.23118098192E-01  0.00000000000E+00 0.  1.
     999901    1    3    3    0    0  0.37230719942E-02 -0.82000902532E-01 -0.10290011787E+00  0.88979011207E+00  0.88000000000E+00 0. -1.
        -11    1    4    4    0    0 -0.19412763790E-01  0.61707851545E-01  0.52089896446E-01  0.83056202496E-01  0.51100000000E-03 0. -1.
         11    1    4    4    0    0 -0.33895946977E-02  0.26910716127E-01  0.39557053021E-01  0.47965587242E-01  0.51100000000E-03 0.  1.
</event>
<event>
 8    1  0.1213322E+005  0.1043930E+01  0.7957747E-01            NaN
         13   -1    0    0    0    0  0.00000000000E+00  0.00000000000E+00  0.74505805969E-08  0.10566000000E+00  0.10566000000E+00 0. -1.
     999900   -1    0    0    0    0 -0.00000000000E+00 -0.00000000000E+00 -0.74505805969E-08  0.93827000000E+00  0.93827000000E+00 0. -1.
     999902    2    1    2    0    0 -0.12124145278E-01  0.29315151927E-03 -0.19534894805E-01  0.10209366759E+01  0.10206777177E+01 0.  0.
     999903    2    3    3    0    0 -0.79021050222E-01  0.91672391346E-01 -0.51736057572E-01  0.13309531835E+00  0.19738044461E-01 0.  0.
         14    1    1    2    0    0  0.12124145278E-01 -0.29315151927E-03  0.19534894805E-01  0.22993324066E-01  0.00000000000E+00 0. -1.
     999901    1    3    3    0    0  0.66896904944E-01 -0.91379239826E-01  0.32201162767E-01  0.88784135759E+00  0.88000000000E+00 0.  1.
        -11    1    4    4    0    0 -0.38072728297E-01  0.55985344818E-01 -0.22127395450E-01  0.71230430469E-01  0.51100000000E-03 0. -1.
         11    1    4    4    0    0 -0.40948321925E-01  0.35687046528E-01 -0.29608662122E-01  0.61864887876E-01  0.51100000000E-03 0.  1.
</event>
<event>
 8    1  0.1213322E+005  0.1043930E+01  0.7957747E-01            NaN
         13   -1    0    0    0    0  0.00000000000E+00  0.00000000000E+00  0.74505805969E-08  0.10566000000E+00  0.10566000000E+00 0. -1.
     999900   -1    0    0    0    0 -0.00000000000E+00 -0.00000000000E+00 -0.74505805969E-08  0.93827000000E+00  0.93827000000E+00 0.  1.
     999902    2    1    2    0    0  0.13867372580E-01 -0.17710421722E-01 -0.57115098712E-02  0.10207225787E+01  0.10204587195E+01 0.  0.
     999903    2    3    3    0    0 -0.86141235730E-01 -0.97370036669E-01  0.22508271127E-02  0.13144715744E+00  0.19288660986E-01 0.  0.
         14    1    1    2    0    0 -0.13867372580E-01  0.17710421722E-01  0.57115098712E-02  0.23207421331E-01  0.00000000000E+00 0.  1.
     999901    1    3    3    0    0  0.10000860831E+00  0.79659614947E-01 -0.79623369839E-02  0.88927542123E+00  0.88000000000E+00 0. -1.
        -11    1    4    4    0    0 -0.15185138508E-01 -0.76995352116E-02  0.14485679133E-02  0.17094757792E-01  0.51100000000E-03 0.  1.
         11    1    4    4    0    0 -0.70956097222E-01 -0.89670501458E-01  0.80225919937E-03  0.11435239965E+00  0.51100000000E-03 0. -1.
</event>
<event>
 8    1  0.1213322E+005  0.1043930E+01  0.7957747E-01            NaN
         13   -1    0    0    0    0  0.00000000000E+00  0.00000000000E+00  0.74505805969E-08  0.10566000000E+00  0.10566000000E+00 0. -1.
     999900   -1    0    0    0    0 -0.00000000000E+00 -0.00000000000E+00 -0.74505805969E-08  0.93827000000E+00  0.93827000000E+00 0.  1.
     999902    2    1    2    0    0  0.41978852438E-02 -0.21365361148E-01  0.99086035521E-02  0.10200075979E+01  0.10197270314E+01 0.  0.
     999903    2    3    3    0    0  0.11381234028E+00  0.52117111901E-01  0.31023095903E-01  0.12991725171E+00  0.15704065069E-01 0.  0.
         14    1    1    2    0    0 -0.41978852438E-02  0.21365361148E-01 -0.99086035521E-02  0.23922402092E-01  0.00000000000E+00 0.  1.
     999901    1    3    3    0    0 -0.10961445504E+00 -0.73482473050E-01 -0.21114492351E-01  0.89009034619E+00  0.88000000000E+00 0. -1.
        -11    1    4    4    0    0  0.43980961635E-01  0.25310680967E-01  0.63012681665E-02  0.51136314483E-01  0.51100000000E-03 0.  1.
         11    1    4    4    0    0  0.69831378649E-01  0.26806430934E-01  0.24721827736E-01  0.78780937232E-01  0.51100000000E-03 0. -1.
</event>
<event>
 8    1  0.1213322E+005  0.1043930E+01  0.7957747E-01            NaN
         13   -1    0    0    0    0  0.00000000000E+00  0.00000000000E+00  0.74505805969E-08  0.10566000000E+00  0.10566000000E+00 0.  1.
     999900   -1    0    0    0    0 -0.00000000000E+00 -0.00000000000E+00 -0.74505805969E-08  0.93827000000E+00  0.93827000000E+00 0.  1.
     999902    2    1    2    0    0  0.15490102978E-01 -0.17551610160E-01  0.23938978480E-02  0.10203984668E+01  0.10201270989E+01 0.  0.
     999903    2    3    3    0    0 -0.15903037390E-01 -0.72320877982E-02 -0.12752358755E+00  0.13024647142E+00  0.19916531911E-01 0.  0.
         14    1    1    2    0    0 -0.15490102978E-01  0.17551610160E-01 -0.23938978480E-02  0.23531533235E-01  0.00000000000E+00 0. -1.
     999901    1    3    3    0    0  0.31393140368E-01 -0.10319522362E-01  0.12991748540E+00  0.89015199534E+00  0.88000000000E+00 0. -1.
        -11    1    4    4    0    0 -0.88569106858E-02 -0.11516800039E-01 -0.44537934593E-01  0.46850510017E-01  0.51100000000E-03 0. -1.
         11    1    4    4    0    0 -0.70461267039E-02  0.42847122405E-02 -0.82985652958E-01  0.83395961404E-01  0.51100000000E-03 0.  1.
</event>
<event>
 8    1  0.1213322E+005  0.1043930E+01  0.7957747E-01            NaN
         13   -1    0    0    0    0  0.00000000000E+00  0.00000000000E+00  0.74505805969E-08  0.10566000000E+00  0.10566000000E+00 0.  1.
     999900   -1    0    0    0    0 -0.00000000000E+00 -0.00000000000E+00 -0.74505805969E-08  0.93827000000E+00  0.93827000000E+00 0.  1.
     999902    2    1    2    0    0 -0.50496008144E-02  0.21416571261E-01 -0.92959877942E-02  0.10200431128E+01  0.10197633885E+01 0.  0.
     999903    2    3    3    0    0 -0.24013931387E-01  0.63992717916E-02  0.12543716560E+00  0.12946005221E+00  0.20194133432E-01 0.  0.
         14    1    1    2    0    0  0.50496008144E-02 -0.21416571261E-01  0.92959877942E-02  0.23886887240E-01  0.00000000000E+00 0. -1.
     999901    1    3    3    0    0  0.18964330572E-01  0.15017299469E-01 -0.13473315339E+00  0.89058306055E+00  0.88000000000E+00 0.  1.
        -11    1    4    4    0    0 -0.10761932419E-01  0.56101714933E-02  0.10025578367E+00  0.10098899194E+00  0.51100000000E-03 0. -1.
         11    1    4    4    0    0 -0.13251998968E-01  0.78910029830E-03  0.25181381928E-01  0.28471060267E-01  0.51100000000E-03 0.  1.
</event>
<event>
 8    1  0.1213322E+005  0.1043930E+01  0.7957747E-01            NaN
         13   -1    0    0    0    0  0.00000000000E+00  0.00000000000E+00  0.74505805969E-08  0.10566000000E+00  0.10566000000E+00 0. -1.
     999900   -1    0    0    0    0 -0.00000000000E+00 -0.00000000000E+00 -0.74505805969E-08  0.93827000000E+00  0.93827000000E+00 0.  1.
     999902    2    1    2    0    0  0.12437479717E-01  0.13695490147E-01 -0.13477870119E-01  0.10210409123E+01  0.10207843231E+01 0.  0.
     999903    2    3    3    0    0 -0.73216460790E-01 -0.10071438324E+00  0.26317412560E-01  0.12862291542E+00  0.18633599911E-01 0.  0.
         14    1    1    2    0    0 -0.12437479717E-01 -0.13695490147E-01  0.13477870119E-01  0.22889087685E-01  0.00000000000E+00 0. -1.
     999901    1    3    3    0    0  0.85653940508E-01  0.11440987339E+00 -0.39795282679E-01  0.89241799689E+00  0.88000000000E+00 0.  1.
        -11    1    4    4    0    0 -0.44671993692E-01 -0.72066818433E-01  0.11582558468E-01  0.85578210551E-01  0.51100000000E-03 0.  1.
         11    1    4    4    0    0 -0.28544467098E-01 -0.28647564809E-01  0.14734854092E-01  0.43044704872E-01  0.51100000000E-03 0. -1.
</event>
<event>
 8    1  0.1213322E+005  0.1043930E+01  0.7957747E-01            NaN
         13   -1    0    0    0    0  0.00000000000E+00  0.00000000000E+00  0.74505805969E-08  0.10566000000E+00  0.10566000000E+00 0. -1.
     999900   -1    0    0    0    0 -0.00000000000E+00 -0.00000000000E+00 -0.74505805969E-08  0.93827000000E+00  0.93827000000E+00 0. -1.
     999902    2    1    2    0    0 -0.17481399126E-01 -0.83849218508E-02  0.13509589881E-01  0.10202991886E+01  0.10200254992E+01 0.  0.
     999903    2    3    3    0    0  0.11160752399E+00  0.50122441650E-01  0.32614745793E-01  0.12875442322E+00  0.23355540791E-01 0.  0.
         14    1    1    2    0    0  0.17481399126E-01  0.83849218508E-02 -0.13509589881E-01  0.23630811425E-01  0.00000000000E+00 0.  1.
     999901    1    3    3    0    0 -0.12908892312E+00 -0.58507363501E-01 -0.19105155912E-01  0.89154476536E+00  0.88000000000E+00 0. -1.
        -11    1    4    4    0    0  0.72812842713E-01  0.44060092618E-01  0.19092663788E-01  0.87222661946E-01  0.51100000000E-03 0. -1.
         11    1    4    4    0    0  0.38794681280E-01  0.60623490327E-02  0.13522082005E-01  0.41531761270E-01  0.51100000000E-03 0.  1.
</event>
<event>
 8    1  0.1213322E+005  0.1043930E+01  0.7957747E-01            NaN
         13   -1    0    0    0    0  0.00000000000E+00  0.00000000000E+00  0.74505805969E-08  0.10566000000E+00  0.10566000000E+00 0. -1.
     999900   -1    0    0    0    0 -0.00000000000E+00 -0.00000000000E+00 -0.74505805969E-08  0.93827000000E+00  0.93827000000E+00 0. -1.
     999902    2    1    2    0    0  0.30262586851E-03 -0.10811442495E-01  0.22117988777E-01  0.10193091897E+01  0.10190117958E+01 0.  0.
     999903    2    3    3    0    0 -0.58358491644E-01 -0.60745024357E-01 -0.94872674791E-01  0.12823045882E+00  0.18615977429E-01 0.  0.
         14    1    1    2    0    0 -0.30262586851E-03  0.10811442495E-01 -0.22117988777E-01  0.24620810278E-01  0.00000000000E+00 0.  1.
     999901    1    3    3    0    0  0.58661117513E-01  0.49933581862E-01  0.11699066357E+00  0.89107873090E+00  0.88000000000E+00 0. -1.
        -11    1    4    4    0    0 -0.22632148936E-01 -0.15847244414E-01 -0.41546015782E-01  0.49896712009E-01  0.51100000000E-03 0.  1.
         11    1    4    4    0    0 -0.35726342708E-01 -0.44897779943E-01 -0.53326659010E-01  0.78333746810E-01  0.51100000000E-03 0. -1.
</event>
<event>
 8    1  0.1213322E+005  0.1043930E+01  0.7957747E-01            NaN
         13   -1    0    0    0    0  0.00000000000E+00  0.00000000000E+00  0.74505805969E-08  0.10566000000E+00  0.10566000000E+00 0.  1.
     999900   -1    0    0    0    0 -0.00000000000E+00 -0.00000000000E+00 -0.74505805969E-08  0.93827000000E+00  0.93827000000E+00 0. -1.
     999902    2    1    2    0    0  0.16265442330E-01  0.14339025429E-01 -0.12159026343E-01  0.10190701089E+01  0.10187668392E+01 0.  0.
     999903    2    3    3    0    0 -0.11955966366E+00 -0.19490225354E-02 -0.38568836538E-01  0.12810925790E+00  0.25022288951E-01 0.  0.
         14    1    1    2    0    0 -0.16265442330E-01 -0.14339025429E-01  0.12159026343E-01  0.24859891111E-01  0.00000000000E+00 0.  1.
     999901    1    3    3    0    0  0.13582510599E+00  0.16288047964E-01  0.26409810195E-01  0.89096085099E+00  0.88000000000E+00 0.  1.
        -11    1    4    4    0    0 -0.84108519462E-01  0.29154720240E-02 -0.37939104121E-01  0.92316736109E-01  0.51100000000E-03 0.  1.
         11    1    4    4    0    0 -0.35451144196E-01 -0.48644945595E-02 -0.62973241709E-03  0.35792521789E-01  0.51100000000E-03 0. -1.
</event>
<event>
 8    1  0.1213322E+005  0.1043930E+01  0.7957747E-01            NaN
         13   -1    0    0    0    0  0.00000000000E+00  0.00000000000E+00  0.74505805969E-08  0.10566000000E+00  0.10566000000E+00 0.  1.
     999900   -1    0    0    0    0 -0.00000000000E+00 -0.00000000000E+00 -0.74505805969E-08  0.93827000000E+00  0.93827000000E+00 0.  1.
     999902    2    1    2    0    0  0.83890854426E-02  0.22589988621E-01  0.70022990540E-02  0.10188358466E+01  0.10185267625E+01 0.  0.
     999903    2    3    3    0    0  0.12172362103E+00 -0.27804354503E-01 -0.28382951596E-01  0.12943356267E+00  0.18913835126E-01 0.  0.
         14    1    1    2    0    0 -0.83890854426E-02 -0.22589988621E-01 -0.70022990540E-02  0.25094153353E-01  0.00000000000E+00 0. -1.
     999901    1    3    3    0    0 -0.11333453559E+00  0.50394343124E-01  0.35385250650E-01  0.88940228397E+00  0.88000000000E+00 0. -1.
        -11    1    4    4    0    0  0.84796960356E-01 -0.11467652008E-01 -0.14886590868E-01  0.86855645970E-01  0.51100000000E-03 0.  1.
         11    1    4    4    0    0  0.36926660673E-01 -0.16336702495E-01 -0.13496360728E-01  0.42577916703E-01  0.51100000000E-03 0. -1.
</event>
<event>
 8    1  0.1213322E+005  0.1043930E+01  0.7957747E-01            NaN
         13   -1    0    0    0    0  0.00000000000E+00  0.00000000000E+00  0.74505805969E-08  0.10566000000E+00  0.10566000000E+00 0. -1.
     999900   -1    0    0    0    0 -0.00000000000E+00 -0.00000000000E+00 -0.74505805969E-08  0.93827000000E+00  0.93827000000E+00 0.  1.
     999902    2    1    2    0    0  0.60042255074E-03  0.16526199208E-01  0.16273276999E-01  0.10207288080E+01  0.10204650921E+01 0.  0.
     999903    2    3    3    0    0  0.96478500671E-01  0.86012504812E-01 -0.18503996327E-01  0.13211730046E+00  0.20157656743E-01 0.  0.
         14    1    1    2    0    0 -0.60042255074E-03 -0.16526199208E-01 -0.16273276999E-01  0.23201192034E-01  0.00000000000E+00 0. -1.
     999901    1    3    3    0    0 -0.95878078120E-01 -0.69486305604E-01  0.34777273326E-01  0.88861150751E+00  0.88000000000E+00 0. -1.
        -11    1    4    4    0    0  0.34333625388E-01  0.21329895557E-01 -0.12071294357E-01  0.42186959421E-01  0.51100000000E-03 0. -1.
         11    1    4    4    0    0  0.62144875283E-01  0.64682609255E-01 -0.64327019699E-02  0.89930341040E-01  0.51100000000E-03 0.  1.
</event>
<event>
 8    1  0.1213322E+005  0.1043930E+01  0.7957747E-01            NaN
         13   -1    0    0    0    0  0.00000000000E+00  0.00000000000E+00  0.74505805969E-08  0.10566000000E+00  0.10566000000E+00 0.  1.
     999900   -1    0    0    0    0 -0.00000000000E+00 -0.00000000000E+00 -0.74505805969E-08  0.93827000000E+00  0.93827000000E+00 0.  1.
     999902    2    1    2    0    0 -0.64278166954E-02 -0.20269364233E-01  0.10758270668E-01  0.10200992564E+01  0.10198208610E+01 0.  0.
     999903    2    3    3    0    0 -0.11053526552E+00 -0.19722335131E-01  0.66806091650E-01  0.13219159317E+00  0.20113378579E-01 0.  0.
         14    1    1    2    0    0  0.64278166954E-02  0.20269364233E-01 -0.10758270668E-01  0.23830743623E-01  0.00000000000E+00 0. -1.
     999901    1    3    3    0    0  0.10410744882E+00 -0.54702910153E-03 -0.56047820983E-01  0.88790766320E+00  0.88000000000E+00 0. -1.
        -11    1    4    4    0    0 -0.22354556295E-01  0.40539914884E-02  0.12549466176E-01  0.25959800778E-01  0.51100000000E-03 0. -1.
         11    1    4    4    0    0 -0.88180709222E-01 -0.23776326620E-01  0.54256625474E-01  0.10623179239E+00  0.51100000000E-03 0.  1.
</event>
<event>
 8    1  0.1213322E+005  0.1043930E+01  0.7957747E-01            NaN
         13   -1    0    0    0    0  0.00000000000E+00  0.00000000000E+00  0.74505805969E-08  0.10566000000E+00  0.10566000000E+00 0.  1.
     999900   -1    0    0    0    0 -0.00000000000E+00 -0.00000000000E+00 -0.74505805969E-08  0.93827000000E+00  0.93827000000E+00 0. -1.
     999902    2    1    2    0    0  0.13086729487E-01 -0.66467708158E-02  0.18802528844E-01  0.10200767583E+01  0.10197978307E+01 0.  0.
     999903    2    3    3    0    0  0.64545766477E-01  0.10148858530E+00  0.49068734119E-01  0.13145010385E+00  0.20132069374E-01 0.  0.
         14    1    1    2    0    0 -0.13086729487E-01  0.66467708158E-02 -0.18802528844E-01  0.23853241748E-01  0.00000000000E+00 0. -1.
     999901    1    3    3    0    0 -0.51459036990E-01 -0.10813535612E+00 -0.30266205275E-01  0.88862665440E+00  0.88000000000E+00 0. -1.
        -11    1    4    4    0    0  0.58374167590E-02  0.28484962725E-02  0.59660995419E-02  0.88342985108E-02  0.51100000000E-03 0.  1.
         11    1    4    4    0    0  0.58708349718E-01  0.98640089031E-01  0.43102634577E-01  0.12261580534E+00  0.51100000000E-03 0. -1.
</event>
<event>
 8    1  0.1213322E+005  0.1043930E+01  0.7957747E-01            NaN
         13   -1    0    0    0    0  0.00000000000E+00  0.00000000000E+00  0.74505805969E-08  0.10566000000E+00  0.10566000000E+00 0.  1.
     999900   -1    0    0    0    0 -0.00000000000E+00 -0.00000000000E+00 -0.74505805969E-08  0.93827000000E+00  0.93827000000E+00 0.  1.
     999902    2    1    2    0    0  0.24321556607E-01 -0.17236051019E-02 -0.56007520579E-02  0.10189124591E+01  0.10186052827E+01 0.  0.
     999903    2    3    3    0    0 -0.85860162102E-01 -0.28923146218E-02  0.90907036847E-01  0.12680532967E+00  0.20860713406E-01 0.  0.
         14    1    1    2    0    0 -0.24321556607E-01  0.17236051019E-02  0.56007520579E-02  0.25017540925E-01  0.00000000000E+00 0.  1.
     999901    1    3    3    0    0  0.11018171871E+00  0.11687095198E-02 -0.96507788904E-01  0.89210712941E+00  0.88000000000E+00 0.  1.
        -11    1    4    4    0    0 -0.56987067893E-01  0.62645839595E-02  0.51241727574E-01  0.76894386563E-01  0.51100000000E-03 0.  1.
         11    1    4    4    0    0 -0.28873094209E-01 -0.91568985813E-02  0.39665309273E-01  0.49910943104E-01  0.51100000000E-03 0. -1.
</event>
<event>
 8    1  0.1213322E+005  0.1043930E+01  0.7957747E-01            NaN
         13   -1    0    0    0    0  0.00000000000E+00  0.00000000000E+00  0.74505805969E-08  0.10566000000E+00  0.10566000000E+00 0. -1.
     999900   -1    0    0    0    0 -0.00000000000E+00 -0.00000000000E+00 -0.74505805969E-08  0.93827000000E+00  0.93827000000E+00 0. -1.
     999902    2    1    2    0    0 -0.82880395052E-02  0.26007139323E-01  0.47396291923E-02  0.10162257227E+01  0.10158480165E+01 0.  0.
     999903    2    3    3    0    0 -0.37703652901E-01  0.12283682847E+00 -0.88008452595E-02  0.13032244840E+00  0.19900598181E-01 0.  0.
         14    1    1    2    0    0  0.82880395052E-02 -0.26007139323E-01 -0.47396291923E-02  0.27704277277E-01  0.00000000000E+00 0.  1.
     999901    1    3    3    0    0  0.29415613396E-01 -0.96829689149E-01  0.13540474452E-01  0.88590327433E+00  0.88000000000E+00 0. -1.
        -11    1    4    4    0    0 -0.15931179278E-01  0.83776030015E-01 -0.69664732986E-02  0.85562950799E-01  0.51100000000E-03 0.  1.
         11    1    4    4    0    0 -0.21772473623E-01  0.39060798457E-01 -0.18343719609E-02  0.44759497598E-01  0.51100000000E-03 0. -1.
</event>
<event>
 8    1  0.1213322E+005  0.1043930E+01  0.7957747E-01            NaN
         13   -1    0    0    0    0  0.00000000000E+00  0.00000000000E+00  0.74505805969E-08  0.10566000000E+00  0.10566000000E+00 0. -1.
     999900   -1    0    0    0    0 -0.00000000000E+00 -0.00000000000E+00 -0.74505805969E-08  0.93827000000E+00  0.93827000000E+00 0.  1.
     999902    2    1    2    0    0 -0.83565027278E-02 -0.11557545256E-01 -0.19010492372E-01  0.10201643355E+01  0.10198874764E+01 0.  0.
     999903    2    3    3    0    0  0.12242310308E+00 -0.73067159449E-02  0.34217327410E-01  0.12889861996E+00  0.20080449883E-01 0.  0.
         14    1    1    2    0    0  0.83565027278E-02  0.11557545256E-01  0.19010492372E-01  0.23765664527E-01  0.00000000000E+00 0.  1.
     999901    1    3    3    0    0 -0.13077960581E+00 -0.42508293109E-02 -0.53227819782E-01  0.89126571551E+00  0.88000000000E+00 0. -1.
        -11    1    4    4    0    0  0.43031762762E-01 -0.10645850956E-02  0.21950775092E-01  0.48321461029E-01  0.51100000000E-03 0.  1.
         11    1    4    4    0    0  0.79391340318E-01 -0.62421308492E-02  0.12266552318E-01  0.80577158934E-01  0.51100000000E-03 0. -1.
</event>
<event>
 8    1  0.1213322E+005  0.1043930E+01  0.7957747E-01            NaN
         13   -1    0    0    0    0  0.00000000000E+00  0.00000000000E+00  0.74505805969E-08  0.10566000000E+00  0.10566000000E+00 0. -1.
     999900   -1    0    0    0    0 -0.00000000000E+00 -0.00000000000E+00 -0.74505805969E-08  0.93827000000E+00  0.93827000000E+00 0.  1.
     999902    2    1    2    0    0  0.19760455029E-01  0.12135461046E-01  0.13182846480E-02  0.10207032294E+01  0.10204389250E+01 0.  0.
     999903    2    3    3    0    0 -0.19861093652E-01  0.12909985879E+00 -0.72306146716E-03  0.13207805277E+00  0.19566620173E-01 0.  0.
         14    1    1    2    0    0 -0.19760455029E-01 -0.12135461046E-01 -0.13182846480E-02  0.23226770593E-01  0.00000000000E+00 0. -1.
     999901    1    3    3    0    0  0.39621548681E-01 -0.11696439774E+00  0.20413461151E-02  0.88862517664E+00  0.88000000000E+00 0. -1.
        -11    1    4    4    0    0 -0.15557995776E-01  0.67006335710E-01 -0.86434988246E-02  0.69331604992E-01  0.51100000000E-03 0. -1.
         11    1    4    4    0    0 -0.43030978760E-02  0.62093523080E-01  0.79204373575E-02  0.62746447778E-01  0.51100000000E-03 0.  1.
</event>
<event>
 7    1  0.1213322E+005  0.1043930E+01  0.7957747E-01            NaN
         13   -1    0    0    0    0  0.00000000000E+00  0.00000000000E+00  0.74505805969E-08  0.10566000000E+00  0.10566000000E+00 0. -1.
     999900   -1    0    0    0    0 -0.00000000000E+00 -0.00000000000E+00 -0.74505805969E-08  0.93827000000E+00  0.93827000000E+00 0. -1.
     999903    2    1    2    0    0 -0.19308818542E-02 -0.10797630557E+00  0.47301991520E-02  0.11003591794E+00  0.20564960082E-01 0.  0.
         14    1    1    2    0    0 -0.15406574097E-02  0.87399775461E-02 -0.46486158638E-01  0.47325720044E-01  0.00000000000E+00 0.  1.
     999901    1    1    2    0    0  0.34715392640E-02  0.99236328021E-01  0.41755959486E-01  0.88656836202E+00  0.88000000000E+00 0.  1.
        -11    1    3    3    0    0  0.70569155586E-02 -0.47156124668E-01 -0.43678429359E-02  0.47883601826E-01  0.51100000000E-03 0.  1.
         11    1    3    3    0    0 -0.89877974129E-02 -0.60820180899E-01  0.90980420879E-02  0.62152316110E-01  0.51100000000E-03 0. -1.
</event>
<event>
 8    1  0.1213322E+005  0.1043930E+01  0.7957747E-01            NaN
         13   -1    0    0    0    0  0.00000000000E+00  0.00000000000E+00  0.74505805969E-08  0.10566000000E+00  0.10566000000E+00 0.  1.
     999900   -1    0    0    0    0 -0.00000000000E+00 -0.00000000000E+00 -0.74505805969E-08  0.93827000000E+00  0.93827000000E+00 0. -1.
     999902    2    1    2    0    0 -0.93973010039E-02 -0.18680549379E-01  0.11365761145E-01  0.10201297328E+01  0.10198520574E+01 0.  0.
     999903    2    3    3    0    0 -0.81989185744E-01 -0.10246455246E+00 -0.12261438412E-02  0.13308525988E+00  0.22112708551E-01 0.  0.
         14    1    1    2    0    0  0.93973010039E-02  0.18680549379E-01 -0.11365761145E-01  0.23800267177E-01  0.00000000000E+00 0. -1.
     999901    1    3    3    0    0  0.72591884740E-01  0.83784003081E-01  0.12591904986E-01  0.88704447294E+00  0.88000000000E+00 0.  1.
        -11    1    4    4    0    0 -0.77619914435E-01 -0.91600900793E-01 -0.64807524764E-02  0.12024074774E+00  0.51100000000E-03 0.  1.
         11    1    4    4    0    0 -0.43692713091E-02 -0.10863651668E-01  0.52546086352E-02  0.12844512145E-01  0.51100000000E-03 0. -1.
</event>
<event>
 8    1  0.1213322E+005  0.1043930E+01  0.7957747E-01            NaN
         13   -1    0    0    0    0  0.00000000000E+00  0.00000000000E+00  0.74505805969E-08  0.10566000000E+00  0.10566000000E+00 0.  1.
     999900   -1    0    0    0    0 -0.00000000000E+00 -0.00000000000E+00 -0.74505805969E-08  0.93827000000E+00  0.93827000000E+00 0. -1.
     999902    2    1    2    0    0 -0.77701616168E-02 -0.25151939673E-02  0.22425921871E-01  0.10200632117E+01  0.10197839635E+01 0.  0.
     999903    2    3    3    0    0 -0.97536467345E-01 -0.48548650877E-01 -0.67447201346E-01  0.12975189138E+00  0.20398391695E-01 0.  0.
         14    1    1    2    0    0  0.77701616168E-02  0.25151939673E-02 -0.22425921871E-01  0.23866788306E-01  0.00000000000E+00 0. -1.
     999901    1    3    3    0    0  0.89766305728E-01  0.46033456909E-01  0.89873123217E-01  0.89031132031E+00  0.88000000000E+00 0.  1.
        -11    1    4    4    0    0 -0.16677480666E-01 -0.17580195969E-01 -0.13776350419E-01  0.27879214543E-01  0.51100000000E-03 0. -1.
         11    1    4    4    0    0 -0.80858986679E-01 -0.30968454907E-01 -0.53670850927E-01  0.10187267684E+00  0.51100000000E-03 0.  1.
</event>
<event>
 8    1  0.1213322E+005  0.1043930E+01  0.7957747E-01            NaN
         13   -1    0    0    0    0  0.00000000000E+00  0.00000000000E+00  0.74505805969E-08  0.10566000000E+00  0.10566000000E+00 0.  1.
     999900   -1    0    0    0    0 -0.00000000000E+00 -0.00000000000E+00 -0.74505805969E-08  0.93827000000E+00  0.93827000000E+00 0.  1.
     999902    2    1    2    0    0  0.16262157886E-01 -0.10384967288E-01  0.13132089332E-01  0.10205899680E+01  0.10203230496E+01 0.  0.
     999903    2    3    3    0    0  0.11491423791E+00  0.36862633053E-01  0.51789124125E-01  0.13297578660E+00  0.20888050519E-01 0.  0.
         14    1    1    2    0    0 -0.16262157886E-01  0.10384967288E-01 -0.13132089332E-01  0.23340032025E-01  0.00000000000E+00 0. -1.
     999901    1    3    3    0    0 -0.98652080028E-01 -0.47247600341E-01 -0.38657034793E-01  0.88761418137E+00  0.88000000000E+00 0. -1.
        -11    1    4    4    0    0  0.67071006176E-01  0.14132900555E-01  0.20920713291E-01  0.71667259702E-01  0.51100000000E-03 0. -1.
         11    1    4    4    0    0  0.47843231738E-01  0.22729732497E-01  0.30868410835E-01  0.61308526903E-01  0.51100000000E-03 0.  1.
</event>
<event>
 8    1  0.1213322E+005  0.1043930E+01  0.7957747E-01            NaN
         13   -1    0    0    0    0  0.00000000000E+00  0.00000000000E+00  0.74505805969E-08  0.10566000000E+00  0.10566000000E+00 0. -1.
     999900   -1    0    0    0    0 -0.00000000000E+00 -0.00000000000E+00 -0.74505805969E-08  0.93827000000E+00  0.93827000000E+00 0.  1.
     999902    2    1    2    0    0  0.12207203909E-01  0.51768892431E-04 -0.19950067557E-01  0.10205414621E+01  0.10202734203E+01 0.  0.
     999903    2    3    3    0    0  0.11508800429E+00 -0.37988457919E-01 -0.51368625724E-01  0.13317533493E+00  0.20212927977E-01 0.  0.
         14    1    1    2    0    0 -0.12207203909E-01 -0.51768892431E-04  0.19950067557E-01  0.23388537851E-01  0.00000000000E+00 0. -1.
     999901    1    3    3    0    0 -0.10288080038E+00  0.38040226812E-01  0.31418558167E-01  0.88736612722E+00  0.88000000000E+00 0. -1.
        -11    1    4    4    0    0  0.72100278896E-01 -0.25275389737E-01 -0.21734604142E-01  0.79435191706E-01  0.51100000000E-03 0. -1.
         11    1    4    4    0    0  0.42987725395E-01 -0.12713068182E-01 -0.29634021582E-01  0.53740143221E-01  0.51100000000E-03 0.  1.
</event>
<event>
 8    1  0.1213322E+005  0.1043930E+01  0.7957747E-01            NaN
         13   -1    0    0    0    0  0.00000000000E+00  0.00000000000E+00  0.74505805969E-08  0.10566000000E+00  0.10566000000E+00 0. -1.
     999900   -1    0    0    0    0 -0.00000000000E+00 -0.00000000000E+00 -0.74505805969E-08  0.93827000000E+00  0.93827000000E+00 0.  1.
     999902    2    1    2    0    0  0.12144506059E-02 -0.61685779029E-02 -0.13303271375E-01  0.10292159498E+01  0.10291107657E+01 0.  0.
     999903    2    3    3    0    0  0.15392984545E-01  0.13415672937E+00 -0.19595551879E-01  0.13796300284E+00  0.20367437029E-01 0.  0.
         14    1    1    2    0    0 -0.12144506059E-02  0.61685779029E-02  0.13303271375E-01  0.14714050187E-01  0.00000000000E+00 0. -1.
     999901    1    3    3    0    0 -0.14178533939E-01 -0.14032530728E+00  0.62922805042E-02  0.89125294697E+00  0.88000000000E+00 0.  1.
        -11    1    4    4    0    0  0.38303475572E-02  0.24716670894E-01 -0.11734266668E-01  0.27632218835E-01  0.51100000000E-03 0.  1.
         11    1    4    4    0    0  0.11562636987E-01  0.10944005848E+00 -0.78612852110E-02  0.11033078401E+00  0.51100000000E-03 0. -1.
</event>
<event>
 8    1  0.1213322E+005  0.1043930E+01  0.7957747E-01            NaN
         13   -1    0    0    0    0  0.00000000000E+00  0.00000000000E+00  0.74505805969E-08  0.10566000000E+00  0.10566000000E+00 0. -1.
     999900   -1    0    0    0    0 -0.00000000000E+00 -0.00000000000E+00 -0.74505805969E-08  0.93827000000E+00  0.93827000000E+00 0. -1.
     999902    2    1    2    0    0  0.15941649527E-01 -0.14207629562E-02 -0.18099183908E-01  0.10197693871E+01  0.10194831375E+01 0.  0.
     999903    2    3    3    0    0 -0.30138775283E-01  0.10001522519E+00 -0.76879527030E-01  0.13079931226E+00  0.16929482164E-01 0.  0.
         14    1    1    2    0    0 -0.15941649527E-01  0.14207629562E-02  0.18099183908E-01  0.24160612889E-01  0.00000000000E+00 0. -1.
     999901    1    3    3    0    0  0.46080424810E-01 -0.10143598815E+00  0.58780343122E-01  0.88897007485E+00  0.88000000000E+00 0.  1.
        -11    1    4    4    0    0 -0.86976003582E-02  0.32508894533E-01 -0.34794100692E-01  0.48408336469E-01  0.51100000000E-03 0.  1.
         11    1    4    4    0    0 -0.21441174925E-01  0.67506330656E-01 -0.42085426337E-01  0.82390975791E-01  0.51100000000E-03 0. -1.
</event>
<event>
 8    1  0.1213322E+005  0.1043930E+01  0.7957747E-01            NaN
         13   -1    0    0    0    0  0.00000000000E+00  0.00000000000E+00  0.74505805969E-08  0.10566000000E+00  0.10566000000E+00 0.  1.
     999900   -1    0    0    0    0 -0.00000000000E+00 -0.00000000000E+00 -0.74505805969E-08  0.93827000000E+00  0.93827000000E+00 0.  1.
     999902    2    1    2    0    0 -0.15200747065E-02 -0.24030742692E-01  0.33885714372E-02  0.10196139634E+01  0.10193239743E+01 0.  0.
     999903    2    3    3    0    0 -0.32091685800E-02  0.65910290009E-01 -0.10798279612E+00  0.12804465932E+00  0.19511161666E-01 0.  0.
         14    1    1    2    0    0  0.15200747065E-02  0.24030742692E-01 -0.33885714372E-02  0.24316036639E-01  0.00000000000E+00 0. -1.
     999901    1    3    3    0    0  0.16890938735E-02 -0.89941032700E-01  0.11137136756E+00  0.89156930404E+00  0.88000000000E+00 0. -1.
        -11    1    4    4    0    0 -0.54912214808E-02  0.24087147826E-01 -0.25349008871E-01  0.35400248241E-01  0.51100000000E-03 0. -1.
         11    1    4    4    0    0  0.22820529008E-02  0.41823142182E-01 -0.82633787250E-01  0.92644411077E-01  0.51100000000E-03 0.  1.
</event>
<event>
 8    1  0.1213322E+005  0.1043930E+01  0.7957747E-01            NaN
         13   -1    0    0    0    0  0.00000000000E+00  0.00000000000E+00  0.74505805969E-08  0.10566000000E+00  0.10566000000E+00 0.  1.
     999900   -1    0    0    0    0 -0.00000000000E+00 -0.00000000000E+00 -0.74505805969E-08  0.93827000000E+00  0.93827000000E+00 0.  1.
     999902    2    1    2    0    0  0.13126128114E-01  0.19658666953E-01 -0.36972038843E-02  0.10200045378E+01  0.10197238986E+01 0.  0.
     999903    2    3    3    0    0  0.72547430111E-01  0.69208573932E-01  0.84156170813E-01  0.13225215122E+00  0.18852429393E-01 0.  0.
         14    1    1    2    0    0 -0.13126128114E-01 -0.19658666953E-01  0.36972038843E-02  0.23925462215E-01  0.00000000000E+00 0.  1.
     999901    1    3    3    0    0 -0.59421301997E-01 -0.49549906978E-01 -0.87853374698E-01  0.88775238657E+00  0.88000000000E+00 0.  1.
        -11    1    4    4    0    0  0.53502105241E-01  0.41751940272E-01  0.48726409467E-01  0.83547734154E-01  0.51100000000E-03 0.  1.
         11    1    4    4    0    0  0.19045324869E-01  0.27456633660E-01  0.35429761346E-01  0.48704417062E-01  0.51100000000E-03 0. -1.
</event>
<event>
 7    1  0.1213322E+005  0.1043930E+01  0.7957747E-01            NaN
         13   -1    0    0    0    0  0.00000000000E+00  0.00000000000E+00  0.74505805969E-08  0.10566000000E+00  0.10566000000E+00 0. -1.
     999900   -1    0    0    0    0 -0.00000000000E+00 -0.00000000000E+00 -0.74505805969E-08  0.93827000000E+00  0.93827000000E+00 0.  1.
     999903    2    1    2    0    0 -0.50471512707E-01  0.58143469860E-01 -0.41562239586E-01  0.89761586089E-01  0.20042103072E-01 0.  0.
         14    1    1    2    0    0 -0.57525993144E-01  0.24358322095E-01  0.92336609689E-02  0.63149253656E-01  0.00000000000E+00 0. -1.
     999901    1    1    2    0    0  0.10799750585E+00 -0.82501791955E-01  0.32328578617E-01  0.89101916025E+00  0.88000000000E+00 0.  1.
        -11    1    3    3    0    0 -0.17172483638E-01  0.29161124400E-01 -0.93574790716E-02  0.35115365670E-01  0.51100000000E-03 0. -1.
         11    1    3    3    0    0 -0.33299029069E-01  0.28982345460E-01 -0.32204760514E-01  0.54646220419E-01  0.51100000000E-03 0.  1.
</event>
<event>
 8    1  0.1213322E+005  0.1043930E+01  0.7957747E-01            NaN
         13   -1    0    0    0    0  0.00000000000E+00  0.00000000000E+00  0.74505805969E-08  0.10566000000E+00  0.10566000000E+00 0. -1.
     999900   -1    0    0    0    0 -0.00000000000E+00 -0.00000000000E+00 -0.74505805969E-08  0.93827000000E+00  0.93827000000E+00 0.  1.
     999902    2    1    2    0    0 -0.33939395289E-02  0.27853933649E-02 -0.23128868906E-01  0.10203880838E+01  0.10201164736E+01 0.  0.
     999903    2    3    3    0    0  0.42535552170E-01  0.10552954210E+00  0.58404308702E-01  0.12948206330E+00  0.20218407111E-01 0.  0.
         14    1    1    2    0    0  0.33939395289E-02 -0.27853933649E-02  0.23128868906E-01  0.23541916205E-01  0.00000000000E+00 0. -1.
     999901    1    3    3    0    0 -0.45929491699E-01 -0.10274414874E+00 -0.81533177609E-01  0.89090602050E+00  0.88000000000E+00 0. -1.
        -11    1    4    4    0    0  0.26806038940E-01  0.59587465096E-01  0.22570802567E-01  0.69129819685E-01  0.51100000000E-03 0.  1.
         11    1    4    4    0    0  0.15729513230E-01  0.45942077007E-01  0.35833506135E-01  0.60352243613E-01  0.51100000000E-03 0. -1.
</event>
<event>
 8    1  0.1213322E+005  0.1043930E+01  0.7957747E-01            NaN
         13   -1    0    0    0    0  0.00000000000E+00  0.00000000000E+00  0.74505805969E-08  0.10566000000E+00  0.10566000000E+00 0.  1.
     999900   -1    0    0    0    0 -0.00000000000E+00 -0.00000000000E+00 -0.74505805969E-08  0.93827000000E+00  0.93827000000E+00 0.  1.
     999902    2    1    2    0    0 -0.12650338406E-01 -0.72975905126E-02  0.18089341640E-01  0.10206811254E+01  0.10204163119E+01 0.  0.
     999903    2    3    3    0    0 -0.11675882081E+00 -0.38745691383E-02  0.61319065589E-01  0.13348379548E+00  0.20254908744E-01 0.  0.
         14    1    1    2    0    0  0.12650338406E-01  0.72975905126E-02 -0.18089341640E-01  0.23248874597E-01  0.00000000000E+00 0. -1.
     999901    1    3    3    0    0  0.10410848241E+00 -0.34230213743E-02 -0.43229723949E-01  0.88719732992E+00  0.88000000000E+00 0.  1.
        -11    1    4    4    0    0 -0.79241885560E-01 -0.93884021883E-02  0.33969670170E-01  0.86727262929E-01  0.51100000000E-03 0.  1.
         11    1    4    4    0    0 -0.37516935253E-01  0.55138330500E-02  0.27349395418E-01  0.46756532554E-01  0.51100000000E-03 0. -1.
</event>
<event>
 8    1  0.1213322E+005  0.1043930E+01  0.7957747E-01            NaN
         13   -1    0    0    0    0  0.00000000000E+00  0.00000000000E+00  0.74505805969E-08  0.10566000000E+00  0.10566000000E+00 0. -1.
     999900   -1    0    0    0    0 -0.00000000000E+00 -0.00000000000E+00 -0.74505805969E-08  0.93827000000E+00  0.93827000000E+00 0. -1.
     999902    2    1    2    0    0 -0.79361982701E-02  0.19146438657E-01  0.11573839335E-01  0.10201913582E+01  0.10199151358E+01 0.  0.
     999903    2    3    3    0    0 -0.20459622716E-01 -0.12501754886E+00  0.24098205761E-03  0.12830093608E+00  0.20324577327E-01 0.  0.
         14    1    1    2    0    0  0.79361982701E-02 -0.19146438657E-01 -0.11573839335E-01  0.23738641772E-01  0.00000000000E+00 0.  1.
     999901    1    3    3    0    0  0.12523424446E-01  0.14416398752E+00  0.11332857277E-01  0.89189042214E+00  0.88000000000E+00 0.  1.
        -11    1    4    4    0    0 -0.15924283154E-01 -0.89118867207E-01  0.92661722158E-02  0.91004825997E-01  0.51100000000E-03 0. -1.
         11    1    4    4    0    0 -0.45353395613E-02 -0.35898681652E-01 -0.90251901582E-02  0.37296110088E-01  0.51100000000E-03 0.  1.
</event>
<event>
 8    1  0.1213322E+005  0.1043930E+01  0.7957747E-01            NaN
         13   -1    0    0    0    0  0.00000000000E+00  0.00000000000E+00  0.74505805969E-08  0.10566000000E+00  0.10566000000E+00 0. -1.
     999900   -1    0    0    0    0 -0.00000000000E+00 -0.00000000000E+00 -0.74505805969E-08  0.93827000000E+00  0.93827000000E+00 0.  1.
     999902    2    1    2    0    0  0.47711858758E-02 -0.14053374078E-01 -0.21531198923E-01  0.10177793965E+01  0.10174433870E+01 0.  0.
     999903    2    3    3    0    0  0.98876193542E-01 -0.13052480509E-01  0.76626566254E-01  0.12733473165E+00  0.19890558841E-01 0.  0.
         14    1    1    2    0    0 -0.47711858758E-02  0.14053374078E-01  0.21531198923E-01  0.26150603525E-01  0.00000000000E+00 0. -1.
     999901    1    3    3    0    0 -0.94105007666E-01 -0.10008935690E-02 -0.98157765177E-01  0.89044466483E+00  0.88000000000E+00 0.  1.
        -11    1    4    4    0    0  0.26975559250E-02  0.26573576528E-02  0.54476238505E-02  0.66540276735E-02  0.51100000000E-03 0.  1.
         11    1    4    4    0    0  0.96178637617E-01 -0.15709838161E-01  0.71178942404E-01  0.12068070397E+00  0.51100000000E-03 0. -1.
</event>
<event>
 8    1  0.1213322E+005  0.1043930E+01  0.7957747E-01            NaN
         13   -1    0    0    0    0  0.00000000000E+00  0.00000000000E+00  0.74505805969E-08  0.10566000000E+00  0.10566000000E+00 0. -1.
     999900   -1    0    0    0    0 -0.00000000000E+00 -0.00000000000E+00 -0.74505805969E-08  0.93827000000E+00  0.93827000000E+00 0. -1.
     999902    2    1    2    0    0  0.14256859195E-01  0.11026610768E-01  0.16521939931E-01  0.10194796692E+01  0.10191864290E+01 0.  0.
     999903    2    3    3    0    0  0.76187889966E-02 -0.12674425077E+00 -0.20951939311E-02  0.12854113484E+00  0.19906844548E-01 0.  0.
         14    1    1    2    0    0 -0.14256859195E-01 -0.11026610768E-01 -0.16521939931E-01  0.24450330841E-01  0.00000000000E+00 0. -1.
     999901    1    3    3    0    0  0.66380701989E-02  0.13777086153E+00  0.18617133862E-01  0.89093853432E+00  0.88000000000E+00 0.  1.
        -11    1    4    4    0    0  0.17642928132E-02 -0.43427618860E-01 -0.10132078847E-01  0.44631725843E-01  0.51100000000E-03 0.  1.
         11    1    4    4    0    0  0.58544961834E-02 -0.83316631907E-01  0.80368849162E-02  0.83909408996E-01  0.51100000000E-03 0. -1.
</event>
<event>
 8    1  0.1213322E+005  0.1043930E+01  0.7957747E-01            NaN
         13   -1    0    0    0    0  0.00000000000E+00  0.00000000000E+00  0.74505805969E-08  0.10566000000E+00  0.10566000000E+00 0.  1.
     999900   -1    0    0    0    0 -0.00000000000E+00 -0.00000000000E+00 -0.74505805969E-08  0.93827000000E+00  0.93827000000E+00 0.  1.
     999902    2    1    2    0    0  0.21223876544E-01 -0.11715624671E-01  0.97357965538E-03  0.10196677525E+01  0.10193790604E+01 0.  0.
     999903    2    3    3    0    0  0.85317979996E-02 -0.12895370172E+00 -0.12725507917E-01  0.13169617605E+00  0.21911080948E-01 0.  0.
         14    1    1    2    0    0 -0.21223876544E-01  0.11715624671E-01 -0.97357965538E-03  0.24262247513E-01  0.00000000000E+00 0. -1.
     999901    1    3    3    0    0  0.12692078545E-01  0.11723807705E+00  0.13699087573E-01  0.88797157644E+00  0.88000000000E+00 0. -1.
        -11    1    4    4    0    0 -0.60349551934E-02 -0.17858059069E-01 -0.42375546998E-02  0.19327414435E-01  0.51100000000E-03 0.  1.
         11    1    4    4    0    0  0.14566753193E-01 -0.11109564265E+00 -0.84879532175E-02  0.11236876161E+00  0.51100000000E-03 0. -1.
</event>
<event>
 8    1  0.1213322E+005  0.1043930E+01  0.7957747E-01            NaN
         13   -1    0    0    0    0  0.00000000000E+00  0.00000000000E+00  0.74505805969E-08  0.10566000000E+00  0.10566000000E+00 0.  1.
     999900   -1    0    0    0    0 -0.00000000000E+00 -0.00000000000E+00 -0.74505805969E-08  0.93827000000E+00  0.93827000000E+00 0. -1.
     999902    2    1    2    0    0  0.33632809725E-02 -0.84807753185E-02 -0.30342919901E-01  0.10122451772E+01  0.10117491639E+01 0.  0.
     999903    2    3    3    0    0  0.11956582351E+00 -0.16381294666E-01  0.16378592144E-01  0.12334228665E+00  0.19512263556E-01 0.  0.
         14    1    1    2    0    0 -0.33632809725E-02  0.84807753185E-02  0.30342919901E-01  0.31684822819E-01  0.00000000000E+00 0.  1.
     999901    1    3    3    0    0 -0.11620254254E+00  0.79005193470E-02 -0.46721512046E-01  0.88890289053E+00  0.88000000000E+00 0.  1.
        -11    1    4    4    0    0  0.54943607422E-01 -0.36401152788E-03  0.74690326349E-03  0.54952265525E-01  0.51100000000E-03 0. -1.
         11    1    4    4    0    0  0.64622216092E-01 -0.16017283138E-01  0.15631688881E-01  0.68390021129E-01  0.51100000000E-03 0.  1.
</event>
<event>
 8    1  0.1213322E+005  0.1043930E+01  0.7957747E-01            NaN
         13   -1    0    0    0    0  0.00000000000E+00  0.00000000000E+00  0.74505805969E-08  0.10566000000E+00  0.10566000000E+00 0. -1.
     999900   -1    0    0    0    0 -0.00000000000E+00 -0.00000000000E+00 -0.74505805969E-08  0.93827000000E+00  0.93827000000E+00 0.  1.
     999902    2    1    2    0    0 -0.11622554458E-01  0.14668738685E-01  0.13345143825E-01  0.10209441667E+01  0.10206853791E+01 0.  0.
     999903    2    3    3    0    0 -0.82385538145E-02 -0.97258508215E-01  0.84897975857E-01  0.13096721882E+00  0.20436607166E-01 0.  0.
         14    1    1    2    0    0  0.11622554458E-01 -0.14668738685E-01 -0.13345143825E-01  0.22985833255E-01  0.00000000000E+00 0.  1.
     999901    1    3    3    0    0 -0.33840006436E-02  0.11192724690E+00 -0.71552832032E-01  0.88997694792E+00  0.88000000000E+00 0.  1.
        -11    1    4    4    0    0  0.24723812726E-02 -0.15156682940E-01  0.56971130885E-02  0.16387676023E-01  0.51100000000E-03 0.  1.
         11    1    4    4    0    0 -0.10710935087E-01 -0.82101825276E-01  0.79200862769E-01  0.11457954280E+00  0.51100000000E-03 0. -1.
</event>
<event>
 8    1  0.1213322E+005  0.1043930E+01  0.7957747E-01            NaN
         13   -1    0    0    0    0  0.00000000000E+00  0.00000000000E+00  0.74505805969E-08  0.10566000000E+00  0.10566000000E+00 0.  1.
     999900   -1    0    0    0    0 -0.00000000000E+00 -0.00000000000E+00 -0.74505805969E-08  0.93827000000E+00  0.93827000000E+00 0. -1.
     999902    2    1    2    0    0  0.10404382008E-01 -0.18133851153E-01  0.10725722584E-01  0.10204325779E+01  0.10201620053E+01 0.  0.
     999903    2    3    3    0    0 -0.76292538398E-01 -0.88465195686E-01  0.58711674492E-01  0.13208269993E+00  0.18765304025E-01 0.  0.
         14    1    1    2    0    0 -0.10404382008E-01  0.18133851153E-01 -0.10725722584E-01  0.23497422147E-01  0.00000000000E+00 0. -1.
     999901    1    3    3    0    0  0.86696920406E-01  0.70331344533E-01 -0.47985951908E-01  0.88834987793E+00  0.88000000000E+00 0. -1.
        -11    1    4    4    0    0 -0.26066103588E-01 -0.44142211097E-01  0.27565725646E-01  0.58207447188E-01  0.51100000000E-03 0. -1.
         11    1    4    4    0    0 -0.50226434809E-01 -0.44322984590E-01  0.31145948846E-01  0.73875252738E-01  0.51100000000E-03 0.  1.
</event>
<event>
 8    1  0.1213322E+005  0.1043930E+01  0.7957747E-01            NaN
         13   -1    0    0    0    0  0.00000000000E+00  0.00000000000E+00  0.74505805969E-08  0.10566000000E+00  0.10566000000E+00 0.  1.
     999900   -1    0    0    0    0 -0.00000000000E+00 -0.00000000000E+00 -0.74505805969E-08  0.93827000000E+00  0.93827000000E+00 0. -1.
     999902    2    1    2    0    0  0.16485227489E-02 -0.14254726109E-01  0.18676103747E-01  0.10203776818E+01  0.10201058287E+01 0.  0.
     999903    2    3    3    0    0  0.60838556559E-01  0.10300604745E+00 -0.42417635699E-01  0.12853352826E+00  0.20249352882E-01 0.  0.
         14    1    1    2    0    0 -0.16485227489E-02  0.14254726109E-01 -0.18676103747E-01  0.23552318248E-01  0.00000000000E+00 0.  1.
     999901    1    3    3    0    0 -0.59190033810E-01 -0.11726077356E+00  0.61093739446E-01  0.89184415349E+00  0.88000000000E+00 0.  1.
        -11    1    4    4    0    0  0.22339402466E-01  0.36209679825E-01 -0.25483798923E-01  0.49597126370E-01  0.51100000000E-03 0. -1.
         11    1    4    4    0    0  0.38499154093E-01  0.66796367629E-01 -0.16933836776E-01  0.78936401890E-01  0.51100000000E-03 0.  1.
</event>
<event>
 8    1  0.1213322E+005  0.1043930E+01  0.7957747E-01            NaN
         13   -1    0    0    0    0  0.00000000000E+00  0.00000000000E+00  0.74505805969E-08  0.10566000000E+00  0.10566000000E+00 0. -1.
     999900   -1    0    0    0    0 -0.00000000000E+00 -0.00000000000E+00 -0.74505805969E-08  0.93827000000E+00  0.93827000000E+00 0. -1.
     999902    2    1    2    0    0  0.30006287498E-02  0.23771525098E-01  0.19025806366E-02  0.10198944224E+01  0.10196111630E+01 0.  0.
     999903    2    3    3    0    0 -0.94049572117E-01 -0.38154052779E-01  0.77343168818E-01  0.12919537050E+00  0.20209508557E-01 0.  0.
         14    1    1    2    0    0 -0.30006287498E-02 -0.23771525098E-01 -0.19025806366E-02  0.24035577618E-01  0.00000000000E+00 0. -1.
     999901    1    3    3    0    0  0.97050200867E-01  0.61925577877E-01 -0.75440588182E-01  0.89069905188E+00  0.88000000000E+00 0.  1.
        -11    1    4    4    0    0 -0.70575503390E-01 -0.37593559356E-01  0.61178653106E-01  0.10068399128E+00  0.51100000000E-03 0. -1.
         11    1    4    4    0    0 -0.23474068727E-01 -0.56049342355E-03  0.16164515712E-01  0.28511379214E-01  0.51100000000E-03 0.  1.
</event>
<event>
 8    1  0.1213322E+005  0.1043930E+01  0.7957747E-01            NaN
         13   -1    0    0    0    0  0.00000000000E+00  0.00000000000E+00  0.74505805969E-08  0.10566000000E+00  0.10566000000E+00 0. -1.
     999900   -1    0    0    0    0 -0.00000000000E+00 -0.00000000000E+00 -0.74505805969E-08  0.93827000000E+00  0.93827000000E+00 0.  1.
     999902    2    1    2    0    0  0.65869567942E-02  0.15959701309E-01  0.15290726529E-01  0.10208669043E+01  0.10206063540E+01 0.  0.
     999903    2    3    3    0    0 -0.29723503624E-01 -0.90951444172E-01  0.86882744587E-01  0.13076923571E+00  0.19908034506E-01 0.  0.
         14    1    1    2    0    0 -0.65869567942E-02 -0.15959701309E-01 -0.15290726529E-01  0.23063095704E-01  0.00000000000E+00 0. -1.
     999901    1    3    3    0    0  0.36310460418E-01  0.10691114548E+00 -0.71592018058E-01  0.89009766858E+00  0.88000000000E+00 0.  1.
        -11    1    4    4    0    0 -0.29033174682E-01 -0.76662361048E-01  0.64997999321E-01  0.10461856370E+00  0.51100000000E-03 0.  1.
         11    1    4    4    0    0 -0.69032894226E-03 -0.14289083124E-01  0.21884745266E-01  0.26150672017E-01  0.51100000000E-03 0. -1.
</event>
<event>
 8    1  0.1213322E+005  0.1043930E+01  0.7957747E-01            NaN
         13   -1    0    0    0    0  0.00000000000E+00  0.00000000000E+00  0.74505805969E-08  0.10566000000E+00  0.10566000000E+00 0.  1.
     999900   -1    0    0    0    0 -0.00000000000E+00 -0.00000000000E+00 -0.74505805969E-08  0.93827000000E+00  0.93827000000E+00 0. -1.
     999902    2    1    2    0    0 -0.13411815696E-01 -0.15745007647E-01  0.50081437876E-02  0.10226494086E+01  0.10224279678E+01 0.  0.
     999903    2    3    3    0    0  0.10237006408E+00 -0.79664974794E-01 -0.18130286305E-01  0.13246594839E+00  0.19808633807E-01 0.  0.
         14    1    1    2    0    0  0.13411815696E-01  0.15745007647E-01 -0.50081437876E-02  0.21280591398E-01  0.00000000000E+00 0. -1.
     999901    1    3    3    0    0 -0.11578187977E+00  0.63919967147E-01  0.23138430092E-01  0.89018346021E+00  0.88000000000E+00 0.  1.
        -11    1    4    4    0    0  0.75561957504E-01 -0.50634507922E-01 -0.19064873577E-01  0.92936501655E-01  0.51100000000E-03 0. -1.
         11    1    4    4    0    0  0.26808106575E-01 -0.29030466872E-01  0.93458727173E-03  0.39529446737E-01  0.51100000000E-03 0.  1.
</event>
<event>
 8    1  0.1213322E+005  0.1043930E+01  0.7957747E-01            NaN
         13   -1    0    0    0    0  0.00000000000E+00  0.00000000000E+00  0.74505805969E-08  0.10566000000E+00  0.10566000000E+00 0.  1.
     999900   -1    0    0    0    0 -0.00000000000E+00 -0.00000000000E+00 -0.74505805969E-08  0.93827000000E+00  0.93827000000E+00 0. -1.
     999902    2    1    2    0    0  0.91642651239E-02  0.22909436798E-01 -0.42705159775E-03  0.10192519040E+01  0.10189531075E+01 0.  0.
     999903    2    3    3    0    0  0.74419154022E-01  0.34409320338E-01  0.10031103011E+00  0.13102974205E+00  0.19603028553E-01 0.  0.
         14    1    1    2    0    0 -0.91642651239E-02 -0.22909436798E-01  0.42705159775E-03  0.24678096011E-01  0.00000000000E+00 0.  1.
     999901    1    3    3    0    0 -0.65254888898E-01 -0.11499883539E-01 -0.10073808171E+00  0.88822216194E+00  0.88000000000E+00 0. -1.
        -11    1    4    4    0    0  0.43626925203E-01  0.28830996586E-01  0.54342603421E-01  0.75418264594E-01  0.51100000000E-03 0.  1.
         11    1    4    4    0    0  0.30792228818E-01  0.55783237521E-02  0.45968426694E-01  0.55611477459E-01  0.51100000000E-03 0. -1.
</event>
<event>
 8    1  0.1213322E+005  0.1043930E+01  0.7957747E-01            NaN
         13   -1    0    0    0    0  0.00000000000E+00  0.00000000000E+00  0.74505805969E-08  0.10566000000E+00  0.10566000000E+00 0.  1.
     999900   -1    0    0    0    0 -0.00000000000E+00 -0.00000000000E+00 -0.74505805969E-08  0.93827000000E+00  0.93827000000E+00 0. -1.
     999902    2    1    2    0    0  0.14566924703E-01  0.17604552042E-01  0.61522692445E-02  0.10202664000E+01  0.10199919416E+01 0.  0.
     999903    2    3    3    0    0 -0.46630045027E-01  0.11729551130E+00  0.33621198412E-01  0.13210093201E+00  0.19689418127E-01 0.  0.
         14    1    1    2    0    0 -0.14566924703E-01 -0.17604552042E-01 -0.61522692445E-02  0.23663599996E-01  0.00000000000E+00 0. -1.
     999901    1    3    3    0    0  0.61196969730E-01 -0.99690959257E-01 -0.27468929168E-01  0.88816546799E+00  0.88000000000E+00 0.  1.
        -11    1    4    4    0    0 -0.82567047622E-02  0.38945077263E-01  0.16980453076E-01  0.43283820583E-01  0.51100000000E-03 0. -1.
         11    1    4    4    0    0 -0.38373340264E-01  0.78350434035E-01  0.16640745336E-01  0.88817111431E-01  0.51100000000E-03 0.  1.
</event>
<event>
 8    1  0.1213322E+005  0.1043930E+01  0.7957747E-01            NaN
         13   -1    0    0    0    0  0.00000000000E+00  0.00000000000E+00  0.74505805969E-08  0.10566000000E+00  0.10566000000E+00 0. -1.
     999900   -1    0    0    0    0 -0.00000000000E+00 -0.00000000000E+00 -0.74505805969E-08  0.93827000000E+00  0.93827000000E+00 0.  1.
     999902    2    1    2    0    0  0.16814566842E-02 -0.23594847243E-03 -0.23995949684E-01  0.10198740533E+01  0.10195903080E+01 0.  0.
     999903    2    3    3    0    0 -0.61203486030E-01 -0.67687973811E-01 -0.93419629603E-01  0.13233591947E+00  0.21401866431E-01 0.  0.
         14    1    1    2    0    0 -0.16814566842E-02  0.23594847243E-03  0.23995949684E-01  0.24055946655E-01  0.00000000000E+00 0. -1.
     999901    1    3    3    0    0  0.62884942714E-01  0.67452025338E-01  0.69423679920E-01  0.88753813387E+00  0.88000000000E+00 0. -1.
        -11    1    4    4    0    0 -0.54283956091E-01 -0.46782925043E-01 -0.73105113787E-01  0.10237191386E+00  0.51100000000E-03 0. -1.
         11    1    4    4    0    0 -0.69195299389E-02 -0.20905048768E-01 -0.20314515817E-01  0.29964005614E-01  0.51100000000E-03 0.  1.
</event>
<event>
 8    1  0.1213322E+005  0.1043930E+01  0.7957747E-01            NaN
         13   -1    0    0    0    0  0.00000000000E+00  0.00000000000E+00  0.74505805969E-08  0.10566000000E+00  0.10566000000E+00 0.  1.
     999900   -1    0    0    0    0 -0.00000000000E+00 -0.00000000000E+00 -0.74505805969E-08  0.93827000000E+00  0.93827000000E+00 0. -1.
     999902    2    1    2    0    0 -0.13136524770E-01 -0.12204550321E-01  0.14475076729E-01  0.10208855391E+01  0.10206254145E+01 0.  0.
     999903    2    3    3    0    0 -0.10723357313E+00 -0.49421158422E-01  0.60046502965E-01  0.13391536750E+00  0.19653321068E-01 0.  0.
         14    1    1    2    0    0  0.13136524770E-01  0.12204550321E-01 -0.14475076729E-01  0.23044460894E-01  0.00000000000E+00 0. -1.
     999901    1    3    3    0    0  0.94097048358E-01  0.37216608101E-01 -0.45571426236E-01  0.88697017161E+00  0.88000000000E+00 0.  1.
        -11    1    4    4    0    0 -0.42507707889E-01 -0.16638149337E-01  0.13091525028E-01  0.47490866405E-01  0.51100000000E-03 0.  1.
         11    1    4    4    0    0 -0.64725865239E-01 -0.32783009085E-01  0.46954977938E-01  0.86424501096E-01  0.51100000000E-03 0. -1.
</event>
<event>
 8    1  0.1213322E+005  0.1043930E+01  0.7957747E-01            NaN
         13   -1    0    0    0    0  0.00000000000E+00  0.00000000000E+00  0.74505805969E-08  0.10566000000E+00  0.10566000000E+00 0.  1.
     999900   -1    0    0    0    0 -0.00000000000E+00 -0.00000000000E+00 -0.74505805969E-08  0.93827000000E+00  0.93827000000E+00 0. -1.
     999902    2    1    2    0    0  0.85123741629E-02  0.22125193381E-01 -0.76351610814E-02  0.10190245713E+01  0.10187201757E+01 0.  0.
     999903    2    3    3    0    0 -0.10564707394E+00  0.35274494509E-01  0.61582266576E-01  0.12885810593E+00  0.20160399573E-01 0.  0.
         14    1    1    2    0    0 -0.85123741629E-02 -0.22125193381E-01  0.76351610814E-02  0.24905428741E-01  0.00000000000E+00 0.  1.
     999901    1    3    3    0    0  0.11415944810E+00 -0.13149301128E-01 -0.69217427657E-01  0.89016646533E+00  0.88000000000E+00 0. -1.
        -11    1    4    4    0    0 -0.33075665909E-01  0.37045658188E-02  0.25221614837E-01  0.41762596414E-01  0.51100000000E-03 0.  1.
         11    1    4    4    0    0 -0.72571408033E-01  0.31569928690E-01  0.36360651739E-01  0.87095509512E-01  0.51100000000E-03 0. -1.
</event>
<event>
 8    1  0.1213322E+005  0.1043930E+01  0.7957747E-01            NaN
         13   -1    0    0    0    0  0.00000000000E+00  0.00000000000E+00  0.74505805969E-08  0.10566000000E+00  0.10566000000E+00 0. -1.
     999900   -1    0    0    0    0 -0.00000000000E+00 -0.00000000000E+00 -0.74505805969E-08  0.93827000000E+00  0.93827000000E+00 0.  1.
     999902    2    1    2    0    0 -0.57121680969E-03 -0.18356808505E-01 -0.15083891192E-01  0.10201640058E+01  0.10198871390E+01 0.  0.
     999903    2    3    3    0    0 -0.30368517196E-01 -0.12527216286E+00 -0.20784136072E-01  0.13317400309E+00  0.26229242483E-01 0.  0.
         14    1    1    2    0    0  0.57121680969E-03  0.18356808505E-01  0.15083891192E-01  0.23765994207E-01  0.00000000000E+00 0. -1.
     999901    1    3    3    0    0  0.29797300386E-01  0.10691535436E+00  0.57002448801E-02  0.88699000271E+00  0.88000000000E+00 0.  1.
        -11    1    4    4    0    0 -0.10703256096E-01 -0.66954303396E-01 -0.22962926207E-01  0.71589074134E-01  0.51100000000E-03 0.  1.
         11    1    4    4    0    0 -0.19665261100E-01 -0.58317859466E-01  0.21787901341E-02  0.61584928954E-01  0.51100000000E-03 0. -1.
</event>
<event>
 8    1  0.1213322E+005  0.1043930E+01  0.7957747E-01            NaN
         13   -1    0    0    0    0  0.00000000000E+00  0.00000000000E+00  0.74505805969E-08  0.10566000000E+00  0.10566000000E+00 0. -1.
     999900   -1    0    0    0    0 -0.00000000000E+00 -0.00000000000E+00 -0.74505805969E-08  0.93827000000E+00  0.93827000000E+00 0. -1.
     999902    2    1    2    0    0 -0.18420645184E-01  0.14877636378E-02  0.11544515960E-01  0.10221398770E+01  0.10219075882E+01 0.  0.
     999903    2    3    3    0    0 -0.98667923818E-01 -0.67957338804E-01  0.58255783565E-01  0.13453400139E+00  0.18764384418E-01 0.  0.
         14    1    1    2    0    0  0.18420645184E-01 -0.14877636378E-02 -0.11544515960E-01  0.21790122955E-01  0.00000000000E+00 0. -1.
     999901    1    3    3    0    0  0.80247278634E-01  0.69445102442E-01 -0.46711267606E-01  0.88760587566E+00  0.88000000000E+00 0. -1.
        -11    1    4    4    0    0 -0.55309237188E-01 -0.35665022097E-01  0.42020626558E-01  0.78083927263E-01  0.51100000000E-03 0.  1.
         11    1    4    4    0    0 -0.43358686630E-01 -0.32292316707E-01  0.16235157008E-01  0.56450074125E-01  0.51100000000E-03 0. -1.
</event>
<event>
 8    1  0.1213322E+005  0.1043930E+01  0.7957747E-01            NaN
         13   -1    0    0    0    0  0.00000000000E+00  0.00000000000E+00  0.74505805969E-08  0.10566000000E+00  0.10566000000E+00 0. -1.
     999900   -1    0    0    0    0 -0.00000000000E+00 -0.00000000000E+00 -0.74505805969E-08  0.93827000000E+00  0.93827000000E+00 0. -1.
     999902    2    1    2    0    0  0.32118646448E-02  0.13634281282E-01 -0.21727311999E-01  0.10180787759E+01  0.10177505137E+01 0.  0.
     999903    2    3    3    0    0 -0.11829295551E+00 -0.41575670500E-01 -0.13102684426E-01  0.12797431894E+00  0.21999687916E-01 0.  0.
         14    1    1    2    0    0 -0.32118646448E-02 -0.13634281282E-01  0.21727311999E-01  0.25851224096E-01  0.00000000000E+00 0.  1.
     999901    1    3    3    0    0  0.12150482016E+00  0.55209951782E-01 -0.86246275730E-02  0.89010445696E+00  0.88000000000E+00 0.  1.
        -11    1    4    4    0    0 -0.70322974140E-01 -0.18092307788E-01  0.14000888830E-02  0.72628325486E-01  0.51100000000E-03 0.  1.
         11    1    4    4    0    0 -0.47969981374E-01 -0.23483362712E-01 -0.14502773309E-01  0.55345993459E-01  0.51100000000E-03 0. -1.
</event>
<event>
 8    1  0.1213322E+005  0.1043930E+01  0.7957747E-01            NaN
         13   -1    0    0    0    0  0.00000000000E+00  0.00000000000E+00  0.74505805969E-08  0.10566000000E+00  0.10566000000E+00 0.  1.
     999900   -1    0    0    0    0 -0.00000000000E+00 -0.00000000000E+00 -0.74505805969E-08  0.93827000000E+00  0.93827000000E+00 0.  1.
     999902    2    1    2    0    0  0.17550938307E-01 -0.10445362084E-01  0.11593832684E-01  0.10204447284E+01  0.10201744389E+01 0.  0.
     999903    2    3    3    0    0  0.99723469123E-01  0.82466526770E-02 -0.82917629893E-01  0.13138110146E+00  0.19310176072E-01 0.  0.
         14    1    1    2    0    0 -0.17550938307E-01  0.10445362084E-01 -0.11593832684E-01  0.23485271572E-01  0.00000000000E+00 0.  1.
     999901    1    3    3    0    0 -0.82172530817E-01 -0.18692014761E-01  0.94511462577E-01  0.88906362697E+00  0.88000000000E+00 0. -1.
        -11    1    4    4    0    0  0.22044098608E-01  0.24485294235E-02 -0.88309216225E-02  0.23878523352E-01  0.51100000000E-03 0.  1.
         11    1    4    4    0    0  0.77679370515E-01  0.57981232535E-02 -0.74086708270E-01  0.10750257811E+00  0.51100000000E-03 0. -1.
</event>
<event>
 8    1  0.1213322E+005  0.1043930E+01  0.7957747E-01            NaN
         13   -1    0    0    0    0  0.00000000000E+00  0.00000000000E+00  0.74505805969E-08  0.10566000000E+00  0.10566000000E+00 0.  1.
     999900   -1    0    0    0    0 -0.00000000000E+00 -0.00000000000E+00 -0.74505805969E-08  0.93827000000E+00  0.93827000000E+00 0. -1.
     999902    2    1    2    0    0 -0.15560464010E-01 -0.17317560932E-01 -0.38291336431E-02  0.10203357587E+01  0.10200629257E+01 0.  0.
     999903    2    3    3    0    0  0.57855889056E-01  0.11033535540E+00  0.21602949982E-01  0.12773729423E+00  0.18136547033E-01 0.  0.
         14    1    1    2    0    0  0.15560464010E-01  0.17317560932E-01  0.38291336431E-02  0.23594241274E-01  0.00000000000E+00 0.  1.
     999901    1    3    3    0    0 -0.73416353066E-01 -0.12765291634E+00 -0.25432083625E-01  0.89259846450E+00  0.88000000000E+00 0.  1.
        -11    1    4    4    0    0  0.40177354309E-01  0.81620002752E-01  0.23495985130E-01  0.93959390626E-01  0.51100000000E-03 0.  1.
         11    1    4    4    0    0  0.17678534747E-01  0.28715352652E-01 -0.18930351479E-02  0.33777903602E-01  0.51100000000E-03 0. -1.
</event>
<event>
 8    1  0.1213322E+005  0.1043930E+01  0.7957747E-01            NaN
         13   -1    0    0    0    0  0.00000000000E+00  0.00000000000E+00  0.74505805969E-08  0.10566000000E+00  0.10566000000E+00 0. -1.
     999900   -1    0    0    0    0 -0.00000000000E+00 -0.00000000000E+00 -0.74505805969E-08  0.93827000000E+00  0.93827000000E+00 0.  1.
     999902    2    1    2    0    0  0.25726850315E-02  0.21767352060E-01  0.10715644342E-01  0.10195320214E+01  0.10192400509E+01 0.  0.
     999903    2    3    3    0    0  0.74993601859E-01  0.33572421147E-01  0.10099694215E+00  0.13187507105E+00  0.20964356872E-01 0.  0.
         14    1    1    2    0    0 -0.25726850315E-02 -0.21767352060E-01 -0.10715644342E-01  0.24397978557E-01  0.00000000000E+00 0.  1.
     999901    1    3    3    0    0 -0.72420916827E-01 -0.11805069087E-01 -0.90281297807E-01  0.88765695039E+00  0.88000000000E+00 0.  1.
        -11    1    4    4    0    0  0.35627710977E-01  0.17492886397E-01  0.64987886492E-01  0.76151305804E-01  0.51100000000E-03 0.  1.
         11    1    4    4    0    0  0.39365890882E-01  0.16079534750E-01  0.36009055658E-01  0.55723765245E-01  0.51100000000E-03 0. -1.
</event>
<event>
 8    1  0.1213322E+005  0.1043930E+01  0.7957747E-01            NaN
         13   -1    0    0    0    0  0.00000000000E+00  0.00000000000E+00  0.74505805969E-08  0.10566000000E+00  0.10566000000E+00 0.  1.
     999900   -1    0    0    0    0 -0.00000000000E+00 -0.00000000000E+00 -0.74505805969E-08  0.93827000000E+00  0.93827000000E+00 0. -1.
     999902    2    1    2    0    0 -0.10625789168E-01  0.69365782910E-02  0.19709671851E-01  0.10204886972E+01  0.10202194305E+01 0.  0.
     999903    2    3    3    0    0  0.55286939919E-01  0.11497890419E+00  0.24641951756E-01  0.13142066860E+00  0.19681773651E-01 0.  0.
         14    1    1    2    0    0  0.10625789168E-01 -0.69365782910E-02 -0.19709671851E-01  0.23441302829E-01  0.00000000000E+00 0. -1.
     999901    1    3    3    0    0 -0.65912729087E-01 -0.10804232590E+00 -0.49322799054E-02  0.88906802857E+00  0.88000000000E+00 0.  1.
        -11    1    4    4    0    0  0.27551938614E-01  0.52342059896E-01  0.17022313641E-02  0.59177354352E-01  0.51100000000E-03 0.  1.
         11    1    4    4    0    0  0.27735001304E-01  0.62636844297E-01  0.22939720392E-01  0.72243314248E-01  0.51100000000E-03 0. -1.
</event>
<event>
 8    1  0.1213322E+005  0.1043930E+01  0.7957747E-01            NaN
         13   -1    0    0    0    0  0.00000000000E+00  0.00000000000E+00  0.74505805969E-08  0.10566000000E+00  0.10566000000E+00 0.  1.
     999900   -1    0    0    0    0 -0.00000000000E+00 -0.00000000000E+00 -0.74505805969E-08  0.93827000000E+00  0.93827000000E+00 0. -1.
     999902    2    1    2    0    0  0.10164201265E-01  0.15170723330E-01  0.16636234327E-01  0.10192272446E+01  0.10189278433E+01 0.  0.
     999903    2    3    3    0    0  0.90915165053E-01  0.88565458215E-01  0.28213020955E-01  0.13241185946E+00  0.25050316343E-01 0.  0.
         14    1    1    2    0    0 -0.10164201265E-01 -0.15170723330E-01 -0.16636234327E-01  0.24702755440E-01  0.00000000000E+00 0.  1.
     999901    1    3    3    0    0 -0.80750963788E-01 -0.73394734885E-01 -0.11576786628E-01  0.88681538510E+00  0.88000000000E+00 0. -1.
        -11    1    4    4    0    0  0.45003691383E-01  0.43493528121E-01  0.26724285966E-01  0.68054888200E-01  0.51100000000E-03 0.  1.
         11    1    4    4    0    0  0.45911473670E-01  0.45071930094E-01  0.14887349891E-02  0.64356971261E-01  0.51100000000E-03 0. -1.
</event>
<event>
 8    1  0.1213322E+005  0.1043930E+01  0.7957747E-01            NaN
         13   -1    0    0    0    0  0.00000000000E+00  0.00000000000E+00  0.74505805969E-08  0.10566000000E+00  0.10566000000E+00 0.  1.
     999900   -1    0    0    0    0 -0.00000000000E+00 -0.00000000000E+00 -0.74505805969E-08  0.93827000000E+00  0.93827000000E+00 0. -1.
     999902    2    1    2    0    0 -0.20104640057E-01 -0.11428111018E-01  0.33658186131E-02  0.10205606395E+01  0.10202930422E+01 0.  0.
     999903    2    3    3    0    0 -0.95875097643E-01 -0.84687516354E-01 -0.32668735320E-01  0.13353944938E+00  0.20038176067E-01 0.  0.
         14    1    1    2    0    0  0.20104640057E-01  0.11428111018E-01 -0.33658186131E-02  0.23369360458E-01  0.00000000000E+00 0. -1.
     999901    1    3    3    0    0  0.75770457585E-01  0.73259405337E-01  0.36034553933E-01  0.88702119016E+00  0.88000000000E+00 0.  1.
        -11    1    4    4    0    0 -0.20532356034E-01 -0.29879707583E-01 -0.10884913994E-01  0.37856532372E-01  0.51100000000E-03 0.  1.
         11    1    4    4    0    0 -0.75342741609E-01 -0.54807808772E-01 -0.21783821326E-01  0.95682917012E-01  0.51100000000E-03 0. -1.
</event>
<event>
 8    1  0.1213322E+005  0.1043930E+01  0.7957747E-01            NaN
         13   -1    0    0    0    0  0.00000000000E+00  0.00000000000E+00  0.74505805969E-08  0.10566000000E+00  0.10566000000E+00 0.  1.
     999900   -1    0    0    0    0 -0.00000000000E+00 -0.00000000000E+00 -0.74505805969E-08  0.93827000000E+00  0.93827000000E+00 0.  1.
     999902    2    1    2    0    0  0.47301531355E-02  0.15908799426E-01 -0.17046772211E-01  0.10201380541E+01  0.10198605751E+01 0.  0.
     999903    2    3    3    0    0 -0.22880299559E-01  0.96663516153E-02 -0.12897631709E+00  0.13259677151E+00  0.18167745674E-01 0.  0.
         14    1    1    2    0    0 -0.47301531355E-02 -0.15908799426E-01  0.17046772211E-01  0.23791945920E-01  0.00000000000E+00 0.  1.
     999901    1    3    3    0    0  0.27610452694E-01  0.62424478105E-02  0.11192954488E+00  0.88754128257E+00  0.88000000000E+00 0. -1.
        -11    1    4    4    0    0  0.17725196933E-02  0.39261273635E-02 -0.35078089604E-01  0.35345293794E-01  0.51100000000E-03 0.  1.
         11    1    4    4    0    0 -0.24652819252E-01  0.57402242518E-02 -0.93898227486E-01  0.97251477714E-01  0.51100000000E-03 0. -1.
</event>
<event>
 8    1  0.1213322E+005  0.1043930E+01  0.7957747E-01            NaN
         13   -1    0    0    0    0  0.00000000000E+00  0.00000000000E+00  0.74505805969E-08  0.10566000000E+00  0.10566000000E+00 0.  1.
     999900   -1    0    0    0    0 -0.00000000000E+00 -0.00000000000E+00 -0.74505805969E-08  0.93827000000E+00  0.93827000000E+00 0.  1.
     999902    2    1    2    0    0  0.15313324654E-01 -0.15599395024E-01  0.90314486312E-02  0.10202782326E+01  0.10200040519E+01 0.  0.
     999903    2    3    3    0    0  0.34414224000E-02 -0.36787132590E-01  0.12596862114E+00  0.13221057492E+00  0.15697327708E-01 0.  0.
         14    1    1    2    0    0 -0.15313324654E-01  0.15599395024E-01 -0.90314486312E-02  0.23651767406E-01  0.00000000000E+00 0. -1.
     999901    1    3    3    0    0  0.11871902254E-01  0.21187737567E-01 -0.11693717251E+00  0.88806765767E+00  0.88000000000E+00 0.  1.
        -11    1    4    4    0    0  0.59949408544E-02 -0.11719397498E-01  0.63451594537E-01  0.64804703254E-01  0.51100000000E-03 0. -1.
         11    1    4    4    0    0 -0.25535184544E-02 -0.25067735092E-01  0.62517026603E-01  0.67405871669E-01  0.51100000000E-03 0.  1.
</event>
<event>
 8    1  0.1213322E+005  0.1043930E+01  0.7957747E-01            NaN
         13   -1    0    0    0    0  0.00000000000E+00  0.00000000000E+00  0.74505805969E-08  0.10566000000E+00  0.10566000000E+00 0. -1.
     999900   -1    0    0    0    0 -0.00000000000E+00 -0.00000000000E+00 -0.74505805969E-08  0.93827000000E+00  0.93827000000E+00 0. -1.
     999902    2    1    2    0    0 -0.11861021084E-02  0.23430274132E-01 -0.29036242140E-02  0.10202907188E+01  0.10200168308E+01 0.  0.
     999903    2    3    3    0    0  0.52059647529E-02 -0.33459403727E-01  0.12334605422E+00  0.12943928599E+00  0.19840511524E-01 0.  0.
         14    1    1    2    0    0  0.11861021084E-02 -0.23430274132E-01  0.29036242140E-02  0.23639281243E-01  0.00000000000E+00 0.  1.
     999901    1    3    3    0    0 -0.63920668613E-02  0.56889677859E-01 -0.12624967844E+00  0.89085143277E+00  0.88000000000E+00 0. -1.
        -11    1    4    4    0    0  0.97638033942E-02 -0.24480308588E-01  0.63568559491E-01  0.68817441408E-01  0.51100000000E-03 0.  1.
         11    1    4    4    0    0 -0.45578386413E-02 -0.89790951396E-02  0.59777494731E-01  0.60621844577E-01  0.51100000000E-03 0. -1.
</event>
<event>
 7    1  0.1213322E+005  0.1043930E+01  0.7957747E-01            NaN
         13   -1    0    0    0    0  0.00000000000E+00  0.00000000000E+00  0.74505805969E-08  0.10566000000E+00  0.10566000000E+00 0. -1.
     999900   -1    0    0    0    0 -0.00000000000E+00 -0.00000000000E+00 -0.74505805969E-08  0.93827000000E+00  0.93827000000E+00 0. -1.
     999903    2    1    2    0    0  0.24363797246E-01  0.27742037234E-01  0.50732250151E-01  0.65809902746E-01  0.19848598136E-01 0.  0.
         14    1    1    2    0    0 -0.64189128889E-01  0.60625163541E-01 -0.27562405066E-01  0.92495085788E-01  0.00000000000E+00 0. -1.
     999901    1    1    2    0    0  0.39825331643E-01 -0.88367200774E-01 -0.23169845085E-01  0.88562501147E+00  0.88000000000E+00 0. -1.
        -11    1    3    3    0    0 -0.13689942895E-02  0.89451374530E-02  0.59418837490E-02  0.10837745748E-01  0.51100000000E-03 0.  1.
         11    1    3    3    0    0  0.25732791535E-01  0.18796899781E-01  0.44790366402E-01  0.54972156998E-01  0.51100000000E-03 0. -1.
</event>
<event>
 8    1  0.1213322E+005  0.1043930E+01  0.7957747E-01            NaN
         13   -1    0    0    0    0  0.00000000000E+00  0.00000000000E+00  0.74505805969E-08  0.10566000000E+00  0.10566000000E+00 0.  1.
     999900   -1    0    0    0    0 -0.00000000000E+00 -0.00000000000E+00 -0.74505805969E-08  0.93827000000E+00  0.93827000000E+00 0.  1.
     999902    2    1    2    0    0  0.21513647203E-01  0.10537611269E-01 -0.32789219364E-02  0.10197508851E+01  0.10194641917E+01 0.  0.
     999903    2    3    3    0    0  0.50718491301E-01 -0.56494339504E-01 -0.10489038978E+00  0.13089144981E+00  0.19146853777E-01 0.  0.
         14    1    1    2    0    0 -0.21513647203E-01 -0.10537611269E-01  0.32789219364E-02  0.24179114878E-01  0.00000000000E+00 0. -1.
     999901    1    3    3    0    0 -0.29204844098E-01  0.67031950773E-01  0.10161146784E+00  0.88885943531E+00  0.88000000000E+00 0. -1.
        -11    1    4    4    0    0  0.28354846656E-01 -0.20961249550E-01 -0.58618653177E-01  0.68408909748E-01  0.51100000000E-03 0. -1.
         11    1    4    4    0    0  0.22363644645E-01 -0.35533089954E-01 -0.46271736603E-01  0.62482540063E-01  0.51100000000E-03 0.  1.
</event>
<event>
 8    1  0.1213322E+005  0.1043930E+01  0.7957747E-01            NaN
         13   -1    0    0    0    0  0.00000000000E+00  0.00000000000E+00  0.74505805969E-08  0.10566000000E+00  0.10566000000E+00 0. -1.
     999900   -1    0    0    0    0 -0.00000000000E+00 -0.00000000000E+00 -0.74505805969E-08  0.93827000000E+00  0.93827000000E+00 0.  1.
     999902    2    1    2    0    0  0.91419668678E-02 -0.26014536497E-02  0.23825749501E-01  0.10182783050E+01  0.10179551547E+01 0.  0.
     999903    2    3    3    0    0  0.61867739899E-01 -0.55422215004E-01 -0.94107957720E-01  0.12727976440E+00  0.21085340024E-01 0.  0.
         14    1    1    2    0    0 -0.91419668678E-02  0.26014536497E-02 -0.23825749501E-01  0.25651695043E-01  0.00000000000E+00 0.  1.
     999901    1    3    3    0    0 -0.52725773031E-01  0.52820761354E-01  0.11793370722E+00  0.89099854055E+00  0.88000000000E+00 0. -1.
        -11    1    4    4    0    0  0.51055764489E-01 -0.38920714410E-01 -0.81938113496E-01  0.10409432579E+00  0.51100000000E-03 0.  1.
         11    1    4    4    0    0  0.10811975410E-01 -0.16501500594E-01 -0.12169844223E-01  0.23185438610E-01  0.51100000000E-03 0. -1.
</event>
<event>
 8    1  0.1213322E+005  0.1043930E+01  0.7957747E-01            NaN
         13   -1    0    0    0    0  0.00000000000E+00  0.00000000000E+00  0.74505805969E-08  0.10566000000E+00  0.10566000000E+00 0. -1.
     999900   -1    0    0    0    0 -0.00000000000E+00 -0.00000000000E+00 -0.74505805969E-08  0.93827000000E+00  0.93827000000E+00 0.  1.
     999902    2    1    2    0    0 -0.21348218600E-01 -0.30535131564E-02 -0.86412271800E-02  0.10206976694E+01  0.10204332369E+01 0.  0.
     999903    2    3    3    0    0 -0.10997625849E-01 -0.48274539296E-01 -0.12103953724E+00  0.13233656255E+00  0.20273561491E-01 0.  0.
         14    1    1    2    0    0  0.21348218600E-01  0.30535131564E-02  0.86412271800E-02  0.23232330645E-01  0.00000000000E+00 0. -1.
     999901    1    3    3    0    0 -0.10350592751E-01  0.45221026140E-01  0.11239831006E+00  0.88836110680E+00  0.88000000000E+00 0. -1.
        -11    1    4    4    0    0 -0.39407392341E-02 -0.16597936305E-01 -0.68381621170E-01  0.70479274614E-01  0.51100000000E-03 0. -1.
         11    1    4    4    0    0 -0.70568866153E-02 -0.31676602991E-01 -0.52657916066E-01  0.61857287939E-01  0.51100000000E-03 0.  1.
</event>
<event>
 8    1  0.1213322E+005  0.1043930E+01  0.7957747E-01            NaN
         13   -1    0    0    0    0  0.00000000000E+00  0.00000000000E+00  0.74505805969E-08  0.10566000000E+00  0.10566000000E+00 0.  1.
     999900   -1    0    0    0    0 -0.00000000000E+00 -0.00000000000E+00 -0.74505805969E-08  0.93827000000E+00  0.93827000000E+00 0.  1.
     999902    2    1    2    0    0 -0.12561617815E-01 -0.10766243357E-01 -0.17319643121E-01  0.10199784598E+01  0.10196972013E+01 0.  0.
     999903    2    3    3    0    0 -0.85913248031E-01  0.36581605949E-02 -0.99388701006E-01  0.13300390815E+00  0.20431773522E-01 0.  0.
         14    1    1    2    0    0  0.12561617815E-01  0.10766243357E-01  0.17319643121E-01  0.23951540160E-01  0.00000000000E+00 0.  1.
     999901    1    3    3    0    0  0.73351630216E-01 -0.14424403952E-01  0.82069057884E-01  0.88697455169E+00  0.88000000000E+00 0. -1.
        -11    1    4    4    0    0 -0.26775038648E-01  0.10651500470E-01 -0.33453165486E-01  0.44155776054E-01  0.51100000000E-03 0. -1.
         11    1    4    4    0    0 -0.59138209384E-01 -0.69933398754E-02 -0.65935535520E-01  0.88848132096E-01  0.51100000000E-03 0.  1.
</event>
<event>
 8    1  0.1213322E+005  0.1043930E+01  0.7957747E-01            NaN
         13   -1    0    0    0    0  0.00000000000E+00  0.00000000000E+00  0.74505805969E-08  0.10566000000E+00  0.10566000000E+00 0. -1.
     999900   -1    0    0    0    0 -0.00000000000E+00 -0.00000000000E+00 -0.74505805969E-08  0.93827000000E+00  0.93827000000E+00 0. -1.
     999902    2    1    2    0    0  0.23122022024E-01  0.68089590982E-02 -0.75905615818E-02  0.10186593361E+01  0.10183458335E+01 0.  0.
     999903    2    3    3    0    0  0.82466347637E-01  0.66072644876E-01  0.73981466060E-01  0.13091616995E+00  0.22349347655E-01 0.  0.
         14    1    1    2    0    0 -0.23122022024E-01 -0.68089590982E-02  0.75905615818E-02  0.25270663853E-01  0.00000000000E+00 0. -1.
     999901    1    3    3    0    0 -0.59344325613E-01 -0.59263685778E-01 -0.81572027642E-01  0.88774316620E+00  0.88000000000E+00 0. -1.
        -11    1    4    4    0    0  0.47830773015E-01  0.30076302556E-01  0.28175903987E-01  0.63138811433E-01  0.51100000000E-03 0. -1.
         11    1    4    4    0    0  0.34635574622E-01  0.35996342320E-01  0.45805562074E-01  0.67777358518E-01  0.51100000000E-03 0.  1.
</event>
<event>
 8    1  0.1213322E+005  0.1043930E+01  0.7957747E-01            NaN
         13   -1    0    0    0    0  0.00000000000E+00  0.00000000000E+00  0.74505805969E-08  0.10566000000E+00  0.10566000000E+00 0.  1.
     999900   -1    0    0    0    0 -0.00000000000E+00 -0.00000000000E+00 -0.74505805969E-08  0.93827000000E+00  0.93827000000E+00 0. -1.
     999902    2    1    2    0    0 -0.17912922569E-01  0.47730634422E-02 -0.15041677789E-01  0.10200572750E+01  0.10197778862E+01 0.  0.
     999903    2    3    3    0    0 -0.49648030192E-01  0.12172205440E+00 -0.44079196967E-02  0.13168952434E+00  0.64432629034E-02 0.  0.
         14    1    1    2    0    0  0.17912922569E-01 -0.47730634422E-02  0.15041677789E-01  0.23872725029E-01  0.00000000000E+00 0.  1.
     999901    1    3    3    0    0  0.31735107623E-01 -0.11694899096E+00 -0.10633758093E-01  0.88836775063E+00  0.88000000000E+00 0.  1.
        -11    1    4    4    0    0 -0.17279071862E-01  0.38683406226E-01  0.12019389644E-02  0.42387238881E-01  0.51100000000E-03 0.  1.
         11    1    4    4    0    0 -0.32368958330E-01  0.83038648173E-01 -0.56098586611E-02  0.89302285464E-01  0.51100000000E-03 0. -1.
</event>
<event>
 8    1  0.1213322E+005  0.1043930E+01  0.7957747E-01            NaN
         13   -1    0    0    0    0  0.00000000000E+00  0.00000000000E+00  0.74505805969E-08  0.10566000000E+00  0.10566000000E+00 0.  1.
     999900   -1    0    0    0    0 -0.00000000000E+00 -0.00000000000E+00 -0.74505805969E-08  0.93827000000E+00  0.93827000000E+00 0. -1.
     999902    2    1    2    0    0 -0.58904171862E-02 -0.21953057194E-01 -0.86616981152E-02  0.10196059636E+01  0.10193157814E+01 0.  0.
     999903    2    3    3    0    0 -0.10800206923E+00  0.13068034595E-01  0.67813581716E-01  0.12971735548E+00  0.19816406404E-01 0.  0.
         14    1    1    2    0    0  0.58904171862E-02  0.21953057194E-01  0.86616981152E-02  0.24324036446E-01  0.00000000000E+00 0.  1.
     999901    1    3    3    0    0  0.10211165204E+00 -0.35021091789E-01 -0.76475279831E-01  0.88988860807E+00  0.88000000000E+00 0. -1.
        -11    1    4    4    0    0 -0.53254866924E-01 -0.33531210101E-03  0.41464949598E-01  0.67496640297E-01  0.51100000000E-03 0.  1.
         11    1    4    4    0    0 -0.54747202302E-01  0.13403346696E-01  0.26348632118E-01  0.62220715184E-01  0.51100000000E-03 0. -1.
</event>
<event>
 8    1  0.1213322E+005  0.1043930E+01  0.7957747E-01            NaN
         13   -1    0    0    0    0  0.00000000000E+00  0.00000000000E+00  0.74505805969E-08  0.10566000000E+00  0.10566000000E+00 0.  1.
     999900   -1    0    0    0    0 -0.00000000000E+00 -0.00000000000E+00 -0.74505805969E-08  0.93827000000E+00  0.93827000000E+00 0. -1.
     999902    2    1    2    0    0 -0.76050337576E-02 -0.20268525468E-03  0.21916159730E-01  0.10207309553E+01  0.10204672887E+01 0.  0.
     999903    2    3    3    0    0 -0.34979968792E-01  0.12278489201E+00 -0.17457228157E-01  0.13088512878E+00  0.22944153854E-01 0.  0.
         14    1    1    2    0    0  0.76050337576E-02  0.20268525468E-03 -0.21916159730E-01  0.23199044745E-01  0.00000000000E+00 0. -1.
     999901    1    3    3    0    0  0.27374935035E-01 -0.12298757727E+00  0.39373387886E-01  0.88984582648E+00  0.88000000000E+00 0.  1.
        -11    1    4    4    0    0 -0.10576220935E-01  0.32277044609E-01  0.54029412845E-02  0.34396467166E-01  0.51100000000E-03 0. -1.
         11    1    4    4    0    0 -0.24403747857E-01  0.90507847404E-01 -0.22860169441E-01  0.96488661609E-01  0.51100000000E-03 0.  1.
</event>
<event>
 8    1  0.1213322E+005  0.1043930E+01  0.7957747E-01            NaN
         13   -1    0    0    0    0  0.00000000000E+00  0.00000000000E+00  0.74505805969E-08  0.10566000000E+00  0.10566000000E+00 0. -1.
     999900   -1    0    0    0    0 -0.00000000000E+00 -0.00000000000E+00 -0.74505805969E-08  0.93827000000E+00  0.93827000000E+00 0.  1.
     999902    2    1    2    0    0 -0.13303196935E-01 -0.21728157707E-01 -0.57046884740E-02  0.10178219293E+01  0.10174870261E+01 0.  0.
     999903    2    3    3    0    0 -0.46893588340E-01 -0.84350693689E-01  0.85205098420E-01  0.13028912101E+00  0.20032426296E-01 0.  0.
         14    1    1    2    0    0  0.13303196935E-01  0.21728157707E-01  0.57046884740E-02  0.26108070718E-01  0.00000000000E+00 0. -1.
     999901    1    3    3    0    0  0.33590391405E-01  0.62622535982E-01 -0.90909786894E-01  0.88753280827E+00  0.88000000000E+00 0.  1.
        -11    1    4    4    0    0 -0.29331194932E-01 -0.56350627825E-01  0.43150334378E-01  0.76797947436E-01  0.51100000000E-03 0. -1.
         11    1    4    4    0    0 -0.17562393407E-01 -0.28000065864E-01  0.42054764042E-01  0.53491173573E-01  0.51100000000E-03 0.  1.
</event>
<event>
 8    1  0.1213322E+005  0.1043930E+01  0.7957747E-01            NaN
         13   -1    0    0    0    0  0.00000000000E+00  0.00000000000E+00  0.74505805969E-08  0.10566000000E+00  0.10566000000E+00 0.  1.
     999900   -1    0    0    0    0 -0.00000000000E+00 -0.00000000000E+00 -0.74505805969E-08  0.93827000000E+00  0.93827000000E+00 0.  1.
     999902    2    1    2    0    0 -0.19832466086E-01 -0.58446927299E-02 -0.29772296101E-02  0.10230409828E+01  0.10228276988E+01 0.  0.
     999903    2    3    3    0    0  0.26463648894E-01  0.94029187384E-01  0.86086370454E-01  0.13172148504E+00  0.19946770453E-01 0.  0.
         14    1    1    2    0    0  0.19832466086E-01  0.58446927299E-02  0.29772296101E-02  0.20889017218E-01  0.00000000000E+00 0.  1.
     999901    1    3    3    0    0 -0.46296114981E-01 -0.99873880114E-01 -0.89063600064E-01  0.89131949774E+00  0.88000000000E+00 0.  1.
        -11    1    4    4    0    0  0.23329820242E-01  0.58484208126E-01  0.45556288270E-01  0.77719493273E-01  0.51100000000E-03 0.  1.
         11    1    4    4    0    0  0.31338286526E-02  0.35544979257E-01  0.40530082184E-01  0.54001991771E-01  0.51100000000E-03 0. -1.
</event>
<event>
 8    1  0.1213322E+005  0.1043930E+01  0.7957747E-01            NaN
         13   -1    0    0    0    0  0.00000000000E+00  0.00000000000E+00  0.74505805969E-08  0.10566000000E+00  0.10566000000E+00 0.  1.
     999900   -1    0    0    0    0 -0.00000000000E+00 -0.00000000000E+00 -0.74505805969E-08  0.93827000000E+00  0.93827000000E+00 0. -1.
     999902    2    1    2    0    0 -0.11065865546E-01  0.18186457622E-01 -0.10768669921E-01  0.10200728234E+01  0.10197938028E+01 0.  0.
     999903    2    3    3    0    0  0.12234538670E+00  0.33574481154E-01 -0.21327810578E-01  0.12982182011E+00  0.17412353114E-01 0.  0.
         14    1    1    2    0    0  0.11065865546E-01 -0.18186457622E-01  0.10768669921E-01  0.23857176551E-01  0.00000000000E+00 0. -1.
     999901    1    3    3    0    0 -0.13341125225E+00 -0.15388023531E-01  0.10559140657E-01  0.89025100334E+00  0.88000000000E+00 0.  1.
        -11    1    4    4    0    0  0.84255469881E-01  0.20059653800E-01 -0.68306271380E-02  0.86880909891E-01  0.51100000000E-03 0. -1.
         11    1    4    4    0    0  0.38089916820E-01  0.13514827353E-01 -0.14497183440E-01  0.42940910219E-01  0.51100000000E-03 0.  1.
</event>
<event>
 8    1  0.1213322E+005  0.1043930E+01  0.7957747E-01            NaN
         13   -1    0    0    0    0  0.00000000000E+00  0.00000000000E+00  0.74505805969E-08  0.10566000000E+00  0.10566000000E+00 0.  1.
     999900   -1    0    0    0    0 -0.00000000000E+00 -0.00000000000E+00 -0.74505805969E-08  0.93827000000E+00  0.93827000000E+00 0. -1.
     999902    2    1    2    0    0 -0.88118379107E-02 -0.15932997706E-01 -0.15457608485E-01  0.10200459768E+01  0.10197663204E+01 0.  0.
     999903    2    3    3    0    0  0.81042879426E-01 -0.84960587232E-01 -0.56514772430E-01  0.13183183087E+00  0.19986556489E-01 0.  0.
         14    1    1    2    0    0  0.88118379107E-02  0.15932997706E-01  0.15457608485E-01  0.23884023182E-01  0.00000000000E+00 0. -1.
     999901    1    3    3    0    0 -0.89854717337E-01  0.69027589526E-01  0.41057163945E-01  0.88821414594E+00  0.88000000000E+00 0. -1.
        -11    1    4    4    0    0  0.32674608552E-01 -0.47806416773E-01 -0.31366655108E-01  0.65857510600E-01  0.51100000000E-03 0. -1.
         11    1    4    4    0    0  0.48368270874E-01 -0.37154170459E-01 -0.25148117322E-01  0.65974320275E-01  0.51100000000E-03 0.  1.
</event>
<event>
 8    1  0.1213322E+005  0.1043930E+01  0.7957747E-01            NaN
         13   -1    0    0    0    0  0.00000000000E+00  0.00000000000E+00  0.74505805969E-08  0.10566000000E+00  0.10566000000E+00 0.  1.
     999900   -1    0    0    0    0 -0.00000000000E+00 -0.00000000000E+00 -0.74505805969E-08  0.93827000000E+00  0.93827000000E+00 0.  1.
     999902    2    1    2    0    0 -0.78835822854E-02  0.63312011499E-02  0.21163047173E-01  0.10204755858E+01  0.10202060144E+01 0.  0.
     999903    2    3    3    0    0 -0.23653464291E-01 -0.12620669700E+00 -0.31465236066E-02  0.13007907931E+00  0.20568167719E-01 0.  0.
         14    1    1    2    0    0  0.78835822854E-02 -0.63312011499E-02 -0.21163047173E-01  0.23454414154E-01  0.00000000000E+00 0. -1.
     999901    1    3    3    0    0  0.15769882006E-01  0.13253789815E+00  0.24309570780E-01  0.89039650654E+00  0.88000000000E+00 0. -1.
        -11    1    4    4    0    0 -0.11077270786E-01 -0.99553992868E-01  0.18316724046E-02  0.10018642407E+00  0.51100000000E-03 0. -1.
         11    1    4    4    0    0 -0.12576193505E-01 -0.26652704128E-01 -0.49781960112E-02  0.29892655234E-01  0.51100000000E-03 0.  1.
</event>
<event>
 8    1  0.1213322E+005  0.1043930E+01  0.7957747E-01            NaN
         13   -1    0    0    0    0  0.00000000000E+00  0.00000000000E+00  0.74505805969E-08  0.10566000000E+00  0.10566000000E+00 0. -1.
     999900   -1    0    0    0    0 -0.00000000000E+00 -0.00000000000E+00 -0.74505805969E-08  0.93827000000E+00  0.93827000000E+00 0.  1.
     999902    2    1    2    0    0 -0.17201798987E-01 -0.98627328517E-02  0.12358806282E-01  0.10205651657E+01  0.10202976732E+01 0.  0.
     999903    2    3    3    0    0  0.93163879494E-01  0.10814046145E-01  0.87959288901E-01  0.13021492838E+00  0.20558186523E-01 0.  0.
         14    1    1    2    0    0  0.17201798987E-01  0.98627328517E-02 -0.12358806282E-01  0.23364834269E-01  0.00000000000E+00 0.  1.
     999901    1    3    3    0    0 -0.11036567848E+00 -0.20676778996E-01 -0.75600482619E-01  0.89035023735E+00  0.88000000000E+00 0.  1.
        -11    1    4    4    0    0  0.75601962236E-01  0.15610542829E-01  0.76586944371E-01  0.10874358331E+00  0.51100000000E-03 0.  1.
         11    1    4    4    0    0  0.17561917258E-01 -0.47964966840E-02  0.11372344530E-01  0.21471345074E-01  0.51100000000E-03 0. -1.
</event>
<event>
 8    1  0.1213322E+005  0.1043930E+01  0.7957747E-01            NaN
         13   -1    0    0    0    0  0.00000000000E+00  0.00000000000E+00  0.74505805969E-08  0.10566000000E+00  0.10566000000E+00 0.  1.
     999900   -1    0    0    0    0 -0.00000000000E+00 -0.00000000000E+00 -0.74505805969E-08  0.93827000000E+00  0.93827000000E+00 0.  1.
     999902    2    1    2    0    0  0.16490429357E-01  0.14236264274E-01  0.94391561419E-02  0.10201875665E+01  0.10199112548E+01 0.  0.
     999903    2    3    3    0    0 -0.11387517178E+00 -0.49163497873E-01  0.25290211629E-01  0.12818645899E+00  0.20188343019E-01 0.  0.
         14    1    1    2    0    0 -0.16490429357E-01 -0.14236264274E-01 -0.94391561419E-02  0.23742433521E-01  0.00000000000E+00 0. -1.
     999901    1    3    3    0    0  0.13036560113E+00  0.63399762147E-01 -0.15851055487E-01  0.89200110749E+00  0.88000000000E+00 0. -1.
        -11    1    4    4    0    0 -0.61541465392E-01 -0.23813573957E-01  0.23357665812E-01  0.70001999546E-01  0.51100000000E-03 0. -1.
         11    1    4    4    0    0 -0.52333706386E-01 -0.25349923916E-01  0.19325458173E-02  0.58184459445E-01  0.51100000000E-03 0.  1.
</event>
<event>
 8    1  0.1213322E+005  0.1043930E+01  0.7957747E-01            NaN
         13   -1    0    0    0    0  0.00000000000E+00  0.00000000000E+00  0.74505805969E-08  0.10566000000E+00  0.10566000000E+00 0.  1.
     999900   -1    0    0    0    0 -0.00000000000E+00 -0.00000000000E+00 -0.74505805969E-08  0.93827000000E+00  0.93827000000E+00 0.  1.
     999902    2    1    2    0    0 -0.27057186186E-02 -0.74220527782E-02 -0.21755652022E-01  0.10207844567E+01  0.10205220188E+01 0.  0.
     999903    2    3    3    0    0 -0.70691672175E-01  0.72354036948E-01  0.77593113967E-01  0.12901290988E+00  0.19779292298E-01 0.  0.
         14    1    1    2    0    0  0.27057186186E-02  0.74220527782E-02  0.21755652022E-01  0.23145543320E-01  0.00000000000E+00 0.  1.
     999901    1    3    3    0    0  0.67985953556E-01 -0.79776089726E-01 -0.99348765989E-01  0.89177154680E+00  0.88000000000E+00 0.  1.
        -11    1    4    4    0    0 -0.62188893512E-01  0.52332615676E-01  0.59860736846E-01  0.10094419288E+00  0.51100000000E-03 0.  1.
         11    1    4    4    0    0 -0.85027786622E-02  0.20021421272E-01  0.17732377121E-01  0.28068717001E-01  0.51100000000E-03 0. -1.
</event>
<event>
 8    1  0.1213322E+005  0.1043930E+01  0.7957747E-01            NaN
         13   -1    0    0    0    0  0.00000000000E+00  0.00000000000E+00  0.74505805969E-08  0.10566000000E+00  0.10566000000E+00 0.  1.
     999900   -1    0    0    0    0 -0.00000000000E+00 -0.00000000000E+00 -0.74505805969E-08  0.93827000000E+00  0.93827000000E+00 0.  1.
     999902    2    1    2    0    0 -0.19489239975E-01 -0.20363975942E-02  0.12977043209E-01  0.10204272121E+01  0.10201565145E+01 0.  0.
     999903    2    3    3    0    0 -0.37863440675E-01 -0.23423959163E-01  0.12382964406E+00  0.13302463254E+00  0.19479479267E-01 0.  0.
         14    1    1    2    0    0  0.19489239975E-01  0.20363975942E-02 -0.12977043209E-01  0.23502787929E-01  0.00000000000E+00 0. -1.
     999901    1    3    3    0    0  0.18374200699E-01  0.21387561569E-01 -0.11085260085E+00  0.88740257953E+00  0.88000000000E+00 0.  1.
        -11    1    4    4    0    0 -0.16165359943E-01 -0.21359255037E-01  0.67397684671E-01  0.72527551026E-01  0.51100000000E-03 0. -1.
         11    1    4    4    0    0 -0.21698080732E-01 -0.20647041261E-02  0.56431959387E-01  0.60497081515E-01  0.51100000000E-03 0.  1.
</event>
<event>
 8    1  0.1213322E+005  0.1043930E+01  0.7957747E-01            NaN
         13   -1    0    0    0    0  0.00000000000E+00  0.00000000000E+00  0.74505805969E-08  0.10566000000E+00  0.10566000000E+00 0. -1.
     999900   -1    0    0    0    0 -0.00000000000E+00 -0.00000000000E+00 -0.74505805969E-08  0.93827000000E+00  0.93827000000E+00 0.  1.
     999902    2    1    2    0    0 -0.87621730021E-03  0.87642221604E-02  0.22045172064E-01  0.10201903926E+01  0.10199141475E+01 0.  0.
     999903    2    3    3    0    0  0.23713484994E-01 -0.62850199280E-01 -0.10628557369E+00  0.12766472962E+00  0.22117483948E-01 0.  0.
         14    1    1    2    0    0  0.87621730021E-03 -0.87642221604E-02 -0.22045172064E-01  0.23739607372E-01  0.00000000000E+00 0.  1.
     999901    1    3    3    0    0 -0.24589702294E-01  0.71614421441E-01  0.12833074575E+00  0.89252566300E+00  0.88000000000E+00 0. -1.
        -11    1    4    4    0    0  0.12660511261E-01 -0.52895342157E-01 -0.92876994488E-01  0.10763179360E+00  0.51100000000E-03 0. -1.
         11    1    4    4    0    0  0.11052973732E-01 -0.99548571228E-02 -0.13408579197E-01  0.20032936024E-01  0.51100000000E-03 0.  1.
</event>
<event>
 8    1  0.1213322E+005  0.1043930E+01  0.7957747E-01            NaN
         13   -1    0    0    0    0  0.00000000000E+00  0.00000000000E+00  0.74505805969E-08  0.10566000000E+00  0.10566000000E+00 0.  1.
     999900   -1    0    0    0    0 -0.00000000000E+00 -0.00000000000E+00 -0.74505805969E-08  0.93827000000E+00  0.93827000000E+00 0.  1.
     999902    2    1    2    0    0 -0.15833297105E-01  0.17416095754E-01 -0.52396536493E-02  0.10198163595E+01  0.10195312351E+01 0.  0.
     999903    2    3    3    0    0  0.21955682573E-01 -0.54328139148E-01  0.11237367775E+00  0.12829623187E+00  0.19961987833E-01 0.  0.
         14    1    1    2    0    0  0.15833297105E-01 -0.17416095754E-01  0.52396536493E-02  0.24113640515E-01  0.00000000000E+00 0.  1.
     999901    1    3    3    0    0 -0.37788979678E-01  0.71744234902E-01 -0.11761333140E+00  0.89152012762E+00  0.88000000000E+00 0.  1.
        -11    1    4    4    0    0  0.91289577542E-02 -0.43780601293E-01  0.73769698290E-01  0.86268814910E-01  0.51100000000E-03 0.  1.
         11    1    4    4    0    0  0.12826724819E-01 -0.10547537854E-01  0.38603979465E-01  0.42027416955E-01  0.51100000000E-03 0. -1.
</event>
<event>
 8    1  0.1213322E+005  0.1043930E+01  0.7957747E-01            NaN
         13   -1    0    0    0    0  0.00000000000E+00  0.00000000000E+00  0.74505805969E-08  0.10566000000E+00  0.10566000000E+00 0.  1.
     999900   -1    0    0    0    0 -0.00000000000E+00 -0.00000000000E+00 -0.74505805969E-08  0.93827000000E+00  0.93827000000E+00 0. -1.
     999902    2    1    2    0    0  0.75401089162E-02  0.22258527462E-01  0.25816000801E-02  0.10202876662E+01  0.10200137067E+01 0.  0.
     999903    2    3    3    0    0  0.10246587740E+00 -0.29714103411E-03  0.80046622083E-01  0.13151295386E+00  0.19719305329E-01 0.  0.
         14    1    1    2    0    0 -0.75401089162E-02 -0.22258527462E-01 -0.25816000801E-02  0.23642333772E-01  0.00000000000E+00 0.  1.
     999901    1    3    3    0    0 -0.94925768485E-01  0.22555668496E-01 -0.77465022003E-01  0.88877471236E+00  0.88000000000E+00 0. -1.
        -11    1    4    4    0    0  0.41075831398E-01  0.70388099348E-02  0.24186680359E-01  0.48187398748E-01  0.51100000000E-03 0. -1.
         11    1    4    4    0    0  0.61390046004E-01 -0.73359509689E-02  0.55859941724E-01  0.83325555116E-01  0.51100000000E-03 0.  1.
</event>
<event>
 8    1  0.1213322E+005  0.1043930E+01  0.7957747E-01            NaN
         13   -1    0    0    0    0  0.00000000000E+00  0.00000000000E+00  0.74505805969E-08  0.10566000000E+00  0.10566000000E+00 0. -1.
     999900   -1    0    0    0    0 -0.00000000000E+00 -0.00000000000E+00 -0.74505805969E-08  0.93827000000E+00  0.93827000000E+00 0.  1.
     999902    2    1    2    0    0  0.14497375348E-01 -0.59469463760E-02 -0.17753282502E-01  0.10202504919E+01  0.10199756601E+01 0.  0.
     999903    2    3    3    0    0 -0.98027865516E-01  0.61973257016E-02  0.79135203777E-01  0.12772777964E+00  0.20103132849E-01 0.  0.
         14    1    1    2    0    0 -0.14497375348E-01  0.59469463760E-02  0.17753282502E-01  0.23679508077E-01  0.00000000000E+00 0. -1.
     999901    1    3    3    0    0  0.11252524086E+00 -0.12144272078E-01 -0.96888486279E-01  0.89252271229E+00  0.88000000000E+00 0.  1.
        -11    1    4    4    0    0 -0.39069388381E-01  0.69180585077E-02  0.43279920901E-01  0.58717027481E-01  0.51100000000E-03 0.  1.
         11    1    4    4    0    0 -0.58958477135E-01 -0.72073280614E-03  0.35855282876E-01  0.69010752155E-01  0.51100000000E-03 0. -1.
</event>
<event>
 8    1  0.1213322E+005  0.1043930E+01  0.7957747E-01            NaN
         13   -1    0    0    0    0  0.00000000000E+00  0.00000000000E+00  0.74505805969E-08  0.10566000000E+00  0.10566000000E+00 0.  1.
     999900   -1    0    0    0    0 -0.00000000000E+00 -0.00000000000E+00 -0.74505805969E-08  0.93827000000E+00  0.93827000000E+00 0. -1.
     999902    2    1    2    0    0 -0.18791458429E-01 -0.11770012396E-01 -0.92288059513E-02  0.10199128611E+01  0.10196300414E+01 0.  0.
     999903    2    3    3    0    0  0.68711427714E-01  0.77503825585E-01  0.71202608902E-01  0.12744673528E+00  0.21089228093E-01 0.  0.
         14    1    1    2    0    0  0.18791458429E-01  0.11770012396E-01  0.92288059513E-02  0.24017138901E-01  0.00000000000E+00 0.  1.
     999901    1    3    3    0    0 -0.87502886143E-01 -0.89273837981E-01 -0.80431414853E-01  0.89246612581E+00  0.88000000000E+00 0.  1.
        -11    1    4    4    0    0  0.29635658862E-01  0.19322565574E-01  0.19949879105E-01  0.40618870170E-01  0.51100000000E-03 0.  1.
         11    1    4    4    0    0  0.39075768851E-01  0.58181260011E-01  0.51252729797E-01  0.86827865115E-01  0.51100000000E-03 0. -1.
</event>
<event>
 8    1  0.1213322E+005  0.1043930E+01  0.7957747E-01            NaN
         13   -1    0    0    0    0  0.00000000000E+00  0.00000000000E+00  0.74505805969E-08  0.10566000000E+00  0.10566000000E+00 0. -1.
     999900   -1    0    0    0    0 -0.00000000000E+00 -0.00000000000E+00 -0.74505805969E-08  0.93827000000E+00  0.93827000000E+00 0.  1.
     999902    2    1    2    0    0  0.22805170472E-01 -0.35421900827E-02 -0.34920297319E-02  0.10205886808E+01  0.10203217327E+01 0.  0.
     999903    2    3    3    0    0 -0.18904690950E-01 -0.37859448949E-02  0.12685794895E+00  0.13000971804E+00  0.20925268314E-01 0.  0.
         14    1    1    2    0    0 -0.22805170472E-01  0.35421900827E-02  0.34920297319E-02  0.23341319211E-01  0.00000000000E+00 0.  1.
     999901    1    3    3    0    0  0.41709861422E-01  0.24375481221E-03 -0.13034997868E+00  0.89057896275E+00  0.88000000000E+00 0.  1.
        -11    1    4    4    0    0 -0.14810939274E-01  0.73573264942E-02  0.76516323342E-01  0.78284756077E-01  0.51100000000E-03 0.  1.
         11    1    4    4    0    0 -0.40937516757E-02 -0.11143271389E-01  0.50341625606E-01  0.51724961959E-01  0.51100000000E-03 0. -1.
</event>
<event>
 8    1  0.1213322E+005  0.1043930E+01  0.7957747E-01            NaN
         13   -1    0    0    0    0  0.00000000000E+00  0.00000000000E+00  0.74505805969E-08  0.10566000000E+00  0.10566000000E+00 0.  1.
     999900   -1    0    0    0    0 -0.00000000000E+00 -0.00000000000E+00 -0.74505805969E-08  0.93827000000E+00  0.93827000000E+00 0. -1.
     999902    2    1    2    0    0 -0.17083191828E-01 -0.12188642088E-01  0.10406689540E-01  0.10205057044E+01  0.10202368328E+01 0.  0.
     999903    2    3    3    0    0 -0.26671349142E-01 -0.11918765950E+00  0.49080293149E-01  0.13312958901E+00  0.19938737476E-01 0.  0.
         14    1    1    2    0    0  0.17083191828E-01  0.12188642088E-01 -0.10406689540E-01  0.23424295639E-01  0.00000000000E+00 0. -1.
     999901    1    3    3    0    0  0.95881573147E-02  0.10699901741E+00 -0.38673603609E-01  0.88737611536E+00  0.88000000000E+00 0. -1.
        -11    1    4    4    0    0 -0.13116325546E-01 -0.75591922845E-01  0.21064952826E-01  0.79562366442E-01  0.51100000000E-03 0. -1.
         11    1    4    4    0    0 -0.13555023596E-01 -0.43595736651E-01  0.28015340324E-01  0.53567222564E-01  0.51100000000E-03 0.  1.
</event>
<event>
 8    1  0.1213322E+005  0.1043930E+01  0.7957747E-01            NaN
         13   -1    0    0    0    0  0.00000000000E+00  0.00000000000E+00  0.74505805969E-08  0.10566000000E+00  0.10566000000E+00 0.  1.
     999900   -1    0    0    0    0 -0.00000000000E+00 -0.00000000000E+00 -0.74505805969E-08  0.93827000000E+00  0.93827000000E+00 0. -1.
     999902    2    1    2    0    0 -0.43562497788E-02 -0.12694481633E-01 -0.19418412086E-01  0.10203248839E+01  0.10200517964E+01 0.  0.
     999903    2    3    3    0    0  0.29345977714E-01  0.70882136403E-01 -0.10506033044E+00  0.13158677325E+00  0.19797530005E-01 0.  0.
         14    1    1    2    0    0  0.43562497788E-02  0.12694481633E-01  0.19418412086E-01  0.23605116056E-01  0.00000000000E+00 0.  1.
     999901    1    3    3    0    0 -0.33702227493E-01 -0.83576618036E-01  0.85641918350E-01  0.88873811069E+00  0.88000000000E+00 0.  1.
        -11    1    4    4    0    0  0.35116679932E-02  0.29611912648E-01 -0.48694791636E-01  0.57102023049E-01  0.51100000000E-03 0. -1.
         11    1    4    4    0    0  0.25834309721E-01  0.41270223755E-01 -0.56365538800E-01  0.74484750202E-01  0.51100000000E-03 0.  1.
</event>
<event>
 8    1  0.1213322E+005  0.1043930E+01  0.7957747E-01            NaN
         13   -1    0    0    0    0  0.00000000000E+00  0.00000000000E+00  0.74505805969E-08  0.10566000000E+00  0.10566000000E+00 0.  1.
     999900   -1    0    0    0    0 -0.00000000000E+00 -0.00000000000E+00 -0.74505805969E-08  0.93827000000E+00  0.93827000000E+00 0. -1.
     999902    2    1    2    0    0  0.15771907063E-01  0.15550447792E-01  0.93842837985E-02  0.10198751822E+01  0.10195914637E+01 0.  0.
     999903    2    3    3    0    0  0.51084272925E-03 -0.39956535091E-01 -0.12044511147E+00  0.12848884779E+00  0.20138854801E-01 0.  0.
         14    1    1    2    0    0 -0.15771907063E-01 -0.15550447792E-01 -0.93842837985E-02  0.24054817840E-01  0.00000000000E+00 0. -1.
     999901    1    3    3    0    0  0.15261064334E-01  0.55506982883E-01  0.12982939526E+00  0.89138633437E+00  0.88000000000E+00 0.  1.
        -11    1    4    4    0    0 -0.81793908552E-02 -0.29901998195E-01 -0.92101485693E-01  0.97180125122E-01  0.51100000000E-03 0.  1.
         11    1    4    4    0    0  0.86902335844E-02 -0.10054536896E-01 -0.28343625772E-01  0.31308722664E-01  0.51100000000E-03 0. -1.
</event>
<event>
 8    1  0.1213322E+005  0.1043930E+01  0.7957747E-01            NaN
         13   -1    0    0    0    0  0.00000000000E+00  0.00000000000E+00  0.74505805969E-08  0.10566000000E+00  0.10566000000E+00 0.  1.
     999900   -1    0    0    0    0 -0.00000000000E+00 -0.00000000000E+00 -0.74505805969E-08  0.93827000000E+00  0.93827000000E+00 0. -1.
     999902    2    1    2    0    0  0.28491646174E-01 -0.51617466573E-02  0.12271118566E-01  0.10124816633E+01  0.10119931426E+01 0.  0.
     999903    2    3    3    0    0  0.15934501000E-01  0.28566989058E-01  0.11993617909E+00  0.12518967373E+00  0.14757580010E-01 0.  0.
         14    1    1    2    0    0 -0.28491646174E-01  0.51617466573E-02 -0.12271118566E-01  0.31448336698E-01  0.00000000000E+00 0. -1.
     999901    1    3    3    0    0  0.12557145173E-01 -0.33728735715E-01 -0.10766506052E+00  0.88729198958E+00  0.88000000000E+00 0. -1.
        -11    1    4    4    0    0  0.10925515550E-01  0.27053853156E-01  0.85220405029E-01  0.90078057344E-01  0.51100000000E-03 0. -1.
         11    1    4    4    0    0  0.50089854502E-02  0.15131359013E-02  0.34715774058E-01  0.35111616382E-01  0.51100000000E-03 0.  1.
</event>
<event>
 8    1  0.1213322E+005  0.1043930E+01  0.7957747E-01            NaN
         13   -1    0    0    0    0  0.00000000000E+00  0.00000000000E+00  0.74505805969E-08  0.10566000000E+00  0.10566000000E+00 0.  1.
     999900   -1    0    0    0    0 -0.00000000000E+00 -0.00000000000E+00 -0.74505805969E-08  0.93827000000E+00  0.93827000000E+00 0.  1.
     999902    2    1    2    0    0  0.53197535229E-02 -0.18477245815E-01  0.13637634207E-01  0.10203568488E+01  0.10200845090E+01 0.  0.
     999903    2    3    3    0    0  0.38502047402E-01  0.11221075304E+00 -0.44478584425E-01  0.12819211484E+00  0.19524678799E-01 0.  0.
         14    1    1    2    0    0 -0.53197535229E-02  0.18477245815E-01 -0.13637634207E-01  0.23573151194E-01  0.00000000000E+00 0. -1.
     999901    1    3    3    0    0 -0.33182293879E-01 -0.13068799885E+00  0.58116218631E-01  0.89216473397E+00  0.88000000000E+00 0. -1.
        -11    1    4    4    0    0  0.19129710199E-01  0.35331439766E-01 -0.82334913202E-02  0.41015947490E-01  0.51100000000E-03 0.  1.
         11    1    4    4    0    0  0.19372337203E-01  0.76879313273E-01 -0.36245093104E-01  0.87176167346E-01  0.51100000000E-03 0. -1.
</event>
<event>
 8    1  0.1213322E+005  0.1043930E+01  0.7957747E-01            NaN
         13   -1    0    0    0    0  0.00000000000E+00  0.00000000000E+00  0.74505805969E-08  0.10566000000E+00  0.10566000000E+00 0.  1.
     999900   -1    0    0    0    0 -0.00000000000E+00 -0.00000000000E+00 -0.74505805969E-08  0.93827000000E+00  0.93827000000E+00 0.  1.
     999902    2    1    2    0    0  0.79421249379E-02  0.13994616293E-01  0.17337776591E-01  0.10202757164E+01  0.10200014767E+01 0.  0.
     999903    2    3    3    0    0 -0.11407817041E-01 -0.11971128874E+00  0.44274765744E-01  0.12955842645E+00  0.19084025825E-01 0.  0.
         14    1    1    2    0    0 -0.79421249379E-02 -0.13994616293E-01 -0.17337776591E-01  0.23654283562E-01  0.00000000000E+00 0. -1.
     999901    1    3    3    0    0  0.19349941979E-01  0.13370590503E+00 -0.26936989153E-01  0.89071728999E+00  0.88000000000E+00 0.  1.
        -11    1    4    4    0    0 -0.79625952299E-02 -0.64116433673E-01  0.13818451615E-01  0.66072162942E-01  0.51100000000E-03 0.  1.
         11    1    4    4    0    0 -0.34452218111E-02 -0.55594855067E-01  0.30456314129E-01  0.63486263511E-01  0.51100000000E-03 0. -1.
</event>
<event>
 8    1  0.1213322E+005  0.1043930E+01  0.7957747E-01            NaN
         13   -1    0    0    0    0  0.00000000000E+00  0.00000000000E+00  0.74505805969E-08  0.10566000000E+00  0.10566000000E+00 0.  1.
     999900   -1    0    0    0    0 -0.00000000000E+00 -0.00000000000E+00 -0.74505805969E-08  0.93827000000E+00  0.93827000000E+00 0. -1.
     999902    2    1    2    0    0  0.20105839653E-01 -0.28086319478E-02 -0.71256884998E-02  0.10224146883E+01  0.10221882831E+01 0.  0.
     999903    2    3    3    0    0  0.48869360497E-02 -0.66699836507E-01  0.11189841282E+00  0.13197634806E+00  0.20585220964E-01 0.  0.
         14    1    1    2    0    0 -0.20105839653E-01  0.28086319478E-02  0.71256884998E-02  0.21515311714E-01  0.00000000000E+00 0. -1.
     999901    1    3    3    0    0  0.15218903603E-01  0.63891204559E-01 -0.11902410132E+00  0.89043834022E+00  0.88000000000E+00 0. -1.
        -11    1    4    4    0    0 -0.68489577751E-02 -0.38589582087E-01  0.56712431152E-01  0.68939285146E-01  0.51100000000E-03 0.  1.
         11    1    4    4    0    0  0.11735893825E-01 -0.28110254420E-01  0.55185981667E-01  0.63037062915E-01  0.51100000000E-03 0. -1.
</event>
<event>
 8    1  0.1213322E+005  0.1043930E+01  0.7957747E-01            NaN
         13   -1    0    0    0    0  0.00000000000E+00  0.00000000000E+00  0.74505805969E-08  0.10566000000E+00  0.10566000000E+00 0.  1.
     999900   -1    0    0    0    0 -0.00000000000E+00 -0.00000000000E+00 -0.74505805969E-08  0.93827000000E+00  0.93827000000E+00 0. -1.
     999902    2    1    2    0    0  0.59969959912E-02  0.23669122480E-01  0.13425404169E-02  0.10194760896E+01  0.10191827626E+01 0.  0.
     999903    2    3    3    0    0  0.10387328865E+00 -0.73453330369E-01 -0.27797474353E-03  0.12873753895E+00  0.19703421725E-01 0.  0.
         14    1    1    2    0    0 -0.59969959912E-02 -0.23669122480E-01 -0.13425404169E-02  0.24453910416E-01  0.00000000000E+00 0. -1.
     999901    1    3    3    0    0 -0.97876292661E-01  0.97122452849E-01  0.16205151604E-02  0.89073855063E+00  0.88000000000E+00 0. -1.
        -11    1    4    4    0    0  0.75340845955E-01 -0.46675276961E-01 -0.74909225061E-02  0.88944924473E-01  0.51100000000E-03 0. -1.
         11    1    4    4    0    0  0.28532442698E-01 -0.26778053408E-01  0.72129477626E-02  0.39792614478E-01  0.51100000000E-03 0.  1.
</event>
<event>
 8    1  0.1213322E+005  0.1043930E+01  0.7957747E-01            NaN
         13   -1    0    0    0    0  0.00000000000E+00  0.00000000000E+00  0.74505805969E-08  0.10566000000E+00  0.10566000000E+00 0.  1.
     999900   -1    0    0    0    0 -0.00000000000E+00 -0.00000000000E+00 -0.74505805969E-08  0.93827000000E+00  0.93827000000E+00 0. -1.
     999902    2    1    2    0    0  0.87371455079E-02  0.11160709574E-01  0.18691022711E-01  0.10204725176E+01  0.10202028748E+01 0.  0.
     999903    2    3    3    0    0 -0.56385470921E-01 -0.11191197510E+00  0.25014385976E-01  0.12950235773E+00  0.21012606962E-01 0.  0.
         14    1    1    2    0    0 -0.87371455079E-02 -0.11160709574E-01 -0.18691022711E-01  0.23457482384E-01  0.00000000000E+00 0. -1.
     999901    1    3    3    0    0  0.65122616429E-01  0.12307268467E+00 -0.63233632643E-02  0.89097015988E+00  0.88000000000E+00 0.  1.
        -11    1    4    4    0    0 -0.14103585075E-01 -0.21415243415E-01 -0.28373102340E-02  0.25803782918E-01  0.51100000000E-03 0.  1.
         11    1    4    4    0    0 -0.42281885845E-01 -0.90496731680E-01  0.27851696209E-01  0.10369857481E+00  0.51100000000E-03 0. -1.
</event>
<event>
 8    1  0.1213322E+005  0.1043930E+01  0.7957747E-01            NaN
         13   -1    0    0    0    0  0.00000000000E+00  0.00000000000E+00  0.74505805969E-08  0.10566000000E+00  0.10566000000E+00 0. -1.
     999900   -1    0    0    0    0 -0.00000000000E+00 -0.00000000000E+00 -0.74505805969E-08  0.93827000000E+00  0.93827000000E+00 0.  1.
     999902    2    1    2    0    0  0.14866660725E-01  0.24268785497E-02  0.18739019109E-01  0.10198871595E+01  0.10196037269E+01 0.  0.
     999903    2    3    3    0    0  0.36697638606E-01  0.56982998111E-01  0.11270252553E+00  0.13293614492E+00  0.19400531237E-01 0.  0.
         14    1    1    2    0    0 -0.14866660725E-01 -0.24268785497E-02 -0.18739019109E-01  0.24042840468E-01  0.00000000000E+00 0.  1.
     999901    1    3    3    0    0 -0.21830977881E-01 -0.54556119561E-01 -0.93963506425E-01  0.88695101461E+00  0.88000000000E+00 0.  1.
        -11    1    4    4    0    0  0.20132196041E-01  0.28912340779E-01  0.76473875997E-01  0.84200615186E-01  0.51100000000E-03 0.  1.
         11    1    4    4    0    0  0.16565442565E-01  0.28070657332E-01  0.36228649537E-01  0.48735529736E-01  0.51100000000E-03 0. -1.
</event>
<event>
 8    1  0.1213322E+005  0.1043930E+01  0.7957747E-01            NaN
         13   -1    0    0    0    0  0.00000000000E+00  0.00000000000E+00  0.74505805969E-08  0.10566000000E+00  0.10566000000E+00 0.  1.
     999900   -1    0    0    0    0 -0.00000000000E+00 -0.00000000000E+00 -0.74505805969E-08  0.93827000000E+00  0.93827000000E+00 0. -1.
     999902    2    1    2    0    0 -0.21384695423E-01 -0.11818780268E-01  0.28720953574E-02  0.10193284208E+01  0.10190314970E+01 0.  0.
     999903    2    3    3    0    0 -0.41679771122E-01  0.11897596526E+00  0.20132531092E-01  0.12926264900E+00  0.20273874570E-01 0.  0.
         14    1    1    2    0    0  0.21384695423E-01  0.11818780268E-01 -0.28720953574E-02  0.24601579158E-01  0.00000000000E+00 0. -1.
     999901    1    3    3    0    0  0.20295075699E-01 -0.13079474552E+00 -0.17260435734E-01  0.89006577184E+00  0.88000000000E+00 0. -1.
        -11    1    4    4    0    0 -0.30886800411E-01  0.65981979626E-01  0.46382468024E-02  0.73002674809E-01  0.51100000000E-03 0.  1.
         11    1    4    4    0    0 -0.10792970711E-01  0.52993985631E-01  0.15494284289E-01  0.56259974195E-01  0.51100000000E-03 0. -1.
</event>
<event>
 8    1  0.1213322E+005  0.1043930E+01  0.7957747E-01            NaN
         13   -1    0    0    0    0  0.00000000000E+00  0.00000000000E+00  0.74505805969E-08  0.10566000000E+00  0.10566000000E+00 0.  1.
     999900   -1    0    0    0    0 -0.00000000000E+00 -0.00000000000E+00 -0.74505805969E-08  0.93827000000E+00  0.93827000000E+00 0.  1.
     999902    2    1    2    0    0 -0.22238394646E-01 -0.79075837721E-02  0.21333550699E-03  0.10203265767E+01  0.10200535288E+01 0.  0.
     999903    2    3    3    0    0 -0.31433423860E-01  0.85548926238E-02  0.12563776237E+00  0.13123330349E+00  0.19392944261E-01 0.  0.
         14    1    1    2    0    0  0.22238394646E-01  0.79075837721E-02 -0.21333550699E-03  0.23603423260E-01  0.00000000000E+00 0. -1.
     999901    1    3    3    0    0  0.91950292139E-02 -0.16462476396E-01 -0.12542442686E+00  0.88909327325E+00  0.88000000000E+00 0.  1.
        -11    1    4    4    0    0 -0.11509588061E-01  0.13105222266E-01  0.59964783443E-01  0.62452012316E-01  0.51100000000E-03 0. -1.
         11    1    4    4    0    0 -0.19923835799E-01 -0.45503296425E-02  0.65672978928E-01  0.68781291170E-01  0.51100000000E-03 0.  1.
</event>
<event>
 8    1  0.1213322E+005  0.1043930E+01  0.7957747E-01            NaN
         13   -1    0    0    0    0  0.00000000000E+00  0.00000000000E+00  0.74505805969E-08  0.10566000000E+00  0.10566000000E+00 0.  1.
     999900   -1    0    0    0    0 -0.00000000000E+00 -0.00000000000E+00 -0.74505805969E-08  0.93827000000E+00  0.93827000000E+00 0. -1.
     999902    2    1    2    0    0  0.16637640694E-01 -0.43150661201E-02  0.16676819418E-01  0.10199811547E+01  0.10196999602E+01 0.  0.
     999903    2    3    3    0    0  0.55264604270E-03  0.12076458331E+00  0.44915560370E-01  0.13054252715E+00  0.20965539134E-01 0.  0.
         14    1    1    2    0    0 -0.16637640694E-01  0.43150661201E-02 -0.16676819418E-01  0.23948845262E-01  0.00000000000E+00 0. -1.
     999901    1    3    3    0    0  0.16084994652E-01 -0.12507964943E+00 -0.28238740952E-01  0.88943862759E+00  0.88000000000E+00 0. -1.
        -11    1    4    4    0    0  0.44417620787E-02  0.49704005336E-01  0.28631016543E-01  0.57534455990E-01  0.51100000000E-03 0. -1.
         11    1    4    4    0    0 -0.38891160360E-02  0.71060577976E-01  0.16284543828E-01  0.73008071160E-01  0.51100000000E-03 0.  1.
</event>
<event>
 8    1  0.1213322E+005  0.1043930E+01  0.7957747E-01            NaN
         13   -1    0    0    0    0  0.00000000000E+00  0.00000000000E+00  0.74505805969E-08  0.10566000000E+00  0.10566000000E+00 0.  1.
     999900   -1    0    0    0    0 -0.00000000000E+00 -0.00000000000E+00 -0.74505805969E-08  0.93827000000E+00  0.93827000000E+00 0.  1.
     999902    2    1    2    0    0  0.20918767209E-01 -0.64502001031E-02  0.85894868068E-02  0.10204144905E+01  0.10201434964E+01 0.  0.
     999903    2    3    3    0    0  0.11164411561E+00  0.21951801618E-01  0.66656950793E-01  0.13339160867E+00  0.20096816359E-01 0.  0.
         14    1    1    2    0    0 -0.20918767209E-01  0.64502001031E-02 -0.85894868068E-02  0.23515509488E-01  0.00000000000E+00 0.  1.
     999901    1    3    3    0    0 -0.90725348405E-01 -0.28402001722E-01 -0.58067463987E-01  0.88702288185E+00  0.88000000000E+00 0. -1.
        -11    1    4    4    0    0  0.84187225591E-01  0.14935064514E-01  0.39679975283E-01  0.94261904628E-01  0.51100000000E-03 0.  1.
         11    1    4    4    0    0  0.27456890023E-01  0.70167371045E-02  0.26976975510E-01  0.39129704037E-01  0.51100000000E-03 0. -1.
</event>
<event>
 8    1  0.1213322E+005  0.1043930E+01  0.7957747E-01            NaN
         13   -1    0    0    0    0  0.00000000000E+00  0.00000000000E+00  0.74505805969E-08  0.10566000000E+00  0.10566000000E+00 0.  1.
     999900   -1    0    0    0    0 -0.00000000000E+00 -0.00000000000E+00 -0.74505805969E-08  0.93827000000E+00  0.93827000000E+00 0.  1.
     999902    2    1    2    0    0 -0.22377885050E-01  0.92227368456E-02  0.56037669369E-03  0.10197196172E+01  0.10194321728E+01 0.  0.
     999903    2    3    3    0    0 -0.84359915303E-01 -0.49056498132E-01 -0.86194573284E-01  0.13137021371E+00  0.17478365690E-01 0.  0.
         14    1    1    2    0    0  0.22377885050E-01 -0.92227368456E-02 -0.56037669369E-03  0.24210382820E-01  0.00000000000E+00 0. -1.
     999901    1    3    3    0    0  0.61982030253E-01  0.58279234978E-01  0.86754949978E-01  0.88834940347E+00  0.88000000000E+00 0. -1.
        -11    1    4    4    0    0 -0.71201620445E-01 -0.47767568566E-01 -0.77160015327E-01  0.11534877740E+00  0.51100000000E-03 0.  1.
         11    1    4    4    0    0 -0.13158294857E-01 -0.12889295658E-02 -0.90345579571E-02  0.16021436311E-01  0.51100000000E-03 0. -1.
</event>
<event>
 8    1  0.1213322E+005  0.1043930E+01  0.7957747E-01            NaN
         13   -1    0    0    0    0  0.00000000000E+00  0.00000000000E+00  0.74505805969E-08  0.10566000000E+00  0.10566000000E+00 0.  1.
     999900   -1    0    0    0    0 -0.00000000000E+00 -0.00000000000E+00 -0.74505805969E-08  0.93827000000E+00  0.93827000000E+00 0. -1.
     999902    2    1    2    0    0  0.20920195380E-01  0.11056014237E-01 -0.11222169207E-02  0.10202414079E+01  0.10199663627E+01 0.  0.
     999903    2    3    3    0    0  0.10163991929E-01 -0.12001326795E+00  0.43011317328E-01  0.12937518814E+00  0.19531376588E-01 0.  0.
         14    1    1    2    0    0 -0.20920195380E-01 -0.11056014237E-01  0.11222169207E-02  0.23688592114E-01  0.00000000000E+00 0. -1.
     999901    1    3    3    0    0  0.10756203451E-01  0.13106928219E+00 -0.44133534248E-01  0.89086621975E+00  0.88000000000E+00 0.  1.
        -11    1    4    4    0    0 -0.10160529407E-02 -0.17102453014E-01 -0.34770236153E-03  0.17143753399E-01  0.51100000000E-03 0. -1.
         11    1    4    4    0    0  0.11180044870E-01 -0.10291081494E+00  0.43359019689E-01  0.11223143474E+00  0.51100000000E-03 0.  1.
</event>
<event>
 8    1  0.1213322E+005  0.1043930E+01  0.7957747E-01            NaN
         13   -1    0    0    0    0  0.00000000000E+00  0.00000000000E+00  0.74505805969E-08  0.10566000000E+00  0.10566000000E+00 0. -1.
     999900   -1    0    0    0    0 -0.00000000000E+00 -0.00000000000E+00 -0.74505805969E-08  0.93827000000E+00  0.93827000000E+00 0. -1.
     999902    2    1    2    0    0 -0.20833042953E-01  0.11687108503E-01 -0.15348430200E-02  0.10199934186E+01  0.10197125154E+01 0.  0.
     999903    2    3    3    0    0 -0.10442271431E+00 -0.51892561419E-01  0.57940986899E-01  0.13175528507E+00  0.20133454449E-01 0.  0.
         14    1    1    2    0    0  0.20833042953E-01 -0.11687108503E-01  0.15348430200E-02  0.23936581355E-01  0.00000000000E+00 0.  1.
     999901    1    3    3    0    0  0.83589671355E-01  0.63579669922E-01 -0.59475829919E-01  0.88823813357E+00  0.88000000000E+00 0.  1.
        -11    1    4    4    0    0 -0.47664695588E-01 -0.28651630384E-01  0.37612278700E-01  0.67140030974E-01  0.51100000000E-03 0. -1.
         11    1    4    4    0    0 -0.56758018721E-01 -0.23240931034E-01  0.20328708199E-01  0.64615254101E-01  0.51100000000E-03 0.  1.
</event>
<event>
 8    1  0.1213322E+005  0.1043930E+01  0.7957747E-01            NaN
         13   -1    0    0    0    0  0.00000000000E+00  0.00000000000E+00  0.74505805969E-08  0.10566000000E+00  0.10566000000E+00 0. -1.
     999900   -1    0    0    0    0 -0.00000000000E+00 -0.00000000000E+00 -0.74505805969E-08  0.93827000000E+00  0.93827000000E+00 0.  1.
     999902    2    1    2    0    0 -0.90671692058E-02 -0.15278599074E-01 -0.14769117288E-01  0.10208264078E+01  0.10205649312E+01 0.  0.
     999903    2    3    3    0    0  0.13796755504E-01  0.85324610600E-01 -0.94909511718E-01  0.13118251968E+00  0.27025884232E-01 0.  0.
         14    1    1    2    0    0  0.90671692058E-02  0.15278599074E-01  0.14769117288E-01  0.23103592200E-01  0.00000000000E+00 0. -1.
     999901    1    3    3    0    0 -0.22863924710E-01 -0.10060320967E+00  0.80140394430E-01  0.88964388812E+00  0.88000000000E+00 0. -1.
        -11    1    4    4    0    0 -0.20130744551E-02  0.45165334978E-01 -0.62818832985E-01  0.77397847845E-01  0.51100000000E-03 0.  1.
         11    1    4    4    0    0  0.15809829960E-01  0.40159275623E-01 -0.32090678733E-01  0.53784671835E-01  0.51100000000E-03 0. -1.
</event>
<event>
 8    1  0.1213322E+005  0.1043930E+01  0.7957747E-01            NaN
         13   -1    0    0    0    0  0.00000000000E+00  0.00000000000E+00  0.74505805969E-08  0.10566000000E+00  0.10566000000E+00 0. -1.
     999900   -1    0    0    0    0 -0.00000000000E+00 -0.00000000000E+00 -0.74505805969E-08  0.93827000000E+00  0.93827000000E+00 0. -1.
     999902    2    1    2    0    0  0.15071591937E-01 -0.17813255571E-01  0.37986827557E-02  0.10202890409E+01  0.10200151136E+01 0.  0.
     999903    2    3    3    0    0 -0.34177679014E-01 -0.57348299956E-01 -0.11059566751E+00  0.13064047105E+00  0.19457383038E-01 0.  0.
         14    1    1    2    0    0 -0.15071591937E-01  0.17813255571E-01 -0.37986827557E-02  0.23640959123E-01  0.00000000000E+00 0.  1.
     999901    1    3    3    0    0  0.49249270951E-01  0.39535044385E-01  0.11439435026E+00  0.88964856983E+00  0.88000000000E+00 0.  1.
        -11    1    4    4    0    0 -0.34176989791E-02 -0.80344906202E-02 -0.30159267164E-01  0.31401850625E-01  0.51100000000E-03 0.  1.
         11    1    4    4    0    0 -0.30759980035E-01 -0.49313809336E-01 -0.80436400341E-01  0.99238620425E-01  0.51100000000E-03 0. -1.
</event>
<event>
 8    1  0.1213322E+005  0.1043930E+01  0.7957747E-01            NaN
         13   -1    0    0    0    0  0.00000000000E+00  0.00000000000E+00  0.74505805969E-08  0.10566000000E+00  0.10566000000E+00 0.  1.
     999900   -1    0    0    0    0 -0.00000000000E+00 -0.00000000000E+00 -0.74505805969E-08  0.93827000000E+00  0.93827000000E+00 0.  1.
     999902    2    1    2    0    0  0.23718913065E-01  0.72487818528E-02 -0.16713605400E-01  0.10140222037E+01  0.10135810541E+01 0.  0.
     999903    2    3    3    0    0  0.11395511609E+00 -0.36239219176E-01  0.36854775451E-01  0.12672104286E+00  0.20022455865E-01 0.  0.
         14    1    1    2    0    0 -0.23718913065E-01 -0.72487818528E-02  0.16713605400E-01  0.29907796321E-01  0.00000000000E+00 0.  1.
     999901    1    3    3    0    0 -0.90236203027E-01  0.43488001029E-01 -0.53568380851E-01  0.88730116082E+00  0.88000000000E+00 0.  1.
        -11    1    4    4    0    0  0.26262971994E-01 -0.16524703225E-01  0.54376142612E-02  0.31506162643E-01  0.51100000000E-03 0. -1.
         11    1    4    4    0    0  0.87692144098E-01 -0.19714515951E-01  0.31417161190E-01  0.95214880213E-01  0.51100000000E-03 0.  1.
</event>
<event>
 8    1  0.1213322E+005  0.1043930E+01  0.7957747E-01            NaN
         13   -1    0    0    0    0  0.00000000000E+00  0.00000000000E+00  0.74505805969E-08  0.10566000000E+00  0.10566000000E+00 0.  1.
     999900   -1    0    0    0    0 -0.00000000000E+00 -0.00000000000E+00 -0.74505805969E-08  0.93827000000E+00  0.93827000000E+00 0.  1.
     999902    2    1    2    0    0  0.62816966224E-02  0.17231614160E-01  0.14226074958E-01  0.10207185923E+01  0.10204546414E+01 0.  0.
     999903    2    3    3    0    0  0.11974470777E+00  0.41637825202E-01  0.34442523672E-01  0.13286825421E+00  0.19879185457E-01 0.  0.
         14    1    1    2    0    0 -0.62816966224E-02 -0.17231614160E-01 -0.14226074958E-01  0.23211407706E-01  0.00000000000E+00 0. -1.
     999901    1    3    3    0    0 -0.11346301114E+00 -0.24406211043E-01 -0.20216448714E-01  0.88785033808E+00  0.88000000000E+00 0.  1.
        -11    1    4    4    0    0  0.80267451768E-01  0.22891412378E-01  0.14065495927E-01  0.84646204112E-01  0.51100000000E-03 0.  1.
         11    1    4    4    0    0  0.39477255999E-01  0.18746412824E-01  0.20377027745E-01  0.48222050098E-01  0.51100000000E-03 0. -1.
</event>
<event>
 8    1  0.1213322E+005  0.1043930E+01  0.7957747E-01            NaN
         13   -1    0    0    0    0  0.00000000000E+00  0.00000000000E+00  0.74505805969E-08  0.10566000000E+00  0.10566000000E+00 0. -1.
     999900   -1    0    0    0    0 -0.00000000000E+00 -0.00000000000E+00 -0.74505805969E-08  0.93827000000E+00  0.93827000000E+00 0. -1.
     999902    2    1    2    0    0  0.14302596671E-01  0.12922003173E-01  0.18302913735E-01  0.10173491970E+01  0.10170018926E+01 0.  0.
     999903    2    3    3    0    0  0.50577874590E-01  0.54663944840E-01  0.10612052665E+00  0.13125088494E+00  0.20468521144E-01 0.  0.
         14    1    1    2    0    0 -0.14302596671E-01 -0.12922003173E-01 -0.18302913735E-01  0.26580803011E-01  0.00000000000E+00 0.  1.
     999901    1    3    3    0    0 -0.36275277918E-01 -0.41741941667E-01 -0.87817612911E-01  0.88609831205E+00  0.88000000000E+00 0. -1.
        -11    1    4    4    0    0  0.55246825791E-02  0.43091663133E-02  0.23450500389E-01  0.24480157708E-01  0.51100000000E-03 0.  1.
         11    1    4    4    0    0  0.45053192011E-01  0.50354778527E-01  0.82670026257E-01  0.10677072723E+00  0.51100000000E-03 0. -1.
</event>
<event>
 8    1  0.1213322E+005  0.1043930E+01  0.7957747E-01            NaN
         13   -1    0    0    0    0  0.00000000000E+00  0.00000000000E+00  0.74505805969E-08  0.10566000000E+00  0.10566000000E+00 0. -1.
     999900   -1    0    0    0    0 -0.00000000000E+00 -0.00000000000E+00 -0.74505805969E-08  0.93827000000E+00  0.93827000000E+00 0.  1.
     999902    2    1    2    0    0 -0.32776428288E-02  0.14467482185E-01  0.16332271534E-01  0.10218665896E+01  0.10216283732E+01 0.  0.
     999903    2    3    3    0    0  0.52551370523E-01 -0.17212269870E-01 -0.11518424398E+00  0.12978078700E+00  0.22753765282E-01 0.  0.
         14    1    1    2    0    0  0.32776428288E-02 -0.14467482185E-01 -0.16332271534E-01  0.22063410361E-01  0.00000000000E+00 0.  1.
     999901    1    3    3    0    0 -0.55829013351E-01  0.31679752055E-01  0.13151651551E+00  0.89208580264E+00  0.88000000000E+00 0. -1.
        -11    1    4    4    0    0  0.42470701527E-01 -0.21494436323E-01 -0.81808684093E-01  0.94650373454E-01  0.51100000000E-03 0. -1.
         11    1    4    4    0    0  0.10080668996E-01  0.42821664524E-02 -0.33375559887E-01  0.35130413543E-01  0.51100000000E-03 0.  1.
</event>
<event>
 8    1  0.1213322E+005  0.1043930E+01  0.7957747E-01            NaN
         13   -1    0    0    0    0  0.00000000000E+00  0.00000000000E+00  0.74505805969E-08  0.10566000000E+00  0.10566000000E+00 0.  1.
     999900   -1    0    0    0    0 -0.00000000000E+00 -0.00000000000E+00 -0.74505805969E-08  0.93827000000E+00  0.93827000000E+00 0.  1.
     999902    2    1    2    0    0  0.20321518388E-01 -0.99389964070E-02 -0.27388154393E-02  0.10211429671E+01  0.10208886866E+01 0.  0.
     999903    2    3    3    0    0 -0.10472901972E+00  0.14224209058E-01  0.71043818898E-01  0.12891800963E+00  0.20053261764E-01 0.  0.
         14    1    1    2    0    0 -0.20321518388E-01  0.99389964070E-02  0.27388154393E-02  0.22787032918E-01  0.00000000000E+00 0.  1.
     999901    1    3    3    0    0  0.12505053811E+00 -0.24163205465E-01 -0.73782634337E-01  0.89222495746E+00  0.88000000000E+00 0.  1.
        -11    1    4    4    0    0 -0.74758005100E-01  0.15270934633E-01  0.41686723518E-01  0.86948288136E-01  0.51100000000E-03 0.  1.
         11    1    4    4    0    0 -0.29971014620E-01 -0.10467255753E-02  0.29357095379E-01  0.41969721489E-01  0.51100000000E-03 0. -1.
</event>
<event>
 8    1  0.1213322E+005  0.1043930E+01  0.7957747E-01            NaN
         13   -1    0    0    0    0  0.00000000000E+00  0.00000000000E+00  0.74505805969E-08  0.10566000000E+00  0.10566000000E+00 0.  1.
     999900   -1    0    0    0    0 -0.00000000000E+00 -0.00000000000E+00 -0.74505805969E-08  0.93827000000E+00  0.93827000000E+00 0. -1.
     999902    2    1    2    0    0 -0.12653089600E-01 -0.19467187706E-01 -0.24653153790E-02  0.10205815557E+01  0.10203144427E+01 0.  0.
     999903    2    3    3    0    0 -0.77636735463E-01 -0.50057849528E-01  0.92432971055E-01  0.13257009875E+00  0.22309772560E-01 0.  0.
         14    1    1    2    0    0  0.12653089600E-01  0.19467187706E-01  0.24653153790E-02  0.23348444350E-01  0.00000000000E+00 0.  1.
     999901    1    3    3    0    0  0.64983645862E-01  0.30590661822E-01 -0.94898286434E-01  0.88801145690E+00  0.88000000000E+00 0. -1.
        -11    1    4    4    0    0 -0.63104224645E-01 -0.29131108693E-01  0.69380506821E-01  0.98207334296E-01  0.51100000000E-03 0. -1.
         11    1    4    4    0    0 -0.14532510818E-01 -0.20926740835E-01  0.23052464234E-01  0.34362764454E-01  0.51100000000E-03 0.  1.
</event>
<event>
 8    1  0.1213322E+005  0.1043930E+01  0.7957747E-01            NaN
         13   -1    0    0    0    0  0.00000000000E+00  0.00000000000E+00  0.74505805969E-08  0.10566000000E+00  0.10566000000E+00 0.  1.
     999900   -1    0    0    0    0 -0.00000000000E+00 -0.00000000000E+00 -0.74505805969E-08  0.93827000000E+00  0.93827000000E+00 0.  1.
     999902    2    1    2    0    0 -0.19830271616E-01 -0.80294076945E-02 -0.10926661740E-01  0.10199070319E+01  0.10196240732E+01 0.  0.
     999903    2    3    3    0    0 -0.89951913157E-01  0.40332931822E-01  0.83646826857E-01  0.13075006867E+00  0.19511451585E-01 0.  0.
         14    1    1    2    0    0  0.19830271616E-01  0.80294076945E-02  0.10926661740E-01  0.24022968115E-01  0.00000000000E+00 0.  1.
     999901    1    3    3    0    0  0.70121641541E-01 -0.48362339517E-01 -0.94573488597E-01  0.88915696322E+00  0.88000000000E+00 0.  1.
        -11    1    4    4    0    0 -0.36627371989E-01  0.21685263781E-01  0.46997291577E-01  0.63409948594E-01  0.51100000000E-03 0. -1.
         11    1    4    4    0    0 -0.53324541167E-01  0.18647668041E-01  0.36649535280E-01  0.67340120072E-01  0.51100000000E-03 0.  1.
</event>
<event>
 8    1  0.1213322E+005  0.1043930E+01  0.7957747E-01            NaN
         13   -1    0    0    0    0  0.00000000000E+00  0.00000000000E+00  0.74505805969E-08  0.10566000000E+00  0.10566000000E+00 0.  1.
     999900   -1    0    0    0    0 -0.00000000000E+00 -0.00000000000E+00 -0.74505805969E-08  0.93827000000E+00  0.93827000000E+00 0.  1.
     999902    2    1    2    0    0  0.37253432423E-02  0.14004830244E-01  0.19234964882E-01  0.10198468663E+01  0.10195624716E+01 0.  0.
     999903    2    3    3    0    0 -0.70877423579E-01  0.17058448887E-01 -0.10344049974E+00  0.12820558925E+00  0.20545955249E-01 0.  0.
         14    1    1    2    0    0 -0.37253432423E-02 -0.14004830244E-01 -0.19234964882E-01  0.24083133651E-01  0.00000000000E+00 0. -1.
     999901    1    3    3    0    0  0.74602766821E-01 -0.30536186426E-02  0.12267546462E+00  0.89164127710E+00  0.88000000000E+00 0. -1.
        -11    1    4    4    0    0 -0.16070381343E-01  0.12839505452E-01 -0.24211266026E-01  0.31773520113E-01  0.51100000000E-03 0.  1.
         11    1    4    4    0    0 -0.54807042236E-01  0.42189434346E-02 -0.79229233715E-01  0.96432069139E-01  0.51100000000E-03 0. -1.
</event>
<event>
 8    1  0.1213322E+005  0.1043930E+01  0.7957747E-01            NaN
         13   -1    0    0    0    0  0.00000000000E+00  0.00000000000E+00  0.74505805969E-08  0.10566000000E+00  0.10566000000E+00 0.  1.
     999900   -1    0    0    0    0 -0.00000000000E+00 -0.00000000000E+00 -0.74505805969E-08  0.93827000000E+00  0.93827000000E+00 0. -1.
     999902    2    1    2    0    0  0.35579899579E-02 -0.11986587124E-01 -0.19823495178E-01  0.10204926681E+01  0.10202234938E+01 0.  0.
     999903    2    3    3    0    0 -0.83395262871E-02  0.86895846024E-02  0.12606915479E+00  0.12816216867E+00  0.19673665414E-01 0.  0.
         14    1    1    2    0    0 -0.35579899579E-02  0.11986587124E-01  0.19823495178E-01  0.23437331855E-01  0.00000000000E+00 0.  1.
     999901    1    3    3    0    0  0.11897516245E-01 -0.20676171727E-01 -0.14589264997E+00  0.89233049947E+00  0.88000000000E+00 0. -1.
        -11    1    4    4    0    0 -0.84932799059E-02  0.46942695024E-02  0.22429151546E-01  0.24443811687E-01  0.51100000000E-03 0. -1.
         11    1    4    4    0    0  0.15375361875E-03  0.39953151001E-02  0.10364000324E+00  0.10371835699E+00  0.51100000000E-03 0.  1.
</event>
<event>
 8    1  0.1213322E+005  0.1043930E+01  0.7957747E-01            NaN
         13   -1    0    0    0    0  0.00000000000E+00  0.00000000000E+00  0.74505805969E-08  0.10566000000E+00  0.10566000000E+00 0. -1.
     999900   -1    0    0    0    0 -0.00000000000E+00 -0.00000000000E+00 -0.74505805969E-08  0.93827000000E+00  0.93827000000E+00 0. -1.
     999902    2    1    2    0    0 -0.13324907343E-01 -0.63791708683E-02  0.19329399525E-01  0.10196015668E+01  0.10193112784E+01 0.  0.
     999903    2    3    3    0    0 -0.71105776464E-01  0.10670430721E+00 -0.85598907954E-02  0.13004869350E+00  0.19938664125E-01 0.  0.
         14    1    1    2    0    0  0.13324907343E-01  0.63791708683E-02 -0.19329399525E-01  0.24328433214E-01  0.00000000000E+00 0.  1.
     999901    1    3    3    0    0  0.57780869120E-01 -0.11308347808E+00  0.27889290320E-01  0.88955287328E+00  0.88000000000E+00 0.  1.
        -11    1    4    4    0    0 -0.19487936203E-02  0.62558343685E-02 -0.46148219497E-02  0.80306265539E-02  0.51100000000E-03 0.  1.
         11    1    4    4    0    0 -0.69156982843E-01  0.10044847284E+00 -0.39450688457E-02  0.12201806695E+00  0.51100000000E-03 0. -1.
</event>
<event>
 8    1  0.1213322E+005  0.1043930E+01  0.7957747E-01            NaN
         13   -1    0    0    0    0  0.00000000000E+00  0.00000000000E+00  0.74505805969E-08  0.10566000000E+00  0.10566000000E+00 0. -1.
     999900   -1    0    0    0    0 -0.00000000000E+00 -0.00000000000E+00 -0.74505805969E-08  0.93827000000E+00  0.93827000000E+00 0.  1.
     999902    2    1    2    0    0 -0.21791174919E-01  0.40134009222E-02 -0.10020075856E-01  0.10196120105E+01  0.10193219744E+01 0.  0.
     999903    2    3    3    0    0  0.33106484556E-01  0.58354844064E-01 -0.10995457794E+00  0.13059364730E+00  0.21525899746E-01 0.  0.
         14    1    1    2    0    0  0.21791174919E-01 -0.40134009222E-02  0.10020075856E-01  0.24317989462E-01  0.00000000000E+00 0. -1.
     999901    1    3    3    0    0 -0.54897659475E-01 -0.54341443142E-01  0.99934502089E-01  0.88901836323E+00  0.88000000000E+00 0. -1.
        -11    1    4    4    0    0  0.24814474810E-01  0.22291774596E-01 -0.48801443560E-01  0.59114493902E-01  0.51100000000E-03 0. -1.
         11    1    4    4    0    0  0.82920097460E-02  0.36063069468E-01 -0.61153134385E-01  0.71479153402E-01  0.51100000000E-03 0.  1.
</event>
<event>
 8    1  0.1213322E+005  0.1043930E+01  0.7957747E-01            NaN
         13   -1    0    0    0    0  0.00000000000E+00  0.00000000000E+00  0.74505805969E-08  0.10566000000E+00  0.10566000000E+00 0.  1.
     999900   -1    0    0    0    0 -0.00000000000E+00 -0.00000000000E+00 -0.74505805969E-08  0.93827000000E+00  0.93827000000E+00 0.  1.
     999902    2    1    2    0    0  0.38715779412E-02 -0.11484250877E-01 -0.20681933245E-01  0.10199587777E+01  0.10196770512E+01 0.  0.
     999903    2    3    3    0    0 -0.37397378801E-01  0.65997035630E-01  0.99723634891E-01  0.12743204011E+00  0.23236799191E-01 0.  0.
         14    1    1    2    0    0 -0.38715779412E-02  0.11484250877E-01  0.20681933245E-01  0.23971222262E-01  0.00000000000E+00 0.  1.
     999901    1    3    3    0    0  0.41268956743E-01 -0.77481286507E-01 -0.12040556814E+00  0.89252673763E+00  0.88000000000E+00 0.  1.
        -11    1    4    4    0    0 -0.35606138208E-01  0.41210235448E-01  0.67329505678E-01  0.86600254270E-01  0.51100000000E-03 0. -1.
         11    1    4    4    0    0 -0.17912405932E-02  0.24786800182E-01  0.32394129213E-01  0.40831785836E-01  0.51100000000E-03 0.  1.
</event>
<event>
 8    1  0.1213322E+005  0.1043930E+01  0.7957747E-01            NaN
         13   -1    0    0    0    0  0.00000000000E+00  0.00000000000E+00  0.74505805969E-08  0.10566000000E+00  0.10566000000E+00 0. -1.
     999900   -1    0    0    0    0 -0.00000000000E+00 -0.00000000000E+00 -0.74505805969E-08  0.93827000000E+00  0.93827000000E+00 0. -1.
     999902    2    1    2    0    0  0.16543410099E-02 -0.10353639463E-01 -0.21265925681E-01  0.10202197851E+01  0.10199442316E+01 0.  0.
     999903    2    3    3    0    0 -0.64156513877E-01 -0.11232840959E-02  0.10905265628E+00  0.12814400309E+00  0.20275197830E-01 0.  0.
         14    1    1    2    0    0 -0.16543410099E-02  0.10353639463E-01  0.21265925681E-01  0.23710214875E-01  0.00000000000E+00 0. -1.
     999901    1    3    3    0    0  0.65810854887E-01 -0.92303553676E-02 -0.13031858196E+00  0.89207578203E+00  0.88000000000E+00 0. -1.
        -11    1    4    4    0    0 -0.30772580187E-01 -0.48005736426E-02  0.70098825402E-01  0.76707911211E-01  0.51100000000E-03 0.  1.
         11    1    4    4    0    0 -0.33383933690E-01  0.36772895467E-02  0.38953830879E-01  0.51436091883E-01  0.51100000000E-03 0. -1.
</event>
<event>
 8    1  0.1213322E+005  0.1043930E+01  0.7957747E-01            NaN
         13   -1    0    0    0    0  0.00000000000E+00  0.00000000000E+00  0.74505805969E-08  0.10566000000E+00  0.10566000000E+00 0.  1.
     999900   -1    0    0    0    0 -0.00000000000E+00 -0.00000000000E+00 -0.74505805969E-08  0.93827000000E+00  0.93827000000E+00 0. -1.
     999902    2    1    2    0    0 -0.16292564392E-01  0.13901463745E-01  0.11952761227E-01  0.10194031402E+01  0.10191080392E+01 0.  0.
     999903    2    3    3    0    0 -0.48106356336E-01 -0.16507010646E-01  0.11979282813E+00  0.13172849675E+00  0.20380683575E-01 0.  0.
         14    1    1    2    0    0  0.16292564392E-01 -0.13901463745E-01 -0.11952761227E-01  0.24526859760E-01  0.00000000000E+00 0. -1.
     999901    1    3    3    0    0  0.31813791944E-01  0.30408474390E-01 -0.10784006690E+00  0.88767464349E+00  0.88000000000E+00 0. -1.
        -11    1    4    4    0    0 -0.28688448198E-01 -0.47748697170E-02  0.87888944568E-01  0.92577287383E-01  0.51100000000E-03 0. -1.
         11    1    4    4    0    0 -0.19417908139E-01 -0.11732140929E-01  0.31903883563E-01  0.39151209364E-01  0.51100000000E-03 0.  1.
</event>
<event>
 8    1  0.1213322E+005  0.1043930E+01  0.7957747E-01            NaN
         13   -1    0    0    0    0  0.00000000000E+00  0.00000000000E+00  0.74505805969E-08  0.10566000000E+00  0.10566000000E+00 0.  1.
     999900   -1    0    0    0    0 -0.00000000000E+00 -0.00000000000E+00 -0.74505805969E-08  0.93827000000E+00  0.93827000000E+00 0.  1.
     999902    2    1    2    0    0  0.13364188696E-01 -0.16151346752E-01  0.11283187199E-01  0.10201229033E+01  0.10198450666E+01 0.  0.
     999903    2    3    3    0    0  0.91141313289E-01 -0.75355858559E-01 -0.56087664253E-01  0.13215145837E+00  0.18246573956E-01 0.  0.
         14    1    1    2    0    0 -0.13364188696E-01  0.16151346752E-01 -0.11283187199E-01  0.23807096731E-01  0.00000000000E+00 0. -1.
     999901    1    3    3    0    0 -0.77777124593E-01  0.59204511807E-01  0.67370851452E-01  0.88797144490E+00  0.88000000000E+00 0.  1.
        -11    1    4    4    0    0  0.33677754556E-01 -0.23067130022E-01 -0.10825527495E-01  0.42234308399E-01  0.51100000000E-03 0. -1.
         11    1    4    4    0    0  0.57463558733E-01 -0.52288728537E-01 -0.45262136758E-01  0.89917149972E-01  0.51100000000E-03 0.  1.
</event>
<event>
 8    1  0.1213322E+005  0.1043930E+01  0.7957747E-01            NaN
         13   -1    0    0    0    0  0.00000000000E+00  0.00000000000E+00  0.74505805969E-08  0.10566000000E+00  0.10566000000E+00 0.  1.
     999900   -1    0    0    0    0 -0.00000000000E+00 -0.00000000000E+00 -0.74505805969E-08  0.93827000000E+00  0.93827000000E+00 0.  1.
     999902    2    1    2    0    0  0.50947035125E-02  0.22649650753E-01  0.63552733537E-02  0.10198602642E+01  0.10195761895E+01 0.  0.
     999903    2    3    3    0    0  0.82019420814E-01 -0.50799275905E-01 -0.83287094539E-01  0.12893495245E+00  0.19486662700E-01 0.  0.
         14    1    1    2    0    0 -0.50947035125E-02 -0.22649650753E-01 -0.63552733537E-02  0.24069735821E-01  0.00000000000E+00 0. -1.
     999901    1    3    3    0    0 -0.76924717302E-01  0.73448926657E-01  0.89642367893E-01  0.89092531173E+00  0.88000000000E+00 0. -1.
        -11    1    4    4    0    0  0.16922879773E-01 -0.10302521925E-01 -0.28460562413E-01  0.34681270906E-01  0.51100000000E-03 0. -1.
         11    1    4    4    0    0  0.65096541041E-01 -0.40496753979E-01 -0.54826532127E-01  0.94253681543E-01  0.51100000000E-03 0.  1.
</event>
<event>
 8    1  0.1213322E+005  0.1043930E+01  0.7957747E-01            NaN
         13   -1    0    0    0    0  0.00000000000E+00  0.00000000000E+00  0.74505805969E-08  0.10566000000E+00  0.10566000000E+00 0.  1.
     999900   -1    0    0    0    0 -0.00000000000E+00 -0.00000000000E+00 -0.74505805969E-08  0.93827000000E+00  0.93827000000E+00 0.  1.
     999902    2    1    2    0    0  0.48652151703E-03  0.14973445726E-01 -0.18196527832E-01  0.10203597984E+01  0.10200875275E+01 0.  0.
     999903    2    3    3    0    0 -0.24866629017E-01  0.78144786726E-01 -0.10336878979E+00  0.13363113932E+00  0.21147523769E-01 0.  0.
         14    1    1    2    0    0 -0.48652151703E-03 -0.14973445726E-01  0.18196527832E-01  0.23570201638E-01  0.00000000000E+00 0.  1.
     999901    1    3    3    0    0  0.25353150534E-01 -0.63171341000E-01  0.85172261957E-01  0.88672865905E+00  0.88000000000E+00 0. -1.
        -11    1    4    4    0    0 -0.64553573744E-02  0.51867681884E-02 -0.46721810700E-02  0.95217960502E-02  0.51100000000E-03 0.  1.
         11    1    4    4    0    0 -0.18411271643E-01  0.72958018537E-01 -0.98696608719E-01  0.12410934327E+00  0.51100000000E-03 0. -1.
</event>
<event>
 8    1  0.1213322E+005  0.1043930E+01  0.7957747E-01            NaN
         13   -1    0    0    0    0  0.00000000000E+00  0.00000000000E+00  0.74505805969E-08  0.10566000000E+00  0.10566000000E+00 0. -1.
     999900   -1    0    0    0    0 -0.00000000000E+00 -0.00000000000E+00 -0.74505805969E-08  0.93827000000E+00  0.93827000000E+00 0. -1.
     999902    2    1    2    0    0 -0.77711100171E-02 -0.21431044806E-01  0.86588028208E-02  0.10195444572E+01  0.10192527878E+01 0.  0.
     999903    2    3    3    0    0  0.13422048877E-01  0.10582408197E+00 -0.65693779709E-01  0.12703601251E+00  0.21061530349E-01 0.  0.
         14    1    1    2    0    0  0.77711100171E-02  0.21431044806E-01 -0.86588028208E-02  0.24385542820E-01  0.00000000000E+00 0.  1.
     999901    1    3    3    0    0 -0.21193158894E-01 -0.12725512678E+00  0.74352582530E-01  0.89250844467E+00  0.88000000000E+00 0.  1.
        -11    1    4    4    0    0  0.12145695547E-01  0.25613998607E-01 -0.20198889235E-01  0.34811651674E-01  0.51100000000E-03 0. -1.
         11    1    4    4    0    0  0.12763533298E-02  0.80210083367E-01 -0.45494890474E-01  0.92224360837E-01  0.51100000000E-03 0.  1.
</event>
<event>
 8    1  0.1213322E+005  0.1043930E+01  0.7957747E-01            NaN
         13   -1    0    0    0    0  0.00000000000E+00  0.00000000000E+00  0.74505805969E-08  0.10566000000E+00  0.10566000000E+00 0.  1.
     999900   -1    0    0    0    0 -0.00000000000E+00 -0.00000000000E+00 -0.74505805969E-08  0.93827000000E+00  0.93827000000E+00 0. -1.
     999902    2    1    2    0    0 -0.38393260418E-02  0.16450744927E-01 -0.17553907977E-01  0.10195679985E+01  0.10192768988E+01 0.  0.
     999903    2    3    3    0    0 -0.11275044282E+00 -0.11712975354E-01  0.58633967767E-01  0.12914146085E+00  0.19741291416E-01 0.  0.
         14    1    1    2    0    0  0.38393260418E-02 -0.16450744927E-01  0.17553907977E-01  0.24362001526E-01  0.00000000000E+00 0.  1.
     999901    1    3    3    0    0  0.10891111678E+00  0.28163720281E-01 -0.76187875744E-01  0.89042653763E+00  0.88000000000E+00 0. -1.
        -11    1    4    4    0    0 -0.25482121372E-01  0.50657657957E-02  0.10063391691E-01  0.27866350067E-01  0.51100000000E-03 0.  1.
         11    1    4    4    0    0 -0.87268321446E-01 -0.16778741150E-01  0.48570576076E-01  0.10127511078E+00  0.51100000000E-03 0. -1.
</event>
<event>
 8    1  0.1213322E+005  0.1043930E+01  0.7957747E-01            NaN
         13   -1    0    0    0    0  0.00000000000E+00  0.00000000000E+00  0.74505805969E-08  0.10566000000E+00  0.10566000000E+00 0. -1.
     999900   -1    0    0    0    0 -0.00000000000E+00 -0.00000000000E+00 -0.74505805969E-08  0.93827000000E+00  0.93827000000E+00 0. -1.
     999902    2    1    2    0    0 -0.13286534881E-01  0.49885504275E-02  0.19947532944E-01  0.10194489519E+01  0.10191549656E+01 0.  0.
     999903    2    3    3    0    0  0.87285837139E-01 -0.41365316235E-01  0.84373120181E-01  0.13017163901E+00  0.22269383490E-01 0.  0.
         14    1    1    2    0    0  0.13286534881E-01 -0.49885504275E-02 -0.19947532944E-01  0.24481048080E-01  0.00000000000E+00 0.  1.
     999901    1    3    3    0    0 -0.10057237202E+00  0.46353866662E-01 -0.64425587237E-01  0.88927731291E+00  0.88000000000E+00 0. -1.
        -11    1    4    4    0    0  0.26008682296E-01 -0.48324786418E-02  0.13887306027E-01  0.29881813772E-01  0.51100000000E-03 0.  1.
         11    1    4    4    0    0  0.61277154843E-01 -0.36532837593E-01  0.70485814154E-01  0.10028982524E+00  0.51100000000E-03 0. -1.
</event>
<event>
 8    1  0.1213322E+005  0.1043930E+01  0.7957747E-01            NaN
         13   -1    0    0    0    0  0.00000000000E+00  0.00000000000E+00  0.74505805969E-08  0.10566000000E+00  0.10566000000E+00 0. -1.
     999900   -1    0    0    0    0 -0.00000000000E+00 -0.00000000000E+00 -0.74505805969E-08  0.93827000000E+00  0.93827000000E+00 0.  1.
     999902    2    1    2    0    0  0.84122350227E-02 -0.10355638425E-01 -0.15319873157E-01  0.10236148958E+01  0.10234132848E+01 0.  0.
     999903    2    3    3    0    0  0.39779533342E-01  0.10391614672E+00 -0.71822777503E-01  0.13387643620E+00  0.19580908531E-01 0.  0.
         14    1    1    2    0    0 -0.84122350227E-02  0.10355638425E-01  0.15319873157E-01  0.20315104204E-01  0.00000000000E+00 0. -1.
     999901    1    3    3    0    0 -0.31367298319E-01 -0.11427178515E+00  0.56502904346E-01  0.88973845960E+00  0.88000000000E+00 0. -1.
        -11    1    4    4    0    0  0.15360659294E-01  0.18050072136E-01 -0.14905907567E-01  0.28003609757E-01  0.51100000000E-03 0.  1.
         11    1    4    4    0    0  0.24418874048E-01  0.85866074586E-01 -0.56916869936E-01  0.10587282644E+00  0.51100000000E-03 0. -1.
</event>
<event>
 8    1  0.1213322E+005  0.1043930E+01  0.7957747E-01            NaN
         13   -1    0    0    0    0  0.00000000000E+00  0.00000000000E+00  0.74505805969E-08  0.10566000000E+00  0.10566000000E+00 0.  1.
     999900   -1    0    0    0    0 -0.00000000000E+00 -0.00000000000E+00 -0.74505805969E-08  0.93827000000E+00  0.93827000000E+00 0. -1.
     999902    2    1    2    0    0 -0.20868891782E-01 -0.16526757398E-01 -0.47643280491E-02  0.10168866427E+01  0.10165269799E+01 0.  0.
     999903    2    3    3    0    0 -0.38251533459E-01 -0.72747541851E-01  0.97246202238E-01  0.12904145282E+00  0.20963970023E-01 0.  0.
         14    1    1    2    0    0  0.20868891782E-01  0.16526757398E-01  0.47643280491E-02  0.27043357337E-01  0.00000000000E+00 0.  1.
     999901    1    3    3    0    0  0.17382641677E-01  0.56220784452E-01 -0.10201053029E+00  0.88784518984E+00  0.88000000000E+00 0. -1.
        -11    1    4    4    0    0 -0.22829503337E-01 -0.36827636713E-01  0.66191911439E-01  0.79114419099E-01  0.51100000000E-03 0.  1.
         11    1    4    4    0    0 -0.15422030122E-01 -0.35919905138E-01  0.31054290799E-01  0.49927033722E-01  0.51100000000E-03 0. -1.
</event>
<event>
 8    1  0.1213322E+005  0.1043930E+01  0.7957747E-01            NaN
         13   -1    0    0    0    0  0.00000000000E+00  0.00000000000E+00  0.74505805969E-08  0.10566000000E+00  0.10566000000E+00 0.  1.
     999900   -1    0    0    0    0 -0.00000000000E+00 -0.00000000000E+00 -0.74505805969E-08  0.93827000000E+00  0.93827000000E+00 0. -1.
     999902    2    1    2    0    0  0.44610395507E-02 -0.13178600651E-01 -0.19385710890E-01  0.10200682696E+01  0.10197891412E+01 0.  0.
     999903    2    3    3    0    0  0.11487989377E+00 -0.26216238483E-01 -0.56596057688E-01  0.13229188266E+00  0.20330944910E-01 0.  0.
         14    1    1    2    0    0 -0.44610395507E-02  0.13178600651E-01  0.19385710890E-01  0.23861730358E-01  0.00000000000E+00 0.  1.
     999901    1    3    3    0    0 -0.11041885422E+00  0.13037637832E-01  0.37210346798E-01  0.88777638698E+00  0.88000000000E+00 0.  1.
        -11    1    4    4    0    0  0.90082458261E-01 -0.28406556002E-01 -0.41477490254E-01  0.10316212982E+00  0.51100000000E-03 0.  1.
         11    1    4    4    0    0  0.24797435505E-01  0.21903175191E-02 -0.15118567434E-01  0.29129752843E-01  0.51100000000E-03 0. -1.
</event>
<event>
 8    1  0.1213322E+005  0.1043930E+01  0.7957747E-01            NaN
         13   -1    0    0    0    0  0.00000000000E+00  0.00000000000E+00  0.74505805969E-08  0.10566000000E+00  0.10566000000E+00 0. -1.
     999900   -1    0    0    0    0 -0.00000000000E+00 -0.00000000000E+00 -0.74505805969E-08  0.93827000000E+00  0.93827000000E+00 0.  1.
     999902    2    1    2    0    0 -0.19555587460E-01  0.70615153806E-02  0.11566513456E-01  0.10201377695E+01  0.10198602838E+01 0.  0.
     999903    2    3    3    0    0 -0.11462143071E+00  0.13734821649E-01  0.63710792762E-01  0.13345796625E+00  0.20621492065E-01 0.  0.
         14    1    1    2    0    0  0.19555587460E-01 -0.70615153806E-02 -0.11566513456E-01  0.23792230537E-01  0.00000000000E+00 0.  1.
     999901    1    3    3    0    0  0.95065843254E-01 -0.66733062688E-02 -0.52144279306E-01  0.88667980322E+00  0.88000000000E+00 0.  1.
        -11    1    4    4    0    0 -0.65632332289E-01  0.13987380977E-01  0.46009784128E-01  0.81365909476E-01  0.51100000000E-03 0. -1.
         11    1    4    4    0    0 -0.48989098426E-01 -0.25255932766E-03  0.17701008634E-01  0.52092056770E-01  0.51100000000E-03 0.  1.
</event>
<event>
 8    1  0.1213322E+005  0.1043930E+01  0.7957747E-01            NaN
         13   -1    0    0    0    0  0.00000000000E+00  0.00000000000E+00  0.74505805969E-08  0.10566000000E+00  0.10566000000E+00 0.  1.
     999900   -1    0    0    0    0 -0.00000000000E+00 -0.00000000000E+00 -0.74505805969E-08  0.93827000000E+00  0.93827000000E+00 0.  1.
     999902    2    1    2    0    0 -0.13336856220E-01 -0.14555749330E-01 -0.13150645864E-01  0.10202091008E+01  0.10199332960E+01 0.  0.
     999903    2    3    3    0    0 -0.12452834689E+00 -0.25175051927E-01 -0.33534418072E-01  0.13291443984E+00  0.20014962042E-01 0.  0.
         14    1    1    2    0    0  0.13336856220E-01  0.14555749330E-01  0.13150645864E-01  0.23720899204E-01  0.00000000000E+00 0.  1.
     999901    1    3    3    0    0  0.11119149067E+00  0.10619302596E-01  0.20383772208E-01  0.88729466095E+00  0.88000000000E+00 0. -1.
        -11    1    4    4    0    0 -0.80828097370E-01 -0.97496790570E-02 -0.28661915485E-01  0.86313406180E-01  0.51100000000E-03 0.  1.
         11    1    4    4    0    0 -0.43700249518E-01 -0.15425372870E-01 -0.48725025871E-02  0.46601033664E-01  0.51100000000E-03 0. -1.
</event>
<event>
 8    1  0.1213322E+005  0.1043930E+01  0.7957747E-01            NaN
         13   -1    0    0    0    0  0.00000000000E+00  0.00000000000E+00  0.74505805969E-08  0.10566000000E+00  0.10566000000E+00 0. -1.
     999900   -1    0    0    0    0 -0.00000000000E+00 -0.00000000000E+00 -0.74505805969E-08  0.93827000000E+00  0.93827000000E+00 0. -1.
     999902    2    1    2    0    0 -0.67369749017E-02 -0.21803840226E-01  0.97887551382E-02  0.10190982863E+01  0.10187957121E+01 0.  0.
     999903    2    3    3    0    0  0.58194027477E-01  0.59661560318E-01 -0.93570306129E-01  0.12694597747E+00  0.20342870824E-01 0.  0.
         14    1    1    2    0    0  0.67369749017E-02  0.21803840226E-01 -0.97887551382E-02  0.24831713726E-01  0.00000000000E+00 0. -1.
     999901    1    3    3    0    0 -0.64931002379E-01 -0.81465400544E-01  0.10335906127E+00  0.89215230880E+00  0.88000000000E+00 0.  1.
        -11    1    4    4    0    0  0.46929580899E-01  0.34745669588E-01 -0.61755900638E-01  0.84992349674E-01  0.51100000000E-03 0. -1.
         11    1    4    4    0    0  0.11264446578E-01  0.24915890730E-01 -0.31814405491E-01  0.41953627798E-01  0.51100000000E-03 0.  1.
</event>
<event>
 8    1  0.1213322E+005  0.1043930E+01  0.7957747E-01            NaN
         13   -1    0    0    0    0  0.00000000000E+00  0.00000000000E+00  0.74505805969E-08  0.10566000000E+00  0.10566000000E+00 0.  1.
     999900   -1    0    0    0    0 -0.00000000000E+00 -0.00000000000E+00 -0.74505805969E-08  0.93827000000E+00  0.93827000000E+00 0. -1.
     999902    2    1    2    0    0 -0.21035327722E-01 -0.91408791927E-02 -0.56183720163E-02  0.10203163008E+01  0.10200430123E+01 0.  0.
     999903    2    3    3    0    0  0.10023805217E-01 -0.10295428714E+00  0.77536167689E-01  0.13088934895E+00  0.20496401078E-01 0.  0.
         14    1    1    2    0    0  0.21035327722E-01  0.91408791927E-02  0.56183720163E-02  0.23613699178E-01  0.00000000000E+00 0.  1.
     999901    1    3    3    0    0 -0.31059132939E-01  0.93813407943E-01 -0.83154539705E-01  0.88942695188E+00  0.88000000000E+00 0. -1.
        -11    1    4    4    0    0  0.95395257868E-02 -0.47393337577E-01  0.47271231847E-01  0.67616281177E-01  0.51100000000E-03 0. -1.
         11    1    4    4    0    0  0.48427943042E-03 -0.55560949558E-01  0.30264935842E-01  0.63273067769E-01  0.51100000000E-03 0.  1.
</event>
<event>
 7    1  0.1213322E+005  0.1043930E+01  0.7957747E-01            NaN
         13   -1    0    0    0    0  0.00000000000E+00  0.00000000000E+00  0.74505805969E-08  0.10566000000E+00  0.10566000000E+00 0.  1.
     999900   -1    0    0    0    0 -0.00000000000E+00 -0.00000000000E+00 -0.74505805969E-08  0.93827000000E+00  0.93827000000E+00 0.  1.
     999903    2    1    2    0    0 -0.52932455892E-01 -0.40099928019E-01 -0.49969218639E-01  0.85300265073E-01  0.19218826609E-01 0.  0.
         14    1    1    2    0    0  0.62488902528E-01  0.44037458789E-01 -0.67411021177E-02  0.76743750062E-01  0.00000000000E+00 0. -1.
     999901    1    1    2    0    0 -0.95564466360E-02 -0.39375307697E-02  0.56710320757E-01  0.88188598486E+00  0.88000000000E+00 0. -1.
        -11    1    3    3    0    0 -0.32952148162E-01 -0.33639668326E-01 -0.41077719087E-01  0.62490891175E-01  0.51100000000E-03 0. -1.
         11    1    3    3    0    0 -0.19980307731E-01 -0.64602596935E-02 -0.88914995528E-02  0.22809373898E-01  0.51100000000E-03 0.  1.
</event>
<event>
 8    1  0.1213322E+005  0.1043930E+01  0.7957747E-01            NaN
         13   -1    0    0    0    0  0.00000000000E+00  0.00000000000E+00  0.74505805969E-08  0.10566000000E+00  0.10566000000E+00 0. -1.
     999900   -1    0    0    0    0 -0.00000000000E+00 -0.00000000000E+00 -0.74505805969E-08  0.93827000000E+00  0.93827000000E+00 0.  1.
     999902    2    1    2    0    0 -0.18247654212E-02  0.29509041613E-02 -0.23008011946E-01  0.10206618626E+01  0.10203966050E+01 0.  0.
     999903    2    3    3    0    0 -0.95205182970E-02  0.11615073202E+00  0.54060228565E-01  0.13003683526E+00  0.20135476024E-01 0.  0.
         14    1    1    2    0    0  0.18247654212E-02 -0.29509041613E-02  0.23008011946E-01  0.23268137397E-01  0.00000000000E+00 0. -1.
     999901    1    3    3    0    0  0.76957528758E-02 -0.11319982786E+00 -0.77068240511E-01  0.89062502735E+00  0.88000000000E+00 0.  1.
        -11    1    4    4    0    0  0.73842851720E-03  0.87737028627E-01  0.44267183205E-01  0.98276019959E-01  0.51100000000E-03 0.  1.
         11    1    4    4    0    0 -0.10258946814E-01  0.28413703389E-01  0.97930453599E-02  0.31760815299E-01  0.51100000000E-03 0. -1.
</event>
<event>
 8    1  0.1213322E+005  0.1043930E+01  0.7957747E-01            NaN
         13   -1    0    0    0    0  0.00000000000E+00  0.00000000000E+00  0.74505805969E-08  0.10566000000E+00  0.10566000000E+00 0. -1.
     999900   -1    0    0    0    0 -0.00000000000E+00 -0.00000000000E+00 -0.74505805969E-08  0.93827000000E+00  0.93827000000E+00 0. -1.
     999902    2    1    2    0    0  0.59460932449E-02 -0.92206096609E-02  0.21167232290E-01  0.10200882847E+01  0.10198096298E+01 0.  0.
     999903    2    3    3    0    0 -0.78476207371E-01 -0.50705250504E-01  0.91870137490E-01  0.13225552954E+00  0.17940606992E-01 0.  0.
         14    1    1    2    0    0 -0.59460932449E-02  0.92206096609E-02 -0.21167232290E-01  0.23841715337E-01  0.00000000000E+00 0.  1.
     999901    1    3    3    0    0  0.84422300616E-01  0.41484640843E-01 -0.70702905201E-01  0.88783275512E+00  0.88000000000E+00 0. -1.
        -11    1    4    4    0    0 -0.49639806290E-01 -0.23048484692E-01  0.46701809664E-01  0.71949031696E-01  0.51100000000E-03 0.  1.
         11    1    4    4    0    0 -0.28836401081E-01 -0.27656765812E-01  0.45168327827E-01  0.60306497844E-01  0.51100000000E-03 0. -1.
</event>
<event>
 8    1  0.1213322E+005  0.1043930E+01  0.7957747E-01            NaN
         13   -1    0    0    0    0  0.00000000000E+00  0.00000000000E+00  0.74505805969E-08  0.10566000000E+00  0.10566000000E+00 0. -1.
     999900   -1    0    0    0    0 -0.00000000000E+00 -0.00000000000E+00 -0.74505805969E-08  0.93827000000E+00  0.93827000000E+00 0. -1.
     999902    2    1    2    0    0 -0.15578645087E-03 -0.21861284533E-01  0.78272668652E-02  0.10207091874E+01  0.10204450201E+01 0.  0.
     999903    2    3    3    0    0  0.91201588472E-01  0.28110819314E-01 -0.85525589011E-01  0.12966590181E+00  0.19765419635E-01 0.  0.
         14    1    1    2    0    0  0.15578645087E-03  0.21861284533E-01 -0.78272668652E-02  0.23220812592E-01  0.00000000000E+00 0.  1.
     999901    1    3    3    0    0 -0.91357374922E-01 -0.49972103847E-01  0.93352855876E-01  0.89104328560E+00  0.88000000000E+00 0. -1.
        -11    1    4    4    0    0  0.79591728335E-01  0.29375790678E-01 -0.80456886395E-01  0.11692455682E+00  0.51100000000E-03 0. -1.
         11    1    4    4    0    0  0.11609860136E-01 -0.12649713646E-02 -0.50687026156E-02  0.12741344990E-01  0.51100000000E-03 0.  1.
</event>
<event>
 8    1  0.1213322E+005  0.1043930E+01  0.7957747E-01            NaN
         13   -1    0    0    0    0  0.00000000000E+00  0.00000000000E+00  0.74505805969E-08  0.10566000000E+00  0.10566000000E+00 0. -1.
     999900   -1    0    0    0    0 -0.00000000000E+00 -0.00000000000E+00 -0.74505805969E-08  0.93827000000E+00  0.93827000000E+00 0. -1.
     999902    2    1    2    0    0 -0.21193020729E-01  0.21597655449E-02 -0.10931007630E-01  0.10199864071E+01  0.10197053373E+01 0.  0.
     999903    2    3    3    0    0  0.62850067344E-02  0.87199643252E-01  0.93168342608E-01  0.12935545234E+00  0.20229035887E-01 0.  0.
         14    1    1    2    0    0  0.21193020729E-01 -0.21597655449E-02  0.10931007630E-01  0.23943592935E-01  0.00000000000E+00 0. -1.
     999901    1    3    3    0    0 -0.27478027463E-01 -0.85039877707E-01 -0.10409935024E+00  0.89063095472E+00  0.88000000000E+00 0. -1.
        -11    1    4    4    0    0 -0.46971793231E-02  0.57543857471E-01  0.65696583685E-01  0.87462341926E-01  0.51100000000E-03 0. -1.
         11    1    4    4    0    0  0.10982186057E-01  0.29655785780E-01  0.27471758923E-01  0.41893110414E-01  0.51100000000E-03 0.  1.
</event>
<event>
 8    1  0.1213322E+005  0.1043930E+01  0.7957747E-01            NaN
         13   -1    0    0    0    0  0.00000000000E+00  0.00000000000E+00  0.74505805969E-08  0.10566000000E+00  0.10566000000E+00 0.  1.
     999900   -1    0    0    0    0 -0.00000000000E+00 -0.00000000000E+00 -0.74505805969E-08  0.93827000000E+00  0.93827000000E+00 0. -1.
     999902    2    1    2    0    0 -0.16512336874E-01 -0.17691876213E-01  0.25722946717E-02  0.10195932695E+01  0.10193027807E+01 0.  0.
     999903    2    3    3    0    0 -0.68389102402E-01 -0.17933348887E-01  0.10934637894E+00  0.13162257053E+00  0.19214477722E-01 0.  0.
         14    1    1    2    0    0  0.16512336874E-01  0.17691876213E-01 -0.25722946717E-02  0.24336730529E-01  0.00000000000E+00 0.  1.
     999901    1    3    3    0    0  0.51876765529E-01  0.24147267458E-03 -0.10677408427E+00  0.88797069894E+00  0.88000000000E+00 0. -1.
        -11    1    4    4    0    0 -0.42546906739E-01 -0.17278609007E-02  0.68127407551E-01  0.80341953903E-01  0.51100000000E-03 0.  1.
         11    1    4    4    0    0 -0.25842195664E-01 -0.16205487987E-01  0.41218971393E-01  0.51280616624E-01  0.51100000000E-03 0. -1.
</event>
<event>
 8    1  0.1213322E+005  0.1043930E+01  0.7957747E-01            NaN
         13   -1    0    0    0    0  0.00000000000E+00  0.00000000000E+00  0.74505805969E-08  0.10566000000E+00  0.10566000000E+00 0. -1.
     999900   -1    0    0    0    0 -0.00000000000E+00 -0.00000000000E+00 -0.74505805969E-08  0.93827000000E+00  0.93827000000E+00 0. -1.
     999902    2    1    2    0    0  0.26465214923E-01 -0.78202137988E-02  0.96012098185E-02  0.10147110579E+01  0.10142902861E+01 0.  0.
     999903    2    3    3    0    0  0.10970808713E+00  0.50656593460E-01  0.38806297324E-01  0.12836922214E+00  0.19255483310E-01 0.  0.
         14    1    1    2    0    0 -0.26465214923E-01  0.78202137988E-02 -0.96012098185E-02  0.29218942054E-01  0.00000000000E+00 0.  1.
     999901    1    3    3    0    0 -0.83242872211E-01 -0.58476807259E-01 -0.29205087505E-01  0.88634183580E+00  0.88000000000E+00 0.  1.
        -11    1    4    4    0    0  0.18513100474E-01  0.20323159613E-02  0.96696185245E-02  0.20991137195E-01  0.51100000000E-03 0. -1.
         11    1    4    4    0    0  0.91194986660E-01  0.48624277499E-01  0.29136678799E-01  0.10737808495E+00  0.51100000000E-03 0.  1.
</event>
<event>
 8    1  0.1213322E+005  0.1043930E+01  0.7957747E-01            NaN
         13   -1    0    0    0    0  0.00000000000E+00  0.00000000000E+00  0.74505805969E-08  0.10566000000E+00  0.10566000000E+00 0.  1.
     999900   -1    0    0    0    0 -0.00000000000E+00 -0.00000000000E+00 -0.74505805969E-08  0.93827000000E+00  0.93827000000E+00 0. -1.
     999902    2    1    2    0    0 -0.12735782152E-01  0.64887516594E-02 -0.18216522057E-01  0.10207751793E+01  0.10205125286E+01 0.  0.
     999903    2    3    3    0    0  0.57693445147E-01 -0.11125137389E+00  0.24063779090E-01  0.12914148935E+00  0.19825665183E-01 0.  0.
         14    1    1    2    0    0  0.12735782152E-01 -0.64887516594E-02  0.18216522057E-01  0.23154820685E-01  0.00000000000E+00 0.  1.
     999901    1    3    3    0    0 -0.70429227299E-01  0.11774012555E+00 -0.42280301147E-01  0.89163368997E+00  0.88000000000E+00 0.  1.
        -11    1    4    4    0    0  0.25136199298E-01 -0.30726236477E-01  0.11820317856E-01  0.41423558013E-01  0.51100000000E-03 0.  1.
         11    1    4    4    0    0  0.32557245848E-01 -0.80525137417E-01  0.12243461234E-01  0.87717931332E-01  0.51100000000E-03 0. -1.
</event>
<event>
 8    1  0.1213322E+005  0.1043930E+01  0.7957747E-01            NaN
         13   -1    0    0    0    0  0.00000000000E+00  0.00000000000E+00  0.74505805969E-08  0.10566000000E+00  0.10566000000E+00 0. -1.
     999900   -1    0    0    0    0 -0.00000000000E+00 -0.00000000000E+00 -0.74505805969E-08  0.93827000000E+00  0.93827000000E+00 0.  1.
     999902    2    1    2    0    0 -0.20401749342E-01 -0.84324545661E-02 -0.88379463824E-02  0.10201508713E+01  0.10198736947E+01 0.  0.
     999903    2    3    3    0    0 -0.20464362652E-01  0.91804096203E-01 -0.88673694568E-01  0.13086963527E+00  0.20421927185E-01 0.  0.
         14    1    1    2    0    0  0.20401749342E-01  0.84324545661E-02  0.88379463824E-02  0.23779128716E-01  0.00000000000E+00 0. -1.
     999901    1    3    3    0    0  0.62613310160E-04 -0.10023655077E+00  0.79835748186E-01  0.88928123601E+00  0.88000000000E+00 0. -1.
        -11    1    4    4    0    0 -0.20301590081E-01  0.51601009587E-01 -0.58452581189E-01  0.80571608640E-01  0.51100000000E-03 0. -1.
         11    1    4    4    0    0 -0.16277257161E-03  0.40203086616E-01 -0.30221113379E-01  0.50298026634E-01  0.51100000000E-03 0.  1.
</event>
<event>
 8    1  0.1213322E+005  0.1043930E+01  0.7957747E-01            NaN
         13   -1    0    0    0    0  0.00000000000E+00  0.00000000000E+00  0.74505805969E-08  0.10566000000E+00  0.10566000000E+00 0. -1.
     999900   -1    0    0    0    0 -0.00000000000E+00 -0.00000000000E+00 -0.74505805969E-08  0.93827000000E+00  0.93827000000E+00 0. -1.
     999902    2    1    2    0    0 -0.17974431476E-01  0.25234669827E-02  0.16618776663E-01  0.10193204122E+01  0.10190232927E+01 0.  0.
     999903    2    3    3    0    0 -0.95907736488E-01  0.57565333653E-01 -0.64334543050E-01  0.13046910459E+00  0.19266350632E-01 0.  0.
         14    1    1    2    0    0  0.17974431476E-01 -0.25234669827E-02 -0.16618776663E-01  0.24609587771E-01  0.00000000000E+00 0.  1.
     999901    1    3    3    0    0  0.77933305012E-01 -0.55041866670E-01  0.80953319712E-01  0.88885130764E+00  0.88000000000E+00 0.  1.
        -11    1    4    4    0    0 -0.29402454269E-01  0.13317166519E-01 -0.97610669857E-02  0.33725224845E-01  0.51100000000E-03 0.  1.
         11    1    4    4    0    0 -0.66505282219E-01  0.44248167134E-01 -0.54573476064E-01  0.96743879747E-01  0.51100000000E-03 0. -1.
</event>
<event>
 8    1  0.1213322E+005  0.1043930E+01  0.7957747E-01            NaN
         13   -1    0    0    0    0  0.00000000000E+00  0.00000000000E+00  0.74505805969E-08  0.10566000000E+00  0.10566000000E+00 0. -1.
     999900   -1    0    0    0    0 -0.00000000000E+00 -0.00000000000E+00 -0.74505805969E-08  0.93827000000E+00  0.93827000000E+00 0. -1.
     999902    2    1    2    0    0 -0.12851762140E-01 -0.19641639925E-01 -0.39784986912E-03  0.10204540529E+01  0.10201839804E+01 0.  0.
     999903    2    3    3    0    0  0.47563120109E-01 -0.65517946202E-01 -0.10145042492E+00  0.13142862219E+00  0.20650480507E-01 0.  0.
         14    1    1    2    0    0  0.12851762140E-01  0.19641639925E-01  0.39784986912E-03  0.23475947128E-01  0.00000000000E+00 0. -1.
     999901    1    3    3    0    0 -0.60414882249E-01  0.45876306277E-01  0.10105257505E+00  0.88902543068E+00  0.88000000000E+00 0.  1.
        -11    1    4    4    0    0  0.25139279825E-01 -0.22971184832E-01 -0.54151960592E-01  0.63971514596E-01  0.51100000000E-03 0. -1.
         11    1    4    4    0    0  0.22423840284E-01 -0.42546761370E-01 -0.47298464327E-01  0.67457107594E-01  0.51100000000E-03 0.  1.
</event>
<event>
 8    1  0.1213322E+005  0.1043930E+01  0.7957747E-01            NaN
         13   -1    0    0    0    0  0.00000000000E+00  0.00000000000E+00  0.74505805969E-08  0.10566000000E+00  0.10566000000E+00 0.  1.
     999900   -1    0    0    0    0 -0.00000000000E+00 -0.00000000000E+00 -0.74505805969E-08  0.93827000000E+00  0.93827000000E+00 0.  1.
     999902    2    1    2    0    0 -0.75879071954E-02  0.21260512055E-01  0.28389893761E-02  0.10211781744E+01  0.10209246878E+01 0.  0.
     999903    2    3    3    0    0 -0.37332964215E-01  0.11036851408E+00 -0.62485613667E-01  0.13377054076E+00  0.20375145240E-01 0.  0.
         14    1    1    2    0    0  0.75879071954E-02 -0.21260512055E-01 -0.28389893761E-02  0.22751825622E-01  0.00000000000E+00 0. -1.
     999901    1    3    3    0    0  0.29745057020E-01 -0.89108002020E-01  0.65324603043E-01  0.88740763362E+00  0.88000000000E+00 0. -1.
        -11    1    4    4    0    0 -0.27311564559E-01  0.74069670963E-01 -0.52499681889E-01  0.94808836269E-01  0.51100000000E-03 0.  1.
         11    1    4    4    0    0 -0.10021399656E-01  0.36298843112E-01 -0.99859317777E-02  0.38961704491E-01  0.51100000000E-03 0. -1.
</event>
<event>
 8    1  0.1213322E+005  0.1043930E+01  0.7957747E-01            NaN
         13   -1    0    0    0    0  0.00000000000E+00  0.00000000000E+00  0.74505805969E-08  0.10566000000E+00  0.10566000000E+00 0. -1.
     999900   -1    0    0    0    0 -0.00000000000E+00 -0.00000000000E+00 -0.74505805969E-08  0.93827000000E+00  0.93827000000E+00 0.  1.
     999902    2    1    2    0    0  0.19126013205E-01  0.16390811441E-01  0.12919172001E-02  0.10187083400E+01  0.10183960673E+01 0.  0.
     999903    2    3    3    0    0 -0.67979548566E-01 -0.61342751256E-01 -0.85413016279E-01  0.12677357161E+00  0.19799064450E-01 0.  0.
         14    1    1    2    0    0 -0.19126013205E-01 -0.16390811441E-01 -0.12919172001E-02  0.25221659954E-01  0.00000000000E+00 0.  1.
     999901    1    3    3    0    0  0.87105561771E-01  0.77733562697E-01  0.86704933479E-01  0.89193476844E+00  0.88000000000E+00 0.  1.
        -11    1    4    4    0    0 -0.28536762108E-01 -0.31615922104E-01 -0.27691425564E-01  0.50803439773E-01  0.51100000000E-03 0. -1.
         11    1    4    4    0    0 -0.39442786458E-01 -0.29726829152E-01 -0.57721590715E-01  0.75970131833E-01  0.51100000000E-03 0.  1.
</event>
<event>
 8    1  0.1213322E+005  0.1043930E+01  0.7957747E-01            NaN
         13   -1    0    0    0    0  0.00000000000E+00  0.00000000000E+00  0.74505805969E-08  0.10566000000E+00  0.10566000000E+00 0.  1.
     999900   -1    0    0    0    0 -0.00000000000E+00 -0.00000000000E+00 -0.74505805969E-08  0.93827000000E+00  0.93827000000E+00 0.  1.
     999902    2    1    2    0    0  0.28400435359E-02  0.23072456537E-01 -0.57219506935E-02  0.10199895569E+01  0.10197085619E+01 0.  0.
     999903    2    3    3    0    0 -0.11899636485E+00 -0.32601145989E-01 -0.33348380216E-01  0.12942407357E+00  0.20383983646E-01 0.  0.
         14    1    1    2    0    0 -0.28400435359E-02 -0.23072456537E-01  0.57219506935E-02  0.23940443139E-01  0.00000000000E+00 0.  1.
     999901    1    3    3    0    0  0.12183640838E+00  0.55673602526E-01  0.27626429522E-01  0.89056548329E+00  0.88000000000E+00 0.  1.
        -11    1    4    4    0    0 -0.31903935625E-01  0.35045397405E-04 -0.58852523809E-02  0.32446257922E-01  0.51100000000E-03 0.  1.
         11    1    4    4    0    0 -0.87092429222E-01 -0.32636191386E-01 -0.27463127835E-01  0.96977815646E-01  0.51100000000E-03 0. -1.
</event>
<event>
 8    1  0.1213322E+005  0.1043930E+01  0.7957747E-01            NaN
         13   -1    0    0    0    0  0.00000000000E+00  0.00000000000E+00  0.74505805969E-08  0.10566000000E+00  0.10566000000E+00 0. -1.
     999900   -1    0    0    0    0 -0.00000000000E+00 -0.00000000000E+00 -0.74505805969E-08  0.93827000000E+00  0.93827000000E+00 0.  1.
     999902    2    1    2    0    0  0.24482768418E-01  0.11053595996E-01 -0.19151780073E-01  0.10109394163E+01  0.10104009723E+01 0.  0.
     999903    2    3    3    0    0  0.50956584405E-01  0.33695896117E-01  0.10416380335E+00  0.12165865646E+00  0.14789991672E-01 0.  0.
         14    1    1    2    0    0 -0.24482768418E-01 -0.11053595996E-01  0.19151780073E-01  0.32990583715E-01  0.00000000000E+00 0. -1.
     999901    1    3    3    0    0 -0.26473815987E-01 -0.22642300121E-01 -0.12331558342E+00  0.88928075983E+00  0.88000000000E+00 0.  1.
        -11    1    4    4    0    0  0.30889383749E-01  0.23087882052E-01  0.51769098491E-01  0.64556215855E-01  0.51100000000E-03 0. -1.
         11    1    4    4    0    0  0.20067200656E-01  0.10608014065E-01  0.52394704857E-01  0.57102440601E-01  0.51100000000E-03 0.  1.
</event>
<event>
 8    1  0.1213322E+005  0.1043930E+01  0.7957747E-01            NaN
         13   -1    0    0    0    0  0.00000000000E+00  0.00000000000E+00  0.74505805969E-08  0.10566000000E+00  0.10566000000E+00 0.  1.
     999900   -1    0    0    0    0 -0.00000000000E+00 -0.00000000000E+00 -0.74505805969E-08  0.93827000000E+00  0.93827000000E+00 0. -1.
     999902    2    1    2    0    0 -0.17142268673E-01  0.54452866159E-02  0.15466037441E-01  0.10202085575E+01  0.10199327399E+01 0.  0.
     999903    2    3    3    0    0  0.12304973389E+00 -0.25490420466E-01  0.17587381248E-01  0.12857224391E+00  0.20748671749E-01 0.  0.
         14    1    1    2    0    0  0.17142268673E-01 -0.54452866159E-02 -0.15466037441E-01  0.23721442530E-01  0.00000000000E+00 0.  1.
     999901    1    3    3    0    0 -0.14019200256E+00  0.30935707082E-01 -0.21213438069E-02  0.89163631356E+00  0.88000000000E+00 0. -1.
        -11    1    4    4    0    0  0.31421068658E-01  0.86303406636E-03 -0.90888586336E-03  0.31450207915E-01  0.51100000000E-03 0.  1.
         11    1    4    4    0    0  0.91628665233E-01 -0.26353454532E-01  0.18496267111E-01  0.97122035997E-01  0.51100000000E-03 0. -1.
</event>
<event>
 8    1  0.1213322E+005  0.1043930E+01  0.7957747E-01            NaN
         13   -1    0    0    0    0  0.00000000000E+00  0.00000000000E+00  0.74505805969E-08  0.10566000000E+00  0.10566000000E+00 0.  1.
     999900   -1    0    0    0    0 -0.00000000000E+00 -0.00000000000E+00 -0.74505805969E-08  0.93827000000E+00  0.93827000000E+00 0. -1.
     999902    2    1    2    0    0  0.89373687387E-02  0.22459548574E-01 -0.42489881728E-02  0.10193869402E+01  0.10190914444E+01 0.  0.
     999903    2    3    3    0    0 -0.43383847946E-01 -0.30201894834E-01  0.11508920971E+00  0.12823468455E+00  0.20107098650E-01 0.  0.
         14    1    1    2    0    0 -0.89373687387E-02 -0.22459548574E-01  0.42489881728E-02  0.24543059764E-01  0.00000000000E+00 0.  1.
     999901    1    3    3    0    0  0.52321216685E-01  0.52661443408E-01 -0.11933819788E+00  0.89115225568E+00  0.88000000000E+00 0. -1.
        -11    1    4    4    0    0 -0.19934932585E-01 -0.90274209165E-02  0.68723447542E-01  0.72125371601E-01  0.51100000000E-03 0.  1.
         11    1    4    4    0    0 -0.23448915362E-01 -0.21174473917E-01  0.46365762168E-01  0.56109312950E-01  0.51100000000E-03 0. -1.
</event>
<event>
 8    1  0.1213322E+005  0.1043930E+01  0.7957747E-01            NaN
         13   -1    0    0    0    0  0.00000000000E+00  0.00000000000E+00  0.74505805969E-08  0.10566000000E+00  0.10566000000E+00 0. -1.
     999900   -1    0    0    0    0 -0.00000000000E+00 -0.00000000000E+00 -0.74505805969E-08  0.93827000000E+00  0.93827000000E+00 0.  1.
     999902    2    1    2    0    0  0.56545272877E-02 -0.15224049445E-01 -0.20607298385E-01  0.10176925057E+01  0.10173542304E+01 0.  0.
     999903    2    3    3    0    0  0.88959561013E-02  0.78270922982E-01  0.94865434442E-01  0.12523199186E+00  0.21866085956E-01 0.  0.
         14    1    1    2    0    0 -0.56545272877E-02  0.15224049445E-01  0.20607298385E-01  0.26237494299E-01  0.00000000000E+00 0. -1.
     999901    1    3    3    0    0 -0.32414288136E-02 -0.93494972428E-01 -0.11547273283E+00  0.89246051384E+00  0.88000000000E+00 0.  1.
        -11    1    4    4    0    0  0.14933312989E-01  0.34991122307E-01  0.44732927359E-01  0.58725449238E-01  0.51100000000E-03 0. -1.
         11    1    4    4    0    0 -0.60373568876E-02  0.43279800676E-01  0.50132507083E-01  0.66506542627E-01  0.51100000000E-03 0.  1.
</event>
<event>
 8    1  0.1213322E+005  0.1043930E+01  0.7957747E-01            NaN
         13   -1    0    0    0    0  0.00000000000E+00  0.00000000000E+00  0.74505805969E-08  0.10566000000E+00  0.10566000000E+00 0.  1.
     999900   -1    0    0    0    0 -0.00000000000E+00 -0.00000000000E+00 -0.74505805969E-08  0.93827000000E+00  0.93827000000E+00 0.  1.
     999902    2    1    2    0    0  0.19099542104E-01  0.36509707383E-02 -0.13984152546E-01  0.10199784109E+01  0.10196971512E+01 0.  0.
     999903    2    3    3    0    0  0.32698251946E-01  0.10945034875E+00 -0.63356231187E-01  0.13216309487E+00  0.20112610317E-01 0.  0.
         14    1    1    2    0    0 -0.19099542104E-01 -0.36509707383E-02  0.13984152546E-01  0.23951589056E-01  0.00000000000E+00 0. -1.
     999901    1    3    3    0    0 -0.13598709843E-01 -0.10579937802E+00  0.49372078641E-01  0.88781531607E+00  0.88000000000E+00 0. -1.
        -11    1    4    4    0    0  0.12002669378E-01  0.52793745982E-01 -0.19352397603E-01  0.57498000844E-01  0.51100000000E-03 0. -1.
         11    1    4    4    0    0  0.20695582568E-01  0.56656602772E-01 -0.44003833584E-01  0.74665094030E-01  0.51100000000E-03 0.  1.
</event>
<event>
 8    1  0.1213322E+005  0.1043930E+01  0.7957747E-01            NaN
         13   -1    0    0    0    0  0.00000000000E+00  0.00000000000E+00  0.74505805969E-08  0.10566000000E+00  0.10566000000E+00 0.  1.
     999900   -1    0    0    0    0 -0.00000000000E+00 -0.00000000000E+00 -0.74505805969E-08  0.93827000000E+00  0.93827000000E+00 0.  1.
     999902    2    1    2    0    0  0.13199454373E-02  0.36120548017E-03  0.23533620551E-01  0.10203566247E+01  0.10200842797E+01 0.  0.
     999903    2    3    3    0    0 -0.31310279837E-01 -0.12486773382E+00  0.23131262465E-01  0.13089207753E+00  0.50394527813E-02 0.  0.
         14    1    1    2    0    0 -0.13199454373E-02 -0.36120548017E-03 -0.23533620551E-01  0.23573375269E-01  0.00000000000E+00 0. -1.
     999901    1    3    3    0    0  0.32630225274E-01  0.12522893930E+00  0.40235808601E-03  0.88946454720E+00  0.88000000000E+00 0. -1.
        -11    1    4    4    0    0 -0.23615377321E-01 -0.86676579728E-01  0.14781419817E-01  0.91045411812E-01  0.51100000000E-03 0. -1.
         11    1    4    4    0    0 -0.76949025161E-02 -0.38191154089E-01  0.83498426483E-02  0.39846665715E-01  0.51100000000E-03 0.  1.
</event>
<event>
 8    1  0.1213322E+005  0.1043930E+01  0.7957747E-01            NaN
         13   -1    0    0    0    0  0.00000000000E+00  0.00000000000E+00  0.74505805969E-08  0.10566000000E+00  0.10566000000E+00 0. -1.
     999900   -1    0    0    0    0 -0.00000000000E+00 -0.00000000000E+00 -0.74505805969E-08  0.93827000000E+00  0.93827000000E+00 0. -1.
     999902    2    1    2    0    0  0.77619980103E-02  0.79332309025E-02 -0.16686997434E-01  0.10238890257E+01  0.10236928721E+01 0.  0.
     999903    2    3    3    0    0 -0.44071283615E-01 -0.25030443073E-01 -0.12382131330E+00  0.13526590286E+00  0.19908433648E-01 0.  0.
         14    1    1    2    0    0 -0.77619980103E-02 -0.79332309025E-02  0.16686997434E-01  0.20040974253E-01  0.00000000000E+00 0. -1.
     999901    1    3    3    0    0  0.51833281625E-01  0.32963673975E-01  0.10713431587E+00  0.88862312288E+00  0.88000000000E+00 0.  1.
        -11    1    4    4    0    0 -0.12359788488E-01  0.19822456649E-02 -0.34579300152E-01  0.36778836161E-01  0.51100000000E-03 0.  1.
         11    1    4    4    0    0 -0.31711495127E-01 -0.27012688737E-01 -0.89242013148E-01  0.98487066702E-01  0.51100000000E-03 0. -1.
</event>
<event>
 8    1  0.1213322E+005  0.1043930E+01  0.7957747E-01            NaN
         13   -1    0    0    0    0  0.00000000000E+00  0.00000000000E+00  0.74505805969E-08  0.10566000000E+00  0.10566000000E+00 0. -1.
     999900   -1    0    0    0    0 -0.00000000000E+00 -0.00000000000E+00 -0.74505805969E-08  0.93827000000E+00  0.93827000000E+00 0.  1.
     999902    2    1    2    0    0 -0.13194125834E-01 -0.20216843235E-01  0.26384313188E-02  0.10196448805E+01  0.10193556374E+01 0.  0.
     999903    2    3    3    0    0 -0.51426778366E-01  0.10583273134E+00  0.48481603438E-01  0.12866125141E+00  0.18920126489E-01 0.  0.
         14    1    1    2    0    0  0.13194125834E-01  0.20216843235E-01 -0.26384313188E-02  0.24285119451E-01  0.00000000000E+00 0.  1.
     999901    1    3    3    0    0  0.38232652532E-01 -0.12604957457E+00 -0.45843172119E-01  0.89098362914E+00  0.88000000000E+00 0.  1.
        -11    1    4    4    0    0 -0.31184358027E-01  0.67809877954E-01  0.40263242211E-01  0.84805857864E-01  0.51100000000E-03 0.  1.
         11    1    4    4    0    0 -0.20242420339E-01  0.38022853383E-01  0.82183612270E-02  0.43855393543E-01  0.51100000000E-03 0. -1.
</event>
<event>
 8    1  0.1213322E+005  0.1043930E+01  0.7957747E-01            NaN
         13   -1    0    0    0    0  0.00000000000E+00  0.00000000000E+00  0.74505805969E-08  0.10566000000E+00  0.10566000000E+00 0. -1.
     999900   -1    0    0    0    0 -0.00000000000E+00 -0.00000000000E+00 -0.74505805969E-08  0.93827000000E+00  0.93827000000E+00 0. -1.
     999902    2    1    2    0    0  0.15531559728E-01 -0.17343957428E-01  0.25532853704E-02  0.10205086108E+01  0.10202398067E+01 0.  0.
     999903    2    3    3    0    0  0.67254868399E-02 -0.35965513455E-01  0.12584722732E+00  0.13167470875E+00  0.12726113736E-01 0.  0.
         14    1    1    2    0    0 -0.15531559728E-01  0.17343957428E-01 -0.25532853704E-02  0.23421389221E-01  0.00000000000E+00 0. -1.
     999901    1    3    3    0    0  0.88060728881E-02  0.18621556026E-01 -0.12329394195E+00  0.88883390203E+00  0.88000000000E+00 0. -1.
        -11    1    4    4    0    0  0.56827943082E-02 -0.17025757908E-01  0.41478225604E-01  0.45198173678E-01  0.51100000000E-03 0.  1.
         11    1    4    4    0    0  0.10426925317E-02 -0.18939755547E-01  0.84369001712E-01  0.86476535076E-01  0.51100000000E-03 0. -1.
</event>
<event>
 8    1  0.1213322E+005  0.1043930E+01  0.7957747E-01            NaN
         13   -1    0    0    0    0  0.00000000000E+00  0.00000000000E+00  0.74505805969E-08  0.10566000000E+00  0.10566000000E+00 0.  1.
     999900   -1    0    0    0    0 -0.00000000000E+00 -0.00000000000E+00 -0.74505805969E-08  0.93827000000E+00  0.93827000000E+00 0. -1.
     999902    2    1    2    0    0  0.15956818042E-02 -0.95561959478E-02  0.21169929555E-01  0.10206483978E+01  0.10203828296E+01 0.  0.
     999903    2    3    3    0    0  0.22984824980E-01  0.49579596731E-01  0.11968042677E+00  0.13292160683E+00  0.18929089260E-01 0.  0.
         14    1    1    2    0    0 -0.15956818042E-02  0.95561959478E-02 -0.21169929555E-01  0.23281602152E-01  0.00000000000E+00 0. -1.
     999901    1    3    3    0    0 -0.21389143176E-01 -0.59135792679E-01 -0.98510497215E-01  0.88772679101E+00  0.88000000000E+00 0. -1.
        -11    1    4    4    0    0  0.21373177997E-01  0.50938912622E-01  0.11117638479E+00  0.12414521824E+00  0.51100000000E-03 0.  1.
         11    1    4    4    0    0  0.16116469833E-02 -0.13593158914E-02  0.85040419834E-02  0.87763885937E-02  0.51100000000E-03 0. -1.
</event>
<event>
 8    1  0.1213322E+005  0.1043930E+01  0.7957747E-01            NaN
         13   -1    0    0    0    0  0.00000000000E+00  0.00000000000E+00  0.74505805969E-08  0.10566000000E+00  0.10566000000E+00 0.  1.
     999900   -1    0    0    0    0 -0.00000000000E+00 -0.00000000000E+00 -0.74505805969E-08  0.93827000000E+00  0.93827000000E+00 0. -1.
     999902    2    1    2    0    0 -0.12219354081E-01  0.16943061973E-01 -0.12298113765E-01  0.10196890519E+01  0.10194008726E+01 0.  0.
     999903    2    3    3    0    0  0.91203629207E-01  0.38080265871E-01 -0.82568744632E-01  0.13059903596E+00  0.21686446789E-01 0.  0.
         14    1    1    2    0    0  0.12219354081E-01 -0.16943061973E-01  0.12298113765E-01  0.24240948111E-01  0.00000000000E+00 0.  1.
     999901    1    3    3    0    0 -0.10342298329E+00 -0.21137203899E-01  0.70270630867E-01  0.88909001593E+00  0.88000000000E+00 0.  1.
        -11    1    4    4    0    0  0.74111991466E-01  0.21204980514E-01 -0.60796382240E-01  0.98176879621E-01  0.51100000000E-03 0.  1.
         11    1    4    4    0    0  0.17091637741E-01  0.16875285358E-01 -0.21772362392E-01  0.32422156340E-01  0.51100000000E-03 0. -1.
</event>
<event>
 8    1  0.1213322E+005  0.1043930E+01  0.7957747E-01            NaN
         13   -1    0    0    0    0  0.00000000000E+00  0.00000000000E+00  0.74505805969E-08  0.10566000000E+00  0.10566000000E+00 0. -1.
     999900   -1    0    0    0    0 -0.00000000000E+00 -0.00000000000E+00 -0.74505805969E-08  0.93827000000E+00  0.93827000000E+00 0.  1.
     999902    2    1    2    0    0 -0.69849334479E-02 -0.14242931436E-01  0.18290760028E-01  0.10197183852E+01  0.10194309112E+01 0.  0.
     999903    2    3    3    0    0 -0.92177398524E-01 -0.66649170051E-01 -0.60777421125E-01  0.13053002084E+00  0.20134715183E-01 0.  0.
         14    1    1    2    0    0  0.69849334479E-02  0.14242931436E-01 -0.18290760028E-01  0.24211614848E-01  0.00000000000E+00 0.  1.
     999901    1    3    3    0    0  0.85192465076E-01  0.52406238615E-01  0.79068181153E-01  0.88918836431E+00  0.88000000000E+00 0. -1.
        -11    1    4    4    0    0 -0.20917849349E-01 -0.25658022757E-01 -0.20960336551E-01  0.39185295489E-01  0.51100000000E-03 0.  1.
         11    1    4    4    0    0 -0.71259549175E-01 -0.40991147293E-01 -0.39817084574E-01  0.91344725354E-01  0.51100000000E-03 0. -1.
</event>
<event>
 8    1  0.1564805E+005  0.1043930E+01  0.7957747E-01            NaN
         13   -1    0    0    0    0  0.00000000000E+00  0.00000000000E+00  0.74505805969E-08  0.10566000000E+00  0.10566000000E+00 0.  1.
     999900   -1    0    0    0    0 -0.00000000000E+00 -0.00000000000E+00 -0.74505805969E-08  0.93827000000E+00  0.93827000000E+00 0.  1.
     999902    2    1    2    0    0  0.30341975379E-02 -0.16964760721E-01  0.17179358210E-01  0.10195960770E+01  0.10193056560E+01 0.  0.
     999903    2    3    3    0    0  0.12810290778E+00  0.96021722392E-03  0.13343090916E-01  0.13056390430E+00  0.21392008564E-01 0.  0.
         14    1    1    2    0    0 -0.30341975379E-02  0.16964760721E-01 -0.17179358210E-01  0.24333923020E-01  0.00000000000E+00 0. -1.
     999901    1    3    3    0    0 -0.12506871025E+00 -0.17924977945E-01  0.38362672947E-02  0.88903217268E+00  0.88000000000E+00 0.  1.
        -11    1    4    4    0    0  0.77927538618E-01  0.57327879359E-02  0.17205867264E-01  0.80011681159E-01  0.51100000000E-03 0.  1.
         11    1    4    4    0    0  0.50175369166E-01 -0.47725707120E-02 -0.38627763481E-02  0.50552223139E-01  0.51100000000E-03 0. -1.
</event>
<event>
 7    1  0.1213322E+005  0.1043930E+01  0.7957747E-01            NaN
         13   -1    0    0    0    0  0.00000000000E+00  0.00000000000E+00  0.74505805969E-08  0.10566000000E+00  0.10566000000E+00 0. -1.
     999900   -1    0    0    0    0 -0.00000000000E+00 -0.00000000000E+00 -0.74505805969E-08  0.93827000000E+00  0.93827000000E+00 0.  1.
     999903    2    1    2    0    0 -0.66235156876E-01  0.66771161526E-01  0.61876368529E-01  0.11433835654E+00  0.19977256475E-01 0.  0.
         14    1    1    2    0    0 -0.82995802929E-02 -0.97412468596E-04  0.37465212879E-01  0.38373619822E-01  0.00000000000E+00 0. -1.
     999901    1    1    2    0    0  0.74534737169E-01 -0.66673749057E-01 -0.99341581408E-01  0.89121802364E+00  0.88000000000E+00 0.  1.
        -11    1    3    3    0    0 -0.26604307224E-01  0.21831707904E-01  0.33530765994E-01  0.48051909660E-01  0.51100000000E-03 0. -1.
         11    1    3    3    0    0 -0.39630849652E-01  0.44939453622E-01  0.28345602535E-01  0.66286446881E-01  0.51100000000E-03 0.  1.
</event>
<event>
 8    1  0.1213322E+005  0.1043930E+01  0.7957747E-01            NaN
         13   -1    0    0    0    0  0.00000000000E+00  0.00000000000E+00  0.74505805969E-08  0.10566000000E+00  0.10566000000E+00 0. -1.
     999900   -1    0    0    0    0 -0.00000000000E+00 -0.00000000000E+00 -0.74505805969E-08  0.93827000000E+00  0.93827000000E+00 0. -1.
     999902    2    1    2    0    0  0.85116976575E-02 -0.12903596051E-01 -0.19142685534E-01  0.10193252403E+01  0.10190282388E+01 0.  0.
     999903    2    3    3    0    0 -0.94995690654E-01 -0.60252994985E-01  0.59469475815E-01  0.12851907910E+00  0.18053545089E-01 0.  0.
         14    1    1    2    0    0 -0.85116976575E-02  0.12903596051E-01  0.19142685534E-01  0.24604759652E-01  0.00000000000E+00 0. -1.
     999901    1    3    3    0    0  0.10350738831E+00  0.47349398934E-01 -0.78612161350E-01  0.89080616125E+00  0.88000000000E+00 0. -1.
        -11    1    4    4    0    0 -0.80806119628E-01 -0.54441935841E-01  0.44617291139E-01  0.10716583941E+00  0.51100000000E-03 0.  1.
         11    1    4    4    0    0 -0.14189571026E-01 -0.58110591434E-02  0.14852184677E-01  0.21353239683E-01  0.51100000000E-03 0. -1.
</event>
<event>
 8    1  0.1213322E+005  0.1043930E+01  0.7957747E-01            NaN
         13   -1    0    0    0    0  0.00000000000E+00  0.00000000000E+00  0.74505805969E-08  0.10566000000E+00  0.10566000000E+00 0. -1.
     999900   -1    0    0    0    0 -0.00000000000E+00 -0.00000000000E+00 -0.74505805969E-08  0.93827000000E+00  0.93827000000E+00 0.  1.
     999902    2    1    2    0    0  0.86567952898E-02  0.74165434577E-02  0.20014669636E-01  0.10208967149E+01  0.10206368454E+01 0.  0.
     999903    2    3    3    0    0 -0.60011061833E-01  0.10302266887E+00  0.54047419635E-01  0.13240696601E+00  0.19886760328E-01 0.  0.
         14    1    1    2    0    0 -0.86567952898E-02 -0.74165434577E-02 -0.20014669636E-01  0.23033285093E-01  0.00000000000E+00 0.  1.
     999901    1    3    3    0    0  0.68667857123E-01 -0.95606125410E-01 -0.34032749999E-01  0.88848974889E+00  0.88000000000E+00 0. -1.
        -11    1    4    4    0    0 -0.46034364690E-01  0.75873998364E-01  0.49234677123E-01  0.10149059519E+00  0.51100000000E-03 0. -1.
         11    1    4    4    0    0 -0.13976697143E-01  0.27148670504E-01  0.48127425117E-02  0.30916370819E-01  0.51100000000E-03 0.  1.
</event>
<event>
 8    1  0.1213322E+005  0.1043930E+01  0.7957747E-01            NaN
         13   -1    0    0    0    0  0.00000000000E+00  0.00000000000E+00  0.74505805969E-08  0.10566000000E+00  0.10566000000E+00 0.  1.
     999900   -1    0    0    0    0 -0.00000000000E+00 -0.00000000000E+00 -0.74505805969E-08  0.93827000000E+00  0.93827000000E+00 0.  1.
     999902    2    1    2    0    0  0.15729177229E-01 -0.94211237849E-02 -0.12573066359E-01  0.10216983427E+01  0.10214564390E+01 0.  0.
     999903    2    3    3    0    0 -0.71967419609E-01  0.10232648111E+00  0.27334650315E-01  0.12941428132E+00  0.18731120670E-01 0.  0.
         14    1    1    2    0    0 -0.15729177229E-01  0.94211237849E-02  0.12573066359E-01  0.22231657324E-01  0.00000000000E+00 0.  1.
     999901    1    3    3    0    0  0.87696596839E-01 -0.11174760489E+00 -0.39907716674E-01  0.89228406135E+00  0.88000000000E+00 0.  1.
        -11    1    4    4    0    0 -0.13342876551E-01  0.16843256155E-01  0.12040084127E-01  0.24636403539E-01  0.51100000000E-03 0. -1.
         11    1    4    4    0    0 -0.58624543059E-01  0.85483224952E-01  0.15294566187E-01  0.10477787778E+00  0.51100000000E-03 0.  1.
</event>
<event>
 8    1  0.1213322E+005  0.1043930E+01  0.7957747E-01            NaN
         13   -1    0    0    0    0  0.00000000000E+00  0.00000000000E+00  0.74505805969E-08  0.10566000000E+00  0.10566000000E+00 0. -1.
     999900   -1    0    0    0    0 -0.00000000000E+00 -0.00000000000E+00 -0.74505805969E-08  0.93827000000E+00  0.93827000000E+00 0. -1.
     999902    2    1    2    0    0  0.21283855683E-01  0.13201405642E-02  0.12493928899E-01  0.10192147508E+01  0.10189150429E+01 0.  0.
     999903    2    3    3    0    0  0.12440388823E+00  0.39404774844E-01 -0.66726632947E-02  0.13216822511E+00  0.19870873285E-01 0.  0.
         14    1    1    2    0    0 -0.21283855683E-01 -0.13201405642E-02 -0.12493928899E-01  0.24715249204E-01  0.00000000000E+00 0. -1.
     999901    1    3    3    0    0 -0.10312003255E+00 -0.38084634280E-01  0.19166592194E-01  0.88704652569E+00  0.88000000000E+00 0. -1.
        -11    1    4    4    0    0  0.54060772598E-01  0.80154918581E-02  0.17245468799E-02  0.54681353555E-01  0.51100000000E-03 0. -1.
         11    1    4    4    0    0  0.70343115632E-01  0.31389282986E-01 -0.83972101747E-02  0.77486871552E-01  0.51100000000E-03 0.  1.
</event>
<event>
 8    1  0.1213322E+005  0.1043930E+01  0.7957747E-01            NaN
         13   -1    0    0    0    0  0.00000000000E+00  0.00000000000E+00  0.74505805969E-08  0.10566000000E+00  0.10566000000E+00 0. -1.
     999900   -1    0    0    0    0 -0.00000000000E+00 -0.00000000000E+00 -0.74505805969E-08  0.93827000000E+00  0.93827000000E+00 0. -1.
     999902    2    1    2    0    0 -0.13713045624E-01  0.57217984154E-02 -0.18407006160E-01  0.10202740394E+01  0.10199997603E+01 0.  0.
     999903    2    3    3    0    0 -0.96764790454E-01 -0.81648787350E-01 -0.31255616401E-01  0.13196311500E+00  0.20184177378E-01 0.  0.
         14    1    1    2    0    0  0.13713045624E-01 -0.57217984154E-02  0.18407006160E-01  0.23655960627E-01  0.00000000000E+00 0. -1.
     999901    1    3    3    0    0  0.83051744831E-01  0.87370585766E-01  0.12848610240E-01  0.88831092437E+00  0.88000000000E+00 0. -1.
        -11    1    4    4    0    0 -0.41812741186E-01 -0.48468186037E-01 -0.15705589159E-01  0.65912040137E-01  0.51100000000E-03 0. -1.
         11    1    4    4    0    0 -0.54952049268E-01 -0.33180601313E-01 -0.15550027241E-01  0.66051074863E-01  0.51100000000E-03 0.  1.
</event>
<event>
 8    1  0.1213322E+005  0.1043930E+01  0.7957747E-01            NaN
         13   -1    0    0    0    0  0.00000000000E+00  0.00000000000E+00  0.74505805969E-08  0.10566000000E+00  0.10566000000E+00 0.  1.
     999900   -1    0    0    0    0 -0.00000000000E+00 -0.00000000000E+00 -0.74505805969E-08  0.93827000000E+00  0.93827000000E+00 0. -1.
     999902    2    1    2    0    0  0.83720485691E-02 -0.42734096908E-02 -0.66783895299E-02  0.10323994270E+01  0.10323350341E+01 0.  0.
     999903    2    3    3    0    0 -0.11557028025E+00 -0.66128657171E-01  0.38946114483E-01  0.14039641808E+00  0.21560737419E-01 0.  0.
         14    1    1    2    0    0 -0.83720485691E-02  0.42734096908E-02  0.66783895299E-02  0.11530573027E-01  0.00000000000E+00 0.  1.
     999901    1    3    3    0    0  0.12394232882E+00  0.61855247480E-01 -0.45624504013E-01  0.89200300890E+00  0.88000000000E+00 0.  1.
        -11    1    4    4    0    0 -0.31437778801E-01 -0.11181515923E-01  0.23540948305E-02  0.33453895405E-01  0.51100000000E-03 0. -1.
         11    1    4    4    0    0 -0.84132501452E-01 -0.54947141247E-01  0.36592019653E-01  0.10694252267E+00  0.51100000000E-03 0.  1.
</event>
<event>
 8    1  0.1213322E+005  0.1043930E+01  0.7957747E-01            NaN
         13   -1    0    0    0    0  0.00000000000E+00  0.00000000000E+00  0.74505805969E-08  0.10566000000E+00  0.10566000000E+00 0. -1.
     999900   -1    0    0    0    0 -0.00000000000E+00 -0.00000000000E+00 -0.74505805969E-08  0.93827000000E+00  0.93827000000E+00 0. -1.
     999902    2    1    2    0    0 -0.25787627098E-02  0.66679359827E-02  0.20393134398E-01  0.10223200181E+01  0.10220915948E+01 0.  0.
     999903    2    3    3    0    0  0.85103753622E-02  0.11531559168E+00  0.64780556987E-01  0.13445880971E+00  0.22639319139E-01 0.  0.
         14    1    1    2    0    0  0.25787627098E-02 -0.66679359827E-02 -0.20393134398E-01  0.21609981906E-01  0.00000000000E+00 0.  1.
     999901    1    3    3    0    0 -0.11089138072E-01 -0.10864765570E+00 -0.44387422589E-01  0.88786120839E+00  0.88000000000E+00 0. -1.
        -11    1    4    4    0    0 -0.13858175492E-02  0.48762681297E-01  0.38790396987E-01  0.62327165802E-01  0.51100000000E-03 0. -1.
         11    1    4    4    0    0  0.98961929114E-02  0.66552910385E-01  0.25990159999E-01  0.72131643906E-01  0.51100000000E-03 0.  1.
</event>
<event>
 7    1  0.1614852E+005  0.1043930E+01  0.7957747E-01            NaN
         13   -1    0    0    0    0  0.00000000000E+00  0.00000000000E+00  0.74505805969E-08  0.10566000000E+00  0.10566000000E+00 0. -1.
     999900   -1    0    0    0    0 -0.00000000000E+00 -0.00000000000E+00 -0.74505805969E-08  0.93827000000E+00  0.93827000000E+00 0.  1.
     999903    2    1    2    0    0 -0.94798677410E-02  0.11111521426E-01  0.91115507512E-01  0.94348618153E-01  0.19654318544E-01 0.  0.
         14    1    1    2    0    0  0.40268056766E-01 -0.71605225738E-02 -0.54675645258E-01  0.68280419328E-01  0.00000000000E+00 0.  1.
     999901    1    1    2    0    0 -0.30788189025E-01 -0.39509988517E-02 -0.36439862254E-01  0.88130096252E+00  0.88000000000E+00 0.  1.
        -11    1    3    3    0    0 -0.24889908888E-02 -0.31387981724E-02  0.51650698698E-01  0.51808328737E-01  0.51100000000E-03 0.  1.
         11    1    3    3    0    0 -0.69908768521E-02  0.14250319598E-01  0.39464808815E-01  0.42540289416E-01  0.51100000000E-03 0. -1.
</event>
<event>
 8    1  0.1213322E+005  0.1043930E+01  0.7957747E-01            NaN
         13   -1    0    0    0    0  0.00000000000E+00  0.00000000000E+00  0.74505805969E-08  0.10566000000E+00  0.10566000000E+00 0. -1.
     999900   -1    0    0    0    0 -0.00000000000E+00 -0.00000000000E+00 -0.74505805969E-08  0.93827000000E+00  0.93827000000E+00 0. -1.
     999902    2    1    2    0    0 -0.19252940600E-01 -0.14106452795E-01 -0.46302058261E-02  0.10196173173E+01  0.10193274093E+01 0.  0.
     999903    2    3    3    0    0  0.32782629599E-01  0.26822778181E-01  0.11922644222E+00  0.12848131662E+00  0.22323574143E-01 0.  0.
         14    1    1    2    0    0  0.19252940600E-01  0.14106452795E-01  0.46302058261E-02  0.24312682662E-01  0.00000000000E+00 0.  1.
     999901    1    3    3    0    0 -0.52035570199E-01 -0.40929230976E-01 -0.12385664805E+00  0.89113600072E+00  0.88000000000E+00 0. -1.
        -11    1    4    4    0    0  0.28526955085E-01  0.29865395271E-01  0.93396516634E-01  0.10212198314E+00  0.51100000000E-03 0. -1.
         11    1    4    4    0    0  0.42556745147E-02 -0.30426170901E-02  0.25829925587E-01  0.26359333473E-01  0.51100000000E-03 0.  1.
</event>
<event>
 8    1  0.1213322E+005  0.1043930E+01  0.7957747E-01            NaN
         13   -1    0    0    0    0  0.00000000000E+00  0.00000000000E+00  0.74505805969E-08  0.10566000000E+00  0.10566000000E+00 0.  1.
     999900   -1    0    0    0    0 -0.00000000000E+00 -0.00000000000E+00 -0.74505805969E-08  0.93827000000E+00  0.93827000000E+00 0. -1.
     999902    2    1    2    0    0 -0.11343115205E-01  0.14041691912E-01  0.15708877134E-01  0.10200008505E+01  0.10197201238E+01 0.  0.
     999903    2    3    3    0    0 -0.22483045358E-01  0.10042648655E-01  0.12921093573E+00  0.13263237705E+00  0.17015857561E-01 0.  0.
         14    1    1    2    0    0  0.11343115205E-01 -0.14041691912E-01 -0.15708877134E-01  0.23929149485E-01  0.00000000000E+00 0. -1.
     999901    1    3    3    0    0  0.11139930154E-01  0.39990432564E-02 -0.11350205860E+00  0.88736847346E+00  0.88000000000E+00 0. -1.
        -11    1    4    4    0    0 -0.88572120655E-02  0.11396939926E-01  0.88664998141E-01  0.89833643262E-01  0.51100000000E-03 0.  1.
         11    1    4    4    0    0 -0.13625833293E-01 -0.13542912711E-02  0.40545937592E-01  0.42798733789E-01  0.51100000000E-03 0. -1.
</event>
<event>
 8    1  0.1213322E+005  0.1043930E+01  0.7957747E-01            NaN
         13   -1    0    0    0    0  0.00000000000E+00  0.00000000000E+00  0.74505805969E-08  0.10566000000E+00  0.10566000000E+00 0. -1.
     999900   -1    0    0    0    0 -0.00000000000E+00 -0.00000000000E+00 -0.74505805969E-08  0.93827000000E+00  0.93827000000E+00 0.  1.
     999902    2    1    2    0    0 -0.25391575720E-02  0.21314212090E-01  0.79410143947E-02  0.10210432644E+01  0.10207867285E+01 0.  0.
     999903    2    3    3    0    0 -0.11727344833E+00 -0.17779104020E-01  0.53564476396E-01  0.13156378449E+00  0.19254039413E-01 0.  0.
         14    1    1    2    0    0  0.25391575720E-02 -0.21314212090E-01 -0.79410143947E-02  0.22886735631E-01  0.00000000000E+00 0. -1.
     999901    1    3    3    0    0  0.11473429076E+00  0.39093316110E-01 -0.45623462002E-01  0.88947947988E+00  0.88000000000E+00 0. -1.
        -11    1    4    4    0    0 -0.89578011500E-01 -0.93631262086E-02  0.32462943176E-01  0.95739187783E-01  0.51100000000E-03 0.  1.
         11    1    4    4    0    0 -0.27695436834E-01 -0.84159778112E-02  0.21101533221E-01  0.35824596707E-01  0.51100000000E-03 0. -1.
</event>
<event>
 8    1  0.1213322E+005  0.1043930E+01  0.7957747E-01            NaN
         13   -1    0    0    0    0  0.00000000000E+00  0.00000000000E+00  0.74505805969E-08  0.10566000000E+00  0.10566000000E+00 0.  1.
     999900   -1    0    0    0    0 -0.00000000000E+00 -0.00000000000E+00 -0.74505805969E-08  0.93827000000E+00  0.93827000000E+00 0. -1.
     999902    2    1    2    0    0  0.37625333904E-04  0.18789760388E-01  0.14834185261E-01  0.10199902932E+01  0.10197093157E+01 0.  0.
     999903    2    3    3    0    0  0.95023701907E-01 -0.21680622853E-01  0.85429451586E-01  0.13114615706E+00  0.20039211091E-01 0.  0.
         14    1    1    2    0    0 -0.37625333904E-04 -0.18789760388E-01 -0.14834185261E-01  0.23939706837E-01  0.00000000000E+00 0.  1.
     999901    1    3    3    0    0 -0.94986076573E-01  0.40470383241E-01 -0.70595266325E-01  0.88884413611E+00  0.88000000000E+00 0. -1.
        -11    1    4    4    0    0  0.39096806931E-01 -0.16747903220E-01  0.28588163378E-01  0.51250334446E-01  0.51100000000E-03 0. -1.
         11    1    4    4    0    0  0.55926894976E-01 -0.49327196335E-02  0.56841288207E-01  0.79895822611E-01  0.51100000000E-03 0.  1.
</event>
<event>
 8    1  0.1213322E+005  0.1043930E+01  0.7957747E-01            NaN
         13   -1    0    0    0    0  0.00000000000E+00  0.00000000000E+00  0.74505805969E-08  0.10566000000E+00  0.10566000000E+00 0.  1.
     999900   -1    0    0    0    0 -0.00000000000E+00 -0.00000000000E+00 -0.74505805969E-08  0.93827000000E+00  0.93827000000E+00 0. -1.
     999902    2    1    2    0    0  0.52726063706E-02  0.12842324878E-02  0.22691199289E-01  0.10205989015E+01  0.10203321898E+01 0.  0.
     999903    2    3    3    0    0  0.10094687309E+00  0.69482626701E-01 -0.39605624619E-01  0.13060705855E+00  0.21713858276E-01 0.  0.
         14    1    1    2    0    0 -0.52726063706E-02 -0.12842324878E-02 -0.22691199289E-01  0.23331098478E-01  0.00000000000E+00 0. -1.
     999901    1    3    3    0    0 -0.95674266722E-01 -0.68198394213E-01  0.62296823908E-01  0.88999184297E+00  0.88000000000E+00 0. -1.
        -11    1    4    4    0    0  0.47261053005E-01  0.43651130077E-01 -0.14481023841E-01  0.65946868467E-01  0.51100000000E-03 0.  1.
         11    1    4    4    0    0  0.53685820088E-01  0.25831496624E-01 -0.25124600779E-01  0.64660190083E-01  0.51100000000E-03 0. -1.
</event>
<event>
 8    1  0.1213322E+005  0.1043930E+01  0.7957747E-01            NaN
         13   -1    0    0    0    0  0.00000000000E+00  0.00000000000E+00  0.74505805969E-08  0.10566000000E+00  0.10566000000E+00 0.  1.
     999900   -1    0    0    0    0 -0.00000000000E+00 -0.00000000000E+00 -0.74505805969E-08  0.93827000000E+00  0.93827000000E+00 0.  1.
     999902    2    1    2    0    0 -0.64014064970E-02  0.51519753444E-02 -0.18920388549E-01  0.10233023012E+01  0.10230943738E+01 0.  0.
     999903    2    3    3    0    0  0.94938836780E-02  0.93439887402E-01 -0.95760784732E-01  0.13541049351E+00  0.18566838074E-01 0.  0.
         14    1    1    2    0    0  0.64014064970E-02 -0.51519753444E-02  0.18920388549E-01  0.20627698804E-01  0.00000000000E+00 0.  1.
     999901    1    3    3    0    0 -0.15895290175E-01 -0.88287912058E-01  0.76840396183E-01  0.88789180768E+00  0.88000000000E+00 0. -1.
        -11    1    4    4    0    0  0.13173166324E-01  0.43297488220E-01 -0.49729880637E-01  0.67242300275E-01  0.51100000000E-03 0.  1.
         11    1    4    4    0    0 -0.36792826457E-02  0.50142399183E-01 -0.46030904094E-01  0.68168193238E-01  0.51100000000E-03 0. -1.
</event>
<event>
 8    1  0.1213322E+005  0.1043930E+01  0.7957747E-01            NaN
         13   -1    0    0    0    0  0.00000000000E+00  0.00000000000E+00  0.74505805969E-08  0.10566000000E+00  0.10566000000E+00 0. -1.
     999900   -1    0    0    0    0 -0.00000000000E+00 -0.00000000000E+00 -0.74505805969E-08  0.93827000000E+00  0.93827000000E+00 0. -1.
     999902    2    1    2    0    0 -0.15597383049E-02  0.17953048932E-01 -0.15957352109E-01  0.10198596482E+01  0.10195755588E+01 0.  0.
     999903    2    3    3    0    0 -0.12094991360E+00 -0.40548590945E-02 -0.45713508012E-01  0.13102682320E+00  0.20808173894E-01 0.  0.
         14    1    1    2    0    0  0.15597383049E-02 -0.17953048932E-01  0.15957352109E-01  0.24070351802E-01  0.00000000000E+00 0.  1.
     999901    1    3    3    0    0  0.11939017530E+00  0.22007908027E-01  0.29756155903E-01  0.88883282499E+00  0.88000000000E+00 0. -1.
        -11    1    4    4    0    0 -0.83754833371E-01 -0.81010080970E-02 -0.40016281706E-01  0.93177585115E-01  0.51100000000E-03 0.  1.
         11    1    4    4    0    0 -0.37195080233E-01  0.40461490025E-02 -0.56972263057E-02  0.37849238089E-01  0.51100000000E-03 0. -1.
</event>
<event>
 8    1  0.1213322E+005  0.1043930E+01  0.7957747E-01            NaN
         13   -1    0    0    0    0  0.00000000000E+00  0.00000000000E+00  0.74505805969E-08  0.10566000000E+00  0.10566000000E+00 0.  1.
     999900   -1    0    0    0    0 -0.00000000000E+00 -0.00000000000E+00 -0.74505805969E-08  0.93827000000E+00  0.93827000000E+00 0.  1.
     999902    2    1    2    0    0  0.22414904199E-01 -0.92476784724E-03  0.87477529282E-02  0.10198508325E+01  0.10195665325E+01 0.  0.
     999903    2    3    3    0    0 -0.71647326765E-01  0.19680183718E-01 -0.10207572406E+00  0.12768822941E+00  0.19083538019E-01 0.  0.
         14    1    1    2    0    0 -0.22414904199E-01  0.92476784724E-03 -0.87477529282E-02  0.24079167492E-01  0.00000000000E+00 0. -1.
     999901    1    3    3    0    0  0.94062230964E-01 -0.20604951565E-01  0.11082347699E+00  0.89216260310E+00  0.88000000000E+00 0. -1.
        -11    1    4    4    0    0 -0.59267112030E-01  0.18438469045E-01 -0.71559892090E-01  0.94729335404E-01  0.51100000000E-03 0.  1.
         11    1    4    4    0    0 -0.12380214735E-01  0.12417146735E-02 -0.30515831967E-01  0.32958894002E-01  0.51100000000E-03 0. -1.
</event>
<event>
 8    1  0.1213322E+005  0.1043930E+01  0.7957747E-01            NaN
         13   -1    0    0    0    0  0.00000000000E+00  0.00000000000E+00  0.74505805969E-08  0.10566000000E+00  0.10566000000E+00 0.  1.
     999900   -1    0    0    0    0 -0.00000000000E+00 -0.00000000000E+00 -0.74505805969E-08  0.93827000000E+00  0.93827000000E+00 0.  1.
     999902    2    1    2    0    0 -0.13763793382E-01 -0.16030269772E-01  0.12533608901E-01  0.10193637038E+01  0.10190676414E+01 0.  0.
     999903    2    3    3    0    0 -0.59789824888E-01  0.11076333081E+00  0.19724243650E-01  0.12905661186E+00  0.20572424871E-01 0.  0.
         14    1    1    2    0    0  0.13763793382E-01  0.16030269772E-01 -0.12533608901E-01  0.24566296207E-01  0.00000000000E+00 0.  1.
     999901    1    3    3    0    0  0.46026031505E-01 -0.12679360058E+00 -0.71906347492E-02  0.89030709194E+00  0.88000000000E+00 0.  1.
        -11    1    4    4    0    0 -0.22171336271E-01  0.57103297430E-01  0.25634457762E-02  0.61312210078E-01  0.51100000000E-03 0.  1.
         11    1    4    4    0    0 -0.37618488616E-01  0.53660033377E-01  0.17160797874E-01  0.67744401779E-01  0.51100000000E-03 0. -1.
</event>
<event>
 8    1  0.1213322E+005  0.1043930E+01  0.7957747E-01            NaN
         13   -1    0    0    0    0  0.00000000000E+00  0.00000000000E+00  0.74505805969E-08  0.10566000000E+00  0.10566000000E+00 0. -1.
     999900   -1    0    0    0    0 -0.00000000000E+00 -0.00000000000E+00 -0.74505805969E-08  0.93827000000E+00  0.93827000000E+00 0. -1.
     999902    2    1    2    0    0 -0.15422195895E-01  0.31150976464E-01  0.12853932917E-02  0.10091466750E+01  0.10085470401E+01 0.  0.
     999903    2    3    3    0    0  0.33104749939E-01 -0.28032310772E-01  0.10931608526E+00  0.11924322162E+00  0.19677512290E-01 0.  0.
         14    1    1    2    0    0  0.15422195895E-01 -0.31150976464E-01 -0.12853932917E-02  0.34783324982E-01  0.00000000000E+00 0. -1.
     999901    1    3    3    0    0 -0.48526945834E-01  0.59183287235E-01 -0.10803069197E+00  0.88990345340E+00  0.88000000000E+00 0. -1.
        -11    1    4    4    0    0  0.10321763344E-01 -0.40942011428E-02  0.51140685502E-01  0.52334807883E-01  0.51100000000E-03 0.  1.
         11    1    4    4    0    0  0.22782986595E-01 -0.23938109629E-01  0.58175399760E-01  0.66908413739E-01  0.51100000000E-03 0. -1.
</event>
<event>
 8    1  0.1213322E+005  0.1043930E+01  0.7957747E-01            NaN
         13   -1    0    0    0    0  0.00000000000E+00  0.00000000000E+00  0.74505805969E-08  0.10566000000E+00  0.10566000000E+00 0. -1.
     999900   -1    0    0    0    0 -0.00000000000E+00 -0.00000000000E+00 -0.74505805969E-08  0.93827000000E+00  0.93827000000E+00 0. -1.
     999902    2    1    2    0    0  0.98104274659E-02  0.15070403515E-01 -0.15699539737E-01  0.10200587391E+01  0.10197793850E+01 0.  0.
     999903    2    3    3    0    0 -0.11079212947E+00  0.29911223506E-01 -0.59277979361E-01  0.13064077937E+00  0.19584615210E-01 0.  0.
         14    1    1    2    0    0 -0.98104274659E-02 -0.15070403515E-01  0.15699539737E-01  0.23871260903E-01  0.00000000000E+00 0. -1.
     999901    1    3    3    0    0  0.12060255694E+00 -0.14840819992E-01  0.43578439625E-01  0.88941795972E+00  0.88000000000E+00 0. -1.
        -11    1    4    4    0    0 -0.50138102712E-01  0.17269102285E-01 -0.17227542486E-01  0.55759309342E-01  0.51100000000E-03 0. -1.
         11    1    4    4    0    0 -0.60654026763E-01  0.12642121221E-01 -0.42050436876E-01  0.74881470031E-01  0.51100000000E-03 0.  1.
</event>
<event>
 8    1  0.1213322E+005  0.1043930E+01  0.7957747E-01            NaN
         13   -1    0    0    0    0  0.00000000000E+00  0.00000000000E+00  0.74505805969E-08  0.10566000000E+00  0.10566000000E+00 0. -1.
     999900   -1    0    0    0    0 -0.00000000000E+00 -0.00000000000E+00 -0.74505805969E-08  0.93827000000E+00  0.93827000000E+00 0.  1.
     999902    2    1    2    0    0 -0.21585665426E-02 -0.13879934631E-01 -0.19139196091E-01  0.10201893003E+01  0.10199130294E+01 0.  0.
     999903    2    3    3    0    0  0.46294265282E-01 -0.10480729710E+00 -0.65073528119E-01  0.13298840704E+00  0.17989547585E-01 0.  0.
         14    1    1    2    0    0  0.21585665426E-02  0.13879934631E-01  0.19139196091E-01  0.23740699692E-01  0.00000000000E+00 0. -1.
     999901    1    3    3    0    0 -0.48452831825E-01  0.90927362466E-01  0.45934332028E-01  0.88720089327E+00  0.88000000000E+00 0. -1.
        -11    1    4    4    0    0  0.35020939444E-01 -0.81354413123E-01 -0.41262994375E-01  0.97713369403E-01  0.51100000000E-03 0. -1.
         11    1    4    4    0    0  0.11273325838E-01 -0.23452883973E-01 -0.23810533744E-01  0.35275037637E-01  0.51100000000E-03 0.  1.
</event>
<event>
 8    1  0.1213322E+005  0.1043930E+01  0.7957747E-01            NaN
         13   -1    0    0    0    0  0.00000000000E+00  0.00000000000E+00  0.74505805969E-08  0.10566000000E+00  0.10566000000E+00 0.  1.
     999900   -1    0    0    0    0 -0.00000000000E+00 -0.00000000000E+00 -0.74505805969E-08  0.93827000000E+00  0.93827000000E+00 0. -1.
     999902    2    1    2    0    0 -0.23563763911E-01 -0.13862339214E-02  0.52045935692E-03  0.10203197587E+01  0.10200465512E+01 0.  0.
     999903    2    3    3    0    0 -0.13287325680E-01 -0.27488827653E-01  0.12580847102E+00  0.13100314671E+00  0.20046555759E-01 0.  0.
         14    1    1    2    0    0  0.23563763911E-01  0.13862339214E-02 -0.52045935692E-03  0.23610241254E-01  0.00000000000E+00 0. -1.
     999901    1    3    3    0    0 -0.10276438231E-01  0.26102593732E-01 -0.12528801166E+00  0.88931661204E+00  0.88000000000E+00 0. -1.
        -11    1    4    4    0    0 -0.16362694331E-01 -0.28742713310E-01  0.11134245787E+00  0.11615199257E+00  0.51100000000E-03 0. -1.
         11    1    4    4    0    0  0.30753686504E-02  0.12538856573E-02  0.14466013153E-01  0.14851154134E-01  0.51100000000E-03 0.  1.
</event>
<event>
 8    1  0.1213322E+005  0.1043930E+01  0.7957747E-01            NaN
         13   -1    0    0    0    0  0.00000000000E+00  0.00000000000E+00  0.74505805969E-08  0.10566000000E+00  0.10566000000E+00 0. -1.
     999900   -1    0    0    0    0 -0.00000000000E+00 -0.00000000000E+00 -0.74505805969E-08  0.93827000000E+00  0.93827000000E+00 0.  1.
     999902    2    1    2    0    0  0.20203050367E-01 -0.46358281620E-02 -0.10452624663E-01  0.10207155323E+01  0.10204515111E+01 0.  0.
     999903    2    3    3    0    0 -0.93958105588E-01 -0.48877940027E-01  0.71233295204E-01  0.12849206061E+00  0.14793534601E-01 0.  0.
         14    1    1    2    0    0 -0.20203050367E-01  0.46358281620E-02  0.10452624663E-01  0.23214467670E-01  0.00000000000E+00 0. -1.
     999901    1    3    3    0    0  0.11416115596E+00  0.44242111865E-01 -0.81685919867E-01  0.89222347172E+00  0.88000000000E+00 0.  1.
        -11    1    4    4    0    0 -0.40311385767E-01 -0.28415131305E-01  0.36820708361E-01  0.61550411816E-01  0.51100000000E-03 0. -1.
         11    1    4    4    0    0 -0.53646719822E-01 -0.20462808722E-01  0.34412586842E-01  0.66941648789E-01  0.51100000000E-03 0.  1.
</event>
<event>
 8    1  0.1213322E+005  0.1043930E+01  0.7957747E-01            NaN
         13   -1    0    0    0    0  0.00000000000E+00  0.00000000000E+00  0.74505805969E-08  0.10566000000E+00  0.10566000000E+00 0.  1.
     999900   -1    0    0    0    0 -0.00000000000E+00 -0.00000000000E+00 -0.74505805969E-08  0.93827000000E+00  0.93827000000E+00 0. -1.
     999902    2    1    2    0    0  0.80392557492E-02  0.16216381755E-01 -0.14539792239E-01  0.10207134923E+01  0.10204494241E+01 0.  0.
     999903    2    3    3    0    0 -0.98406835104E-01  0.13351646458E-01  0.81311755230E-01  0.12912698720E+00  0.14142334575E-01 0.  0.
         14    1    1    2    0    0 -0.80392557492E-02 -0.16216381755E-01  0.14539792239E-01  0.23216507674E-01  0.00000000000E+00 0.  1.
     999901    1    3    3    0    0  0.10644609085E+00  0.28647352974E-02 -0.95851547468E-01  0.89158650512E+00  0.88000000000E+00 0. -1.
        -11    1    4    4    0    0 -0.79296679220E-01  0.72469067083E-02  0.58911068799E-01  0.99051785144E-01  0.51100000000E-03 0. -1.
         11    1    4    4    0    0 -0.19110155884E-01  0.61047397493E-02  0.22400686431E-01  0.30075202059E-01  0.51100000000E-03 0.  1.
</event>
<event>
 8    1  0.1213322E+005  0.1043930E+01  0.7957747E-01            NaN
         13   -1    0    0    0    0  0.00000000000E+00  0.00000000000E+00  0.74505805969E-08  0.10566000000E+00  0.10566000000E+00 0.  1.
     999900   -1    0    0    0    0 -0.00000000000E+00 -0.00000000000E+00 -0.74505805969E-08  0.93827000000E+00  0.93827000000E+00 0. -1.
     999902    2    1    2    0    0  0.73881861731E-03  0.22629941627E-01  0.61471508863E-02  0.10204683808E+01  0.10201986418E+01 0.  0.
     999903    2    3    3    0    0  0.33161123922E-02 -0.28951098047E-01  0.12602723069E+00  0.13084009909E+00  0.19675008908E-01 0.  0.
         14    1    1    2    0    0 -0.73881861731E-03 -0.22629941627E-01 -0.61471508863E-02  0.23461619190E-01  0.00000000000E+00 0. -1.
     999901    1    3    3    0    0 -0.25772937749E-02  0.51581039674E-01 -0.11988007980E+00  0.88962828172E+00  0.88000000000E+00 0. -1.
        -11    1    4    4    0    0 -0.70691714368E-02 -0.50329055063E-02  0.40611225761E-01  0.41531146161E-01  0.51100000000E-03 0. -1.
         11    1    4    4    0    0  0.10385283829E-01 -0.23918192540E-01  0.85416004930E-01  0.89308952932E-01  0.51100000000E-03 0.  1.
</event>
<event>
 8    1  0.1213322E+005  0.1043930E+01  0.7957747E-01            NaN
         13   -1    0    0    0    0  0.00000000000E+00  0.00000000000E+00  0.74505805969E-08  0.10566000000E+00  0.10566000000E+00 0. -1.
     999900   -1    0    0    0    0 -0.00000000000E+00 -0.00000000000E+00 -0.74505805969E-08  0.93827000000E+00  0.93827000000E+00 0. -1.
     999902    2    1    2    0    0 -0.15256568380E-01  0.12032781561E-01  0.14252029898E-01  0.10198328826E+01  0.10195481535E+01 0.  0.
     999903    2    3    3    0    0  0.22292240417E-01 -0.65763126751E-01 -0.10510178805E+00  0.12758434646E+00  0.20239732869E-01 0.  0.
         14    1    1    2    0    0  0.15256568380E-01 -0.12032781561E-01 -0.14252029898E-01  0.24097117400E-01  0.00000000000E+00 0. -1.
     999901    1    3    3    0    0 -0.37548808796E-01  0.77795908312E-01  0.11935381795E+00  0.89224853614E+00  0.88000000000E+00 0.  1.
        -11    1    4    4    0    0  0.35358338467E-02 -0.34008919437E-01 -0.38837567637E-01  0.51746753552E-01  0.51100000000E-03 0.  1.
         11    1    4    4    0    0  0.18756406570E-01 -0.31754207314E-01 -0.66264220413E-01  0.75837592904E-01  0.51100000000E-03 0. -1.
</event>
<event>
 8    1  0.1213322E+005  0.1043930E+01  0.7957747E-01            NaN
         13   -1    0    0    0    0  0.00000000000E+00  0.00000000000E+00  0.74505805969E-08  0.10566000000E+00  0.10566000000E+00 0. -1.
     999900   -1    0    0    0    0 -0.00000000000E+00 -0.00000000000E+00 -0.74505805969E-08  0.93827000000E+00  0.93827000000E+00 0. -1.
     999902    2    1    2    0    0 -0.13275711593E-01  0.77085034733E-02 -0.18202904592E-01  0.10201180014E+01  0.10198400489E+01 0.  0.
     999903    2    3    3    0    0 -0.13567692813E-01 -0.11027987271E+00 -0.66193756581E-01  0.13094734054E+00  0.20490484924E-01 0.  0.
         14    1    1    2    0    0  0.13275711593E-01 -0.77085034733E-02  0.18202904592E-01  0.23811998650E-01  0.00000000000E+00 0. -1.
     999901    1    3    3    0    0  0.29198122002E-03  0.11798837618E+00  0.47990851989E-01  0.88917066081E+00  0.88000000000E+00 0. -1.
        -11    1    4    4    0    0 -0.15235390053E-01 -0.77787442971E-01 -0.55230238454E-01  0.96610784878E-01  0.51100000000E-03 0. -1.
         11    1    4    4    0    0  0.16676972397E-02 -0.32492429735E-01 -0.10963518127E-01  0.34336555664E-01  0.51100000000E-03 0.  1.
</event>
<event>
 8    1  0.1365811E+005  0.1043930E+01  0.7957747E-01            NaN
         13   -1    0    0    0    0  0.00000000000E+00  0.00000000000E+00  0.74505805969E-08  0.10566000000E+00  0.10566000000E+00 0.  1.
     999900   -1    0    0    0    0 -0.00000000000E+00 -0.00000000000E+00 -0.74505805969E-08  0.93827000000E+00  0.93827000000E+00 0. -1.
     999902    2    1    2    0    0 -0.12159139880E-01  0.42763595001E-02  0.19405431464E-01  0.10206340196E+01  0.10203681195E+01 0.  0.
     999903    2    3    3    0    0 -0.19505055033E-01  0.10711312250E+00  0.73649728077E-01  0.13295625935E+00  0.19985401473E-01 0.  0.
         14    1    1    2    0    0  0.12159139880E-01 -0.42763595001E-02 -0.19405431464E-01  0.23295980415E-01  0.00000000000E+00 0. -1.
     999901    1    3    3    0    0  0.73459151528E-02 -0.10283676300E+00 -0.54244296613E-01  0.88767776023E+00  0.88000000000E+00 0.  1.
        -11    1    4    4    0    0  0.51242543767E-04  0.52781355096E-01  0.31569672781E-01  0.61504304175E-01  0.51100000000E-03 0.  1.
         11    1    4    4    0    0 -0.19556297576E-01  0.54331767404E-01  0.42080055297E-01  0.71451955179E-01  0.51100000000E-03 0. -1.
</event>
<event>
 8    1  0.1213322E+005  0.1043930E+01  0.7957747E-01            NaN
         13   -1    0    0    0    0  0.00000000000E+00  0.00000000000E+00  0.74505805969E-08  0.10566000000E+00  0.10566000000E+00 0.  1.
     999900   -1    0    0    0    0 -0.00000000000E+00 -0.00000000000E+00 -0.74505805969E-08  0.93827000000E+00  0.93827000000E+00 0. -1.
     999902    2    1    2    0    0  0.20828708767E-01 -0.38344121130E-02  0.10075238410E-01  0.10204768924E+01  0.10202073514E+01 0.  0.
     999903    2    3    3    0    0  0.74302748657E-01 -0.92614347078E-01 -0.54089697937E-01  0.13207468125E+00  0.20486831414E-01 0.  0.
         14    1    1    2    0    0 -0.20828708767E-01  0.38344121130E-02 -0.10075238410E-01  0.23453107559E-01  0.00000000000E+00 0. -1.
     999901    1    3    3    0    0 -0.53474039890E-01  0.88779934965E-01  0.64164936347E-01  0.88840221119E+00  0.88000000000E+00 0.  1.
        -11    1    4    4    0    0  0.43599135462E-02 -0.13352475571E-01 -0.11290662647E-01  0.18028800127E-01  0.51100000000E-03 0.  1.
         11    1    4    4    0    0  0.69942835111E-01 -0.79261871507E-01 -0.42799035290E-01  0.11404588112E+00  0.51100000000E-03 0. -1.
</event>
<event>
 8    1  0.1750879E+005  0.1043930E+01  0.7957747E-01            NaN
         13   -1    0    0    0    0  0.00000000000E+00  0.00000000000E+00  0.74505805969E-08  0.10566000000E+00  0.10566000000E+00 0. -1.
     999900   -1    0    0    0    0 -0.00000000000E+00 -0.00000000000E+00 -0.74505805969E-08  0.93827000000E+00  0.93827000000E+00 0.  1.
     999902    2    1    2    0    0 -0.22959732138E-01  0.61662478045E-02  0.70146301308E-03  0.10201463089E+01  0.10198690247E+01 0.  0.
     999903    2    3    3    0    0  0.52849575892E-01  0.11672966976E+00 -0.66983749420E-02  0.12996313727E+00  0.20655637214E-01 0.  0.
         14    1    1    2    0    0  0.22959732138E-01 -0.61662478045E-02 -0.70146301308E-03  0.23783691097E-01  0.00000000000E+00 0.  1.
     999901    1    3    3    0    0 -0.75809308030E-01 -0.11056342195E+00  0.73998379551E-02  0.89018317163E+00  0.88000000000E+00 0. -1.
        -11    1    4    4    0    0  0.42709665446E-01  0.70261125128E-01 -0.43886722600E-02  0.82342351144E-01  0.51100000000E-03 0.  1.
         11    1    4    4    0    0  0.10139910446E-01  0.46468544629E-01 -0.23097026820E-02  0.47620786126E-01  0.51100000000E-03 0. -1.
</event>
<event>
 8    1  0.1213322E+005  0.1043930E+01  0.7957747E-01            NaN
         13   -1    0    0    0    0  0.00000000000E+00  0.00000000000E+00  0.74505805969E-08  0.10566000000E+00  0.10566000000E+00 0. -1.
     999900   -1    0    0    0    0 -0.00000000000E+00 -0.00000000000E+00 -0.74505805969E-08  0.93827000000E+00  0.93827000000E+00 0.  1.
     999902    2    1    2    0    0 -0.22090957219E-01  0.92436396025E-02 -0.53244117250E-02  0.10193982935E+01  0.10191030744E+01 0.  0.
     999903    2    3    3    0    0 -0.12030389540E+00  0.15122563265E-01 -0.50343344626E-01  0.13277151334E+00  0.19801596811E-01 0.  0.
         14    1    1    2    0    0  0.22090957219E-01 -0.92436396025E-02  0.53244117250E-02  0.24531706507E-01  0.00000000000E+00 0. -1.
     999901    1    3    3    0    0  0.98212938186E-01 -0.58789236622E-02  0.45018932901E-01  0.88662678016E+00  0.88000000000E+00 0.  1.
        -11    1    4    4    0    0 -0.52481932911E-01  0.11850134699E-01 -0.13313917143E-01  0.55428336482E-01  0.51100000000E-03 0.  1.
         11    1    4    4    0    0 -0.67821962494E-01  0.32724285653E-02 -0.37029427483E-01  0.77343176855E-01  0.51100000000E-03 0. -1.
</event>
<event>
 8    1  0.1213322E+005  0.1043930E+01  0.7957747E-01            NaN
         13   -1    0    0    0    0  0.00000000000E+00  0.00000000000E+00  0.74505805969E-08  0.10566000000E+00  0.10566000000E+00 0.  1.
     999900   -1    0    0    0    0 -0.00000000000E+00 -0.00000000000E+00 -0.74505805969E-08  0.93827000000E+00  0.93827000000E+00 0. -1.
     999902    2    1    2    0    0  0.19606303392E-01  0.10948580044E-01 -0.83085565595E-02  0.10199860937E+01  0.10197050165E+01 0.  0.
     999903    2    3    3    0    0 -0.12196607466E+00  0.11041361010E-01 -0.32410429129E-01  0.12834510814E+00  0.20600870021E-01 0.  0.
         14    1    1    2    0    0 -0.19606303392E-01 -0.10948580044E-01  0.83085565595E-02  0.23943906318E-01  0.00000000000E+00 0. -1.
     999901    1    3    3    0    0  0.14157237805E+00 -0.92780965881E-04  0.24101872570E-01  0.89164098554E+00  0.88000000000E+00 0. -1.
        -11    1    4    4    0    0 -0.58858281692E-01  0.96572744779E-02 -0.61075443423E-02  0.59959348670E-01  0.51100000000E-03 0. -1.
         11    1    4    4    0    0 -0.63107792971E-01  0.13840865321E-02 -0.26302884787E-01  0.68385759470E-01  0.51100000000E-03 0.  1.
</event>
<event>
 8    1  0.1213322E+005  0.1043930E+01  0.7957747E-01            NaN
         13   -1    0    0    0    0  0.00000000000E+00  0.00000000000E+00  0.74505805969E-08  0.10566000000E+00  0.10566000000E+00 0.  1.
     999900   -1    0    0    0    0 -0.00000000000E+00 -0.00000000000E+00 -0.74505805969E-08  0.93827000000E+00  0.93827000000E+00 0.  1.
     999902    2    1    2    0    0  0.37768317257E-02  0.20785538219E-01 -0.21733381699E-02  0.10226926166E+01  0.10224720835E+01 0.  0.
     999903    2    3    3    0    0 -0.52718828387E-01  0.27279117750E-02  0.11975402059E+00  0.13230836338E+00  0.19436079909E-01 0.  0.
         14    1    1    2    0    0 -0.37768317257E-02 -0.20785538219E-01  0.21733381699E-02  0.21237383449E-01  0.00000000000E+00 0.  1.
     999901    1    3    3    0    0  0.56495660113E-01  0.18057626444E-01 -0.12192735876E+00  0.89038425317E+00  0.88000000000E+00 0.  1.
        -11    1    4    4    0    0 -0.62314123776E-02 -0.27107970175E-02  0.33363488216E-01  0.34052347755E-01  0.51100000000E-03 0.  1.
         11    1    4    4    0    0 -0.46487416010E-01  0.54387087925E-02  0.86390532377E-01  0.98256015622E-01  0.51100000000E-03 0. -1.
</event>
<event>
 8    1  0.1213322E+005  0.1043930E+01  0.7957747E-01            NaN
         13   -1    0    0    0    0  0.00000000000E+00  0.00000000000E+00  0.74505805969E-08  0.10566000000E+00  0.10566000000E+00 0. -1.
     999900   -1    0    0    0    0 -0.00000000000E+00 -0.00000000000E+00 -0.74505805969E-08  0.93827000000E+00  0.93827000000E+00 0. -1.
     999902    2    1    2    0    0  0.30240035390E-02 -0.44054060504E-02 -0.23095892660E-01  0.10202240417E+01  0.10199485883E+01 0.  0.
     999903    2    3    3    0    0  0.10332934150E+00 -0.70133892247E-01 -0.36362389686E-01  0.13199130496E+00  0.22444721985E-01 0.  0.
         14    1    1    2    0    0 -0.30240035390E-02  0.44054060504E-02  0.23095892660E-01  0.23705958273E-01  0.00000000000E+00 0. -1.
     999901    1    3    3    0    0 -0.10030533796E+00  0.65728486196E-01  0.13266497026E-01  0.88823273677E+00  0.88000000000E+00 0. -1.
        -11    1    4    4    0    0  0.50349212986E-01 -0.32701919170E-01 -0.29083982882E-01  0.66712801972E-01  0.51100000000E-03 0. -1.
         11    1    4    4    0    0  0.52980128513E-01 -0.37431973077E-01 -0.72784068038E-02  0.65278502988E-01  0.51100000000E-03 0.  1.
</event>
<event>
 8    1  0.1213322E+005  0.1043930E+01  0.7957747E-01            NaN
         13   -1    0    0    0    0  0.00000000000E+00  0.00000000000E+00  0.74505805969E-08  0.10566000000E+00  0.10566000000E+00 0.  1.
     999900   -1    0    0    0    0 -0.00000000000E+00 -0.00000000000E+00 -0.74505805969E-08  0.93827000000E+00  0.93827000000E+00 0. -1.
     999902    2    1    2    0    0  0.78290169801E-02  0.11399406186E-01 -0.17953679992E-01  0.10212678158E+01  0.10210163451E+01 0.  0.
     999903    2    3    3    0    0  0.94616047936E-01 -0.37860806090E-01 -0.83369604343E-01  0.13321500180E+00  0.20251138551E-01 0.  0.
         14    1    1    2    0    0 -0.78290169801E-02 -0.11399406186E-01  0.17953679992E-01  0.22662184217E-01  0.00000000000E+00 0.  1.
     999901    1    3    3    0    0 -0.86787030956E-01  0.49260212276E-01  0.65415924351E-01  0.88805281398E+00  0.88000000000E+00 0. -1.
        -11    1    4    4    0    0  0.49475060577E-01 -0.11498787957E-01 -0.32699620736E-01  0.60411340499E-01  0.51100000000E-03 0.  1.
         11    1    4    4    0    0  0.45140987360E-01 -0.26362018133E-01 -0.50669983607E-01  0.72803661306E-01  0.51100000000E-03 0. -1.
</event>
<event>
 8    1  0.1213322E+005  0.1043930E+01  0.7957747E-01            NaN
         13   -1    0    0    0    0  0.00000000000E+00  0.00000000000E+00  0.74505805969E-08  0.10566000000E+00  0.10566000000E+00 0.  1.
     999900   -1    0    0    0    0 -0.00000000000E+00 -0.00000000000E+00 -0.74505805969E-08  0.93827000000E+00  0.93827000000E+00 0. -1.
     999902    2    1    2    0    0 -0.17282759300E-01  0.13167679096E-01  0.95392714896E-02  0.10202007092E+01  0.10199247069E+01 0.  0.
     999903    2    3    3    0    0  0.37272984999E-01  0.70956886173E-01  0.10244924299E+00  0.13174801799E+00  0.20917403010E-01 0.  0.
         14    1    1    2    0    0  0.17282759300E-01 -0.13167679096E-01 -0.95392714896E-02  0.23729290810E-01  0.00000000000E+00 0. -1.
     999901    1    3    3    0    0 -0.54555744299E-01 -0.57789207077E-01 -0.92909971505E-01  0.88845269120E+00  0.88000000000E+00 0. -1.
        -11    1    4    4    0    0  0.18973103746E-01  0.33480905508E-01  0.65782496234E-01  0.76213828346E-01  0.51100000000E-03 0.  1.
         11    1    4    4    0    0  0.18299881253E-01  0.37475980665E-01  0.36666746761E-01  0.55534189647E-01  0.51100000000E-03 0. -1.
</event>
<event>
 8    1  0.1213322E+005  0.1043930E+01  0.7957747E-01            NaN
         13   -1    0    0    0    0  0.00000000000E+00  0.00000000000E+00  0.74505805969E-08  0.10566000000E+00  0.10566000000E+00 0.  1.
     999900   -1    0    0    0    0 -0.00000000000E+00 -0.00000000000E+00 -0.74505805969E-08  0.93827000000E+00  0.93827000000E+00 0. -1.
     999902    2    1    2    0    0 -0.24531280009E-01 -0.13555627146E-01 -0.17713979954E-01  0.10107739476E+01  0.10102299982E+01 0.  0.
     999903    2    3    3    0    0  0.11633077239E+00 -0.12524378452E-01 -0.14421606885E-01  0.11956464500E+00  0.19950261412E-01 0.  0.
         14    1    1    2    0    0  0.24531280009E-01  0.13555627146E-01  0.17713979954E-01  0.33156052419E-01  0.00000000000E+00 0.  1.
     999901    1    3    3    0    0 -0.14086205239E+00 -0.10312486933E-02 -0.32923730690E-02  0.89120930258E+00  0.88000000000E+00 0. -1.
        -11    1    4    4    0    0  0.39530197516E-01  0.30820498973E-02 -0.10851714550E-01  0.41111511489E-01  0.51100000000E-03 0.  1.
         11    1    4    4    0    0  0.76800574870E-01 -0.15606428350E-01 -0.35698923354E-02  0.78453133516E-01  0.51100000000E-03 0. -1.
</event>
<event>
 8    1  0.1213322E+005  0.1043930E+01  0.7957747E-01            NaN
         13   -1    0    0    0    0  0.00000000000E+00  0.00000000000E+00  0.74505805969E-08  0.10566000000E+00  0.10566000000E+00 0. -1.
     999900   -1    0    0    0    0 -0.00000000000E+00 -0.00000000000E+00 -0.74505805969E-08  0.93827000000E+00  0.93827000000E+00 0. -1.
     999902    2    1    2    0    0  0.12274677521E-01  0.91462946471E-02 -0.22602445149E-01  0.10166317777E+01  0.10162652107E+01 0.  0.
     999903    2    3    3    0    0  0.61724323178E-01  0.76472607899E-01  0.77876329855E-01  0.12698348532E+00  0.20053203266E-01 0.  0.
         14    1    1    2    0    0 -0.12274677521E-01 -0.91462946471E-02  0.22602445149E-01  0.27298222300E-01  0.00000000000E+00 0. -1.
     999901    1    3    3    0    0 -0.49449645657E-01 -0.67326313252E-01 -0.10047877500E+00  0.88964829238E+00  0.88000000000E+00 0. -1.
        -11    1    4    4    0    0  0.12459865138E-01  0.29822272034E-01  0.28142992137E-01  0.42859132935E-01  0.51100000000E-03 0. -1.
         11    1    4    4    0    0  0.49264458040E-01  0.46650335864E-01  0.49733337718E-01  0.84124352383E-01  0.51100000000E-03 0.  1.
</event>
<event>
 8    1  0.1213322E+005  0.1043930E+01  0.7957747E-01            NaN
         13   -1    0    0    0    0  0.00000000000E+00  0.00000000000E+00  0.74505805969E-08  0.10566000000E+00  0.10566000000E+00 0. -1.
     999900   -1    0    0    0    0 -0.00000000000E+00 -0.00000000000E+00 -0.74505805969E-08  0.93827000000E+00  0.93827000000E+00 0.  1.
     999902    2    1    2    0    0  0.49181637652E-03 -0.75216027262E-02  0.20729744592E-01  0.10218723777E+01  0.10216342876E+01 0.  0.
     999903    2    3    3    0    0 -0.12262644528E+00  0.18639244102E-01 -0.37174549733E-01  0.13103265947E+00  0.20073470018E-01 0.  0.
         14    1    1    2    0    0 -0.49181637652E-03  0.75216027262E-02 -0.20729744592E-01  0.22057622306E-01  0.00000000000E+00 0.  1.
     999901    1    3    3    0    0  0.12311826165E+00 -0.26160846828E-01  0.57904294325E-01  0.89083971822E+00  0.88000000000E+00 0. -1.
        -11    1    4    4    0    0 -0.92791483279E-01  0.13457519781E-01 -0.18865975270E-01  0.95642826974E-01  0.51100000000E-03 0.  1.
         11    1    4    4    0    0 -0.29834961999E-01  0.51817243211E-02 -0.18308574463E-01  0.35389832499E-01  0.51100000000E-03 0. -1.
</event>
<event>
 8    1  0.1213322E+005  0.1043930E+01  0.7957747E-01            NaN
         13   -1    0    0    0    0  0.00000000000E+00  0.00000000000E+00  0.74505805969E-08  0.10566000000E+00  0.10566000000E+00 0.  1.
     999900   -1    0    0    0    0 -0.00000000000E+00 -0.00000000000E+00 -0.74505805969E-08  0.93827000000E+00  0.93827000000E+00 0. -1.
     999902    2    1    2    0    0 -0.22114649148E-01 -0.22595011648E-02  0.49925435424E-02  0.10211464853E+01  0.10208922841E+01 0.  0.
     999903    2    3    3    0    0 -0.87515423606E-01  0.20144178713E-01  0.96888075583E-01  0.13366466856E+00  0.20352079192E-01 0.  0.
         14    1    1    2    0    0  0.22114649148E-01  0.22595011648E-02 -0.49925435424E-02  0.22783514731E-01  0.00000000000E+00 0. -1.
     999901    1    3    3    0    0  0.65400774458E-01 -0.22403679878E-01 -0.91895532040E-01  0.88748181670E+00  0.88000000000E+00 0. -1.
        -11    1    4    4    0    0 -0.70500334260E-01  0.11948078989E-01  0.65188165102E-01  0.96761623140E-01  0.51100000000E-03 0.  1.
         11    1    4    4    0    0 -0.17015089346E-01  0.81960997234E-02  0.31699910481E-01  0.36903045425E-01  0.51100000000E-03 0. -1.
</event>
<event>
 8    1  0.1213322E+005  0.1043930E+01  0.7957747E-01            NaN
         13   -1    0    0    0    0  0.00000000000E+00  0.00000000000E+00  0.74505805969E-08  0.10566000000E+00  0.10566000000E+00 0.  1.
     999900   -1    0    0    0    0 -0.00000000000E+00 -0.00000000000E+00 -0.74505805969E-08  0.93827000000E+00  0.93827000000E+00 0. -1.
     999902    2    1    2    0    0  0.20555945888E-01 -0.71107426605E-02 -0.98416163182E-02  0.10200560187E+01  0.10197766002E+01 0.  0.
     999903    2    3    3    0    0 -0.51321628253E-01 -0.22811681906E-01 -0.11621993836E+00  0.13060154960E+00  0.19884876843E-01 0.  0.
         14    1    1    2    0    0 -0.20555945888E-01  0.71107426605E-02  0.98416163182E-02  0.23873981325E-01  0.00000000000E+00 0.  1.
     999901    1    3    3    0    0  0.71877574142E-01  0.15700939245E-01  0.10637832204E+00  0.88945446908E+00  0.88000000000E+00 0.  1.
        -11    1    4    4    0    0 -0.33479638377E-01 -0.18643584120E-01 -0.57614029501E-01  0.69196148238E-01  0.51100000000E-03 0.  1.
         11    1    4    4    0    0 -0.17841989876E-01 -0.41680977855E-02 -0.58605908861E-01  0.61405401361E-01  0.51100000000E-03 0. -1.
</event>
<event>
 8    1  0.1213322E+005  0.1043930E+01  0.7957747E-01            NaN
         13   -1    0    0    0    0  0.00000000000E+00  0.00000000000E+00  0.74505805969E-08  0.10566000000E+00  0.10566000000E+00 0. -1.
     999900   -1    0    0    0    0 -0.00000000000E+00 -0.00000000000E+00 -0.74505805969E-08  0.93827000000E+00  0.93827000000E+00 0.  1.
     999902    2    1    2    0    0  0.22032791282E-01  0.57251814045E-02 -0.57701685860E-02  0.10204456129E+01  0.10201753439E+01 0.  0.
     999903    2    3    3    0    0  0.60734003336E-01 -0.10625201203E+00  0.42696112716E-01  0.13118431488E+00  0.20205375725E-01 0.  0.
         14    1    1    2    0    0 -0.22032791282E-01 -0.57251814045E-02  0.57701685860E-02  0.23484387139E-01  0.00000000000E+00 0. -1.
     999901    1    3    3    0    0 -0.38701212054E-01  0.11197719343E+00 -0.48466281302E-01  0.88926129798E+00  0.88000000000E+00 0. -1.
        -11    1    4    4    0    0  0.31562369987E-01 -0.56455528397E-01  0.11897188523E-01  0.65766359954E-01  0.51100000000E-03 0. -1.
         11    1    4    4    0    0  0.29171633349E-01 -0.49796483631E-01  0.30798924194E-01  0.65417954926E-01  0.51100000000E-03 0.  1.
</event>
<event>
 8    1  0.1213322E+005  0.1043930E+01  0.7957747E-01            NaN
         13   -1    0    0    0    0  0.00000000000E+00  0.00000000000E+00  0.74505805969E-08  0.10566000000E+00  0.10566000000E+00 0. -1.
     999900   -1    0    0    0    0 -0.00000000000E+00 -0.00000000000E+00 -0.74505805969E-08  0.93827000000E+00  0.93827000000E+00 0.  1.
     999902    2    1    2    0    0 -0.60480186166E-02 -0.17415814140E-01  0.15012926938E-01  0.10201544435E+01  0.10198773512E+01 0.  0.
     999903    2    3    3    0    0 -0.74803531314E-02 -0.13057899545E+00  0.12040628860E-01  0.13290206017E+00  0.20276861645E-01 0.  0.
         14    1    1    2    0    0  0.60480186166E-02  0.17415814140E-01 -0.15012926938E-01  0.23775556494E-01  0.00000000000E+00 0.  1.
     999901    1    3    3    0    0  0.14323345148E-02  0.11316318131E+00  0.29722980787E-02  0.88725238334E+00  0.88000000000E+00 0.  1.
        -11    1    4    4    0    0  0.67885045896E-02 -0.43602394223E-01  0.17857087214E-02  0.44166757332E-01  0.51100000000E-03 0. -1.
         11    1    4    4    0    0 -0.14268857721E-01 -0.86976601224E-01  0.10254920138E-01  0.88735302835E-01  0.51100000000E-03 0.  1.
</event>
<event>
 8    1  0.1213322E+005  0.1043930E+01  0.7957747E-01            NaN
         13   -1    0    0    0    0  0.00000000000E+00  0.00000000000E+00  0.74505805969E-08  0.10566000000E+00  0.10566000000E+00 0.  1.
     999900   -1    0    0    0    0 -0.00000000000E+00 -0.00000000000E+00 -0.74505805969E-08  0.93827000000E+00  0.93827000000E+00 0. -1.
     999902    2    1    2    0    0 -0.98444730674E-02 -0.12638768426E-01  0.18640497266E-01  0.10193511421E+01  0.10190547731E+01 0.  0.
     999903    2    3    3    0    0 -0.45863805048E-01 -0.12153227619E+00  0.11613277430E-01  0.13188025800E+00  0.19594679612E-01 0.  0.
         14    1    1    2    0    0  0.98444730674E-02  0.12638768426E-01 -0.18640497266E-01  0.24578857899E-01  0.00000000000E+00 0. -1.
     999901    1    3    3    0    0  0.36019331981E-01  0.10889350776E+00  0.70272198363E-02  0.88747088410E+00  0.88000000000E+00 0.  1.
        -11    1    4    4    0    0 -0.28331660999E-01 -0.77354577816E-01 -0.21046827482E-02  0.82408158179E-01  0.51100000000E-03 0. -1.
         11    1    4    4    0    0 -0.17532144050E-01 -0.44177698370E-01  0.13717960178E-01  0.49472099821E-01  0.51100000000E-03 0.  1.
</event>
<event>
 8    1  0.1213322E+005  0.1043930E+01  0.7957747E-01            NaN
         13   -1    0    0    0    0  0.00000000000E+00  0.00000000000E+00  0.74505805969E-08  0.10566000000E+00  0.10566000000E+00 0. -1.
     999900   -1    0    0    0    0 -0.00000000000E+00 -0.00000000000E+00 -0.74505805969E-08  0.93827000000E+00  0.93827000000E+00 0. -1.
     999902    2    1    2    0    0  0.44891060367E-03  0.21213434616E-01  0.10145165403E-01  0.10204111627E+01  0.10201400909E+01 0.  0.
     999903    2    3    3    0    0 -0.84695712392E-01 -0.75637226249E-01 -0.56681638906E-01  0.12850563004E+00  0.20162714872E-01 0.  0.
         14    1    1    2    0    0 -0.44891060367E-03 -0.21213434616E-01 -0.10145165403E-01  0.23518837344E-01  0.00000000000E+00 0.  1.
     999901    1    3    3    0    0  0.85144622995E-01  0.96850660865E-01  0.66826804310E-01  0.89190553261E+00  0.88000000000E+00 0.  1.
        -11    1    4    4    0    0 -0.80696055813E-01 -0.63976417778E-01 -0.51140606077E-01  0.11498025120E+00  0.51100000000E-03 0.  1.
         11    1    4    4    0    0 -0.39996565791E-02 -0.11660808471E-01 -0.55410328290E-02  0.13525378840E-01  0.51100000000E-03 0. -1.
</event>
<event>
 8    1  0.1213322E+005  0.1043930E+01  0.7957747E-01            NaN
         13   -1    0    0    0    0  0.00000000000E+00  0.00000000000E+00  0.74505805969E-08  0.10566000000E+00  0.10566000000E+00 0. -1.
     999900   -1    0    0    0    0 -0.00000000000E+00 -0.00000000000E+00 -0.74505805969E-08  0.93827000000E+00  0.93827000000E+00 0. -1.
     999902    2    1    2    0    0 -0.16771130361E-01  0.16384106801E-01  0.47024936871E-04  0.10204840626E+01  0.10202146882E+01 0.  0.
     999903    2    3    3    0    0 -0.10479719519E+00  0.80040738543E-01  0.10303486727E-01  0.13374512139E+00  0.19814734661E-01 0.  0.
         14    1    1    2    0    0  0.16771130361E-01 -0.16384106801E-01 -0.47024936871E-04  0.23445937401E-01  0.00000000000E+00 0. -1.
     999901    1    3    3    0    0  0.88026064830E-01 -0.63656631741E-01 -0.10256461791E-01  0.88673894121E+00  0.88000000000E+00 0.  1.
        -11    1    4    4    0    0 -0.85056472559E-01  0.73591826655E-01  0.68215361919E-02  0.11268165313E+00  0.51100000000E-03 0.  1.
         11    1    4    4    0    0 -0.19740722632E-01  0.64489118879E-02  0.34819505356E-02  0.21063468259E-01  0.51100000000E-03 0. -1.
</event>
<event>
 8    1  0.1213322E+005  0.1043930E+01  0.7957747E-01            NaN
         13   -1    0    0    0    0  0.00000000000E+00  0.00000000000E+00  0.74505805969E-08  0.10566000000E+00  0.10566000000E+00 0.  1.
     999900   -1    0    0    0    0 -0.00000000000E+00 -0.00000000000E+00 -0.74505805969E-08  0.93827000000E+00  0.93827000000E+00 0.  1.
     999902    2    1    2    0    0  0.94095563502E-02  0.16015096017E-01 -0.14567921060E-01  0.10203239123E+01  0.10200508020E+01 0.  0.
     999903    2    3    3    0    0  0.37947332426E-01  0.11802272838E+00 -0.44868360922E-01  0.13345409190E+00  0.20675115029E-01 0.  0.
         14    1    1    2    0    0 -0.94095563502E-02 -0.16015096017E-01  0.14567921060E-01  0.23606087671E-01  0.00000000000E+00 0.  1.
     999901    1    3    3    0    0 -0.28537776075E-01 -0.10200763236E+00  0.30300439862E-01  0.88686982042E+00  0.88000000000E+00 0.  1.
        -11    1    4    4    0    0  0.34024329949E-01  0.85044601943E-01 -0.39728631654E-01  0.99844201846E-01  0.51100000000E-03 0. -1.
         11    1    4    4    0    0  0.39230024767E-02  0.32978126438E-01 -0.51397292678E-02  0.33609890059E-01  0.51100000000E-03 0.  1.
</event>
<event>
 8    1  0.1213322E+005  0.1043930E+01  0.7957747E-01            NaN
         13   -1    0    0    0    0  0.00000000000E+00  0.00000000000E+00  0.74505805969E-08  0.10566000000E+00  0.10566000000E+00 0.  1.
     999900   -1    0    0    0    0 -0.00000000000E+00 -0.00000000000E+00 -0.74505805969E-08  0.93827000000E+00  0.93827000000E+00 0.  1.
     999902    2    1    2    0    0 -0.12573728565E-01  0.20594850301E-02  0.21697381925E-01  0.10187681934E+01  0.10184574195E+01 0.  0.
     999903    2    3    3    0    0 -0.82293127730E-01 -0.75053757207E-01 -0.61471467242E-01  0.12875453946E+00  0.19843507837E-01 0.  0.
         14    1    1    2    0    0  0.12573728565E-01 -0.20594850301E-02 -0.21697381925E-01  0.25161806592E-01  0.00000000000E+00 0. -1.
     999901    1    3    3    0    0  0.69719399165E-01  0.77113242237E-01  0.83168849167E-01  0.89001365395E+00  0.88000000000E+00 0.  1.
        -11    1    4    4    0    0 -0.42370008846E-01 -0.50766528883E-01 -0.31588748353E-01  0.73284160963E-01  0.51100000000E-03 0. -1.
         11    1    4    4    0    0 -0.39923118883E-01 -0.24287228324E-01 -0.29882718889E-01  0.55470378494E-01  0.51100000000E-03 0.  1.
</event>
<event>
 8    1  0.1213322E+005  0.1043930E+01  0.7957747E-01            NaN
         13   -1    0    0    0    0  0.00000000000E+00  0.00000000000E+00  0.74505805969E-08  0.10566000000E+00  0.10566000000E+00 0.  1.
     999900   -1    0    0    0    0 -0.00000000000E+00 -0.00000000000E+00 -0.74505805969E-08  0.93827000000E+00  0.93827000000E+00 0. -1.
     999902    2    1    2    0    0 -0.10234451085E-01  0.83929666513E-02 -0.18922276288E-01  0.10208380443E+01  0.10205768341E+01 0.  0.
     999903    2    3    3    0    0  0.97995793941E-01  0.68104547021E-02 -0.85478461132E-01  0.13171149761E+00  0.19793770793E-01 0.  0.
         14    1    1    2    0    0  0.10234451085E-01 -0.83929666513E-02  0.18922276288E-01  0.23091955702E-01  0.00000000000E+00 0.  1.
     999901    1    3    3    0    0 -0.10823024503E+00  0.15825119492E-02  0.66556184844E-01  0.88912654669E+00  0.88000000000E+00 0.  1.
        -11    1    4    4    0    0  0.40866591788E-01  0.10530403491E-01 -0.44317397437E-01  0.61198533958E-01  0.51100000000E-03 0.  1.
         11    1    4    4    0    0  0.57129202153E-01 -0.37199487894E-02 -0.41161063694E-01  0.70512963653E-01  0.51100000000E-03 0. -1.
</event>
<event>
 8    1  0.1213322E+005  0.1043930E+01  0.7957747E-01            NaN
         13   -1    0    0    0    0  0.00000000000E+00  0.00000000000E+00  0.74505805969E-08  0.10566000000E+00  0.10566000000E+00 0. -1.
     999900   -1    0    0    0    0 -0.00000000000E+00 -0.00000000000E+00 -0.74505805969E-08  0.93827000000E+00  0.93827000000E+00 0.  1.
     999902    2    1    2    0    0 -0.55025529784E-02  0.28796364855E-02  0.22957793550E-01  0.10201470086E+01  0.10198697409E+01 0.  0.
     999903    2    3    3    0    0 -0.36608086601E-01  0.10255061736E+00  0.73397243854E-01  0.13254011543E+00  0.17970689102E-01 0.  0.
         14    1    1    2    0    0  0.55025529784E-02 -0.28796364855E-02 -0.22957793550E-01  0.23782991407E-01  0.00000000000E+00 0.  1.
     999901    1    3    3    0    0  0.31105533622E-01 -0.99670980872E-01 -0.50439450304E-01  0.88760689317E+00  0.88000000000E+00 0.  1.
        -11    1    4    4    0    0 -0.70474665054E-02  0.26849899872E-01  0.28086822108E-01  0.39493222259E-01  0.51100000000E-03 0. -1.
         11    1    4    4    0    0 -0.29560620095E-01  0.75700717486E-01  0.45310421747E-01  0.93046893167E-01  0.51100000000E-03 0.  1.
</event>
<event>
 8    1  0.1213322E+005  0.1043930E+01  0.7957747E-01            NaN
         13   -1    0    0    0    0  0.00000000000E+00  0.00000000000E+00  0.74505805969E-08  0.10566000000E+00  0.10566000000E+00 0.  1.
     999900   -1    0    0    0    0 -0.00000000000E+00 -0.00000000000E+00 -0.74505805969E-08  0.93827000000E+00  0.93827000000E+00 0. -1.
     999902    2    1    2    0    0 -0.18396391542E-01  0.82955236176E-02  0.18692280230E-01  0.10164228323E+01  0.10160505547E+01 0.  0.
     999903    2    3    3    0    0  0.66426167048E-01  0.54822100528E-01 -0.88291086132E-01  0.12468013990E+00  0.18218754600E-01 0.  0.
         14    1    1    2    0    0  0.18396391542E-01 -0.82955236176E-02 -0.18692280230E-01  0.27507167685E-01  0.00000000000E+00 0. -1.
     999901    1    3    3    0    0 -0.84822558590E-01 -0.46526576910E-01  0.10698336636E+00  0.89174269242E+00  0.88000000000E+00 0.  1.
        -11    1    4    4    0    0  0.31056963695E-01  0.14327648439E-01 -0.36553273538E-01  0.50062155678E-01  0.51100000000E-03 0.  1.
         11    1    4    4    0    0  0.35369203352E-01  0.40494452089E-01 -0.51737812595E-01  0.74617984219E-01  0.51100000000E-03 0. -1.
</event>
<event>
 8    1  0.1213322E+005  0.1043930E+01  0.7957747E-01            NaN
         13   -1    0    0    0    0  0.00000000000E+00  0.00000000000E+00  0.74505805969E-08  0.10566000000E+00  0.10566000000E+00 0. -1.
     999900   -1    0    0    0    0 -0.00000000000E+00 -0.00000000000E+00 -0.74505805969E-08  0.93827000000E+00  0.93827000000E+00 0. -1.
     999902    2    1    2    0    0 -0.15055879862E-01 -0.10405739512E-01  0.15996455442E-01  0.10196226859E+01  0.10193329074E+01 0.  0.
     999903    2    3    3    0    0  0.34850431944E-01 -0.82993685345E-01 -0.90108688627E-01  0.12888257146E+00  0.19713879508E-01 0.  0.
         14    1    1    2    0    0  0.15055879862E-01  0.10405739512E-01 -0.15996455442E-01  0.24307314124E-01  0.00000000000E+00 0.  1.
     999901    1    3    3    0    0 -0.49906311807E-01  0.72587945833E-01  0.10610514407E+00  0.89074011442E+00  0.88000000000E+00 0.  1.
        -11    1    4    4    0    0  0.15945616947E-01 -0.47871734322E-01 -0.62703671510E-01  0.80485881922E-01  0.51100000000E-03 0. -1.
         11    1    4    4    0    0  0.18904814998E-01 -0.35121951023E-01 -0.27405017116E-01  0.48396689534E-01  0.51100000000E-03 0.  1.
</event>
<event>
 8    1  0.1213322E+005  0.1043930E+01  0.7957747E-01            NaN
         13   -1    0    0    0    0  0.00000000000E+00  0.00000000000E+00  0.74505805969E-08  0.10566000000E+00  0.10566000000E+00 0.  1.
     999900   -1    0    0    0    0 -0.00000000000E+00 -0.00000000000E+00 -0.74505805969E-08  0.93827000000E+00  0.93827000000E+00 0. -1.
     999902    2    1    2    0    0 -0.64500750683E-02 -0.10693035878E-01  0.19437176648E-01  0.10208270062E+01  0.10205655434E+01 0.  0.
     999903    2    3    3    0    0 -0.11749836235E-01 -0.11713186752E+00  0.59663199152E-01  0.13348522021E+00  0.20016833928E-01 0.  0.
         14    1    1    2    0    0  0.64500750683E-02  0.10693035878E-01 -0.19437176648E-01  0.23102993761E-01  0.00000000000E+00 0. -1.
     999901    1    3    3    0    0  0.52997611663E-02  0.10643883164E+00 -0.40226022503E-01  0.88734178603E+00  0.88000000000E+00 0. -1.
        -11    1    4    4    0    0 -0.23548242548E-02 -0.84501560652E-01  0.34904860220E-01  0.91458566235E-01  0.51100000000E-03 0. -1.
         11    1    4    4    0    0 -0.93950119798E-02 -0.32630306869E-01  0.24758338932E-01  0.42026653973E-01  0.51100000000E-03 0.  1.
</event>
<event>
 8    1  0.1213322E+005  0.1043930E+01  0.7957747E-01            NaN
         13   -1    0    0    0    0  0.00000000000E+00  0.00000000000E+00  0.74505805969E-08  0.10566000000E+00  0.10566000000E+00 0. -1.
     999900   -1    0    0    0    0 -0.00000000000E+00 -0.00000000000E+00 -0.74505805969E-08  0.93827000000E+00  0.93827000000E+00 0. -1.
     999902    2    1    2    0    0 -0.54528962432E-02 -0.22472291279E-01  0.54441498319E-02  0.10201733858E+01  0.10198967400E+01 0.  0.
     999903    2    3    3    0    0  0.44951392315E-01 -0.96540855094E-01  0.76716221541E-01  0.13275778264E+00  0.19962109893E-01 0.  0.
         14    1    1    2    0    0  0.54528962432E-02  0.22472291279E-01 -0.54441498319E-02  0.23756614240E-01  0.00000000000E+00 0. -1.
     999901    1    3    3    0    0 -0.50404288558E-01  0.74068563815E-01 -0.71272071709E-01  0.88741560312E+00  0.88000000000E+00 0. -1.
        -11    1    4    4    0    0  0.39002135531E-01 -0.73120715792E-01  0.67522811005E-01  0.10689900271E+00  0.51100000000E-03 0.  1.
         11    1    4    4    0    0  0.59492567841E-02 -0.23420139302E-01  0.91934105360E-02  0.25858779930E-01  0.51100000000E-03 0. -1.
</event>
<event>
 8    1  0.1213322E+005  0.1043930E+01  0.7957747E-01            NaN
         13   -1    0    0    0    0  0.00000000000E+00  0.00000000000E+00  0.74505805969E-08  0.10566000000E+00  0.10566000000E+00 0. -1.
     999900   -1    0    0    0    0 -0.00000000000E+00 -0.00000000000E+00 -0.74505805969E-08  0.93827000000E+00  0.93827000000E+00 0.  1.
     999902    2    1    2    0    0 -0.13869949021E-01  0.11491889751E-01  0.15412511116E-01  0.10202237874E+01  0.10199483281E+01 0.  0.
     999903    2    3    3    0    0 -0.56283614317E-01 -0.10560946385E+00 -0.45433724295E-01  0.12937368197E+00  0.18764919062E-01 0.  0.
         14    1    1    2    0    0  0.13869949021E-01 -0.11491889751E-01 -0.15412511116E-01  0.23706212578E-01  0.00000000000E+00 0.  1.
     999901    1    3    3    0    0  0.42413665296E-01  0.11710135360E+00  0.60846235411E-01  0.89085010545E+00  0.88000000000E+00 0.  1.
        -11    1    4    4    0    0 -0.25419137545E-01 -0.46896810654E-01 -0.30250334345E-01  0.61325257863E-01  0.51100000000E-03 0.  1.
         11    1    4    4    0    0 -0.30864476772E-01 -0.58712653199E-01 -0.15183389950E-01  0.68048424107E-01  0.51100000000E-03 0. -1.
</event>
<event>
 8    1  0.1213322E+005  0.1043930E+01  0.7957747E-01            NaN
         13   -1    0    0    0    0  0.00000000000E+00  0.00000000000E+00  0.74505805969E-08  0.10566000000E+00  0.10566000000E+00 0. -1.
     999900   -1    0    0    0    0 -0.00000000000E+00 -0.00000000000E+00 -0.74505805969E-08  0.93827000000E+00  0.93827000000E+00 0. -1.
     999902    2    1    2    0    0  0.12385418041E-01 -0.61601952267E-02  0.22805589916E-01  0.10172571389E+01  0.10169073926E+01 0.  0.
     999903    2    3    3    0    0  0.51309341039E-01  0.11336423124E+00  0.24384359754E-01  0.12832314094E+00  0.19701119179E-01 0.  0.
         14    1    1    2    0    0 -0.12385418041E-01  0.61601952267E-02 -0.22805589916E-01  0.26672861052E-01  0.00000000000E+00 0.  1.
     999901    1    3    3    0    0 -0.38923922998E-01 -0.11952442647E+00 -0.15787698381E-02  0.88893399801E+00  0.88000000000E+00 0.  1.
        -11    1    4    4    0    0  0.12281186373E-01  0.49904944400E-01  0.12297030037E-01  0.52847034761E-01  0.51100000000E-03 0.  1.
         11    1    4    4    0    0  0.39028154666E-01  0.63459286841E-01  0.12087329717E-01  0.75476106177E-01  0.51100000000E-03 0. -1.
</event>
<event>
 8    1  0.1213322E+005  0.1043930E+01  0.7957747E-01            NaN
         13   -1    0    0    0    0  0.00000000000E+00  0.00000000000E+00  0.74505805969E-08  0.10566000000E+00  0.10566000000E+00 0. -1.
     999900   -1    0    0    0    0 -0.00000000000E+00 -0.00000000000E+00 -0.74505805969E-08  0.93827000000E+00  0.93827000000E+00 0. -1.
     999902    2    1    2    0    0  0.11183504228E-01  0.52825968675E-02  0.20741397998E-01  0.10197808346E+01  0.10194948595E+01 0.  0.
     999903    2    3    3    0    0  0.66091033773E-01  0.18719641476E-01 -0.10701434817E+00  0.12876067682E+00  0.20218591917E-01 0.  0.
         14    1    1    2    0    0 -0.11183504228E-01 -0.52825968675E-02 -0.20741397998E-01  0.24149165355E-01  0.00000000000E+00 0.  1.
     999901    1    3    3    0    0 -0.54907529546E-01 -0.13437044609E-01  0.12775574617E+00  0.89102015782E+00  0.88000000000E+00 0.  1.
        -11    1    4    4    0    0  0.26784216877E-01  0.17027105555E-01 -0.55536002934E-01  0.63967377155E-01  0.51100000000E-03 0. -1.
         11    1    4    4    0    0  0.39306816897E-01  0.16925359212E-02 -0.51478345236E-01  0.64793299666E-01  0.51100000000E-03 0.  1.
</event>
<event>
 8    1  0.1213322E+005  0.1043930E+01  0.7957747E-01            NaN
         13   -1    0    0    0    0  0.00000000000E+00  0.00000000000E+00  0.74505805969E-08  0.10566000000E+00  0.10566000000E+00 0. -1.
     999900   -1    0    0    0    0 -0.00000000000E+00 -0.00000000000E+00 -0.74505805969E-08  0.93827000000E+00  0.93827000000E+00 0. -1.
     999902    2    1    2    0    0  0.10489521121E-01 -0.16219422583E-01  0.12447910003E-01  0.10209506574E+01  0.10206920175E+01 0.  0.
     999903    2    3    3    0    0  0.11560304293E+00  0.38463041485E-01  0.47100752518E-01  0.13233384245E+00  0.21220176097E-01 0.  0.
         14    1    1    2    0    0 -0.10489521121E-01  0.16219422583E-01 -0.12447910003E-01  0.22979342587E-01  0.00000000000E+00 0. -1.
     999901    1    3    3    0    0 -0.10511352181E+00 -0.54682464068E-01 -0.34652842514E-01  0.88861681497E+00  0.88000000000E+00 0.  1.
        -11    1    4    4    0    0  0.58166825548E-01  0.25614318741E-01  0.33817381918E-01  0.71995481522E-01  0.51100000000E-03 0. -1.
         11    1    4    4    0    0  0.57436217385E-01  0.12848722744E-01  0.13283370600E-01  0.60338360925E-01  0.51100000000E-03 0.  1.
</event>
<event>
 8    1  0.1213322E+005  0.1043930E+01  0.7957747E-01            NaN
         13   -1    0    0    0    0  0.00000000000E+00  0.00000000000E+00  0.74505805969E-08  0.10566000000E+00  0.10566000000E+00 0. -1.
     999900   -1    0    0    0    0 -0.00000000000E+00 -0.00000000000E+00 -0.74505805969E-08  0.93827000000E+00  0.93827000000E+00 0. -1.
     999902    2    1    2    0    0 -0.22293497820E-01 -0.50316597303E-02  0.23498950349E-02  0.10209552388E+01  0.10206967032E+01 0.  0.
     999903    2    3    3    0    0 -0.35575424474E-01 -0.11662213643E+00 -0.48166630642E-01  0.13237166738E+00  0.18327588126E-01 0.  0.
         14    1    1    2    0    0  0.22293497820E-01  0.50316597303E-02 -0.23498950349E-02  0.22974761182E-01  0.00000000000E+00 0. -1.
     999901    1    3    3    0    0  0.13281926654E-01  0.11159047670E+00  0.50516525676E-01  0.88858357144E+00  0.88000000000E+00 0.  1.
        -11    1    4    4    0    0 -0.23807587472E-01 -0.50743643091E-01 -0.17213344297E-01  0.58636838918E-01  0.51100000000E-03 0. -1.
         11    1    4    4    0    0 -0.11767837001E-01 -0.65878493335E-01 -0.30953286345E-01  0.73734828462E-01  0.51100000000E-03 0.  1.
</event>
<event>
 8    1  0.1213322E+005  0.1043930E+01  0.7957747E-01            NaN
         13   -1    0    0    0    0  0.00000000000E+00  0.00000000000E+00  0.74505805969E-08  0.10566000000E+00  0.10566000000E+00 0.  1.
     999900   -1    0    0    0    0 -0.00000000000E+00 -0.00000000000E+00 -0.74505805969E-08  0.93827000000E+00  0.93827000000E+00 0. -1.
     999902    2    1    2    0    0  0.50276013592E-02 -0.22060788573E-01  0.12181300155E-01  0.10182329332E+01  0.10179086241E+01 0.  0.
     999903    2    3    3    0    0  0.95120929123E-01 -0.45054810095E-01 -0.72658270215E-01  0.12927664327E+00  0.18849381804E-01 0.  0.
         14    1    1    2    0    0 -0.50276013592E-02  0.22060788573E-01 -0.12181300155E-01  0.25697066785E-01  0.00000000000E+00 0.  1.
     999901    1    3    3    0    0 -0.90093327764E-01  0.22994021521E-01  0.84839570370E-01  0.88895628995E+00  0.88000000000E+00 0.  1.
        -11    1    4    4    0    0  0.51017311829E-01 -0.32270421269E-01 -0.48179777247E-01  0.77237932725E-01  0.51100000000E-03 0. -1.
         11    1    4    4    0    0  0.44103617294E-01 -0.12784388826E-01 -0.24478492969E-01  0.52038710544E-01  0.51100000000E-03 0.  1.
</event>
<event>
 8    1  0.1213322E+005  0.1043930E+01  0.7957747E-01            NaN
         13   -1    0    0    0    0  0.00000000000E+00  0.00000000000E+00  0.74505805969E-08  0.10566000000E+00  0.10566000000E+00 0. -1.
     999900   -1    0    0    0    0 -0.00000000000E+00 -0.00000000000E+00 -0.74505805969E-08  0.93827000000E+00  0.93827000000E+00 0. -1.
     999902    2    1    2    0    0  0.10628146275E-01  0.20765687358E-01 -0.37746096703E-03  0.10205994676E+01  0.10203327690E+01 0.  0.
     999903    2    3    3    0    0  0.50327211326E-01  0.18851680935E-01 -0.11966680075E+00  0.13166210999E+00  0.11249619207E-01 0.  0.
         14    1    1    2    0    0 -0.10628146275E-01 -0.20765687358E-01  0.37746096703E-03  0.23330532388E-01  0.00000000000E+00 0.  1.
     999901    1    3    3    0    0 -0.39699065051E-01  0.19140064230E-02  0.11928933978E+00  0.88893735762E+00  0.88000000000E+00 0.  1.
        -11    1    4    4    0    0  0.21183236185E-01  0.59517204113E-02 -0.61719488066E-01  0.65526397728E-01  0.51100000000E-03 0.  1.
         11    1    4    4    0    0  0.29143975141E-01  0.12899960524E-01 -0.57947312683E-01  0.66135712265E-01  0.51100000000E-03 0. -1.
</event>
<event>
 8    1  0.1213322E+005  0.1043930E+01  0.7957747E-01            NaN
         13   -1    0    0    0    0  0.00000000000E+00  0.00000000000E+00  0.74505805969E-08  0.10566000000E+00  0.10566000000E+00 0. -1.
     999900   -1    0    0    0    0 -0.00000000000E+00 -0.00000000000E+00 -0.74505805969E-08  0.93827000000E+00  0.93827000000E+00 0. -1.
     999902    2    1    2    0    0 -0.22339920909E-01  0.12090659793E-01  0.30932298821E-02  0.10183404671E+01  0.10180189010E+01 0.  0.
     999903    2    3    3    0    0  0.76085945452E-01 -0.77250445794E-01  0.61683783508E-01  0.12643108986E+00  0.20572526954E-01 0.  0.
         14    1    1    2    0    0  0.22339920909E-01 -0.12090659793E-01 -0.30932298821E-02  0.25589532851E-01  0.00000000000E+00 0. -1.
     999901    1    3    3    0    0 -0.98425866361E-01  0.89341105587E-01 -0.58590553626E-01  0.89190937729E+00  0.88000000000E+00 0. -1.
        -11    1    4    4    0    0  0.18618464831E-01 -0.89534990018E-02  0.73433503130E-02  0.21931673257E-01  0.51100000000E-03 0. -1.
         11    1    4    4    0    0  0.57467480621E-01 -0.68296946792E-01  0.54340433195E-01  0.10449941661E+00  0.51100000000E-03 0.  1.
</event>
<event>
 8    1  0.1213322E+005  0.1043930E+01  0.7957747E-01            NaN
         13   -1    0    0    0    0  0.00000000000E+00  0.00000000000E+00  0.74505805969E-08  0.10566000000E+00  0.10566000000E+00 0.  1.
     999900   -1    0    0    0    0 -0.00000000000E+00 -0.00000000000E+00 -0.74505805969E-08  0.93827000000E+00  0.93827000000E+00 0. -1.
     999902    2    1    2    0    0  0.17724140021E-01 -0.30140247094E-02  0.12235426310E-01  0.10221829280E+01  0.10219515659E+01 0.  0.
     999903    2    3    3    0    0 -0.46043302783E-01  0.83707317497E-01 -0.86161710162E-01  0.13018019569E+00  0.19903324271E-01 0.  0.
         14    1    1    2    0    0 -0.17724140021E-01  0.30140247094E-02 -0.12235426310E-01  0.21747072019E-01  0.00000000000E+00 0. -1.
     999901    1    3    3    0    0  0.63767442804E-01 -0.86721342207E-01  0.98397136471E-01  0.89200273229E+00  0.88000000000E+00 0.  1.
        -11    1    4    4    0    0 -0.11026130467E-01  0.29194299236E-01 -0.17536874004E-01  0.35800638707E-01  0.51100000000E-03 0.  1.
         11    1    4    4    0    0 -0.35017172316E-01  0.54513018261E-01 -0.68624836157E-01  0.94379556979E-01  0.51100000000E-03 0. -1.
</event>
<event>
 8    1  0.1213322E+005  0.1043930E+01  0.7957747E-01            NaN
         13   -1    0    0    0    0  0.00000000000E+00  0.00000000000E+00  0.74505805969E-08  0.10566000000E+00  0.10566000000E+00 0. -1.
     999900   -1    0    0    0    0 -0.00000000000E+00 -0.00000000000E+00 -0.74505805969E-08  0.93827000000E+00  0.93827000000E+00 0.  1.
     999902    2    1    2    0    0  0.83177132671E-02 -0.87555296903E-02  0.19965661217E-01  0.10205960916E+01  0.10203293149E+01 0.  0.
     999903    2    3    3    0    0 -0.55488024968E-01  0.56582011460E-01 -0.99323309165E-01  0.12786431497E+00  0.14272994234E-01 0.  0.
         14    1    1    2    0    0 -0.83177132671E-02  0.87555296903E-02 -0.19965661217E-01  0.23333908417E-01  0.00000000000E+00 0.  1.
     999901    1    3    3    0    0  0.63805738235E-01 -0.65337541150E-01  0.11928897038E+00  0.89273177661E+00  0.88000000000E+00 0. -1.
        -11    1    4    4    0    0 -0.13282278154E-01  0.61026583391E-02 -0.20565556075E-01  0.25236175809E-01  0.51100000000E-03 0.  1.
         11    1    4    4    0    0 -0.42205746814E-01  0.50479353121E-01 -0.78757753089E-01  0.10262813916E+00  0.51100000000E-03 0. -1.
</event>
<event>
 8    1  0.1213322E+005  0.1043930E+01  0.7957747E-01            NaN
         13   -1    0    0    0    0  0.00000000000E+00  0.00000000000E+00  0.74505805969E-08  0.10566000000E+00  0.10566000000E+00 0.  1.
     999900   -1    0    0    0    0 -0.00000000000E+00 -0.00000000000E+00 -0.74505805969E-08  0.93827000000E+00  0.93827000000E+00 0.  1.
     999902    2    1    2    0    0 -0.73887593032E-02  0.22308947980E-01 -0.73070797339E-02  0.10193195076E+01  0.10190223659E+01 0.  0.
     999903    2    3    3    0    0 -0.12653279359E+00 -0.23603341056E-01 -0.67617933478E-02  0.13010438368E+00  0.17713363359E-01 0.  0.
         14    1    1    2    0    0  0.73887593032E-02 -0.22308947980E-01  0.73070797339E-02  0.24610492443E-01  0.00000000000E+00 0.  1.
     999901    1    3    3    0    0  0.11914403429E+00  0.45912289036E-01 -0.54528638614E-03  0.88921512387E+00  0.88000000000E+00 0.  1.
        -11    1    4    4    0    0 -0.20226329624E-01 -0.10338636270E-01  0.49767795925E-03  0.22726649870E-01  0.51100000000E-03 0.  1.
         11    1    4    4    0    0 -0.10630646397E+00 -0.13264704786E-01 -0.72594713071E-02  0.10737773381E+00  0.51100000000E-03 0. -1.
</event>
<event>
 8    1  0.1213322E+005  0.1043930E+01  0.7957747E-01            NaN
         13   -1    0    0    0    0  0.00000000000E+00  0.00000000000E+00  0.74505805969E-08  0.10566000000E+00  0.10566000000E+00 0. -1.
     999900   -1    0    0    0    0 -0.00000000000E+00 -0.00000000000E+00 -0.74505805969E-08  0.93827000000E+00  0.93827000000E+00 0.  1.
     999902    2    1    2    0    0  0.22087123482E-01  0.23292233606E-02 -0.73652497244E-02  0.10205309998E+01  0.10202627154E+01 0.  0.
     999903    2    3    3    0    0 -0.10850383778E+00 -0.13970578887E-01 -0.65247353661E-01  0.12886401005E+00  0.19505282367E-01 0.  0.
         14    1    1    2    0    0 -0.22087123482E-01 -0.23292233606E-02  0.73652497244E-02  0.23399000164E-01  0.00000000000E+00 0. -1.
     999901    1    3    3    0    0  0.13059096126E+00  0.16299802248E-01  0.57882103937E-01  0.89166698978E+00  0.88000000000E+00 0.  1.
        -11    1    4    4    0    0 -0.95460674292E-01 -0.12827272600E-01 -0.64124225755E-01  0.11571281998E+00  0.51100000000E-03 0.  1.
         11    1    4    4    0    0 -0.13043163483E-01 -0.11433062874E-02 -0.11231279059E-02  0.13151190068E-01  0.51100000000E-03 0. -1.
</event>
<event>
 8    1  0.1213322E+005  0.1043930E+01  0.7957747E-01            NaN
         13   -1    0    0    0    0  0.00000000000E+00  0.00000000000E+00  0.74505805969E-08  0.10566000000E+00  0.10566000000E+00 0.  1.
     999900   -1    0    0    0    0 -0.00000000000E+00 -0.00000000000E+00 -0.74505805969E-08  0.93827000000E+00  0.93827000000E+00 0. -1.
     999902    2    1    2    0    0  0.22205172991E-01  0.56437706989E-02 -0.29129682114E-02  0.10208343892E+01  0.10205730953E+01 0.  0.
     999903    2    3    3    0    0  0.25998278773E-01 -0.64137568154E-01 -0.11006192437E+00  0.13158486193E+00  0.20283257773E-01 0.  0.
         14    1    1    2    0    0 -0.22205172991E-01 -0.56437706989E-02  0.29129682114E-02  0.23095610818E-01  0.00000000000E+00 0. -1.
     999901    1    3    3    0    0 -0.37931057812E-02  0.69781338853E-01  0.10714895616E+00  0.88924952725E+00  0.88000000000E+00 0.  1.
        -11    1    4    4    0    0  0.56557388642E-02 -0.30650750337E-01 -0.63424961521E-01  0.70671371454E-01  0.51100000000E-03 0. -1.
         11    1    4    4    0    0  0.20342539908E-01 -0.33486817817E-01 -0.46636962852E-01  0.60913490480E-01  0.51100000000E-03 0.  1.
</event>
<event>
 8    1  0.1213322E+005  0.1043930E+01  0.7957747E-01            NaN
         13   -1    0    0    0    0  0.00000000000E+00  0.00000000000E+00  0.74505805969E-08  0.10566000000E+00  0.10566000000E+00 0.  1.
     999900   -1    0    0    0    0 -0.00000000000E+00 -0.00000000000E+00 -0.74505805969E-08  0.93827000000E+00  0.93827000000E+00 0.  1.
     999902    2    1    2    0    0 -0.10599401034E-01  0.10445428013E-01  0.18310696011E-01  0.10203347493E+01  0.10200618926E+01 0.  0.
     999903    2    3    3    0    0 -0.44764789580E-01 -0.97779611196E-01 -0.68082503061E-01  0.12885075181E+00  0.20063655355E-01 0.  0.
         14    1    1    2    0    0  0.10599401034E-01 -0.10445428013E-01 -0.18310696011E-01  0.23595250731E-01  0.00000000000E+00 0. -1.
     999901    1    3    3    0    0  0.34165388546E-01  0.10822503921E+00  0.86393199072E-01  0.89148399746E+00  0.88000000000E+00 0.  1.
        -11    1    4    4    0    0 -0.41111772327E-01 -0.77904974288E-01 -0.62073658843E-01  0.10776253099E+00  0.51100000000E-03 0. -1.
         11    1    4    4    0    0 -0.36530172530E-02 -0.19874636908E-01 -0.60088442185E-02  0.21088220815E-01  0.51100000000E-03 0.  1.
</event>
<event>
 8    1  0.1213322E+005  0.1043930E+01  0.7957747E-01            NaN
         13   -1    0    0    0    0  0.00000000000E+00  0.00000000000E+00  0.74505805969E-08  0.10566000000E+00  0.10566000000E+00 0.  1.
     999900   -1    0    0    0    0 -0.00000000000E+00 -0.00000000000E+00 -0.74505805969E-08  0.93827000000E+00  0.93827000000E+00 0. -1.
     999902    2    1    2    0    0  0.19570112505E-01 -0.51997371965E-02 -0.11396620776E-01  0.10206940465E+01  0.10204295306E+01 0.  0.
     999903    2    3    3    0    0 -0.10524938769E-01  0.67887189642E-01 -0.11054997150E+00  0.13160530067E+00  0.19473420631E-01 0.  0.
         14    1    1    2    0    0 -0.19570112505E-01  0.51997371965E-02  0.11396620776E-01  0.23235953509E-01  0.00000000000E+00 0. -1.
     999901    1    3    3    0    0  0.30095051274E-01 -0.73086926838E-01  0.99153350728E-01  0.88908874582E+00  0.88000000000E+00 0.  1.
        -11    1    4    4    0    0 -0.28707463002E-02  0.25447766264E-01 -0.24963168749E-01  0.35766617217E-01  0.51100000000E-03 0. -1.
         11    1    4    4    0    0 -0.76541924689E-02  0.42439423378E-01 -0.85586802756E-01  0.95838683453E-01  0.51100000000E-03 0.  1.
</event>
<event>
 8    1  0.1213322E+005  0.1043930E+01  0.7957747E-01            NaN
         13   -1    0    0    0    0  0.00000000000E+00  0.00000000000E+00  0.74505805969E-08  0.10566000000E+00  0.10566000000E+00 0. -1.
     999900   -1    0    0    0    0 -0.00000000000E+00 -0.00000000000E+00 -0.74505805969E-08  0.93827000000E+00  0.93827000000E+00 0. -1.
     999902    2    1    2    0    0  0.11799111407E-01 -0.46829983931E-02 -0.19849089045E-01  0.10203686792E+01  0.10200966158E+01 0.  0.
     999903    2    3    3    0    0  0.32109192571E-01  0.10755480590E-01 -0.12746940726E+00  0.13344535726E+00  0.20310907822E-01 0.  0.
         14    1    1    2    0    0 -0.11799111407E-01  0.46829983931E-02  0.19849089045E-01  0.23561320843E-01  0.00000000000E+00 0. -1.
     999901    1    3    3    0    0 -0.20310081164E-01 -0.15438478984E-01  0.10762031822E+00  0.88692332190E+00  0.88000000000E+00 0.  1.
        -11    1    4    4    0    0  0.34747925920E-02 -0.43102266651E-02 -0.35861361635E-01  0.36289814229E-01  0.51100000000E-03 0.  1.
         11    1    4    4    0    0  0.28634399979E-01  0.15065707256E-01 -0.91608045627E-01  0.97155543032E-01  0.51100000000E-03 0. -1.
</event>
<event>
 8    1  0.1213322E+005  0.1043930E+01  0.7957747E-01            NaN
         13   -1    0    0    0    0  0.00000000000E+00  0.00000000000E+00  0.74505805969E-08  0.10566000000E+00  0.10566000000E+00 0. -1.
     999900   -1    0    0    0    0 -0.00000000000E+00 -0.00000000000E+00 -0.74505805969E-08  0.93827000000E+00  0.93827000000E+00 0.  1.
     999902    2    1    2    0    0 -0.17661550502E-02  0.17024508269E-01  0.90077663556E-02  0.10245885150E+01  0.10244059411E+01 0.  0.
     999903    2    3    3    0    0  0.35062313617E-02  0.11730136595E+00 -0.65412182796E-01  0.13575693647E+00  0.19475318493E-01 0.  0.
         14    1    1    2    0    0  0.17661550502E-02 -0.17024508269E-01 -0.90077663556E-02  0.19341484953E-01  0.00000000000E+00 0.  1.
     999901    1    3    3    0    0 -0.52723864118E-02 -0.10027685768E+00  0.74419949151E-01  0.88883157858E+00  0.88000000000E+00 0. -1.
        -11    1    4    4    0    0  0.14541809146E-02  0.11479687662E+00 -0.60287871998E-01  0.12967392242E+00  0.51100000000E-03 0.  1.
         11    1    4    4    0    0  0.20520504471E-02  0.25044893266E-02 -0.51243107981E-02  0.60830140539E-02  0.51100000000E-03 0. -1.
</event>
<event>
 8    1  0.1213322E+005  0.1043930E+01  0.7957747E-01            NaN
         13   -1    0    0    0    0  0.00000000000E+00  0.00000000000E+00  0.74505805969E-08  0.10566000000E+00  0.10566000000E+00 0.  1.
     999900   -1    0    0    0    0 -0.00000000000E+00 -0.00000000000E+00 -0.74505805969E-08  0.93827000000E+00  0.93827000000E+00 0. -1.
     999902    2    1    2    0    0 -0.83403567811E-02  0.19396636636E-01  0.13479423490E-01  0.10188803309E+01  0.10185723552E+01 0.  0.
     999903    2    3    3    0    0  0.51213060593E-03  0.76023842699E-01 -0.10277174490E+00  0.12938646294E+00  0.19973440022E-01 0.  0.
         14    1    1    2    0    0  0.83403567811E-02 -0.19396636636E-01 -0.13479423490E-01  0.25049669093E-01  0.00000000000E+00 0. -1.
     999901    1    3    3    0    0 -0.88524873871E-02 -0.56627206062E-01  0.11625116839E+00  0.88949386797E+00  0.88000000000E+00 0.  1.
        -11    1    4    4    0    0 -0.69551958173E-02  0.57168533441E-01 -0.67823362265E-01  0.88976882135E-01  0.51100000000E-03 0. -1.
         11    1    4    4    0    0  0.74673264232E-02  0.18855309258E-01 -0.34948382634E-01  0.40409580805E-01  0.51100000000E-03 0.  1.
</event>
<event>
 8    1  0.1213322E+005  0.1043930E+01  0.7957747E-01            NaN
         13   -1    0    0    0    0  0.00000000000E+00  0.00000000000E+00  0.74505805969E-08  0.10566000000E+00  0.10566000000E+00 0.  1.
     999900   -1    0    0    0    0 -0.00000000000E+00 -0.00000000000E+00 -0.74505805969E-08  0.93827000000E+00  0.93827000000E+00 0.  1.
     999902    2    1    2    0    0  0.78112479435E-02  0.51516485350E-02  0.21963644645E-01  0.10200562327E+01  0.10197768193E+01 0.  0.
     999903    2    3    3    0    0  0.11518840311E-01 -0.50383910822E-01  0.12065733618E+00  0.13279167843E+00  0.20105097208E-01 0.  0.
         14    1    1    2    0    0 -0.78112479435E-02 -0.51516485350E-02 -0.21963644645E-01  0.23873767259E-01  0.00000000000E+00 0. -1.
     999901    1    3    3    0    0 -0.37075923673E-02  0.55535559357E-01 -0.98693691533E-01  0.88726455431E+00  0.88000000000E+00 0.  1.
        -11    1    4    4    0    0  0.24620316350E-02 -0.40581991245E-01  0.76169283093E-01  0.86342228493E-01  0.51100000000E-03 0. -1.
         11    1    4    4    0    0  0.90568086758E-02 -0.98019195769E-02  0.44488053086E-01  0.46449449934E-01  0.51100000000E-03 0.  1.
</event>
<event>
 8    1  0.1213322E+005  0.1043930E+01  0.7957747E-01            NaN
         13   -1    0    0    0    0  0.00000000000E+00  0.00000000000E+00  0.74505805969E-08  0.10566000000E+00  0.10566000000E+00 0. -1.
     999900   -1    0    0    0    0 -0.00000000000E+00 -0.00000000000E+00 -0.74505805969E-08  0.93827000000E+00  0.93827000000E+00 0. -1.
     999902    2    1    2    0    0 -0.14448073200E-01  0.18244683769E-01  0.51414789368E-02  0.10200961981E+01  0.10198177305E+01 0.  0.
     999903    2    3    3    0    0  0.60316501704E-01  0.49896770549E-01  0.10331839953E+00  0.13092225341E+00  0.18389580423E-01 0.  0.
         14    1    1    2    0    0  0.14448073200E-01 -0.18244683769E-01 -0.51414789368E-02  0.23833801851E-01  0.00000000000E+00 0. -1.
     999901    1    3    3    0    0 -0.74764574903E-01 -0.31652086780E-01 -0.98176920595E-01  0.88917394473E+00  0.88000000000E+00 0. -1.
        -11    1    4    4    0    0  0.48058024266E-02  0.43296529199E-02  0.19456427513E-01  0.20509883567E-01  0.51100000000E-03 0. -1.
         11    1    4    4    0    0  0.55510699277E-01  0.45567117629E-01  0.83861972019E-01  0.11041236985E+00  0.51100000000E-03 0.  1.
</event>
<event>
 8    1  0.1213322E+005  0.1043930E+01  0.7957747E-01            NaN
         13   -1    0    0    0    0  0.00000000000E+00  0.00000000000E+00  0.74505805969E-08  0.10566000000E+00  0.10566000000E+00 0.  1.
     999900   -1    0    0    0    0 -0.00000000000E+00 -0.00000000000E+00 -0.74505805969E-08  0.93827000000E+00  0.93827000000E+00 0. -1.
     999902    2    1    2    0    0  0.19713973581E-01  0.12167982982E-01  0.85247621815E-02  0.10192445360E+01  0.10189455589E+01 0.  0.
     999903    2    3    3    0    0 -0.73431045887E-01 -0.16342532494E-01 -0.10056430456E+00  0.12717432089E+00  0.20023278319E-01 0.  0.
         14    1    1    2    0    0 -0.19713973581E-01 -0.12167982982E-01 -0.85247621815E-02  0.24685464031E-01  0.00000000000E+00 0. -1.
     999901    1    3    3    0    0  0.93145019468E-01  0.28510515476E-01  0.10908906674E+00  0.89207021508E+00  0.88000000000E+00 0.  1.
        -11    1    4    4    0    0 -0.29626278439E-01 -0.55803742898E-02 -0.24993881435E-01  0.39163914277E-01  0.51100000000E-03 0.  1.
         11    1    4    4    0    0 -0.43804767448E-01 -0.10762158204E-01 -0.75570423123E-01  0.88010406615E-01  0.51100000000E-03 0. -1.
</event>
<event>
 8    1  0.1213322E+005  0.1043930E+01  0.7957747E-01            NaN
         13   -1    0    0    0    0  0.00000000000E+00  0.00000000000E+00  0.74505805969E-08  0.10566000000E+00  0.10566000000E+00 0.  1.
     999900   -1    0    0    0    0 -0.00000000000E+00 -0.00000000000E+00 -0.74505805969E-08  0.93827000000E+00  0.93827000000E+00 0. -1.
     999902    2    1    2    0    0 -0.61159709109E-02  0.38366238648E-03 -0.23065574407E-01  0.10200642710E+01  0.10197850479E+01 0.  0.
     999903    2    3    3    0    0 -0.82593694190E-01 -0.99129213817E-01 -0.12690542825E-01  0.13109897588E+00  0.19431218357E-01 0.  0.
         14    1    1    2    0    0  0.61159709109E-02 -0.38366238648E-03  0.23065574407E-01  0.23865728980E-01  0.00000000000E+00 0. -1.
     999901    1    3    3    0    0  0.76477723279E-01  0.99512876204E-01 -0.10375031582E-01  0.88896529514E+00  0.88000000000E+00 0.  1.
        -11    1    4    4    0    0 -0.60423351775E-01 -0.79815691726E-01 -0.30631222339E-02  0.10015572836E+00  0.51100000000E-03 0.  1.
         11    1    4    4    0    0 -0.22170342415E-01 -0.19313522091E-01 -0.96274205911E-02  0.30943247512E-01  0.51100000000E-03 0. -1.
</event>
<event>
 8    1  0.1213322E+005  0.1043930E+01  0.7957747E-01            NaN
         13   -1    0    0    0    0  0.00000000000E+00  0.00000000000E+00  0.74505805969E-08  0.10566000000E+00  0.10566000000E+00 0. -1.
     999900   -1    0    0    0    0 -0.00000000000E+00 -0.00000000000E+00 -0.74505805969E-08  0.93827000000E+00  0.93827000000E+00 0. -1.
     999902    2    1    2    0    0 -0.13184479619E-02  0.23582709162E-01 -0.50004529037E-03  0.10203051715E+01  0.10200316223E+01 0.  0.
     999903    2    3    3    0    0 -0.35835313485E-02 -0.27279805086E-02  0.12879363794E+00  0.13046572558E+00  0.20327833196E-01 0.  0.
         14    1    1    2    0    0  0.13184479619E-02 -0.23582709162E-01  0.50004529037E-03  0.23624828502E-01  0.00000000000E+00 0. -1.
     999901    1    3    3    0    0  0.22650833866E-02  0.26310689671E-01 -0.12929368323E+00  0.88983944592E+00  0.88000000000E+00 0. -1.
        -11    1    4    4    0    0 -0.11794212388E-01 -0.39940470145E-02  0.73486936304E-01  0.74536211239E-01  0.51100000000E-03 0. -1.
         11    1    4    4    0    0  0.82106810396E-02  0.12660665059E-02  0.55306701634E-01  0.55929514339E-01  0.51100000000E-03 0.  1.
</event>
<event>
 8    1  0.1213322E+005  0.1043930E+01  0.7957747E-01            NaN
         13   -1    0    0    0    0  0.00000000000E+00  0.00000000000E+00  0.74505805969E-08  0.10566000000E+00  0.10566000000E+00 0.  1.
     999900   -1    0    0    0    0 -0.00000000000E+00 -0.00000000000E+00 -0.74505805969E-08  0.93827000000E+00  0.93827000000E+00 0. -1.
     999902    2    1    2    0    0 -0.69357100355E-02  0.45005614202E-02  0.21279364760E-01  0.10211008412E+01  0.10208456090E+01 0.  0.
     999903    2    3    3    0    0  0.12799589098E+00  0.16354183186E-01  0.27243847729E-02  0.13054408693E+00  0.19594104851E-01 0.  0.
         14    1    1    2    0    0  0.69357100355E-02 -0.45005614202E-02 -0.21279364760E-01  0.22829158797E-01  0.00000000000E+00 0. -1.
     999901    1    3    3    0    0 -0.13493160101E+00 -0.11853621766E-01  0.18554979988E-01  0.89055675427E+00  0.88000000000E+00 0.  1.
        -11    1    4    4    0    0  0.78998099154E-01  0.15859116140E-01 -0.58853132700E-02  0.80790527093E-01  0.51100000000E-03 0. -1.
         11    1    4    4    0    0  0.48997791823E-01  0.49506704627E-03  0.86096980429E-02  0.49753559835E-01  0.51100000000E-03 0.  1.
</event>
<event>
 8    1  0.1213322E+005  0.1043930E+01  0.7957747E-01            NaN
         13   -1    0    0    0    0  0.00000000000E+00  0.00000000000E+00  0.74505805969E-08  0.10566000000E+00  0.10566000000E+00 0. -1.
     999900   -1    0    0    0    0 -0.00000000000E+00 -0.00000000000E+00 -0.74505805969E-08  0.93827000000E+00  0.93827000000E+00 0.  1.
     999902    2    1    2    0    0 -0.75372005121E-02 -0.25954271093E-01  0.40907530217E-02  0.10165956290E+01  0.10162280773E+01 0.  0.
     999903    2    3    3    0    0  0.12327493825E+00 -0.22201608289E-01 -0.27689307432E-02  0.12689177184E+00  0.20105545764E-01 0.  0.
         14    1    1    2    0    0  0.75372005121E-02  0.25954271093E-01 -0.40907530217E-02  0.27334371034E-01  0.00000000000E+00 0.  1.
     999901    1    3    3    0    0 -0.13081213877E+00 -0.37526628035E-02  0.68596837649E-02  0.88970385713E+00  0.88000000000E+00 0. -1.
        -11    1    4    4    0    0  0.73939185117E-01 -0.22544177649E-01 -0.53369376552E-02  0.77485399052E-01  0.51100000000E-03 0.  1.
         11    1    4    4    0    0  0.49335753138E-01  0.34256936014E-03  0.25680069121E-02  0.49406372787E-01  0.51100000000E-03 0. -1.
</event>
<event>
 8    1  0.1213322E+005  0.1043930E+01  0.7957747E-01            NaN
         13   -1    0    0    0    0  0.00000000000E+00  0.00000000000E+00  0.74505805969E-08  0.10566000000E+00  0.10566000000E+00 0. -1.
     999900   -1    0    0    0    0 -0.00000000000E+00 -0.00000000000E+00 -0.74505805969E-08  0.93827000000E+00  0.93827000000E+00 0.  1.
     999902    2    1    2    0    0  0.14719246493E-01  0.12959909812E-01  0.12961263408E-01  0.10204223453E+01  0.10201515343E+01 0.  0.
     999903    2    3    3    0    0  0.29967634014E-01  0.11234506206E+00 -0.58811988826E-01  0.13179344552E+00  0.19778528661E-01 0.  0.
         14    1    1    2    0    0 -0.14719246493E-01 -0.12959909812E-01 -0.12961263408E-01  0.23507654685E-01  0.00000000000E+00 0.  1.
     999901    1    3    3    0    0 -0.15248387520E-01 -0.99385152246E-01  0.71773252233E-01  0.88862889979E+00  0.88000000000E+00 0. -1.
        -11    1    4    4    0    0  0.22665238159E-01  0.67712459703E-01 -0.26319197756E-01  0.76102900807E-01  0.51100000000E-03 0. -1.
         11    1    4    4    0    0  0.73023958549E-02  0.44632602356E-01 -0.32492791069E-01  0.55690544716E-01  0.51100000000E-03 0.  1.
</event>
<event>
 8    1  0.1213322E+005  0.1043930E+01  0.7957747E-01            NaN
         13   -1    0    0    0    0  0.00000000000E+00  0.00000000000E+00  0.74505805969E-08  0.10566000000E+00  0.10566000000E+00 0.  1.
     999900   -1    0    0    0    0 -0.00000000000E+00 -0.00000000000E+00 -0.74505805969E-08  0.93827000000E+00  0.93827000000E+00 0. -1.
     999902    2    1    2    0    0 -0.10817413333E-01  0.18326087901E-03 -0.16248368887E-01  0.10244092544E+01  0.10242232477E+01 0.  0.
     999903    2    3    3    0    0 -0.10802221536E+00  0.78605811696E-01 -0.11829417075E-01  0.13557946356E+00  0.19854047122E-01 0.  0.
         14    1    1    2    0    0  0.10817413333E-01 -0.18326087901E-03  0.16248368887E-01  0.19520745561E-01  0.00000000000E+00 0.  1.
     999901    1    3    3    0    0  0.97204802032E-01 -0.78422550817E-01 -0.44189518118E-02  0.88882979088E+00  0.88000000000E+00 0. -1.
        -11    1    4    4    0    0 -0.28995203637E-01  0.31265053655E-01 -0.79231015727E-02  0.43373518113E-01  0.51100000000E-03 0.  1.
         11    1    4    4    0    0 -0.79027011728E-01  0.47340758041E-01 -0.39063155020E-02  0.92205945450E-01  0.51100000000E-03 0. -1.
</event>
<event>
 8    1  0.1213322E+005  0.1043930E+01  0.7957747E-01            NaN
         13   -1    0    0    0    0  0.00000000000E+00  0.00000000000E+00  0.74505805969E-08  0.10566000000E+00  0.10566000000E+00 0. -1.
     999900   -1    0    0    0    0 -0.00000000000E+00 -0.00000000000E+00 -0.74505805969E-08  0.93827000000E+00  0.93827000000E+00 0.  1.
     999902    2    1    2    0    0  0.17914471861E-01  0.59437835764E-02 -0.13060969040E-01  0.10209768787E+01  0.10207188355E+01 0.  0.
     999903    2    3    3    0    0  0.10902768003E+00  0.13283264396E-01  0.70851900171E-01  0.13227172270E+00  0.20306076441E-01 0.  0.
         14    1    1    2    0    0 -0.17914471861E-01 -0.59437835764E-02  0.13060969040E-01  0.22953121303E-01  0.00000000000E+00 0.  1.
     999901    1    3    3    0    0 -0.91113208174E-01 -0.73394808197E-02 -0.83912869212E-01  0.88870515600E+00  0.88000000000E+00 0.  1.
        -11    1    4    4    0    0  0.92547807419E-01  0.17286513577E-01  0.64638545908E-01  0.11420299010E+00  0.51100000000E-03 0.  1.
         11    1    4    4    0    0  0.16479872616E-01 -0.40032491810E-02  0.62133542636E-02  0.18068732596E-01  0.51100000000E-03 0. -1.
</event>
<event>
 8    1  0.1213322E+005  0.1043930E+01  0.7957747E-01            NaN
         13   -1    0    0    0    0  0.00000000000E+00  0.00000000000E+00  0.74505805969E-08  0.10566000000E+00  0.10566000000E+00 0.  1.
     999900   -1    0    0    0    0 -0.00000000000E+00 -0.00000000000E+00 -0.74505805969E-08  0.93827000000E+00  0.93827000000E+00 0.  1.
     999902    2    1    2    0    0 -0.43649621575E-02  0.69692030279E-02 -0.22369259478E-01  0.10200971140E+01  0.10198186680E+01 0.  0.
     999903    2    3    3    0    0 -0.64265912483E-01 -0.11000220671E+00  0.12793582133E-01  0.12964393725E+00  0.20329331873E-01 0.  0.
         14    1    1    2    0    0  0.43649621575E-02 -0.69692030279E-02  0.22369259478E-01  0.23832886000E-01  0.00000000000E+00 0.  1.
     999901    1    3    3    0    0  0.59900950326E-01  0.11697140974E+00 -0.35162841611E-01  0.89045317675E+00  0.88000000000E+00 0.  1.
        -11    1    4    4    0    0 -0.29208412114E-01 -0.69079086408E-01  0.10204385567E-01  0.75693078435E-01  0.51100000000E-03 0. -1.
         11    1    4    4    0    0 -0.35057500369E-01 -0.40923120304E-01  0.25891965654E-02  0.53950858820E-01  0.51100000000E-03 0.  1.
</event>
<event>
 8    1  0.1213322E+005  0.1043930E+01  0.7957747E-01            NaN
         13   -1    0    0    0    0  0.00000000000E+00  0.00000000000E+00  0.74505805969E-08  0.10566000000E+00  0.10566000000E+00 0. -1.
     999900   -1    0    0    0    0 -0.00000000000E+00 -0.00000000000E+00 -0.74505805969E-08  0.93827000000E+00  0.93827000000E+00 0. -1.
     999902    2    1    2    0    0 -0.10724025699E-01  0.18246703132E-01 -0.58190220161E-03  0.10227572460E+01  0.10225380671E+01 0.  0.
     999903    2    3    3    0    0  0.48027214936E-01  0.10767414874E+00  0.60884143090E-01  0.13414762921E+00  0.19707152559E-01 0.  0.
         14    1    1    2    0    0  0.10724025699E-01 -0.18246703132E-01  0.58190220161E-03  0.21172754015E-01  0.00000000000E+00 0. -1.
     999901    1    3    3    0    0 -0.58751240635E-01 -0.89427445605E-01 -0.61466045291E-01  0.88860961678E+00  0.88000000000E+00 0. -1.
        -11    1    4    4    0    0  0.27446041450E-01  0.80065760479E-01  0.37870998827E-01  0.92726937108E-01  0.51100000000E-03 0. -1.
         11    1    4    4    0    0  0.20581173486E-01  0.27608388258E-01  0.23013144263E-01  0.41420692101E-01  0.51100000000E-03 0.  1.
</event>
<event>
 8    1  0.1213322E+005  0.1043930E+01  0.7957747E-01            NaN
         13   -1    0    0    0    0  0.00000000000E+00  0.00000000000E+00  0.74505805969E-08  0.10566000000E+00  0.10566000000E+00 0.  1.
     999900   -1    0    0    0    0 -0.00000000000E+00 -0.00000000000E+00 -0.74505805969E-08  0.93827000000E+00  0.93827000000E+00 0. -1.
     999902    2    1    2    0    0  0.22720071567E-01  0.16260131936E-02  0.82075292951E-02  0.10197182444E+01  0.10194307671E+01 0.  0.
     999903    2    3    3    0    0 -0.11317767778E+00  0.26230335305E-01 -0.48514776368E-01  0.12714276252E+00  0.17730800769E-01 0.  0.
         14    1    1    2    0    0 -0.22720071567E-01 -0.16260131936E-02 -0.82075292951E-02  0.24211755576E-01  0.00000000000E+00 0. -1.
     999901    1    3    3    0    0  0.13589774935E+00 -0.24604322112E-01  0.56722305663E-01  0.89257548191E+00  0.88000000000E+00 0.  1.
        -11    1    4    4    0    0 -0.72108424952E-01  0.24813550461E-01 -0.28283792529E-01  0.81336162169E-01  0.51100000000E-03 0.  1.
         11    1    4    4    0    0 -0.41069252829E-01  0.14167848443E-02 -0.20230983839E-01  0.45806600347E-01  0.51100000000E-03 0. -1.
</event>
<event>
 8    1  0.1213322E+005  0.1043930E+01  0.7957747E-01            NaN
         13   -1    0    0    0    0  0.00000000000E+00  0.00000000000E+00  0.74505805969E-08  0.10566000000E+00  0.10566000000E+00 0.  1.
     999900   -1    0    0    0    0 -0.00000000000E+00 -0.00000000000E+00 -0.74505805969E-08  0.93827000000E+00  0.93827000000E+00 0. -1.
     999902    2    1    2    0    0  0.18904778378E-01 -0.57749534903E-02  0.14047139618E-01  0.10196799925E+01  0.10193915951E+01 0.  0.
     999903    2    3    3    0    0  0.65063625567E-01 -0.11112981652E+00 -0.18902221871E-01  0.13158318089E+00  0.19332046186E-01 0.  0.
         14    1    1    2    0    0 -0.18904778378E-01  0.57749534903E-02 -0.14047139618E-01  0.24250007521E-01  0.00000000000E+00 0. -1.
     999901    1    3    3    0    0 -0.46158847189E-01  0.10535486303E+00  0.32949361489E-01  0.88809681159E+00  0.88000000000E+00 0. -1.
        -11    1    4    4    0    0  0.30171477205E-01 -0.65333818267E-01 -0.17146893238E-01  0.73980422510E-01  0.51100000000E-03 0. -1.
         11    1    4    4    0    0  0.34892148362E-01 -0.45795998250E-01 -0.17553286331E-02  0.57602758377E-01  0.51100000000E-03 0.  1.
</event>
<event>
 8    1  0.1213322E+005  0.1043930E+01  0.7957747E-01            NaN
         13   -1    0    0    0    0  0.00000000000E+00  0.00000000000E+00  0.74505805969E-08  0.10566000000E+00  0.10566000000E+00 0. -1.
     999900   -1    0    0    0    0 -0.00000000000E+00 -0.00000000000E+00 -0.74505805969E-08  0.93827000000E+00  0.93827000000E+00 0. -1.
     999902    2    1    2    0    0  0.38154543007E-02 -0.76154536365E-02  0.25665326980E-01  0.10168881466E+01  0.10165285244E+01 0.  0.
     999903    2    3    3    0    0  0.90225226644E-02 -0.11769591078E+00 -0.43644365662E-01  0.12731035120E+00  0.19218780883E-01 0.  0.
         14    1    1    2    0    0 -0.38154543007E-02  0.76154536365E-02 -0.25665326980E-01  0.27041853387E-01  0.00000000000E+00 0.  1.
     999901    1    3    3    0    0 -0.52070683637E-02  0.11008045714E+00  0.69309692642E-01  0.88957779542E+00  0.88000000000E+00 0.  1.
        -11    1    4    4    0    0 -0.25817300958E-02 -0.68684668013E-01 -0.19462232991E-01  0.71437305271E-01  0.51100000000E-03 0.  1.
         11    1    4    4    0    0  0.11604252760E-01 -0.49011242764E-01 -0.24182132671E-01  0.55873045925E-01  0.51100000000E-03 0. -1.
</event>
<event>
 8    1  0.1213322E+005  0.1043930E+01  0.7957747E-01            NaN
         13   -1    0    0    0    0  0.00000000000E+00  0.00000000000E+00  0.74505805969E-08  0.10566000000E+00  0.10566000000E+00 0.  1.
     999900   -1    0    0    0    0 -0.00000000000E+00 -0.00000000000E+00 -0.74505805969E-08  0.93827000000E+00  0.93827000000E+00 0.  1.
     999902    2    1    2    0    0  0.24070912046E-01  0.14048526117E-01 -0.12574195626E-01  0.10133541879E+01  0.10128928027E+01 0.  0.
     999903    2    3    3    0    0  0.68450912360E-01  0.10372812681E+00 -0.20842541332E-01  0.12764521717E+00  0.20343014582E-01 0.  0.
         14    1    1    2    0    0 -0.24070912046E-01 -0.14048526117E-01  0.12574195626E-01  0.30575812146E-01  0.00000000000E+00 0.  1.
     999901    1    3    3    0    0 -0.44380000314E-01 -0.89679600696E-01  0.82683457058E-02  0.88570897068E+00  0.88000000000E+00 0.  1.
        -11    1    4    4    0    0  0.24291397370E-01  0.21889161403E-01 -0.20193533913E-02  0.32765016134E-01  0.51100000000E-03 0. -1.
         11    1    4    4    0    0  0.44159514989E-01  0.81838965409E-01 -0.18823187940E-01  0.94880201036E-01  0.51100000000E-03 0.  1.
</event>
<event>
 8    1  0.1213322E+005  0.1043930E+01  0.7957747E-01            NaN
         13   -1    0    0    0    0  0.00000000000E+00  0.00000000000E+00  0.74505805969E-08  0.10566000000E+00  0.10566000000E+00 0.  1.
     999900   -1    0    0    0    0 -0.00000000000E+00 -0.00000000000E+00 -0.74505805969E-08  0.93827000000E+00  0.93827000000E+00 0.  1.
     999902    2    1    2    0    0  0.18756257845E-01 -0.53345909756E-03 -0.15385459026E-01  0.10196649194E+01  0.10193761591E+01 0.  0.
     999903    2    3    3    0    0  0.83123304970E-01 -0.67073975652E-01 -0.76136619206E-01  0.13272554122E+00  0.20270236075E-01 0.  0.
         14    1    1    2    0    0 -0.18756257845E-01  0.53345909756E-03  0.15385459026E-01  0.24265080597E-01  0.00000000000E+00 0.  1.
     999901    1    3    3    0    0 -0.64367047125E-01  0.66540516554E-01  0.60751160180E-01  0.88693937818E+00  0.88000000000E+00 0.  1.
        -11    1    4    4    0    0  0.37300059717E-01 -0.37226842203E-01 -0.27046916391E-01  0.59236213946E-01  0.51100000000E-03 0.  1.
         11    1    4    4    0    0  0.45823245253E-01 -0.29847133449E-01 -0.49089702814E-01  0.73489327279E-01  0.51100000000E-03 0. -1.
</event>
<event>
 8    1  0.1213322E+005  0.1043930E+01  0.7957747E-01            NaN
         13   -1    0    0    0    0  0.00000000000E+00  0.00000000000E+00  0.74505805969E-08  0.10566000000E+00  0.10566000000E+00 0. -1.
     999900   -1    0    0    0    0 -0.00000000000E+00 -0.00000000000E+00 -0.74505805969E-08  0.93827000000E+00  0.93827000000E+00 0.  1.
     999902    2    1    2    0    0 -0.13792662782E-01 -0.18491926372E-01 -0.33888977686E-02  0.10206131924E+01  0.10203468112E+01 0.  0.
     999903    2    3    3    0    0  0.84268584294E-01 -0.83201724698E-01  0.52371992590E-01  0.13105563775E+00  0.20224571362E-01 0.  0.
         14    1    1    2    0    0  0.13792662782E-01  0.18491926372E-01  0.33888977686E-02  0.23316807579E-01  0.00000000000E+00 0.  1.
     999901    1    3    3    0    0 -0.98061247076E-01  0.64709798326E-01 -0.55760890359E-01  0.88955755467E+00  0.88000000000E+00 0. -1.
        -11    1    4    4    0    0  0.46713008453E-01 -0.32150943651E-01  0.22894609979E-01  0.61157277764E-01  0.51100000000E-03 0.  1.
         11    1    4    4    0    0  0.37555575840E-01 -0.51050781047E-01  0.29477382612E-01  0.69898359987E-01  0.51100000000E-03 0. -1.
</event>
<event>
 8    1  0.1213322E+005  0.1043930E+01  0.7957747E-01            NaN
         13   -1    0    0    0    0  0.00000000000E+00  0.00000000000E+00  0.74505805969E-08  0.10566000000E+00  0.10566000000E+00 0.  1.
     999900   -1    0    0    0    0 -0.00000000000E+00 -0.00000000000E+00 -0.74505805969E-08  0.93827000000E+00  0.93827000000E+00 0.  1.
     999902    2    1    2    0    0  0.41500329804E-03 -0.61417306411E-03  0.23317888721E-01  0.10206003328E+01  0.10203336542E+01 0.  0.
     999903    2    3    3    0    0  0.95010442488E-01  0.87764180770E-01 -0.23948480571E-02  0.13075755155E+00  0.19033296688E-01 0.  0.
         14    1    1    2    0    0 -0.41500329804E-03  0.61417306411E-03 -0.23317888721E-01  0.23329667179E-01  0.00000000000E+00 0. -1.
     999901    1    3    3    0    0 -0.94595439190E-01 -0.88378353835E-01  0.25712736778E-01  0.88984278127E+00  0.88000000000E+00 0.  1.
        -11    1    4    4    0    0  0.88527440253E-01  0.82683577378E-01  0.25014793318E-02  0.12116187588E+00  0.51100000000E-03 0.  1.
         11    1    4    4    0    0  0.64830022353E-02  0.50806033921E-02 -0.48963273889E-02  0.95956756777E-02  0.51100000000E-03 0. -1.
</event>
<event>
 8    1  0.1213322E+005  0.1043930E+01  0.7957747E-01            NaN
         13   -1    0    0    0    0  0.00000000000E+00  0.00000000000E+00  0.74505805969E-08  0.10566000000E+00  0.10566000000E+00 0. -1.
     999900   -1    0    0    0    0 -0.00000000000E+00 -0.00000000000E+00 -0.74505805969E-08  0.93827000000E+00  0.93827000000E+00 0.  1.
     999902    2    1    2    0    0  0.12043316149E-01  0.14225509308E-01 -0.15065209511E-01  0.10199640425E+01  0.10196824412E+01 0.  0.
     999903    2    3    3    0    0  0.12429785100E+00 -0.53662043933E-02 -0.39912598335E-01  0.13226910138E+00  0.20575416453E-01 0.  0.
         14    1    1    2    0    0 -0.12043316149E-01 -0.14225509308E-01  0.15065209511E-01  0.23965957451E-01  0.00000000000E+00 0. -1.
     999901    1    3    3    0    0 -0.11225453485E+00  0.19591713701E-01  0.24847388824E-01  0.88769494117E+00  0.88000000000E+00 0.  1.
        -11    1    4    4    0    0  0.81841687490E-01  0.45633897838E-02 -0.31762808781E-01  0.87909177451E-01  0.51100000000E-03 0.  1.
         11    1    4    4    0    0  0.42456163509E-01 -0.99295941771E-02 -0.81497895537E-02  0.44359923932E-01  0.51100000000E-03 0. -1.
</event>
<event>
 8    1  0.1213322E+005  0.1043930E+01  0.7957747E-01            NaN
         13   -1    0    0    0    0  0.00000000000E+00  0.00000000000E+00  0.74505805969E-08  0.10566000000E+00  0.10566000000E+00 0.  1.
     999900   -1    0    0    0    0 -0.00000000000E+00 -0.00000000000E+00 -0.74505805969E-08  0.93827000000E+00  0.93827000000E+00 0. -1.
     999902    2    1    2    0    0 -0.15098313603E-01 -0.91979271569E-02 -0.15449765847E-01  0.10204511542E+01  0.10201810142E+01 0.  0.
     999903    2    3    3    0    0  0.50110679239E-02 -0.91731235477E-01 -0.93959593430E-01  0.13288147957E+00  0.19732005766E-01 0.  0.
         14    1    1    2    0    0  0.15098313603E-01  0.91979271569E-02  0.15449765847E-01  0.23478845848E-01  0.00000000000E+00 0.  1.
     999901    1    3    3    0    0 -0.20109381527E-01  0.82533308320E-01  0.78509827584E-01  0.88756967458E+00  0.88000000000E+00 0.  1.
        -11    1    4    4    0    0 -0.24503890593E-02 -0.50396954793E-01 -0.39367830896E-01  0.63999567885E-01  0.51100000000E-03 0. -1.
         11    1    4    4    0    0  0.74614569832E-02 -0.41334280684E-01 -0.54591762535E-01  0.68881911687E-01  0.51100000000E-03 0.  1.
</event>
<event>
 8    1  0.1213322E+005  0.1043930E+01  0.7957747E-01            NaN
         13   -1    0    0    0    0  0.00000000000E+00  0.00000000000E+00  0.74505805969E-08  0.10566000000E+00  0.10566000000E+00 0.  1.
     999900   -1    0    0    0    0 -0.00000000000E+00 -0.00000000000E+00 -0.74505805969E-08  0.93827000000E+00  0.93827000000E+00 0.  1.
     999902    2    1    2    0    0 -0.73927709772E-02 -0.11833715476E-01 -0.19042448341E-01  0.10203226977E+01  0.10200495589E+01 0.  0.
     999903    2    3    3    0    0 -0.10431874391E+00 -0.62748691622E-01  0.44990393383E-01  0.13122923585E+00  0.19421076513E-01 0.  0.
         14    1    1    2    0    0  0.73927709772E-02  0.11833715476E-01  0.19042448341E-01  0.23607302335E-01  0.00000000000E+00 0.  1.
     999901    1    3    3    0    0  0.96925972936E-01  0.50914976146E-01 -0.64032841724E-01  0.88909346182E+00  0.88000000000E+00 0.  1.
        -11    1    4    4    0    0 -0.23016855958E-01 -0.52380877783E-02  0.68097723567E-02  0.24573305482E-01  0.51100000000E-03 0. -1.
         11    1    4    4    0    0 -0.81301887955E-01 -0.57510603844E-01  0.38180621026E-01  0.10665593037E+00  0.51100000000E-03 0.  1.
</event>
<event>
 8    1  0.1213322E+005  0.1043930E+01  0.7957747E-01            NaN
         13   -1    0    0    0    0  0.00000000000E+00  0.00000000000E+00  0.74505805969E-08  0.10566000000E+00  0.10566000000E+00 0. -1.
     999900   -1    0    0    0    0 -0.00000000000E+00 -0.00000000000E+00 -0.74505805969E-08  0.93827000000E+00  0.93827000000E+00 0.  1.
     999902    2    1    2    0    0  0.26838061381E-02  0.10494839479E-01  0.28496964678E-01  0.10134435855E+01  0.10129849355E+01 0.  0.
     999903    2    3    3    0    0 -0.25200140581E-01  0.43168965006E-01  0.11602146248E+00  0.12805912064E+00  0.20965495425E-01 0.  0.
         14    1    1    2    0    0 -0.26838061381E-02 -0.10494839479E-01 -0.28496964678E-01  0.30486414465E-01  0.00000000000E+00 0.  1.
     999901    1    3    3    0    0  0.27883946719E-01 -0.32674125527E-01 -0.87524497801E-01  0.88538446490E+00  0.88000000000E+00 0.  1.
        -11    1    4    4    0    0 -0.92904585439E-02  0.64874409110E-02  0.11512261253E-01  0.16161460011E-01  0.51100000000E-03 0. -1.
         11    1    4    4    0    0 -0.15909682037E-01  0.36681524095E-01  0.10450920122E+00  0.11189766063E+00  0.51100000000E-03 0.  1.
</event>
<event>
 8    1  0.1213322E+005  0.1043930E+01  0.7957747E-01            NaN
         13   -1    0    0    0    0  0.00000000000E+00  0.00000000000E+00  0.74505805969E-08  0.10566000000E+00  0.10566000000E+00 0. -1.
     999900   -1    0    0    0    0 -0.00000000000E+00 -0.00000000000E+00 -0.74505805969E-08  0.93827000000E+00  0.93827000000E+00 0.  1.
     999902    2    1    2    0    0  0.63406220154E-02 -0.21023778269E-01  0.19622198712E-02  0.10218833892E+01  0.10216455394E+01 0.  0.
     999903    2    3    3    0    0 -0.11525618884E+00  0.14721470575E-02  0.59620140898E-01  0.13136877006E+00  0.20421465758E-01 0.  0.
         14    1    1    2    0    0 -0.63406220154E-02  0.21023778269E-01 -0.19622198712E-02  0.22046610785E-01  0.00000000000E+00 0. -1.
     999901    1    3    3    0    0  0.12159681086E+00 -0.22495925327E-01 -0.57657921027E-01  0.89051461915E+00  0.88000000000E+00 0.  1.
        -11    1    4    4    0    0 -0.61286897284E-01 -0.85932268670E-02  0.27135446770E-01  0.67576038054E-01  0.51100000000E-03 0. -1.
         11    1    4    4    0    0 -0.53969291559E-01  0.10065373925E-01  0.32484694127E-01  0.63792732009E-01  0.51100000000E-03 0.  1.
</event>
<event>
 8    1  0.1213322E+005  0.1043930E+01  0.7957747E-01            NaN
         13   -1    0    0    0    0  0.00000000000E+00  0.00000000000E+00  0.74505805969E-08  0.10566000000E+00  0.10566000000E+00 0.  1.
     999900   -1    0    0    0    0 -0.00000000000E+00 -0.00000000000E+00 -0.74505805969E-08  0.93827000000E+00  0.93827000000E+00 0.  1.
     999902    2    1    2    0    0  0.76063191395E-02 -0.21456544340E-01 -0.91657488895E-02  0.10193892107E+01  0.10190937703E+01 0.  0.
     999903    2    3    3    0    0  0.10806683265E-01  0.10345802621E+00  0.69924770922E-01  0.12705003608E+00  0.20781975120E-01 0.  0.
         14    1    1    2    0    0 -0.76063191395E-02  0.21456544340E-01  0.91657488895E-02  0.24540789282E-01  0.00000000000E+00 0. -1.
     999901    1    3    3    0    0 -0.32003641260E-02 -0.12491457055E+00 -0.79090519811E-01  0.89233917464E+00  0.88000000000E+00 0.  1.
        -11    1    4    4    0    0  0.14309913178E-01  0.43789294486E-01  0.34618940400E-01  0.57628188261E-01  0.51100000000E-03 0.  1.
         11    1    4    4    0    0 -0.35032299128E-02  0.59668731722E-01  0.35305830522E-01  0.69421847821E-01  0.51100000000E-03 0. -1.
</event>
<event>
 8    1  0.1213322E+005  0.1043930E+01  0.7957747E-01            NaN
         13   -1    0    0    0    0  0.00000000000E+00  0.00000000000E+00  0.74505805969E-08  0.10566000000E+00  0.10566000000E+00 0.  1.
     999900   -1    0    0    0    0 -0.00000000000E+00 -0.00000000000E+00 -0.74505805969E-08  0.93827000000E+00  0.93827000000E+00 0.  1.
     999902    2    1    2    0    0  0.13669778509E-02  0.95229611907E-02 -0.22138272212E-01  0.10197916795E+01  0.10195059642E+01 0.  0.
     999903    2    3    3    0    0  0.25741957846E-01  0.12408031857E+00 -0.30709863993E-01  0.13199046307E+00  0.20489332438E-01 0.  0.
         14    1    1    2    0    0 -0.13669778509E-02 -0.95229611907E-02  0.22138272212E-01  0.24138320464E-01  0.00000000000E+00 0.  1.
     999901    1    3    3    0    0 -0.24374979995E-01 -0.11455735738E+00  0.85715917803E-02  0.88780121647E+00  0.88000000000E+00 0. -1.
        -11    1    4    4    0    0  0.16813117491E-02  0.54068269656E-01 -0.90024033925E-02  0.54840760212E-01  0.51100000000E-03 0.  1.
         11    1    4    4    0    0  0.24060646097E-01  0.70012048914E-01 -0.21707460600E-01  0.77149702854E-01  0.51100000000E-03 0. -1.
</event>
<event>
 8    1  0.1213322E+005  0.1043930E+01  0.7957747E-01            NaN
         13   -1    0    0    0    0  0.00000000000E+00  0.00000000000E+00  0.74505805969E-08  0.10566000000E+00  0.10566000000E+00 0.  1.
     999900   -1    0    0    0    0 -0.00000000000E+00 -0.00000000000E+00 -0.74505805969E-08  0.93827000000E+00  0.93827000000E+00 0. -1.
     999902    2    1    2    0    0 -0.59758901891E-02 -0.10943209878E-01  0.20639827924E-01  0.10198163606E+01  0.10195312363E+01 0.  0.
     999903    2    3    3    0    0  0.51739150945E-01  0.75279814263E-01 -0.86357892177E-01  0.12728403744E+00  0.19988758593E-01 0.  0.
         14    1    1    2    0    0  0.59758901891E-02  0.10943209878E-01 -0.20639827924E-01  0.24113639350E-01  0.00000000000E+00 0. -1.
     999901    1    3    3    0    0 -0.57715041134E-01 -0.86223024142E-01  0.10699772010E+00  0.89253232321E+00  0.88000000000E+00 0.  1.
        -11    1    4    4    0    0  0.18231236191E-01  0.27951261526E-01 -0.45131830550E-01  0.56131936041E-01  0.51100000000E-03 0. -1.
         11    1    4    4    0    0  0.33507914754E-01  0.47328552737E-01 -0.41226061627E-01  0.71152101400E-01  0.51100000000E-03 0.  1.
</event>
<event>
 8    1  0.1213322E+005  0.1043930E+01  0.7957747E-01            NaN
         13   -1    0    0    0    0  0.00000000000E+00  0.00000000000E+00  0.74505805969E-08  0.10566000000E+00  0.10566000000E+00 0.  1.
     999900   -1    0    0    0    0 -0.00000000000E+00 -0.00000000000E+00 -0.74505805969E-08  0.93827000000E+00  0.93827000000E+00 0.  1.
     999902    2    1    2    0    0  0.22094605180E-01  0.91781648827E-02  0.79104762173E-02  0.10187310730E+01  0.10184193700E+01 0.  0.
     999903    2    3    3    0    0  0.10563032092E+00  0.30006460528E-01  0.70962117368E-01  0.13228449075E+00  0.20134845939E-01 0.  0.
         14    1    1    2    0    0 -0.22094605180E-01 -0.91781648827E-02 -0.79104762173E-02  0.25198927014E-01  0.00000000000E+00 0.  1.
     999901    1    3    3    0    0 -0.83535715740E-01 -0.20828295646E-01 -0.63051641151E-01  0.88644658223E+00  0.88000000000E+00 0.  1.
        -11    1    4    4    0    0  0.43127943957E-01  0.68970719811E-02  0.18339659836E-01  0.47372918379E-01  0.51100000000E-03 0.  1.
         11    1    4    4    0    0  0.62502376963E-01  0.23109388547E-01  0.52622457532E-01  0.84911572373E-01  0.51100000000E-03 0. -1.
</event>
<event>
 8    1  0.1213322E+005  0.1043930E+01  0.7957747E-01            NaN
         13   -1    0    0    0    0  0.00000000000E+00  0.00000000000E+00  0.74505805969E-08  0.10566000000E+00  0.10566000000E+00 0.  1.
     999900   -1    0    0    0    0 -0.00000000000E+00 -0.00000000000E+00 -0.74505805969E-08  0.93827000000E+00  0.93827000000E+00 0. -1.
     999902    2    1    2    0    0  0.78971000279E-02  0.70295205270E-02  0.26539148680E-01  0.10153624527E+01  0.10149604946E+01 0.  0.
     999903    2    3    3    0    0  0.11886511740E+00  0.27582542948E-02 -0.36617523094E-01  0.12613755998E+00  0.20816266213E-01 0.  0.
         14    1    1    2    0    0 -0.78971000279E-02 -0.70295205270E-02 -0.26539148680E-01  0.28567547328E-01  0.00000000000E+00 0. -1.
     999901    1    3    3    0    0 -0.11096801737E+00  0.42712662322E-02  0.63156671773E-01  0.88922489269E+00  0.88000000000E+00 0. -1.
        -11    1    4    4    0    0  0.68439217442E-01  0.79816907417E-02 -0.29451957644E-01  0.74935390846E-01  0.51100000000E-03 0.  1.
         11    1    4    4    0    0  0.50425899957E-01 -0.52234364470E-02 -0.71655654500E-02  0.51202169133E-01  0.51100000000E-03 0. -1.
</event>
<event>
 8    1  0.1213322E+005  0.1043930E+01  0.7957747E-01            NaN
         13   -1    0    0    0    0  0.00000000000E+00  0.00000000000E+00  0.74505805969E-08  0.10566000000E+00  0.10566000000E+00 0. -1.
     999900   -1    0    0    0    0 -0.00000000000E+00 -0.00000000000E+00 -0.74505805969E-08  0.93827000000E+00  0.93827000000E+00 0. -1.
     999902    2    1    2    0    0 -0.20597775847E-01  0.20008541433E-02 -0.11578268963E-01  0.10202165418E+01  0.10199409121E+01 0.  0.
     999903    2    3    3    0    0 -0.18201020247E-01 -0.12158863485E+00  0.37659745872E-01  0.13021402028E+00  0.20551431921E-01 0.  0.
         14    1    1    2    0    0  0.20597775847E-01 -0.20008541433E-02  0.11578268963E-01  0.23713458190E-01  0.00000000000E+00 0. -1.
     999901    1    3    3    0    0 -0.23967556005E-02  0.12358948900E+00 -0.49238014836E-01  0.89000252153E+00  0.88000000000E+00 0. -1.
        -11    1    4    4    0    0 -0.17488392264E-01 -0.65814749964E-01  0.27859908996E-01  0.73578942824E-01  0.51100000000E-03 0. -1.
         11    1    4    4    0    0 -0.71262798220E-03 -0.55773884891E-01  0.97998368756E-02  0.56635077454E-01  0.51100000000E-03 0.  1.
</event>
<event>
 8    1  0.1213322E+005  0.1043930E+01  0.7957747E-01            NaN
         13   -1    0    0    0    0  0.00000000000E+00  0.00000000000E+00  0.74505805969E-08  0.10566000000E+00  0.10566000000E+00 0. -1.
     999900   -1    0    0    0    0 -0.00000000000E+00 -0.00000000000E+00 -0.74505805969E-08  0.93827000000E+00  0.93827000000E+00 0. -1.
     999902    2    1    2    0    0 -0.97316181239E-03  0.22914422869E-01  0.44779367473E-02  0.10205618649E+01  0.10202942960E+01 0.  0.
     999903    2    3    3    0    0  0.40772610619E-01  0.84849341683E-01  0.91903901142E-01  0.13308119306E+00  0.20061414220E-01 0.  0.
         14    1    1    2    0    0  0.97316181239E-03 -0.22914422869E-01 -0.44779367473E-02  0.23368135074E-01  0.00000000000E+00 0.  1.
     999901    1    3    3    0    0 -0.41745772431E-01 -0.61934918814E-01 -0.87425964394E-01  0.88748067187E+00  0.88000000000E+00 0. -1.
        -11    1    4    4    0    0  0.64095696131E-03  0.12449577112E-01  0.62182958563E-02  0.13940269741E-01  0.51100000000E-03 0.  1.
         11    1    4    4    0    0  0.40131653657E-01  0.72399764572E-01  0.85685605285E-01  0.11914092332E+00  0.51100000000E-03 0. -1.
</event>
<event>
 8    1  0.1213322E+005  0.1043930E+01  0.7957747E-01            NaN
         13   -1    0    0    0    0  0.00000000000E+00  0.00000000000E+00  0.74505805969E-08  0.10566000000E+00  0.10566000000E+00 0. -1.
     999900   -1    0    0    0    0 -0.00000000000E+00 -0.00000000000E+00 -0.74505805969E-08  0.93827000000E+00  0.93827000000E+00 0.  1.
     999902    2    1    2    0    0  0.57704313467E-02 -0.15572582430E-01 -0.16136103010E-01  0.10207745034E+01  0.10205118372E+01 0.  0.
     999903    2    3    3    0    0  0.21855985730E-01  0.52495897094E-01 -0.11778118299E+00  0.13216672423E+00  0.19029782000E-01 0.  0.
         14    1    1    2    0    0 -0.57704313467E-02  0.15572582430E-01  0.16136103010E-01  0.23155496579E-01  0.00000000000E+00 0. -1.
     999901    1    3    3    0    0 -0.16085554383E-01 -0.68068479524E-01  0.10164507998E+00  0.88860777920E+00  0.88000000000E+00 0. -1.
        -11    1    4    4    0    0  0.11398950888E-01  0.10818476181E-01 -0.44735067775E-01  0.47417959868E-01  0.51100000000E-03 0.  1.
         11    1    4    4    0    0  0.10457034842E-01  0.41677420914E-01 -0.73046115210E-01  0.84748764357E-01  0.51100000000E-03 0. -1.
</event>
<event>
 8    1  0.1213322E+005  0.1043930E+01  0.7957747E-01            NaN
         13   -1    0    0    0    0  0.00000000000E+00  0.00000000000E+00  0.74505805969E-08  0.10566000000E+00  0.10566000000E+00 0.  1.
     999900   -1    0    0    0    0 -0.00000000000E+00 -0.00000000000E+00 -0.74505805969E-08  0.93827000000E+00  0.93827000000E+00 0. -1.
     999902    2    1    2    0    0 -0.11145891399E-01 -0.20228510833E-01 -0.66944129525E-02  0.10198834054E+01  0.10195998833E+01 0.  0.
     999903    2    3    3    0    0  0.79301247098E-01 -0.15765151339E-01 -0.10019385294E+00  0.13030892754E+00  0.20109217827E-01 0.  0.
         14    1    1    2    0    0  0.11145891399E-01  0.20228510833E-01  0.66944129525E-02  0.24046594569E-01  0.00000000000E+00 0.  1.
     999901    1    3    3    0    0 -0.90447138496E-01 -0.44633594941E-02  0.93499439985E-01  0.88957447789E+00  0.88000000000E+00 0. -1.
        -11    1    4    4    0    0  0.62494279270E-01 -0.44995346132E-02 -0.81087247543E-01  0.10247528282E+00  0.51100000000E-03 0. -1.
         11    1    4    4    0    0  0.16806967827E-01 -0.11265616726E-01 -0.19106605395E-01  0.27833644722E-01  0.51100000000E-03 0.  1.
</event>
<event>
 8    1  0.1213322E+005  0.1043930E+01  0.7957747E-01            NaN
         13   -1    0    0    0    0  0.00000000000E+00  0.00000000000E+00  0.74505805969E-08  0.10566000000E+00  0.10566000000E+00 0. -1.
     999900   -1    0    0    0    0 -0.00000000000E+00 -0.00000000000E+00 -0.74505805969E-08  0.93827000000E+00  0.93827000000E+00 0.  1.
     999902    2    1    2    0    0 -0.15778755885E-01  0.88656488001E-02  0.14403538760E-01  0.10207992673E+01  0.10205371690E+01 0.  0.
     999903    2    3    3    0    0 -0.85262705080E-01  0.40120567306E-02  0.10105607706E+00  0.13380420591E+00  0.20134779155E-01 0.  0.
         14    1    1    2    0    0  0.15778755885E-01 -0.88656488001E-02 -0.14403538760E-01  0.23130732689E-01  0.00000000000E+00 0.  1.
     999901    1    3    3    0    0  0.69483949196E-01  0.48535920695E-02 -0.86652538304E-01  0.88699506140E+00  0.88000000000E+00 0.  1.
        -11    1    4    4    0    0 -0.72162955676E-01 -0.31370445319E-02  0.77757571736E-01  0.10613121267E+00  0.51100000000E-03 0.  1.
         11    1    4    4    0    0 -0.13099749405E-01  0.71491012625E-02  0.23298505327E-01  0.27672993239E-01  0.51100000000E-03 0. -1.
</event>
<event>
 8    1  0.1213322E+005  0.1043930E+01  0.7957747E-01            NaN
         13   -1    0    0    0    0  0.00000000000E+00  0.00000000000E+00  0.74505805969E-08  0.10566000000E+00  0.10566000000E+00 0.  1.
     999900   -1    0    0    0    0 -0.00000000000E+00 -0.00000000000E+00 -0.74505805969E-08  0.93827000000E+00  0.93827000000E+00 0.  1.
     999902    2    1    2    0    0 -0.13618739281E-01  0.17718268248E-01  0.60398181098E-02  0.10207807777E+01  0.10205182554E+01 0.  0.
     999903    2    3    3    0    0 -0.38191610386E-01 -0.12009147308E+00 -0.21317602436E-01  0.12929674575E+00  0.19561372067E-01 0.  0.
         14    1    1    2    0    0  0.13618739281E-01 -0.17718268248E-01 -0.60398181098E-02  0.23149222279E-01  0.00000000000E+00 0. -1.
     999901    1    3    3    0    0  0.24572871105E-01  0.13780974133E+00  0.27357420545E-01  0.89148403197E+00  0.88000000000E+00 0. -1.
        -11    1    4    4    0    0 -0.31998022225E-01 -0.10478176014E+00 -0.11710749554E-01  0.11018390745E+00  0.51100000000E-03 0.  1.
         11    1    4    4    0    0 -0.61935881607E-02 -0.15309712938E-01 -0.96068528812E-02  0.19112838299E-01  0.51100000000E-03 0. -1.
</event>
<event>
 8    1  0.1213322E+005  0.1043930E+01  0.7957747E-01            NaN
         13   -1    0    0    0    0  0.00000000000E+00  0.00000000000E+00  0.74505805969E-08  0.10566000000E+00  0.10566000000E+00 0.  1.
     999900   -1    0    0    0    0 -0.00000000000E+00 -0.00000000000E+00 -0.74505805969E-08  0.93827000000E+00  0.93827000000E+00 0.  1.
     999902    2    1    2    0    0 -0.34068180994E-02  0.65216137137E-03 -0.27832966903E-01  0.10158817243E+01  0.10154944470E+01 0.  0.
     999903    2    3    3    0    0  0.79463984102E-01  0.95344963618E-01  0.10664454295E-01  0.12609728517E+00  0.19534786526E-01 0.  0.
         14    1    1    2    0    0  0.34068180994E-02 -0.65216137137E-03  0.27832966903E-01  0.28048275716E-01  0.00000000000E+00 0.  1.
     999901    1    3    3    0    0 -0.82870802201E-01 -0.94692802247E-01 -0.38497421198E-01  0.88978443912E+00  0.88000000000E+00 0.  1.
        -11    1    4    4    0    0  0.60924182574E-01  0.64523738108E-01  0.14508366899E-01  0.89921202354E-01  0.51100000000E-03 0. -1.
         11    1    4    4    0    0  0.18539801528E-01  0.30821225510E-01 -0.38439126043E-02  0.36176082814E-01  0.51100000000E-03 0.  1.
</event>
<event>
 8    1  0.1213322E+005  0.1043930E+01  0.7957747E-01            NaN
         13   -1    0    0    0    0  0.00000000000E+00  0.00000000000E+00  0.74505805969E-08  0.10566000000E+00  0.10566000000E+00 0. -1.
     999900   -1    0    0    0    0 -0.00000000000E+00 -0.00000000000E+00 -0.74505805969E-08  0.93827000000E+00  0.93827000000E+00 0.  1.
     999902    2    1    2    0    0 -0.33259919034E-03 -0.24308640100E-02 -0.23820746851E-01  0.10199832319E+01  0.10197020867E+01 0.  0.
     999903    2    3    3    0    0 -0.12755213528E+00  0.82994205572E-02 -0.19271829676E-01  0.13075848977E+00  0.19696487780E-01 0.  0.
         14    1    1    2    0    0  0.33259919034E-03  0.24308640100E-02  0.23820746851E-01  0.23946768103E-01  0.00000000000E+00 0. -1.
     999901    1    3    3    0    0  0.12721953609E+00 -0.10730284567E-01 -0.45489171742E-02  0.88922474213E+00  0.88000000000E+00 0. -1.
        -11    1    4    4    0    0 -0.32096449229E-01 -0.27596012030E-02 -0.12026027365E-01  0.34390171664E-01  0.51100000000E-03 0. -1.
         11    1    4    4    0    0 -0.95455686051E-01  0.11059021760E-01 -0.72458023118E-02  0.96368318102E-01  0.51100000000E-03 0.  1.
</event>
<event>
 8    1  0.1213322E+005  0.1043930E+01  0.7957747E-01            NaN
         13   -1    0    0    0    0  0.00000000000E+00  0.00000000000E+00  0.74505805969E-08  0.10566000000E+00  0.10566000000E+00 0. -1.
     999900   -1    0    0    0    0 -0.00000000000E+00 -0.00000000000E+00 -0.74505805969E-08  0.93827000000E+00  0.93827000000E+00 0. -1.
     999902    2    1    2    0    0 -0.17194729743E-01 -0.15393976685E-01 -0.30099379182E-02  0.10206557014E+01  0.10203903017E+01 0.  0.
     999903    2    3    3    0    0 -0.64884817191E-01 -0.75071663418E-02  0.11269640699E+00  0.13176622319E+00  0.19886185593E-01 0.  0.
         14    1    1    2    0    0  0.17194729743E-01  0.15393976685E-01  0.30099379182E-02  0.23274298601E-01  0.00000000000E+00 0. -1.
     999901    1    3    3    0    0  0.47690087449E-01 -0.78868103436E-02 -0.11570634491E+00  0.88888947821E+00  0.88000000000E+00 0. -1.
        -11    1    4    4    0    0 -0.64899510461E-01 -0.44874266412E-02  0.10927225608E+00  0.12717220815E+00  0.51100000000E-03 0.  1.
         11    1    4    4    0    0  0.14693270299E-04 -0.30197397005E-02  0.34241509109E-02  0.45940150426E-02  0.51100000000E-03 0. -1.
</event>
<event>
 8    1  0.1213322E+005  0.1043930E+01  0.7957747E-01            NaN
         13   -1    0    0    0    0  0.00000000000E+00  0.00000000000E+00  0.74505805969E-08  0.10566000000E+00  0.10566000000E+00 0. -1.
     999900   -1    0    0    0    0 -0.00000000000E+00 -0.00000000000E+00 -0.74505805969E-08  0.93827000000E+00  0.93827000000E+00 0.  1.
     999902    2    1    2    0    0  0.70029320619E-02 -0.93307386068E-02  0.21360181233E-01  0.10195915308E+01  0.10193010000E+01 0.  0.
     999903    2    3    3    0    0 -0.33581603021E-01 -0.60369844877E-01  0.11137167988E+00  0.13259989345E+00  0.20170236287E-01 0.  0.
         14    1    1    2    0    0 -0.70029320619E-02  0.93307386068E-02 -0.21360181233E-01  0.24338469194E-01  0.00000000000E+00 0.  1.
     999901    1    3    3    0    0  0.40584535083E-01  0.51039106270E-01 -0.90011498643E-01  0.88699163736E+00  0.88000000000E+00 0.  1.
        -11    1    4    4    0    0 -0.48945012002E-02 -0.47891837771E-02  0.25207140624E-01  0.26125724539E-01  0.51100000000E-03 0.  1.
         11    1    4    4    0    0 -0.28687101821E-01 -0.55580661100E-01  0.86164539252E-01  0.10647416891E+00  0.51100000000E-03 0. -1.
</event>
<event>
 8    1  0.1213322E+005  0.1043930E+01  0.7957747E-01            NaN
         13   -1    0    0    0    0  0.00000000000E+00  0.00000000000E+00  0.74505805969E-08  0.10566000000E+00  0.10566000000E+00 0.  1.
     999900   -1    0    0    0    0 -0.00000000000E+00 -0.00000000000E+00 -0.74505805969E-08  0.93827000000E+00  0.93827000000E+00 0. -1.
     999902    2    1    2    0    0  0.17113249323E-01 -0.16380017419E-01 -0.52051763232E-02  0.10196758842E+01  0.10193873879E+01 0.  0.
     999903    2    3    3    0    0 -0.37758744350E-01  0.11831765981E+00  0.12553518909E-01  0.12756054905E+00  0.26254741278E-01 0.  0.
         14    1    1    2    0    0 -0.17113249323E-01  0.16380017419E-01  0.52051763232E-02  0.24254115807E-01  0.00000000000E+00 0. -1.
     999901    1    3    3    0    0  0.54871993673E-01 -0.13469767723E+00 -0.17758695233E-01  0.89211533514E+00  0.88000000000E+00 0. -1.
        -11    1    4    4    0    0 -0.31709360436E-01  0.10205892742E+00  0.19908543217E-01  0.10871117431E+00  0.51100000000E-03 0.  1.
         11    1    4    4    0    0 -0.60493839138E-02  0.16258732391E-01 -0.73550243077E-02  0.18849374745E-01  0.51100000000E-03 0. -1.
</event>
<event>
 8    1  0.1213322E+005  0.1043930E+01  0.7957747E-01            NaN
         13   -1    0    0    0    0  0.00000000000E+00  0.00000000000E+00  0.74505805969E-08  0.10566000000E+00  0.10566000000E+00 0. -1.
     999900   -1    0    0    0    0 -0.00000000000E+00 -0.00000000000E+00 -0.74505805969E-08  0.93827000000E+00  0.93827000000E+00 0.  1.
     999902    2    1    2    0    0  0.15801530617E-01 -0.11342876469E-01  0.13417069008E-01  0.10203002104E+01  0.10200265449E+01 0.  0.
     999903    2    3    3    0    0  0.95940178112E-02 -0.10009307058E+00  0.84773872081E-01  0.13294068713E+00  0.19389403076E-01 0.  0.
         14    1    1    2    0    0 -0.15801530617E-01  0.11342876469E-01 -0.13417069008E-01  0.23629789614E-01  0.00000000000E+00 0.  1.
     999901    1    3    3    0    0  0.62075128058E-02  0.88750194107E-01 -0.71356803073E-01  0.88735952326E+00  0.88000000000E+00 0.  1.
        -11    1    4    4    0    0  0.15880840816E-02 -0.71912994626E-01  0.68949278191E-01  0.99640678898E-01  0.51100000000E-03 0. -1.
         11    1    4    4    0    0  0.80059337296E-02 -0.28180075950E-01  0.15824593890E-01  0.33300008232E-01  0.51100000000E-03 0.  1.
</event>
<event>
 8    1  0.1213322E+005  0.1043930E+01  0.7957747E-01            NaN
         13   -1    0    0    0    0  0.00000000000E+00  0.00000000000E+00  0.74505805969E-08  0.10566000000E+00  0.10566000000E+00 0. -1.
     999900   -1    0    0    0    0 -0.00000000000E+00 -0.00000000000E+00 -0.74505805969E-08  0.93827000000E+00  0.93827000000E+00 0. -1.
     999902    2    1    2    0    0  0.20125767288E-01  0.82958326736E-02  0.94116742011E-02  0.10202140358E+01  0.10199383471E+01 0.  0.
     999903    2    3    3    0    0  0.97845634801E-01 -0.10657136989E-01  0.87703557677E-01  0.13312372926E+00  0.18511359866E-01 0.  0.
         14    1    1    2    0    0 -0.20125767288E-01 -0.82958326736E-02 -0.94116742011E-02  0.23715964242E-01  0.00000000000E+00 0.  1.
     999901    1    3    3    0    0 -0.77719867514E-01  0.18952969662E-01 -0.78291883476E-01  0.88709030650E+00  0.88000000000E+00 0. -1.
        -11    1    4    4    0    0  0.64687373335E-01 -0.10843752657E-01  0.47377947768E-01  0.80913375262E-01  0.51100000000E-03 0.  1.
         11    1    4    4    0    0  0.33158261467E-01  0.18661566835E-03  0.40325609910E-01  0.52210353997E-01  0.51100000000E-03 0. -1.
</event>
<event>
 8    1  0.1213322E+005  0.1043930E+01  0.7957747E-01            NaN
         13   -1    0    0    0    0  0.00000000000E+00  0.00000000000E+00  0.74505805969E-08  0.10566000000E+00  0.10566000000E+00 0.  1.
     999900   -1    0    0    0    0 -0.00000000000E+00 -0.00000000000E+00 -0.74505805969E-08  0.93827000000E+00  0.93827000000E+00 0.  1.
     999902    2    1    2    0    0 -0.55859474744E-02  0.20133380554E-02  0.22978085822E-01  0.10201971374E+01  0.10199210511E+01 0.  0.
     999903    2    3    3    0    0 -0.99257548495E-01 -0.51748435647E-01 -0.61937005300E-01  0.12953711817E+00  0.20339882818E-01 0.  0.
         14    1    1    2    0    0  0.55859474744E-02 -0.20133380554E-02 -0.22978085822E-01  0.23732862603E-01  0.00000000000E+00 0. -1.
     999901    1    3    3    0    0  0.93671601020E-01  0.53761773702E-01  0.84915091122E-01  0.89066001923E+00  0.88000000000E+00 0. -1.
        -11    1    4    4    0    0 -0.12061531121E-01 -0.21523276639E-03 -0.33672376240E-02  0.12535001729E-01  0.51100000000E-03 0.  1.
         11    1    4    4    0    0 -0.87196017374E-01 -0.51533202880E-01 -0.58569767676E-01  0.11700211644E+00  0.51100000000E-03 0. -1.
</event>
<event>
 8    1  0.1213322E+005  0.1043930E+01  0.7957747E-01            NaN
         13   -1    0    0    0    0  0.00000000000E+00  0.00000000000E+00  0.74505805969E-08  0.10566000000E+00  0.10566000000E+00 0.  1.
     999900   -1    0    0    0    0 -0.00000000000E+00 -0.00000000000E+00 -0.74505805969E-08  0.93827000000E+00  0.93827000000E+00 0. -1.
     999902    2    1    2    0    0 -0.11307281462E-01  0.17014844686E-01 -0.13954481131E-01  0.10191896060E+01  0.10188892804E+01 0.  0.
     999903    2    3    3    0    0 -0.23335556909E-01 -0.65017057494E-01  0.10508690187E+00  0.12731250498E+00  0.19835599272E-01 0.  0.
         14    1    1    2    0    0  0.11307281462E-01 -0.17014844686E-01  0.13954481131E-01  0.24740394043E-01  0.00000000000E+00 0.  1.
     999901    1    3    3    0    0  0.12028275447E-01  0.82031902180E-01 -0.11904138300E+00  0.89187710098E+00  0.88000000000E+00 0. -1.
        -11    1    4    4    0    0  0.13222685636E-02 -0.14019632808E-01  0.30980970887E-01  0.34034984594E-01  0.51100000000E-03 0.  1.
         11    1    4    4    0    0 -0.24657825473E-01 -0.50997424686E-01  0.74105930979E-01  0.93277520384E-01  0.51100000000E-03 0. -1.
</event>
<event>
 8    1  0.1213322E+005  0.1043930E+01  0.7957747E-01            NaN
         13   -1    0    0    0    0  0.00000000000E+00  0.00000000000E+00  0.74505805969E-08  0.10566000000E+00  0.10566000000E+00 0. -1.
     999900   -1    0    0    0    0 -0.00000000000E+00 -0.00000000000E+00 -0.74505805969E-08  0.93827000000E+00  0.93827000000E+00 0. -1.
     999902    2    1    2    0    0  0.17158352365E-01  0.13398958842E-02  0.14865937148E-01  0.10211879582E+01  0.10209346921E+01 0.  0.
     999903    2    3    3    0    0  0.57708264227E-01 -0.86695204965E-01 -0.77269506898E-01  0.13108492240E+00  0.19140999461E-01 0.  0.
         14    1    1    2    0    0 -0.17158352365E-01 -0.13398958842E-02 -0.14865937148E-01  0.22742041776E-01  0.00000000000E+00 0.  1.
     999901    1    3    3    0    0 -0.40549911862E-01  0.88035100849E-01  0.92135444045E-01  0.89010303582E+00  0.88000000000E+00 0. -1.
        -11    1    4    4    0    0  0.36745649299E-01 -0.69476019363E-01 -0.60535838312E-01  0.99206899206E-01  0.51100000000E-03 0.  1.
         11    1    4    4    0    0  0.20962614928E-01 -0.17219185602E-01 -0.16733668586E-01  0.31878023194E-01  0.51100000000E-03 0. -1.
</event>
<event>
 8    1  0.1213322E+005  0.1043930E+01  0.7957747E-01            NaN
         13   -1    0    0    0    0  0.00000000000E+00  0.00000000000E+00  0.74505805969E-08  0.10566000000E+00  0.10566000000E+00 0.  1.
     999900   -1    0    0    0    0 -0.00000000000E+00 -0.00000000000E+00 -0.74505805969E-08  0.93827000000E+00  0.93827000000E+00 0. -1.
     999902    2    1    2    0    0 -0.19248953264E-01  0.12163558758E-01 -0.74346028010E-02  0.10199769692E+01  0.10196956752E+01 0.  0.
     999903    2    3    3    0    0  0.91809335589E-01 -0.30816035813E-01 -0.82407369978E-01  0.12879679392E+00  0.20470889905E-01 0.  0.
         14    1    1    2    0    0  0.19248953264E-01 -0.12163558758E-01  0.74346028010E-02  0.23953030753E-01  0.00000000000E+00 0.  1.
     999901    1    3    3    0    0 -0.11105828885E+00  0.42979594571E-01  0.74972767177E-01  0.89118017532E+00  0.88000000000E+00 0.  1.
        -11    1    4    4    0    0  0.63360803431E-01 -0.11365118150E-01 -0.56931612840E-01  0.85937343359E-01  0.51100000000E-03 0.  1.
         11    1    4    4    0    0  0.28448532158E-01 -0.19450917663E-01 -0.25475757138E-01  0.42859450564E-01  0.51100000000E-03 0. -1.
</event>
<event>
 8    1  0.1213322E+005  0.1043930E+01  0.7957747E-01            NaN
         13   -1    0    0    0    0  0.00000000000E+00  0.00000000000E+00  0.74505805969E-08  0.10566000000E+00  0.10566000000E+00 0.  1.
     999900   -1    0    0    0    0 -0.00000000000E+00 -0.00000000000E+00 -0.74505805969E-08  0.93827000000E+00  0.93827000000E+00 0. -1.
     999902    2    1    2    0    0  0.19270686742E-01 -0.17322843251E-01  0.18993488938E-01  0.10118022412E+01  0.10112920361E+01 0.  0.
     999903    2    3    3    0    0 -0.56116233213E-03 -0.10836839023E-02 -0.11896887969E+00  0.12068461274E+00  0.20240853344E-01 0.  0.
         14    1    1    2    0    0 -0.19270686742E-01  0.17322843251E-01 -0.18993488938E-01  0.32127758836E-01  0.00000000000E+00 0.  1.
     999901    1    3    3    0    0  0.19831849074E-01 -0.16239159349E-01  0.13796236862E+00  0.89111762843E+00  0.88000000000E+00 0.  1.
        -11    1    4    4    0    0  0.58733281999E-02 -0.72395699491E-02 -0.34325954016E-01  0.35573017826E-01  0.51100000000E-03 0.  1.
         11    1    4    4    0    0 -0.64344905320E-02  0.61558860468E-02 -0.84642925670E-01  0.85111594912E-01  0.51100000000E-03 0. -1.
</event>
<event>
 8    1  0.1213322E+005  0.1043930E+01  0.7957747E-01            NaN
         13   -1    0    0    0    0  0.00000000000E+00  0.00000000000E+00  0.74505805969E-08  0.10566000000E+00  0.10566000000E+00 0.  1.
     999900   -1    0    0    0    0 -0.00000000000E+00 -0.00000000000E+00 -0.74505805969E-08  0.93827000000E+00  0.93827000000E+00 0. -1.
     999902    2    1    2    0    0  0.20207899754E-01  0.11043664907E-01 -0.16081123386E-03  0.10209007228E+01  0.10206409448E+01 0.  0.
     999903    2    3    3    0    0 -0.19756964444E-01 -0.11834721446E+00  0.44115309964E-01  0.12944148935E+00  0.20311025995E-01 0.  0.
         14    1    1    2    0    0 -0.20207899754E-01 -0.11043664907E-01  0.16081123386E-03  0.23029277177E-01  0.00000000000E+00 0.  1.
     999901    1    3    3    0    0  0.39964864198E-01  0.12939087937E+00 -0.44276121198E-01  0.89145923347E+00  0.88000000000E+00 0. -1.
        -11    1    4    4    0    0 -0.22813475950E-01 -0.97296778442E-01  0.31887641767E-01  0.10490090847E+00  0.51100000000E-03 0. -1.
         11    1    4    4    0    0  0.30565115060E-02 -0.21050436020E-01  0.12227668197E-01  0.24540580877E-01  0.51100000000E-03 0.  1.
</event>
<event>
 8    1  0.1213322E+005  0.1043930E+01  0.7957747E-01            NaN
         13   -1    0    0    0    0  0.00000000000E+00  0.00000000000E+00  0.74505805969E-08  0.10566000000E+00  0.10566000000E+00 0.  1.
     999900   -1    0    0    0    0 -0.00000000000E+00 -0.00000000000E+00 -0.74505805969E-08  0.93827000000E+00  0.93827000000E+00 0.  1.
     999902    2    1    2    0    0 -0.78187109773E-02  0.56675406669E-02  0.20853950620E-01  0.10209486921E+01  0.10206900074E+01 0.  0.
     999903    2    3    3    0    0  0.23510106686E-02 -0.67838272431E-01  0.11267013289E+00  0.13306540066E+00  0.20106803577E-01 0.  0.
         14    1    1    2    0    0  0.78187109773E-02 -0.56675406669E-02 -0.20853950620E-01  0.22981307948E-01  0.00000000000E+00 0. -1.
     999901    1    3    3    0    0 -0.10169721646E-01  0.73505813097E-01 -0.91816182274E-01  0.88788329139E+00  0.88000000000E+00 0.  1.
        -11    1    4    4    0    0  0.11018496241E-04 -0.47787914749E-01  0.60331192284E-01  0.76966218570E-01  0.51100000000E-03 0.  1.
         11    1    4    4    0    0  0.23399921724E-02 -0.20050357681E-01  0.52338940610E-01  0.56099182094E-01  0.51100000000E-03 0. -1.
</event>
<event>
 8    1  0.1213322E+005  0.1043930E+01  0.7957747E-01            NaN
         13   -1    0    0    0    0  0.00000000000E+00  0.00000000000E+00  0.74505805969E-08  0.10566000000E+00  0.10566000000E+00 0. -1.
     999900   -1    0    0    0    0 -0.00000000000E+00 -0.00000000000E+00 -0.74505805969E-08  0.93827000000E+00  0.93827000000E+00 0. -1.
     999902    2    1    2    0    0  0.13721221772E-01 -0.10212803695E-01  0.23455082014E-01  0.10149004606E+01  0.10144852048E+01 0.  0.
     999903    2    3    3    0    0 -0.89484919638E-01 -0.47833541496E-01  0.73005312260E-01  0.12668761850E+00  0.20600449690E-01 0.  0.
         14    1    1    2    0    0 -0.13721221772E-01  0.10212803695E-01 -0.23455082014E-01  0.29029539413E-01  0.00000000000E+00 0.  1.
     999901    1    3    3    0    0  0.10320614141E+00  0.37620737801E-01 -0.49550230246E-01  0.88821284209E+00  0.88000000000E+00 0.  1.
        -11    1    4    4    0    0 -0.69644584449E-01 -0.39229970657E-01  0.66831174757E-01  0.10419225394E+00  0.51100000000E-03 0.  1.
         11    1    4    4    0    0 -0.19840335189E-01 -0.86035708395E-02  0.61741375031E-02  0.22495364556E-01  0.51100000000E-03 0. -1.
</event>
<event>
 8    1  0.1213322E+005  0.1043930E+01  0.7957747E-01            NaN
         13   -1    0    0    0    0  0.00000000000E+00  0.00000000000E+00  0.74505805969E-08  0.10566000000E+00  0.10566000000E+00 0.  1.
     999900   -1    0    0    0    0 -0.00000000000E+00 -0.00000000000E+00 -0.74505805969E-08  0.93827000000E+00  0.93827000000E+00 0. -1.
     999902    2    1    2    0    0  0.13858709123E-01  0.21258980609E-01 -0.50120977197E-03  0.10185477368E+01  0.10182314240E+01 0.  0.
     999903    2    3    3    0    0 -0.11224443296E+00 -0.39282395436E-01  0.38749757508E-01  0.12663524158E+00  0.19824766884E-01 0.  0.
         14    1    1    2    0    0 -0.13858709123E-01 -0.21258980609E-01  0.50120977197E-03  0.25382263223E-01  0.00000000000E+00 0. -1.
     999901    1    3    3    0    0  0.12610314208E+00  0.60541376045E-01 -0.39250967280E-01  0.89191249520E+00  0.88000000000E+00 0.  1.
        -11    1    4    4    0    0 -0.10711264017E+00 -0.35111661650E-01  0.40498134541E-01  0.11977606811E+00  0.51100000000E-03 0. -1.
         11    1    4    4    0    0 -0.51317927818E-02 -0.41707337860E-02 -0.17483770325E-02  0.68591734718E-02  0.51100000000E-03 0.  1.
</event>
<event>
 8    1  0.1213322E+005  0.1043930E+01  0.7957747E-01            NaN
         13   -1    0    0    0    0  0.00000000000E+00  0.00000000000E+00  0.74505805969E-08  0.10566000000E+00  0.10566000000E+00 0.  1.
     999900   -1    0    0    0    0 -0.00000000000E+00 -0.00000000000E+00 -0.74505805969E-08  0.93827000000E+00  0.93827000000E+00 0.  1.
     999902    2    1    2    0    0 -0.75070274784E-02 -0.73646118762E-02  0.20124605997E-01  0.10212233328E+01  0.10209708628E+01 0.  0.
     999903    2    3    3    0    0  0.90511337410E-01 -0.67000381670E-01  0.67349060353E-01  0.13251968477E+00  0.18553101579E-01 0.  0.
         14    1    1    2    0    0  0.75070274784E-02  0.73646118762E-02 -0.20124605997E-01  0.22706667219E-01  0.00000000000E+00 0. -1.
     999901    1    3    3    0    0 -0.98018364888E-01  0.59635769794E-01 -0.47224454356E-01  0.88870364801E+00  0.88000000000E+00 0.  1.
        -11    1    4    4    0    0  0.36428968743E-05 -0.32945889517E-02  0.10256108390E-02  0.34881697528E-02  0.51100000000E-03 0. -1.
         11    1    4    4    0    0  0.90507694513E-01 -0.63705792718E-01  0.66323449514E-01  0.12903151502E+00  0.51100000000E-03 0.  1.
</event>
<event>
 8    1  0.1213322E+005  0.1043930E+01  0.7957747E-01            NaN
         13   -1    0    0    0    0  0.00000000000E+00  0.00000000000E+00  0.74505805969E-08  0.10566000000E+00  0.10566000000E+00 0. -1.
     999900   -1    0    0    0    0 -0.00000000000E+00 -0.00000000000E+00 -0.74505805969E-08  0.93827000000E+00  0.93827000000E+00 0. -1.
     999902    2    1    2    0    0 -0.13270561944E-01 -0.21511020778E-01 -0.10848340524E-01  0.10164251219E+01  0.10160529071E+01 0.  0.
     999903    2    3    3    0    0 -0.32449355191E-01 -0.96768586952E-02  0.12049359617E+00  0.12639221357E+00  0.17597803498E-01 0.  0.
         14    1    1    2    0    0  0.13270561944E-01  0.21511020778E-01  0.10848340524E-01  0.27504878137E-01  0.00000000000E+00 0.  1.
     999901    1    3    3    0    0  0.19178793248E-01 -0.11834162082E-01 -0.13134193669E+00  0.89003290829E+00  0.88000000000E+00 0. -1.
        -11    1    4    4    0    0 -0.49424224913E-02  0.11321027924E-02  0.45484169733E-01  0.45768766797E-01  0.51100000000E-03 0. -1.
         11    1    4    4    0    0 -0.27506932700E-01 -0.10808961488E-01  0.75009426436E-01  0.80623446777E-01  0.51100000000E-03 0.  1.
</event>
<event>
 8    1  0.1213322E+005  0.1043930E+01  0.7957747E-01            NaN
         13   -1    0    0    0    0  0.00000000000E+00  0.00000000000E+00  0.74505805969E-08  0.10566000000E+00  0.10566000000E+00 0. -1.
     999900   -1    0    0    0    0 -0.00000000000E+00 -0.00000000000E+00 -0.74505805969E-08  0.93827000000E+00  0.93827000000E+00 0. -1.
     999902    2    1    2    0    0 -0.10882399126E-01 -0.19396229731E-01 -0.74228383121E-02  0.10204834892E+01  0.10202141015E+01 0.  0.
     999903    2    3    3    0    0 -0.13858415191E-03 -0.11762012410E+00  0.57256566480E-01  0.13259453875E+00  0.21644502799E-01 0.  0.
         14    1    1    2    0    0  0.10882399126E-01  0.19396229731E-01  0.74228383121E-02  0.23446510766E-01  0.00000000000E+00 0.  1.
     999901    1    3    3    0    0 -0.10743814974E-01  0.98223894374E-01 -0.64679404792E-01  0.88788895048E+00  0.88000000000E+00 0. -1.
        -11    1    4    4    0    0 -0.38165581052E-02 -0.58970600911E-01  0.17463841090E-01  0.61622599378E-01  0.51100000000E-03 0.  1.
         11    1    4    4    0    0  0.36779739532E-02 -0.58649523194E-01  0.39792725390E-01  0.70971939372E-01  0.51100000000E-03 0. -1.
</event>
<event>
 8    1  0.1213322E+005  0.1043930E+01  0.7957747E-01            NaN
         13   -1    0    0    0    0  0.00000000000E+00  0.00000000000E+00  0.74505805969E-08  0.10566000000E+00  0.10566000000E+00 0. -1.
     999900   -1    0    0    0    0 -0.00000000000E+00 -0.00000000000E+00 -0.74505805969E-08  0.93827000000E+00  0.93827000000E+00 0.  1.
     999902    2    1    2    0    0  0.17944912853E-01 -0.30888102625E-02 -0.15435646728E-01  0.10200591006E+01  0.10197797551E+01 0.  0.
     999903    2    3    3    0    0  0.73202161505E-01  0.10467514964E+00  0.20993565092E-01  0.13101831302E+00  0.20239198878E-01 0.  0.
         14    1    1    2    0    0 -0.17944912853E-01  0.30888102625E-02  0.15435646728E-01  0.23870899356E-01  0.00000000000E+00 0.  1.
     999901    1    3    3    0    0 -0.55257248651E-01 -0.10776395990E+00 -0.36429211821E-01  0.88904078762E+00  0.88000000000E+00 0.  1.
        -11    1    4    4    0    0  0.31432155718E-01  0.29083536210E-01  0.97645262124E-02  0.43925386563E-01  0.51100000000E-03 0.  1.
         11    1    4    4    0    0  0.41770005787E-01  0.75591613428E-01  0.11229038880E-01  0.87092926459E-01  0.51100000000E-03 0. -1.
</event>
<event>
 8    1  0.1213322E+005  0.1043930E+01  0.7957747E-01            NaN
         13   -1    0    0    0    0  0.00000000000E+00  0.00000000000E+00  0.74505805969E-08  0.10566000000E+00  0.10566000000E+00 0. -1.
     999900   -1    0    0    0    0 -0.00000000000E+00 -0.00000000000E+00 -0.74505805969E-08  0.93827000000E+00  0.93827000000E+00 0.  1.
     999902    2    1    2    0    0  0.16691219500E-01 -0.12970652920E-01 -0.11138818301E-01  0.10200363205E+01  0.10197564353E+01 0.  0.
     999903    2    3    3    0    0  0.11691259352E+00  0.55942208786E-01 -0.11816138790E-01  0.13167053715E+00  0.19985594040E-01 0.  0.
         14    1    1    2    0    0 -0.16691219500E-01  0.12970652920E-01  0.11138818301E-01  0.23893679473E-01  0.00000000000E+00 0. -1.
     999901    1    3    3    0    0 -0.10022137402E+00 -0.68912861706E-01  0.67732048883E-03  0.88836578338E+00  0.88000000000E+00 0. -1.
        -11    1    4    4    0    0  0.66808584752E-01  0.29480337964E-01  0.30459470831E-02  0.73089097940E-01  0.51100000000E-03 0.  1.
         11    1    4    4    0    0  0.50104008768E-01  0.26461870822E-01 -0.14862085873E-01  0.58581439206E-01  0.51100000000E-03 0. -1.
</event>
<event>
 8    1  0.1213322E+005  0.1043930E+01  0.7957747E-01            NaN
         13   -1    0    0    0    0  0.00000000000E+00  0.00000000000E+00  0.74505805969E-08  0.10566000000E+00  0.10566000000E+00 0. -1.
     999900   -1    0    0    0    0 -0.00000000000E+00 -0.00000000000E+00 -0.74505805969E-08  0.93827000000E+00  0.93827000000E+00 0. -1.
     999902    2    1    2    0    0 -0.11158696368E-01 -0.17968595241E-01  0.16545081489E-01  0.10170761988E+01  0.10167216273E+01 0.  0.
     999903    2    3    3    0    0  0.12250133860E+00 -0.16511112550E-01 -0.17272001967E-01  0.12634014114E+00  0.19603938818E-01 0.  0.
         14    1    1    2    0    0  0.11158696368E-01  0.17968595241E-01 -0.16545081489E-01  0.26853801240E-01  0.00000000000E+00 0.  1.
     999901    1    3    3    0    0 -0.13366003496E+00 -0.14574826913E-02  0.33817083456E-01  0.89073605762E+00  0.88000000000E+00 0.  1.
        -11    1    4    4    0    0  0.75554499542E-01 -0.16617203923E-01 -0.17817349790E-01  0.79387234124E-01  0.51100000000E-03 0. -1.
         11    1    4    4    0    0  0.46946839053E-01  0.10609137302E-03  0.54534782224E-03  0.46952907021E-01  0.51100000000E-03 0.  1.
</event>
<event>
 7    1  0.1756678E+005  0.1043930E+01  0.7957747E-01            NaN
         13   -1    0    0    0    0  0.00000000000E+00  0.00000000000E+00  0.74505805969E-08  0.10566000000E+00  0.10566000000E+00 0. -1.
     999900   -1    0    0    0    0 -0.00000000000E+00 -0.00000000000E+00 -0.74505805969E-08  0.93827000000E+00  0.93827000000E+00 0.  1.
     999903    2    1    2    0    0 -0.69192472092E-01  0.45508725858E-01 -0.55752699572E-01  0.10175101027E+00  0.19653555858E-01 0.  0.
         14    1    1    2    0    0  0.48526943673E-01  0.28481243766E-01 -0.64972683487E-02  0.56641504259E-01  0.00000000000E+00 0. -1.
     999901    1    1    2    0    0  0.20665528419E-01 -0.73989969625E-01  0.62249967920E-01  0.88553748547E+00  0.88000000000E+00 0. -1.
        -11    1    3    3    0    0 -0.20471709205E-01  0.23372364201E-01 -0.26020949187E-01  0.40530349168E-01  0.51100000000E-03 0. -1.
         11    1    3    3    0    0 -0.48720762887E-01  0.22136361657E-01 -0.29731750385E-01  0.61220661101E-01  0.51100000000E-03 0.  1.
</event>
<event>
 8    1  0.1213322E+005  0.1043930E+01  0.7957747E-01            NaN
         13   -1    0    0    0    0  0.00000000000E+00  0.00000000000E+00  0.74505805969E-08  0.10566000000E+00  0.10566000000E+00 0. -1.
     999900   -1    0    0    0    0 -0.00000000000E+00 -0.00000000000E+00 -0.74505805969E-08  0.93827000000E+00  0.93827000000E+00 0. -1.
     999902    2    1    2    0    0 -0.97102357914E-02 -0.29589138848E-02  0.23019409345E-01  0.10187717597E+01  0.10184610750E+01 0.  0.
     999903    2    3    3    0    0  0.65746009965E-01  0.52409812862E-01 -0.92405156162E-01  0.12631326132E+00  0.18627957232E-01 0.  0.
         14    1    1    2    0    0  0.97102357914E-02  0.29589138848E-02 -0.23019409345E-01  0.25158240342E-01  0.00000000000E+00 0.  1.
     999901    1    3    3    0    0 -0.75456245756E-01 -0.55368726747E-01  0.11542456551E+00  0.89245849833E+00  0.88000000000E+00 0.  1.
        -11    1    4    4    0    0  0.28939274295E-01  0.34741576109E-01 -0.46037467554E-01  0.64530366860E-01  0.51100000000E-03 0.  1.
         11    1    4    4    0    0  0.36806735669E-01  0.17668236753E-01 -0.46367688609E-01  0.61782894465E-01  0.51100000000E-03 0. -1.
</event>
<event>
 8    1  0.1213322E+005  0.1043930E+01  0.7957747E-01            NaN
         13   -1    0    0    0    0  0.00000000000E+00  0.00000000000E+00  0.74505805969E-08  0.10566000000E+00  0.10566000000E+00 0.  1.
     999900   -1    0    0    0    0 -0.00000000000E+00 -0.00000000000E+00 -0.74505805969E-08  0.93827000000E+00  0.93827000000E+00 0. -1.
     999902    2    1    2    0    0 -0.21025458381E-01 -0.72412437578E-02 -0.11879383623E-01  0.10187183902E+01  0.10184063695E+01 0.  0.
     999903    2    3    3    0    0 -0.11034368337E+00 -0.18214606845E-01 -0.67723283872E-01  0.13236817661E+00  0.20673428318E-01 0.  0.
         14    1    1    2    0    0  0.21025458381E-01  0.72412437578E-02  0.11879383623E-01  0.25211609757E-01  0.00000000000E+00 0.  1.
     999901    1    3    3    0    0  0.89318224989E-01  0.10973363087E-01  0.55843900249E-01  0.88635021363E+00  0.88000000000E+00 0.  1.
        -11    1    4    4    0    0 -0.87823503162E-01 -0.81022643055E-02 -0.45960715393E-01  0.99454828314E-01  0.51100000000E-03 0.  1.
         11    1    4    4    0    0 -0.22520180208E-01 -0.10112342540E-01 -0.21762568478E-01  0.32913348295E-01  0.51100000000E-03 0. -1.
</event>
<event>
 8    1  0.1213322E+005  0.1043930E+01  0.7957747E-01            NaN
         13   -1    0    0    0    0  0.00000000000E+00  0.00000000000E+00  0.74505805969E-08  0.10566000000E+00  0.10566000000E+00 0.  1.
     999900   -1    0    0    0    0 -0.00000000000E+00 -0.00000000000E+00 -0.74505805969E-08  0.93827000000E+00  0.93827000000E+00 0. -1.
     999902    2    1    2    0    0 -0.19433753732E-01 -0.10166400629E-01  0.10982998982E-01  0.10194013891E+01  0.10191062454E+01 0.  0.
     999903    2    3    3    0    0  0.11121997835E+00  0.54436821326E-01 -0.17586231718E-01  0.12695521429E+00  0.21796783904E-01 0.  0.
         14    1    1    2    0    0  0.19433753732E-01  0.10166400629E-01 -0.10982998982E-01  0.24528610896E-01  0.00000000000E+00 0. -1.
     999901    1    3    3    0    0 -0.13065373209E+00 -0.64603221955E-01  0.28569230700E-01  0.89244617481E+00  0.88000000000E+00 0. -1.
        -11    1    4    4    0    0  0.90533391782E-01  0.34355646491E-01 -0.11867424113E-01  0.97558712320E-01  0.51100000000E-03 0. -1.
         11    1    4    4    0    0  0.20686586572E-01  0.20081174835E-01 -0.57188076050E-02  0.29396501972E-01  0.51100000000E-03 0.  1.
</event>
<event>
 8    1  0.1213322E+005  0.1043930E+01  0.7957747E-01            NaN
         13   -1    0    0    0    0  0.00000000000E+00  0.00000000000E+00  0.74505805969E-08  0.10566000000E+00  0.10566000000E+00 0.  1.
     999900   -1    0    0    0    0 -0.00000000000E+00 -0.00000000000E+00 -0.74505805969E-08  0.93827000000E+00  0.93827000000E+00 0.  1.
     999902    2    1    2    0    0 -0.19987367244E-01  0.11526896635E-01 -0.53469447670E-02  0.10202455322E+01  0.10199705839E+01 0.  0.
     999903    2    3    3    0    0 -0.10737404523E+00  0.30927184076E-01 -0.69953453031E-01  0.13334824192E+00  0.20064688574E-01 0.  0.
         14    1    1    2    0    0  0.19987367244E-01 -0.11526896635E-01  0.53469447670E-02  0.23684467774E-01  0.00000000000E+00 0.  1.
     999901    1    3    3    0    0  0.87386677989E-01 -0.19400287441E-01  0.64606508264E-01  0.88689729031E+00  0.88000000000E+00 0. -1.
        -11    1    4    4    0    0 -0.53939912470E-01  0.20218698497E-01 -0.25411989971E-01  0.62963007246E-01  0.51100000000E-03 0.  1.
         11    1    4    4    0    0 -0.53434132764E-01  0.10708485579E-01 -0.44541463060E-01  0.70385234674E-01  0.51100000000E-03 0. -1.
</event>
<event>
 8    1  0.1213322E+005  0.1043930E+01  0.7957747E-01            NaN
         13   -1    0    0    0    0  0.00000000000E+00  0.00000000000E+00  0.74505805969E-08  0.10566000000E+00  0.10566000000E+00 0.  1.
     999900   -1    0    0    0    0 -0.00000000000E+00 -0.00000000000E+00 -0.74505805969E-08  0.93827000000E+00  0.93827000000E+00 0.  1.
     999902    2    1    2    0    0 -0.82271547707E-02  0.22713614911E-01 -0.73021216493E-02  0.10186928179E+01  0.10183801559E+01 0.  0.
     999903    2    3    3    0    0  0.12156080455E+00  0.33662373457E-01 -0.18203601554E-01  0.12903915950E+00  0.20237316643E-01 0.  0.
         14    1    1    2    0    0  0.82271547707E-02 -0.22713614911E-01  0.73021216493E-02  0.25237182064E-01  0.00000000000E+00 0. -1.
     999901    1    3    3    0    0 -0.12978795933E+00 -0.10948758546E-01  0.10901479904E-01  0.88965365843E+00  0.88000000000E+00 0.  1.
        -11    1    4    4    0    0  0.39316698933E-01  0.14239459544E-02 -0.75066906642E-02  0.40055486051E-01  0.51100000000E-03 0.  1.
         11    1    4    4    0    0  0.82244105622E-01  0.32238427503E-01 -0.10696910889E-01  0.88983673452E-01  0.51100000000E-03 0. -1.
</event>
<event>
 8    1  0.1213322E+005  0.1043930E+01  0.7957747E-01            NaN
         13   -1    0    0    0    0  0.00000000000E+00  0.00000000000E+00  0.74505805969E-08  0.10566000000E+00  0.10566000000E+00 0. -1.
     999900   -1    0    0    0    0 -0.00000000000E+00 -0.00000000000E+00 -0.74505805969E-08  0.93827000000E+00  0.93827000000E+00 0.  1.
     999902    2    1    2    0    0  0.26954954428E-02 -0.23535244051E-01 -0.76289470949E-02  0.10190427695E+01  0.10187388241E+01 0.  0.
     999903    2    3    3    0    0  0.40682645557E-01 -0.16184951755E-01  0.11982146712E+00  0.12901992796E+00  0.19285422377E-01 0.  0.
         14    1    1    2    0    0 -0.26954954428E-02  0.23535244051E-01  0.76289470949E-02  0.24887230501E-01  0.00000000000E+00 0. -1.
     999901    1    3    3    0    0 -0.37987150114E-01 -0.73502922966E-02 -0.12745041421E+00  0.89002284154E+00  0.88000000000E+00 0.  1.
        -11    1    4    4    0    0  0.38341775694E-02 -0.50317665760E-02  0.55323217158E-02  0.84194594289E-02  0.51100000000E-03 0. -1.
         11    1    4    4    0    0  0.36848467988E-01 -0.11153185179E-01  0.11428914540E+00  0.12060046854E+00  0.51100000000E-03 0.  1.
</event>
<event>
 8    1  0.1213322E+005  0.1043930E+01  0.7957747E-01            NaN
         13   -1    0    0    0    0  0.00000000000E+00  0.00000000000E+00  0.74505805969E-08  0.10566000000E+00  0.10566000000E+00 0.  1.
     999900   -1    0    0    0    0 -0.00000000000E+00 -0.00000000000E+00 -0.74505805969E-08  0.93827000000E+00  0.93827000000E+00 0. -1.
     999902    2    1    2    0    0 -0.65757017934E-02  0.18215912308E-01  0.48154562827E-02  0.10239738497E+01  0.10237793693E+01 0.  0.
     999903    2    3    3    0    0 -0.89522354500E-01  0.38367212736E-01  0.91820248137E-01  0.13557300780E+00  0.21512496519E-01 0.  0.
         14    1    1    2    0    0  0.65757017934E-02 -0.18215912308E-01 -0.48154562827E-02  0.19956150293E-01  0.00000000000E+00 0. -1.
     999901    1    3    3    0    0  0.82946652706E-01 -0.20151300428E-01 -0.87004791854E-01  0.88840084191E+00  0.88000000000E+00 0. -1.
        -11    1    4    4    0    0 -0.16773096370E-01  0.12176787852E-01  0.30537299671E-01  0.36910685668E-01  0.51100000000E-03 0.  1.
         11    1    4    4    0    0 -0.72749258130E-01  0.26190424885E-01  0.61282948465E-01  0.98662322128E-01  0.51100000000E-03 0. -1.
</event>
<event>
 8    1  0.1213322E+005  0.1043930E+01  0.7957747E-01            NaN
         13   -1    0    0    0    0  0.00000000000E+00  0.00000000000E+00  0.74505805969E-08  0.10566000000E+00  0.10566000000E+00 0. -1.
     999900   -1    0    0    0    0 -0.00000000000E+00 -0.00000000000E+00 -0.74505805969E-08  0.93827000000E+00  0.93827000000E+00 0. -1.
     999902    2    1    2    0    0  0.16782647194E-01  0.15549425807E-01  0.65335747376E-02  0.10201365242E+01  0.10198590092E+01 0.  0.
     999903    2    3    3    0    0 -0.37368119599E-01 -0.73837313061E-01 -0.95908960639E-01  0.12805089624E+00  0.18713047195E-01 0.  0.
         14    1    1    2    0    0 -0.16782647194E-01 -0.15549425807E-01 -0.65335747376E-02  0.23793475757E-01  0.00000000000E+00 0.  1.
     999901    1    3    3    0    0  0.54150766792E-01  0.89386738868E-01  0.10244253538E+00  0.89208562800E+00  0.88000000000E+00 0.  1.
        -11    1    4    4    0    0 -0.13850290888E-01 -0.32565991067E-01 -0.27768168585E-01  0.44985627032E-01  0.51100000000E-03 0. -1.
         11    1    4    4    0    0 -0.23517828711E-01 -0.41271321994E-01 -0.68140792054E-01  0.83065269211E-01  0.51100000000E-03 0.  1.
</event>
<event>
 8    1  0.1213322E+005  0.1043930E+01  0.7957747E-01            NaN
         13   -1    0    0    0    0  0.00000000000E+00  0.00000000000E+00  0.74505805969E-08  0.10566000000E+00  0.10566000000E+00 0.  1.
     999900   -1    0    0    0    0 -0.00000000000E+00 -0.00000000000E+00 -0.74505805969E-08  0.93827000000E+00  0.93827000000E+00 0. -1.
     999902    2    1    2    0    0  0.24390569296E-01 -0.19264927133E-03 -0.42771265630E-02  0.10191665028E+01  0.10188656092E+01 0.  0.
     999903    2    3    3    0    0  0.32681510187E-01  0.11003271785E-01 -0.12477982498E+00  0.13084505830E+00  0.19007142343E-01 0.  0.
         14    1    1    2    0    0 -0.24390569296E-01  0.19264927133E-03  0.42771265630E-02  0.24763497248E-01  0.00000000000E+00 0.  1.
     999901    1    3    3    0    0 -0.82909408912E-02 -0.11195921056E-01  0.12050269842E+00  0.88832144445E+00  0.88000000000E+00 0.  1.
        -11    1    4    4    0    0  0.25240191920E-01  0.32196393605E-02 -0.10755332761E+00  0.11052335847E+00  0.51100000000E-03 0.  1.
         11    1    4    4    0    0  0.74413182668E-02  0.77836324242E-02 -0.17226497371E-01  0.20321699829E-01  0.51100000000E-03 0. -1.
</event>
<event>
 8    1  0.1213322E+005  0.1043930E+01  0.7957747E-01            NaN
         13   -1    0    0    0    0  0.00000000000E+00  0.00000000000E+00  0.74505805969E-08  0.10566000000E+00  0.10566000000E+00 0. -1.
     999900   -1    0    0    0    0 -0.00000000000E+00 -0.00000000000E+00 -0.74505805969E-08  0.93827000000E+00  0.93827000000E+00 0.  1.
     999902    2    1    2    0    0 -0.18099234887E-01 -0.17663216660E-02 -0.15373718765E-01  0.10201171164E+01  0.10198391431E+01 0.  0.
     999903    2    3    3    0    0 -0.41766896049E-01  0.90226230838E-01  0.81554421114E-01  0.12971392000E+00  0.17009735475E-01 0.  0.
         14    1    1    2    0    0  0.18099234887E-01  0.17663216660E-02  0.15373718765E-01  0.23812883580E-01  0.00000000000E+00 0.  1.
     999901    1    3    3    0    0  0.23667661162E-01 -0.91992552504E-01 -0.96928139878E-01  0.89040319642E+00  0.88000000000E+00 0.  1.
        -11    1    4    4    0    0 -0.19610636888E-01  0.61710830561E-01  0.52503910500E-01  0.83365013204E-01  0.51100000000E-03 0.  1.
         11    1    4    4    0    0 -0.22156259161E-01  0.28515400276E-01  0.29050510614E-01  0.46348906793E-01  0.51100000000E-03 0. -1.
</event>
<event>
 8    1  0.1213322E+005  0.1043930E+01  0.7957747E-01            NaN
         13   -1    0    0    0    0  0.00000000000E+00  0.00000000000E+00  0.74505805969E-08  0.10566000000E+00  0.10566000000E+00 0.  1.
     999900   -1    0    0    0    0 -0.00000000000E+00 -0.00000000000E+00 -0.74505805969E-08  0.93827000000E+00  0.93827000000E+00 0.  1.
     999902    2    1    2    0    0 -0.15762569015E-02 -0.21840093317E-01  0.93442765764E-02  0.10201226531E+01  0.10198448105E+01 0.  0.
     999903    2    3    3    0    0  0.11211771203E+00  0.60386668448E-01  0.82520969354E-03  0.12896602633E+00  0.20362315672E-01 0.  0.
         14    1    1    2    0    0  0.15762569015E-02  0.21840093317E-01 -0.93442765764E-02  0.23807346905E-01  0.00000000000E+00 0. -1.
     999901    1    3    3    0    0 -0.11369396893E+00 -0.82226761765E-01  0.85190668829E-02  0.89115662676E+00  0.88000000000E+00 0.  1.
        -11    1    4    4    0    0  0.89961683471E-01  0.38630859729E-01  0.83255929667E-03  0.97910173590E-01  0.51100000000E-03 0. -1.
         11    1    4    4    0    0  0.22156028561E-01  0.21755808718E-01 -0.73496031274E-05  0.31055852743E-01  0.51100000000E-03 0.  1.
</event>
<event>
 8    1  0.1213322E+005  0.1043930E+01  0.7957747E-01            NaN
         13   -1    0    0    0    0  0.00000000000E+00  0.00000000000E+00  0.74505805969E-08  0.10566000000E+00  0.10566000000E+00 0.  1.
     999900   -1    0    0    0    0 -0.00000000000E+00 -0.00000000000E+00 -0.74505805969E-08  0.93827000000E+00  0.93827000000E+00 0.  1.
     999902    2    1    2    0    0 -0.17451969504E-01 -0.16806969919E-03  0.15540475767E-01  0.10205610917E+01  0.10202935049E+01 0.  0.
     999903    2    3    3    0    0  0.29667209241E-01  0.76811006933E-01  0.10078014156E+00  0.13184752939E+00  0.21143793044E-01 0.  0.
         14    1    1    2    0    0  0.17451969504E-01  0.16806969919E-03 -0.15540475767E-01  0.23368908277E-01  0.00000000000E+00 0. -1.
     999901    1    3    3    0    0 -0.47119178745E-01 -0.76979076632E-01 -0.85239665791E-01  0.88871356233E+00  0.88000000000E+00 0.  1.
        -11    1    4    4    0    0  0.11772956161E-02  0.31197475050E-01  0.36237663499E-01  0.47834065804E-01  0.51100000000E-03 0.  1.
         11    1    4    4    0    0  0.28489913625E-01  0.45613531884E-01  0.64542478059E-01  0.84013463589E-01  0.51100000000E-03 0. -1.
</event>
<event>
 8    1  0.1213322E+005  0.1043930E+01  0.7957747E-01            NaN
         13   -1    0    0    0    0  0.00000000000E+00  0.00000000000E+00  0.74505805969E-08  0.10566000000E+00  0.10566000000E+00 0. -1.
     999900   -1    0    0    0    0 -0.00000000000E+00 -0.00000000000E+00 -0.74505805969E-08  0.93827000000E+00  0.93827000000E+00 0.  1.
     999902    2    1    2    0    0  0.20126678679E-02 -0.16053161072E-01 -0.17830465444E-01  0.10198534490E+01  0.10195692115E+01 0.  0.
     999903    2    3    3    0    0 -0.46521075508E-01  0.11263556128E+00  0.32968970183E-01  0.12772291245E+00  0.19370318506E-01 0.  0.
         14    1    1    2    0    0 -0.20126678679E-02  0.16053161072E-01  0.17830465444E-01  0.24076551046E-01  0.00000000000E+00 0. -1.
     999901    1    3    3    0    0  0.48533743376E-01 -0.12868872235E+00 -0.50799435627E-01  0.89213053651E+00  0.88000000000E+00 0.  1.
        -11    1    4    4    0    0 -0.38077850763E-01  0.69783696084E-01  0.17633419841E-01  0.81430249749E-01  0.51100000000E-03 0.  1.
         11    1    4    4    0    0 -0.84432247448E-02  0.42851865191E-01  0.15335550342E-01  0.46292662699E-01  0.51100000000E-03 0. -1.
</event>
<event>
 8    1  0.1213322E+005  0.1043930E+01  0.7957747E-01            NaN
         13   -1    0    0    0    0  0.00000000000E+00  0.00000000000E+00  0.74505805969E-08  0.10566000000E+00  0.10566000000E+00 0.  1.
     999900   -1    0    0    0    0 -0.00000000000E+00 -0.00000000000E+00 -0.74505805969E-08  0.93827000000E+00  0.93827000000E+00 0.  1.
     999902    2    1    2    0    0 -0.46081878761E-02  0.27799960690E-02  0.22979833795E-01  0.10203283786E+01  0.10200553728E+01 0.  0.
     999903    2    3    3    0    0  0.33943440492E-01 -0.98313892830E-01 -0.71346455968E-01  0.12869860597E+00  0.25597572600E-01 0.  0.
         14    1    1    2    0    0  0.46081878761E-02 -0.27799960690E-02 -0.22979833795E-01  0.23601621446E-01  0.00000000000E+00 0. -1.
     999901    1    3    3    0    0 -0.38551628368E-01  0.10109388890E+00  0.94326289762E-01  0.89162977259E+00  0.88000000000E+00 0. -1.
        -11    1    4    4    0    0  0.66998985476E-03 -0.33921147636E-01 -0.29757156263E-01  0.45131392768E-01  0.51100000000E-03 0.  1.
         11    1    4    4    0    0  0.33273450637E-01 -0.64392745195E-01 -0.41589299704E-01  0.83567213199E-01  0.51100000000E-03 0. -1.
</event>
<event>
 8    1  0.1213322E+005  0.1043930E+01  0.7957747E-01            NaN
         13   -1    0    0    0    0  0.00000000000E+00  0.00000000000E+00  0.74505805969E-08  0.10566000000E+00  0.10566000000E+00 0. -1.
     999900   -1    0    0    0    0 -0.00000000000E+00 -0.00000000000E+00 -0.74505805969E-08  0.93827000000E+00  0.93827000000E+00 0. -1.
     999902    2    1    2    0    0 -0.14815464897E-02  0.16811967795E-01 -0.16419998239E-01  0.10203831619E+01  0.10201114368E+01 0.  0.
     999903    2    3    3    0    0 -0.97769672927E-01 -0.81930734860E-01 -0.11694096952E-01  0.12962850504E+00  0.19880723235E-01 0.  0.
         14    1    1    2    0    0  0.14815464897E-02 -0.16811967795E-01  0.16419998239E-01  0.23546838075E-01  0.00000000000E+00 0. -1.
     999901    1    3    3    0    0  0.96288126437E-01  0.98742702656E-01 -0.47259012867E-02  0.89075465689E+00  0.88000000000E+00 0. -1.
        -11    1    4    4    0    0 -0.32028183065E-01 -0.15448906366E-01 -0.46287375354E-02  0.35863066664E-01  0.51100000000E-03 0. -1.
         11    1    4    4    0    0 -0.65741489862E-01 -0.66481828494E-01 -0.70653594171E-02  0.93765438376E-01  0.51100000000E-03 0.  1.
</event>
<event>
 8    1  0.1213322E+005  0.1043930E+01  0.7957747E-01            NaN
         13   -1    0    0    0    0  0.00000000000E+00  0.00000000000E+00  0.74505805969E-08  0.10566000000E+00  0.10566000000E+00 0. -1.
     999900   -1    0    0    0    0 -0.00000000000E+00 -0.00000000000E+00 -0.74505805969E-08  0.93827000000E+00  0.93827000000E+00 0. -1.
     999902    2    1    2    0    0  0.86445503337E-02 -0.77276850938E-02  0.20682132476E-01  0.10202193279E+01  0.10199437637E+01 0.  0.
     999903    2    3    3    0    0 -0.49181390933E-01  0.10907854369E+00  0.47176826335E-01  0.13022522491E+00  0.20396527936E-01 0.  0.
         14    1    1    2    0    0 -0.86445503337E-02  0.77276850938E-02 -0.20682132476E-01  0.23710672093E-01  0.00000000000E+00 0.  1.
     999901    1    3    3    0    0  0.57825941267E-01 -0.11680622878E+00 -0.26494693859E-01  0.88999410300E+00  0.88000000000E+00 0.  1.
        -11    1    4    4    0    0 -0.90211543507E-02  0.17109305373E-01  0.37054734095E-04  0.19348696344E-01  0.51100000000E-03 0.  1.
         11    1    4    4    0    0 -0.40160236582E-01  0.91969238318E-01  0.47139771601E-01  0.11087652857E+00  0.51100000000E-03 0. -1.
</event>
<event>
 8    1  0.1213322E+005  0.1043930E+01  0.7957747E-01            NaN
         13   -1    0    0    0    0  0.00000000000E+00  0.00000000000E+00  0.74505805969E-08  0.10566000000E+00  0.10566000000E+00 0.  1.
     999900   -1    0    0    0    0 -0.00000000000E+00 -0.00000000000E+00 -0.74505805969E-08  0.93827000000E+00  0.93827000000E+00 0. -1.
     999902    2    1    2    0    0 -0.49952248571E-02 -0.92189314350E-02 -0.20573436850E-01  0.10208387187E+01  0.10205775239E+01 0.  0.
     999903    2    3    3    0    0 -0.58603443243E-01  0.49640856737E-01 -0.10622300422E+00  0.13310330534E+00  0.23121095331E-01 0.  0.
         14    1    1    2    0    0  0.49952248571E-02  0.92189314350E-02  0.20573436850E-01  0.23091281298E-01  0.00000000000E+00 0.  1.
     999901    1    3    3    0    0  0.53608218386E-01 -0.58859788173E-01  0.85649567373E-01  0.88773541336E+00  0.88000000000E+00 0.  1.
        -11    1    4    4    0    0 -0.42635411650E-01  0.24139596624E-01 -0.54699214850E-01  0.73435438842E-01  0.51100000000E-03 0.  1.
         11    1    4    4    0    0 -0.15968031593E-01  0.25501260114E-01 -0.51523789372E-01  0.59667866500E-01  0.51100000000E-03 0. -1.
</event>
<event>
 8    1  0.1213322E+005  0.1043930E+01  0.7957747E-01            NaN
         13   -1    0    0    0    0  0.00000000000E+00  0.00000000000E+00  0.74505805969E-08  0.10566000000E+00  0.10566000000E+00 0. -1.
     999900   -1    0    0    0    0 -0.00000000000E+00 -0.00000000000E+00 -0.74505805969E-08  0.93827000000E+00  0.93827000000E+00 0. -1.
     999902    2    1    2    0    0 -0.12944900089E-01  0.15450619321E-01  0.14665876275E-01  0.10190025051E+01  0.10186975632E+01 0.  0.
     999903    2    3    3    0    0  0.58958153782E-01 -0.93858352074E-01 -0.56987507125E-01  0.12644846878E+00  0.21358490956E-01 0.  0.
         14    1    1    2    0    0  0.12944900089E-01 -0.15450619321E-01 -0.14665876275E-01  0.24927494913E-01  0.00000000000E+00 0.  1.
     999901    1    3    3    0    0 -0.71903053871E-01  0.10930897140E+00  0.71653383400E-01  0.89255403631E+00  0.88000000000E+00 0.  1.
        -11    1    4    4    0    0  0.52776263891E-01 -0.75163229765E-01 -0.39022718482E-01  0.99789171846E-01  0.51100000000E-03 0. -1.
         11    1    4    4    0    0  0.61818898904E-02 -0.18695122309E-01 -0.17964788643E-01  0.26659296929E-01  0.51100000000E-03 0.  1.
</event>
<event>
 8    1  0.1213322E+005  0.1043930E+01  0.7957747E-01            NaN
         13   -1    0    0    0    0  0.00000000000E+00  0.00000000000E+00  0.74505805969E-08  0.10566000000E+00  0.10566000000E+00 0.  1.
     999900   -1    0    0    0    0 -0.00000000000E+00 -0.00000000000E+00 -0.74505805969E-08  0.93827000000E+00  0.93827000000E+00 0.  1.
     999902    2    1    2    0    0  0.12146746679E-01  0.10862490804E-01 -0.16906851506E-01  0.10204485437E+01  0.10201783430E+01 0.  0.
     999903    2    3    3    0    0  0.38219303747E-01  0.20940663989E-01  0.12007191560E+00  0.12941289323E+00  0.20765486540E-01 0.  0.
         14    1    1    2    0    0 -0.12146746679E-01 -0.10862490804E-01  0.16906851506E-01  0.23481456283E-01  0.00000000000E+00 0.  1.
     999901    1    3    3    0    0 -0.26072557068E-01 -0.10078173185E-01 -0.13697876710E+00  0.89103565049E+00  0.88000000000E+00 0.  1.
        -11    1    4    4    0    0  0.30675744048E-01  0.16236973850E-01  0.65597135298E-01  0.74215132372E-01  0.51100000000E-03 0.  1.
         11    1    4    4    0    0  0.75435596984E-02  0.47036901395E-02  0.54474780298E-01  0.55197760855E-01  0.51100000000E-03 0. -1.
</event>
<event>
 8    1  0.1213322E+005  0.1043930E+01  0.7957747E-01            NaN
         13   -1    0    0    0    0  0.00000000000E+00  0.00000000000E+00  0.74505805969E-08  0.10566000000E+00  0.10566000000E+00 0.  1.
     999900   -1    0    0    0    0 -0.00000000000E+00 -0.00000000000E+00 -0.74505805969E-08  0.93827000000E+00  0.93827000000E+00 0. -1.
     999902    2    1    2    0    0  0.21349779444E-01  0.75179584603E-02  0.34635349688E-02  0.10210317718E+01  0.10207749753E+01 0.  0.
     999903    2    3    3    0    0 -0.63211718518E-01  0.11103422787E+00  0.20102852682E-01  0.13078285609E+00  0.19383231022E-01 0.  0.
         14    1    1    2    0    0 -0.21349779444E-01 -0.75179584603E-02 -0.34635349688E-02  0.22898228233E-01  0.00000000000E+00 0.  1.
     999901    1    3    3    0    0  0.84561497962E-01 -0.10351626941E+00 -0.16639317714E-01  0.89024891568E+00  0.88000000000E+00 0. -1.
        -11    1    4    4    0    0 -0.49133616486E-01  0.98442836981E-01  0.13913852667E-01  0.11090068007E+00  0.51100000000E-03 0.  1.
         11    1    4    4    0    0 -0.14078102032E-01  0.12591390887E-01  0.61890000151E-02  0.19882176025E-01  0.51100000000E-03 0. -1.
</event>
<event>
 8    1  0.1213322E+005  0.1043930E+01  0.7957747E-01            NaN
         13   -1    0    0    0    0  0.00000000000E+00  0.00000000000E+00  0.74505805969E-08  0.10566000000E+00  0.10566000000E+00 0. -1.
     999900   -1    0    0    0    0 -0.00000000000E+00 -0.00000000000E+00 -0.74505805969E-08  0.93827000000E+00  0.93827000000E+00 0.  1.
     999902    2    1    2    0    0  0.62609730206E-02 -0.96046508669E-02 -0.19240006927E-01  0.10215329697E+01  0.10212874136E+01 0.  0.
     999903    2    3    3    0    0  0.11401200644E+00  0.54446946334E-01  0.29661787309E-01  0.13130587628E+00  0.19955048022E-01 0.  0.
         14    1    1    2    0    0 -0.62609730206E-02  0.96046508669E-02  0.19240006927E-01  0.22397030339E-01  0.00000000000E+00 0. -1.
     999901    1    3    3    0    0 -0.10775103342E+00 -0.64051597200E-01 -0.48901794236E-01  0.89022709338E+00  0.88000000000E+00 0.  1.
        -11    1    4    4    0    0  0.56609005030E-01  0.20092185799E-01  0.21980830093E-01  0.63966345786E-01  0.51100000000E-03 0. -1.
         11    1    4    4    0    0  0.57403001413E-01  0.34354760534E-01  0.76809572162E-02  0.67339530495E-01  0.51100000000E-03 0.  1.
</event>
<event>
 8    1  0.1213322E+005  0.1043930E+01  0.7957747E-01            NaN
         13   -1    0    0    0    0  0.00000000000E+00  0.00000000000E+00  0.74505805969E-08  0.10566000000E+00  0.10566000000E+00 0.  1.
     999900   -1    0    0    0    0 -0.00000000000E+00 -0.00000000000E+00 -0.74505805969E-08  0.93827000000E+00  0.93827000000E+00 0.  1.
     999902    2    1    2    0    0  0.12276040199E-01  0.19947088191E-01 -0.35160603546E-02  0.10202456134E+01  0.10199706669E+01 0.  0.
     999903    2    3    3    0    0  0.20231940610E-01  0.89373392368E-01  0.93251282066E-01  0.13218749216E+00  0.19514015285E-01 0.  0.
         14    1    1    2    0    0 -0.12276040199E-01 -0.19947088191E-01  0.35160603546E-02  0.23684386643E-01  0.00000000000E+00 0. -1.
     999901    1    3    3    0    0 -0.79559004117E-02 -0.69426304177E-01 -0.96767342421E-01  0.88805812120E+00  0.88000000000E+00 0.  1.
        -11    1    4    4    0    0  0.18007918295E-01  0.84663370624E-01  0.92848846006E-01  0.12693833453E+00  0.51100000000E-03 0. -1.
         11    1    4    4    0    0  0.22240223150E-02  0.47100217443E-02  0.40243606031E-03  0.52491576345E-02  0.51100000000E-03 0.  1.
</event>
<event>
 8    1  0.1213322E+005  0.1043930E+01  0.7957747E-01            NaN
         13   -1    0    0    0    0  0.00000000000E+00  0.00000000000E+00  0.74505805969E-08  0.10566000000E+00  0.10566000000E+00 0. -1.
     999900   -1    0    0    0    0 -0.00000000000E+00 -0.00000000000E+00 -0.74505805969E-08  0.93827000000E+00  0.93827000000E+00 0.  1.
     999902    2    1    2    0    0  0.18753271258E-01  0.83923473423E-03  0.14067772549E-01  0.10204717025E+01  0.10202020407E+01 0.  0.
     999903    2    3    3    0    0  0.85165663175E-01 -0.87345581625E-01  0.51376011937E-01  0.13278984936E+00  0.10545552500E-01 0.  0.
         14    1    1    2    0    0 -0.18753271258E-01 -0.83923473423E-03 -0.14067772549E-01  0.23458297515E-01  0.00000000000E+00 0.  1.
     999901    1    3    3    0    0 -0.66412391918E-01  0.88184816360E-01 -0.37308239388E-01  0.88768185312E+00  0.88000000000E+00 0.  1.
        -11    1    4    4    0    0  0.75812434487E-01 -0.72546746222E-01  0.43771077120E-01  0.11369575156E+00  0.51100000000E-03 0. -1.
         11    1    4    4    0    0  0.93532286885E-02 -0.14798835404E-01  0.76049348174E-02  0.19094097800E-01  0.51100000000E-03 0.  1.
</event>
<event>
 8    1  0.1213322E+005  0.1043930E+01  0.7957747E-01            NaN
         13   -1    0    0    0    0  0.00000000000E+00  0.00000000000E+00  0.74505805969E-08  0.10566000000E+00  0.10566000000E+00 0. -1.
     999900   -1    0    0    0    0 -0.00000000000E+00 -0.00000000000E+00 -0.74505805969E-08  0.93827000000E+00  0.93827000000E+00 0. -1.
     999902    2    1    2    0    0 -0.10307140979E-01 -0.20200588484E-01 -0.15126010743E-01  0.10166701920E+01  0.10163046700E+01 0.  0.
     999903    2    3    3    0    0 -0.65695767815E-01 -0.68565509346E-01 -0.87930926607E-01  0.13060720254E+00  0.17584951512E-01 0.  0.
         14    1    1    2    0    0  0.10307140979E-01  0.20200588484E-01  0.15126010743E-01  0.27259807983E-01  0.00000000000E+00 0. -1.
     999901    1    3    3    0    0  0.55388626836E-01  0.48364920861E-01  0.72804915864E-01  0.88606298948E+00  0.88000000000E+00 0.  1.
        -11    1    4    4    0    0 -0.43009709243E-01 -0.32911555995E-01 -0.52996626272E-01  0.75775386006E-01  0.51100000000E-03 0. -1.
         11    1    4    4    0    0 -0.22686058572E-01 -0.35653953351E-01 -0.34934300336E-01  0.54831816530E-01  0.51100000000E-03 0.  1.
</event>
<event>
 8    1  0.1213322E+005  0.1043930E+01  0.7957747E-01            NaN
         13   -1    0    0    0    0  0.00000000000E+00  0.00000000000E+00  0.74505805969E-08  0.10566000000E+00  0.10566000000E+00 0.  1.
     999900   -1    0    0    0    0 -0.00000000000E+00 -0.00000000000E+00 -0.74505805969E-08  0.93827000000E+00  0.93827000000E+00 0.  1.
     999902    2    1    2    0    0  0.59385869036E-02  0.29256599461E-01  0.69894497709E-02  0.10132694743E+01  0.10128054896E+01 0.  0.
     999903    2    3    3    0    0 -0.63100295704E-01 -0.80491986040E-01  0.63094301773E-01  0.12200134758E+00  0.21043544409E-01 0.  0.
         14    1    1    2    0    0 -0.59385869036E-02 -0.29256599461E-01 -0.69894497709E-02  0.30660525673E-01  0.00000000000E+00 0. -1.
     999901    1    3    3    0    0  0.69038882608E-01  0.10974858550E+00 -0.56104852002E-01  0.89126812674E+00  0.88000000000E+00 0.  1.
        -11    1    4    4    0    0 -0.88459046785E-02 -0.26234962683E-02  0.82483824891E-02  0.12386674168E-01  0.51100000000E-03 0.  1.
         11    1    4    4    0    0 -0.54254391026E-01 -0.77868489772E-01  0.54845919284E-01  0.10961467342E+00  0.51100000000E-03 0. -1.
</event>
<event>
 8    1  0.1213322E+005  0.1043930E+01  0.7957747E-01            NaN
         13   -1    0    0    0    0  0.00000000000E+00  0.00000000000E+00  0.74505805969E-08  0.10566000000E+00  0.10566000000E+00 0. -1.
     999900   -1    0    0    0    0 -0.00000000000E+00 -0.00000000000E+00 -0.74505805969E-08  0.93827000000E+00  0.93827000000E+00 0.  1.
     999902    2    1    2    0    0 -0.19293688362E-01 -0.79287709741E-02 -0.69434986402E-02  0.10219453692E+01  0.10217088693E+01 0.  0.
     999903    2    3    3    0    0  0.12271223704E+00 -0.17620655529E-02 -0.38657186142E-01  0.12997593634E+00  0.18383905838E-01 0.  0.
         14    1    1    2    0    0  0.19293688362E-01  0.79287709741E-02  0.69434986402E-02  0.21984630839E-01  0.00000000000E+00 0.  1.
     999901    1    3    3    0    0 -0.14200592540E+00 -0.61667054212E-02  0.31713687502E-01  0.89196943282E+00  0.88000000000E+00 0. -1.
        -11    1    4    4    0    0  0.66891620346E-01 -0.11906828380E-03 -0.11496602573E-01  0.67874413747E-01  0.51100000000E-03 0.  1.
         11    1    4    4    0    0  0.55820616693E-01 -0.16429972691E-02 -0.27160583569E-01  0.62101522597E-01  0.51100000000E-03 0. -1.
</event>
<event>
 8    1  0.1213322E+005  0.1043930E+01  0.7957747E-01            NaN
         13   -1    0    0    0    0  0.00000000000E+00  0.00000000000E+00  0.74505805969E-08  0.10566000000E+00  0.10566000000E+00 0. -1.
     999900   -1    0    0    0    0 -0.00000000000E+00 -0.00000000000E+00 -0.74505805969E-08  0.93827000000E+00  0.93827000000E+00 0. -1.
     999902    2    1    2    0    0  0.16626751224E-01 -0.16862419368E-01  0.20476572918E-02  0.10201606301E+01  0.10198836837E+01 0.  0.
     999903    2    3    3    0    0 -0.75815220795E-01  0.61258366653E-01 -0.80371980079E-01  0.12806121190E+00  0.20963864671E-01 0.  0.
         14    1    1    2    0    0 -0.16626751224E-01  0.16862419368E-01 -0.20476572918E-02  0.23769369862E-01  0.00000000000E+00 0. -1.
     999901    1    3    3    0    0  0.92441972019E-01 -0.78120786021E-01  0.82419637371E-01  0.89209941824E+00  0.88000000000E+00 0.  1.
        -11    1    4    4    0    0 -0.50195818415E-01  0.47480057938E-01 -0.66233970279E-01  0.95714032555E-01  0.51100000000E-03 0.  1.
         11    1    4    4    0    0 -0.25619402380E-01  0.13778308715E-01 -0.14138009801E-01  0.32347179343E-01  0.51100000000E-03 0. -1.
</event>
<event>
 8    1  0.1213322E+005  0.1043930E+01  0.7957747E-01            NaN
         13   -1    0    0    0    0  0.00000000000E+00  0.00000000000E+00  0.74505805969E-08  0.10566000000E+00  0.10566000000E+00 0. -1.
     999900   -1    0    0    0    0 -0.00000000000E+00 -0.00000000000E+00 -0.74505805969E-08  0.93827000000E+00  0.93827000000E+00 0. -1.
     999902    2    1    2    0    0  0.88085984564E-02  0.80257592514E-02  0.19019843744E-01  0.10214854311E+01  0.10212388199E+01 0.  0.
     999903    2    3    3    0    0  0.13378656233E-01 -0.97220645995E-01 -0.81403957139E-01  0.12953104265E+00  0.22822013956E-01 0.  0.
         14    1    1    2    0    0 -0.88085984564E-02 -0.80257592514E-02 -0.19019843744E-01  0.22444568929E-01  0.00000000000E+00 0.  1.
     999901    1    3    3    0    0 -0.45700577771E-02  0.10524640525E+00  0.10042380088E+00  0.89195438842E+00  0.88000000000E+00 0.  1.
        -11    1    4    4    0    0  0.82216640247E-02 -0.86974634765E-01 -0.62518507386E-01  0.10742908237E+00  0.51100000000E-03 0. -1.
         11    1    4    4    0    0  0.51569922088E-02 -0.10246011230E-01 -0.18885449753E-01  0.22101960278E-01  0.51100000000E-03 0.  1.
</event>
<event>
 8    1  0.1213322E+005  0.1043930E+01  0.7957747E-01            NaN
         13   -1    0    0    0    0  0.00000000000E+00  0.00000000000E+00  0.74505805969E-08  0.10566000000E+00  0.10566000000E+00 0.  1.
     999900   -1    0    0    0    0 -0.00000000000E+00 -0.00000000000E+00 -0.74505805969E-08  0.93827000000E+00  0.93827000000E+00 0.  1.
     999902    2    1    2    0    0  0.16290847865E-01 -0.11327334356E-01 -0.12926349398E-01  0.10202489794E+01  0.10199741120E+01 0.  0.
     999903    2    3    3    0    0  0.10010611804E-01 -0.96265987507E-01 -0.88415280019E-01  0.13292006924E+00  0.21980226719E-01 0.  0.
         14    1    1    2    0    0 -0.16290847865E-01  0.11327334356E-01  0.12926349398E-01  0.23681020597E-01  0.00000000000E+00 0.  1.
     999901    1    3    3    0    0  0.62802360615E-02  0.84938653152E-01  0.75488930621E-01  0.88732891016E+00  0.88000000000E+00 0. -1.
        -11    1    4    4    0    0  0.11646667161E-01 -0.27900898973E-01 -0.34194864587E-01  0.45647068960E-01  0.51100000000E-03 0.  1.
         11    1    4    4    0    0 -0.16360553571E-02 -0.68365088534E-01 -0.54220415431E-01  0.87273000280E-01  0.51100000000E-03 0. -1.
</event>
<event>
 8    1  0.1213322E+005  0.1043930E+01  0.7957747E-01            NaN
         13   -1    0    0    0    0  0.00000000000E+00  0.00000000000E+00  0.74505805969E-08  0.10566000000E+00  0.10566000000E+00 0.  1.
     999900   -1    0    0    0    0 -0.00000000000E+00 -0.00000000000E+00 -0.74505805969E-08  0.93827000000E+00  0.93827000000E+00 0.  1.
     999902    2    1    2    0    0  0.13350834363E-01 -0.13710384538E-02  0.19113155837E-01  0.10205754019E+01  0.10203081465E+01 0.  0.
     999903    2    3    3    0    0  0.21067420421E-01  0.35998667057E-01 -0.12014139953E+00  0.12880868817E+00  0.20444608935E-01 0.  0.
         14    1    1    2    0    0 -0.13350834363E-01  0.13710384538E-02 -0.19113155837E-01  0.23354598063E-01  0.00000000000E+00 0. -1.
     999901    1    3    3    0    0 -0.77165860575E-02 -0.37369705511E-01  0.13925455537E+00  0.89176671377E+00  0.88000000000E+00 0. -1.
        -11    1    4    4    0    0  0.17342491068E-01  0.11705934224E-01 -0.42594528571E-01  0.47458886183E-01  0.51100000000E-03 0. -1.
         11    1    4    4    0    0  0.37249293524E-02  0.24292732833E-01 -0.77546870959E-01  0.81349801989E-01  0.51100000000E-03 0.  1.
</event>
<event>
 8    1  0.1213322E+005  0.1043930E+01  0.7957747E-01            NaN
         13   -1    0    0    0    0  0.00000000000E+00  0.00000000000E+00  0.74505805969E-08  0.10566000000E+00  0.10566000000E+00 0.  1.
     999900   -1    0    0    0    0 -0.00000000000E+00 -0.00000000000E+00 -0.74505805969E-08  0.93827000000E+00  0.93827000000E+00 0.  1.
     999902    2    1    2    0    0  0.10688493194E-01  0.18993919423E-01 -0.90642442115E-02  0.10203254796E+01  0.10200524059E+01 0.  0.
     999903    2    3    3    0    0  0.12435033896E-01  0.34682155020E-01  0.12332077784E+00  0.13028336528E+00  0.20205421926E-01 0.  0.
         14    1    1    2    0    0 -0.10688493194E-01 -0.18993919423E-01  0.90642442115E-02  0.23604520434E-01  0.00000000000E+00 0. -1.
     999901    1    3    3    0    0 -0.17465407020E-02 -0.15688235597E-01 -0.13238502206E+00  0.89004211429E+00  0.88000000000E+00 0.  1.
        -11    1    4    4    0    0  0.40958526214E-02  0.33131265568E-01  0.93849385407E-01  0.99611369979E-01  0.51100000000E-03 0. -1.
         11    1    4    4    0    0  0.83391812746E-02  0.15508894521E-02  0.29471392437E-01  0.30671995299E-01  0.51100000000E-03 0.  1.
</event>
<event>
 8    1  0.1213322E+005  0.1043930E+01  0.7957747E-01            NaN
         13   -1    0    0    0    0  0.00000000000E+00  0.00000000000E+00  0.74505805969E-08  0.10566000000E+00  0.10566000000E+00 0.  1.
     999900   -1    0    0    0    0 -0.00000000000E+00 -0.00000000000E+00 -0.74505805969E-08  0.93827000000E+00  0.93827000000E+00 0. -1.
     999902    2    1    2    0    0 -0.14522853461E-01  0.17776039028E-01  0.54380325707E-02  0.10203403193E+01  0.10200675930E+01 0.  0.
     999903    2    3    3    0    0 -0.10628091883E+00 -0.62754263655E-03  0.76375728360E-01  0.13253944578E+00  0.20914714631E-01 0.  0.
         14    1    1    2    0    0  0.14522853461E-01 -0.17776039028E-01 -0.54380325707E-02  0.23589680676E-01  0.00000000000E+00 0. -1.
     999901    1    3    3    0    0  0.91758065371E-01  0.18403581665E-01 -0.70937695789E-01  0.88780087354E+00  0.88000000000E+00 0. -1.
        -11    1    4    4    0    0 -0.41694856027E-01 -0.72966993184E-02  0.21262060996E-01  0.47371290872E-01  0.51100000000E-03 0. -1.
         11    1    4    4    0    0 -0.64586062805E-01  0.66691566819E-02  0.55113667363E-01  0.85168154909E-01  0.51100000000E-03 0.  1.
</event>
<event>
 8    1  0.1213322E+005  0.1043930E+01  0.7957747E-01            NaN
         13   -1    0    0    0    0  0.00000000000E+00  0.00000000000E+00  0.74505805969E-08  0.10566000000E+00  0.10566000000E+00 0. -1.
     999900   -1    0    0    0    0 -0.00000000000E+00 -0.00000000000E+00 -0.74505805969E-08  0.93827000000E+00  0.93827000000E+00 0. -1.
     999902    2    1    2    0    0  0.22161810010E-01  0.10635214392E-01 -0.29543658901E-02  0.10191715290E+01  0.10188707591E+01 0.  0.
     999903    2    3    3    0    0 -0.53973422772E-01  0.73513135204E-01 -0.88508668795E-01  0.12952567512E+00  0.25016087822E-01 0.  0.
         14    1    1    2    0    0 -0.22161810010E-01 -0.10635214392E-01  0.29543658901E-02  0.24758470992E-01  0.00000000000E+00 0. -1.
     999901    1    3    3    0    0  0.76135232781E-01 -0.62877920812E-01  0.85554302905E-01  0.88964585389E+00  0.88000000000E+00 0.  1.
        -11    1    4    4    0    0 -0.14986709173E-01  0.70013576588E-02 -0.92696095040E-02  0.18968585668E-01  0.51100000000E-03 0.  1.
         11    1    4    4    0    0 -0.38986713599E-01  0.66511777545E-01 -0.79239059291E-01  0.11055708945E+00  0.51100000000E-03 0. -1.
</event>
<event>
 8    1  0.1213322E+005  0.1043930E+01  0.7957747E-01            NaN
         13   -1    0    0    0    0  0.00000000000E+00  0.00000000000E+00  0.74505805969E-08  0.10566000000E+00  0.10566000000E+00 0.  1.
     999900   -1    0    0    0    0 -0.00000000000E+00 -0.00000000000E+00 -0.74505805969E-08  0.93827000000E+00  0.93827000000E+00 0.  1.
     999902    2    1    2    0    0 -0.95241511316E-02 -0.21291680906E-01 -0.27795191261E-02  0.10204401967E+01  0.10201698017E+01 0.  0.
     999903    2    3    3    0    0 -0.74998706459E-01  0.43496568381E-01 -0.95784141027E-01  0.13075806568E+00  0.20157198111E-01 0.  0.
         14    1    1    2    0    0  0.95241511316E-02  0.21291680906E-01  0.27795191261E-02  0.23489803259E-01  0.00000000000E+00 0. -1.
     999901    1    3    3    0    0  0.65474555327E-01 -0.64788249287E-01  0.93004621901E-01  0.88968213106E+00  0.88000000000E+00 0. -1.
        -11    1    4    4    0    0 -0.19030688357E-01  0.13231706991E-01 -0.39532673878E-01  0.45829451167E-01  0.51100000000E-03 0.  1.
         11    1    4    4    0    0 -0.55968018102E-01  0.30264861390E-01 -0.56251467148E-01  0.84928614510E-01  0.51100000000E-03 0. -1.
</event>
<event>
 8    1  0.1213322E+005  0.1043930E+01  0.7957747E-01            NaN
         13   -1    0    0    0    0  0.00000000000E+00  0.00000000000E+00  0.74505805969E-08  0.10566000000E+00  0.10566000000E+00 0.  1.
     999900   -1    0    0    0    0 -0.00000000000E+00 -0.00000000000E+00 -0.74505805969E-08  0.93827000000E+00  0.93827000000E+00 0. -1.
     999902    2    1    2    0    0  0.79777143732E-02  0.14700484237E-01 -0.16979232968E-01  0.10200963575E+01  0.10198178936E+01 0.  0.
     999903    2    3    3    0    0  0.11014999218E+00  0.70678689934E-01 -0.88108121837E-02  0.13238049249E+00  0.17845626720E-01 0.  0.
         14    1    1    2    0    0 -0.79777143732E-02 -0.14700484237E-01  0.16979232968E-01  0.23833642516E-01  0.00000000000E+00 0.  1.
     999901    1    3    3    0    0 -0.10217227780E+00 -0.55978205697E-01 -0.81684207839E-02  0.88771586499E+00  0.88000000000E+00 0.  1.
        -11    1    4    4    0    0  0.65770226411E-01  0.36426125655E-01 -0.12407060944E-01  0.76202241402E-01  0.51100000000E-03 0. -1.
         11    1    4    4    0    0  0.44379765766E-01  0.34252564279E-01  0.35962487601E-02  0.56178251088E-01  0.51100000000E-03 0.  1.
</event>
<event>
 8    1  0.1213322E+005  0.1043930E+01  0.7957747E-01            NaN
         13   -1    0    0    0    0  0.00000000000E+00  0.00000000000E+00  0.74505805969E-08  0.10566000000E+00  0.10566000000E+00 0. -1.
     999900   -1    0    0    0    0 -0.00000000000E+00 -0.00000000000E+00 -0.74505805969E-08  0.93827000000E+00  0.93827000000E+00 0.  1.
     999902    2    1    2    0    0  0.13559537965E-01 -0.11942718806E-01 -0.14823701512E-01  0.10205583991E+01  0.10202907499E+01 0.  0.
     999903    2    3    3    0    0 -0.36618772448E-01  0.99548534807E-01  0.69103980326E-01  0.12815041042E+00  0.19907845610E-01 0.  0.
         14    1    1    2    0    0 -0.13559537965E-01  0.11942718806E-01  0.14823701512E-01  0.23371600904E-01  0.00000000000E+00 0. -1.
     999901    1    3    3    0    0  0.50178310413E-01 -0.11149125361E+00 -0.83927681838E-01  0.89240798867E+00  0.88000000000E+00 0.  1.
        -11    1    4    4    0    0 -0.33842676232E-01  0.71381811147E-01  0.44660830551E-01  0.90749879359E-01  0.51100000000E-03 0. -1.
         11    1    4    4    0    0 -0.27760962159E-02  0.28166723661E-01  0.24443149774E-01  0.37400531064E-01  0.51100000000E-03 0.  1.
</event>
<event>
 8    1  0.1213322E+005  0.1043930E+01  0.7957747E-01            NaN
         13   -1    0    0    0    0  0.00000000000E+00  0.00000000000E+00  0.74505805969E-08  0.10566000000E+00  0.10566000000E+00 0.  1.
     999900   -1    0    0    0    0 -0.00000000000E+00 -0.00000000000E+00 -0.74505805969E-08  0.93827000000E+00  0.93827000000E+00 0.  1.
     999902    2    1    2    0    0 -0.56546247348E-02 -0.13467849208E-01  0.22963132832E-01  0.10167148716E+01  0.10163505630E+01 0.  0.
     999903    2    3    3    0    0  0.44956558074E-02  0.87729673005E-01  0.91242728197E-01  0.12822960453E+00  0.20022227206E-01 0.  0.
         14    1    1    2    0    0  0.56546247348E-02  0.13467849208E-01 -0.22963132832E-01  0.27215128378E-01  0.00000000000E+00 0.  1.
     999901    1    3    3    0    0 -0.10150280542E-01 -0.10119752221E+00 -0.68279595365E-01  0.88848526709E+00  0.88000000000E+00 0. -1.
        -11    1    4    4    0    0 -0.31062200984E-02  0.59733986129E-01  0.71067723332E-01  0.92890689107E-01  0.51100000000E-03 0.  1.
         11    1    4    4    0    0  0.76018759058E-02  0.27995686876E-01  0.20175004865E-01  0.35338915422E-01  0.51100000000E-03 0. -1.
</event>
<event>
 8    1  0.1213322E+005  0.1043930E+01  0.7957747E-01            NaN
         13   -1    0    0    0    0  0.00000000000E+00  0.00000000000E+00  0.74505805969E-08  0.10566000000E+00  0.10566000000E+00 0. -1.
     999900   -1    0    0    0    0 -0.00000000000E+00 -0.00000000000E+00 -0.74505805969E-08  0.93827000000E+00  0.93827000000E+00 0. -1.
     999902    2    1    2    0    0  0.17088320349E-01  0.10012463765E-01  0.11429496387E-01  0.10210631351E+01  0.10208070495E+01 0.  0.
     999903    2    3    3    0    0  0.66642593155E-02 -0.76493527375E-01 -0.10270824759E+00  0.12942454679E+00  0.17494487918E-01 0.  0.
         14    1    1    2    0    0 -0.17088320349E-01 -0.10012463765E-01 -0.11429496387E-01  0.22866864906E-01  0.00000000000E+00 0.  1.
     999901    1    3    3    0    0  0.10424061033E-01  0.86505991139E-01  0.11413774397E+00  0.89163858830E+00  0.88000000000E+00 0.  1.
        -11    1    4    4    0    0 -0.24850109256E-02 -0.60899173798E-02 -0.16334130053E-01  0.17616109064E-01  0.51100000000E-03 0.  1.
         11    1    4    4    0    0  0.91492702411E-02 -0.70403609995E-01 -0.86374117533E-01  0.11180843773E+00  0.51100000000E-03 0. -1.
</event>
<event>
 8    1  0.1213322E+005  0.1043930E+01  0.7957747E-01            NaN
         13   -1    0    0    0    0  0.00000000000E+00  0.00000000000E+00  0.74505805969E-08  0.10566000000E+00  0.10566000000E+00 0.  1.
     999900   -1    0    0    0    0 -0.00000000000E+00 -0.00000000000E+00 -0.74505805969E-08  0.93827000000E+00  0.93827000000E+00 0.  1.
     999902    2    1    2    0    0  0.16967451277E-01  0.24141674406E-02 -0.16845554841E-01  0.10198988676E+01  0.10196157143E+01 0.  0.
     999903    2    3    3    0    0 -0.13519647468E-01 -0.12582116416E+00  0.16093422399E-01  0.12947271136E+00  0.22145846656E-01 0.  0.
         14    1    1    2    0    0 -0.16967451277E-01 -0.24141674406E-02  0.16845554841E-01  0.24031132416E-01  0.00000000000E+00 0.  1.
     999901    1    3    3    0    0  0.30487098746E-01  0.12823533160E+00 -0.32938977241E-01  0.89042615622E+00  0.88000000000E+00 0.  1.
        -11    1    4    4    0    0  0.22774187178E-02 -0.37346056445E-01  0.12761542815E-01  0.39535207905E-01  0.51100000000E-03 0.  1.
         11    1    4    4    0    0 -0.15797066186E-01 -0.88475107717E-01  0.33318795846E-02  0.89937503458E-01  0.51100000000E-03 0. -1.
</event>
<event>
 8    1  0.1213322E+005  0.1043930E+01  0.7957747E-01            NaN
         13   -1    0    0    0    0  0.00000000000E+00  0.00000000000E+00  0.74505805969E-08  0.10566000000E+00  0.10566000000E+00 0.  1.
     999900   -1    0    0    0    0 -0.00000000000E+00 -0.00000000000E+00 -0.74505805969E-08  0.93827000000E+00  0.93827000000E+00 0. -1.
     999902    2    1    2    0    0 -0.17300215560E-01 -0.14329449073E-01 -0.72767170881E-02  0.10203168431E+01  0.10200435672E+01 0.  0.
     999903    2    3    3    0    0  0.39680708654E-01 -0.31411909696E-01 -0.11952809468E+00  0.13119423736E+00  0.19070809855E-01 0.  0.
         14    1    1    2    0    0  0.17300215560E-01  0.14329449073E-01  0.72767170881E-02  0.23613156941E-01  0.00000000000E+00 0. -1.
     999901    1    3    3    0    0 -0.56980924214E-01  0.17082460624E-01  0.11225137760E+00  0.88912260569E+00  0.88000000000E+00 0. -1.
        -11    1    4    4    0    0  0.67787870029E-02 -0.83408987312E-02 -0.47594986479E-01  0.48796172020E-01  0.51100000000E-03 0. -1.
         11    1    4    4    0    0  0.32901921651E-01 -0.23071010965E-01 -0.71933108205E-01  0.82398065344E-01  0.51100000000E-03 0.  1.
</event>
<event>
 8    1  0.1213322E+005  0.1043930E+01  0.7957747E-01            NaN
         13   -1    0    0    0    0  0.00000000000E+00  0.00000000000E+00  0.74505805969E-08  0.10566000000E+00  0.10566000000E+00 0.  1.
     999900   -1    0    0    0    0 -0.00000000000E+00 -0.00000000000E+00 -0.74505805969E-08  0.93827000000E+00  0.93827000000E+00 0.  1.
     999902    2    1    2    0    0 -0.21891997287E-01  0.63064268069E-02 -0.46936838476E-02  0.10206692770E+01  0.10204041904E+01 0.  0.
     999903    2    3    3    0    0  0.11252453364E+00 -0.16103892513E-01 -0.59522124024E-01  0.12849430315E+00  0.68408089693E-02 0.  0.
         14    1    1    2    0    0  0.21891997287E-01 -0.63064268069E-02  0.46936838476E-02  0.23260722954E-01  0.00000000000E+00 0. -1.
     999901    1    3    3    0    0 -0.13441653093E+00  0.22410319319E-01  0.54828440176E-01  0.89217497390E+00  0.88000000000E+00 0. -1.
        -11    1    4    4    0    0  0.96266794905E-01 -0.12479001045E-01 -0.48508305161E-01  0.10851883735E+00  0.51100000000E-03 0. -1.
         11    1    4    4    0    0  0.16257738738E-01 -0.36248914680E-02 -0.11013818863E-01  0.19975465801E-01  0.51100000000E-03 0.  1.
</event>
<event>
 8    1  0.1213322E+005  0.1043930E+01  0.7957747E-01            NaN
         13   -1    0    0    0    0  0.00000000000E+00  0.00000000000E+00  0.74505805969E-08  0.10566000000E+00  0.10566000000E+00 0. -1.
     999900   -1    0    0    0    0 -0.00000000000E+00 -0.00000000000E+00 -0.74505805969E-08  0.93827000000E+00  0.93827000000E+00 0.  1.
     999902    2    1    2    0    0 -0.19450605202E-01  0.70748609137E-02 -0.74078423981E-02  0.10219469195E+01  0.10217104533E+01 0.  0.
     999903    2    3    3    0    0 -0.34712967905E-01 -0.51717040241E-01 -0.11603675009E+00  0.13318954712E+00  0.19881793129E-01 0.  0.
         14    1    1    2    0    0  0.19450605202E-01 -0.70748609137E-02  0.74078423981E-02  0.21983080509E-01  0.00000000000E+00 0.  1.
     999901    1    3    3    0    0  0.15262362703E-01  0.58791901155E-01  0.10862890769E+00  0.88875737237E+00  0.88000000000E+00 0. -1.
        -11    1    4    4    0    0 -0.33068702685E-01 -0.36377954351E-01 -0.78787737676E-01  0.92869065836E-01  0.51100000000E-03 0.  1.
         11    1    4    4    0    0 -0.16442652203E-02 -0.15339085889E-01 -0.37249012416E-01  0.40320481284E-01  0.51100000000E-03 0. -1.
</event>
<event>
 8    1  0.1213322E+005  0.1043930E+01  0.7957747E-01            NaN
         13   -1    0    0    0    0  0.00000000000E+00  0.00000000000E+00  0.74505805969E-08  0.10566000000E+00  0.10566000000E+00 0.  1.
     999900   -1    0    0    0    0 -0.00000000000E+00 -0.00000000000E+00 -0.74505805969E-08  0.93827000000E+00  0.93827000000E+00 0.  1.
     999902    2    1    2    0    0  0.18249554957E-01  0.87335399231E-02 -0.10997333886E-01  0.10209025744E+01  0.10206428387E+01 0.  0.
     999903    2    3    3    0    0 -0.95541872718E-02 -0.12373247075E+00  0.31348160951E-01  0.12954774441E+00  0.19972583049E-01 0.  0.
         14    1    1    2    0    0 -0.18249554957E-01 -0.87335399231E-02  0.10997333886E-01  0.23027425568E-01  0.00000000000E+00 0.  1.
     999901    1    3    3    0    0  0.27803742229E-01  0.13246601068E+00 -0.42345494837E-01  0.89135483002E+00  0.88000000000E+00 0.  1.
        -11    1    4    4    0    0 -0.15759461672E-01 -0.85961908584E-01  0.22895942384E-01  0.90345424113E-01  0.51100000000E-03 0. -1.
         11    1    4    4    0    0  0.62052743997E-02 -0.37770562171E-01  0.84522185675E-02  0.39202320299E-01  0.51100000000E-03 0.  1.
</event>
<event>
 8    1  0.1213322E+005  0.1043930E+01  0.7957747E-01            NaN
         13   -1    0    0    0    0  0.00000000000E+00  0.00000000000E+00  0.74505805969E-08  0.10566000000E+00  0.10566000000E+00 0.  1.
     999900   -1    0    0    0    0 -0.00000000000E+00 -0.00000000000E+00 -0.74505805969E-08  0.93827000000E+00  0.93827000000E+00 0. -1.
     999902    2    1    2    0    0 -0.62398819045E-02  0.16852027964E-01 -0.14290940450E-01  0.10209700795E+01  0.10207118816E+01 0.  0.
     999903    2    3    3    0    0 -0.18145755160E-01 -0.98666357020E-01  0.77961337997E-01  0.12855945089E+00  0.19627627295E-01 0.  0.
         14    1    1    2    0    0  0.62398819045E-02 -0.16852027964E-01  0.14290940450E-01  0.22959920549E-01  0.00000000000E+00 0.  1.
     999901    1    3    3    0    0  0.11905873256E-01  0.11551838498E+00 -0.92252278447E-01  0.89241062856E+00  0.88000000000E+00 0. -1.
        -11    1    4    4    0    0 -0.14970201859E-01 -0.81379858587E-01  0.72856424466E-01  0.11025020650E+00  0.51100000000E-03 0.  1.
         11    1    4    4    0    0 -0.31755533015E-02 -0.17286498433E-01  0.51049135307E-02  0.18309244387E-01  0.51100000000E-03 0. -1.
</event>
<event>
 8    1  0.1213322E+005  0.1043930E+01  0.7957747E-01            NaN
         13   -1    0    0    0    0  0.00000000000E+00  0.00000000000E+00  0.74505805969E-08  0.10566000000E+00  0.10566000000E+00 0.  1.
     999900   -1    0    0    0    0 -0.00000000000E+00 -0.00000000000E+00 -0.74505805969E-08  0.93827000000E+00  0.93827000000E+00 0. -1.
     999902    2    1    2    0    0 -0.21158362044E-03 -0.22470830335E-01 -0.91538936389E-02  0.10196652776E+01  0.10193765259E+01 0.  0.
     999903    2    3    3    0    0 -0.11284331234E-01  0.11809166261E+00  0.40789025337E-01  0.12704289647E+00  0.20079244191E-01 0.  0.
         14    1    1    2    0    0  0.21158362044E-03  0.22470830335E-01  0.91538936389E-02  0.24264722383E-01  0.00000000000E+00 0. -1.
     999901    1    3    3    0    0  0.11072747614E-01 -0.14056249294E+00 -0.49942918976E-01  0.89262238114E+00  0.88000000000E+00 0.  1.
        -11    1    4    4    0    0  0.15840224657E-02  0.68193245148E-02  0.73033350173E-02  0.10129764922E-01  0.51100000000E-03 0.  1.
         11    1    4    4    0    0 -0.12868353700E-01  0.11127233809E+00  0.33485690320E-01  0.11691313155E+00  0.51100000000E-03 0. -1.
</event>
<event>
 7    1  0.1213322E+005  0.1043930E+01  0.7957747E-01            NaN
         13   -1    0    0    0    0  0.00000000000E+00  0.00000000000E+00  0.74505805969E-08  0.10566000000E+00  0.10566000000E+00 0.  1.
     999900   -1    0    0    0    0 -0.00000000000E+00 -0.00000000000E+00 -0.74505805969E-08  0.93827000000E+00  0.93827000000E+00 0. -1.
     999902    2    1    2    0    0  0.87306771264E-02  0.15293974049E-01  0.16652787722E-01  0.10196927208E+01  0.10194046297E+01 0.  0.
         14    1    1    2    0    0 -0.87306771264E-02 -0.15293974049E-01 -0.16652787722E-01  0.24237279225E-01  0.00000000000E+00 0. -1.
     999901    1    3    3    0    0 -0.40858520393E-01 -0.10004953783E+00  0.85872036631E-02  0.88665273291E+00  0.88000000000E+00 0. -1.
        -11    1    3    3    0    0  0.51147431761E-01  0.99264180365E-01  0.19344412656E-01  0.11333095209E+00  0.51100000000E-03 0. -1.
         11    1    3    3    0    0 -0.15582342411E-02  0.16079331510E-01 -0.11278828597E-01  0.19709035778E-01  0.51100000000E-03 0.  1.
</event>
<event>
 8    1  0.1213322E+005  0.1043930E+01  0.7957747E-01            NaN
         13   -1    0    0    0    0  0.00000000000E+00  0.00000000000E+00  0.74505805969E-08  0.10566000000E+00  0.10566000000E+00 0. -1.
     999900   -1    0    0    0    0 -0.00000000000E+00 -0.00000000000E+00 -0.74505805969E-08  0.93827000000E+00  0.93827000000E+00 0. -1.
     999902    2    1    2    0    0 -0.91806394149E-02  0.15419533892E-01  0.15327164559E-01  0.10203298276E+01  0.10200568557E+01 0.  0.
     999903    2    3    3    0    0  0.24983454517E-01 -0.10814304213E+00  0.64201887609E-01  0.12969879618E+00  0.19514220406E-01 0.  0.
         14    1    1    2    0    0  0.91806394149E-02 -0.15419533892E-01 -0.15327164559E-01  0.23600172434E-01  0.00000000000E+00 0.  1.
     999901    1    3    3    0    0 -0.34164093932E-01  0.12356257602E+00 -0.48874723049E-01  0.89063103138E+00  0.88000000000E+00 0. -1.
        -11    1    4    4    0    0  0.97562305825E-02 -0.12622202752E-01  0.94841954300E-02  0.18566505365E-01  0.51100000000E-03 0. -1.
         11    1    4    4    0    0  0.15227223935E-01 -0.95520839379E-01  0.54717692179E-01  0.11113229082E+00  0.51100000000E-03 0.  1.
</event>
<event>
 8    1  0.1213322E+005  0.1043930E+01  0.7957747E-01            NaN
         13   -1    0    0    0    0  0.00000000000E+00  0.00000000000E+00  0.74505805969E-08  0.10566000000E+00  0.10566000000E+00 0.  1.
     999900   -1    0    0    0    0 -0.00000000000E+00 -0.00000000000E+00 -0.74505805969E-08  0.93827000000E+00  0.93827000000E+00 0. -1.
     999902    2    1    2    0    0 -0.45565963210E-02 -0.84248066350E-02 -0.21967205326E-01  0.10199654836E+01  0.10196839165E+01 0.  0.
     999903    2    3    3    0    0  0.34150260200E-01 -0.54628732472E-01  0.10894314551E+00  0.12824212769E+00  0.20661453925E-01 0.  0.
         14    1    1    2    0    0  0.45565963210E-02  0.84248066350E-02  0.21967205326E-01  0.23964516409E-01  0.00000000000E+00 0.  1.
     999901    1    3    3    0    0 -0.38706856521E-01  0.46203925837E-01 -0.13091035083E+00  0.89172335590E+00  0.88000000000E+00 0. -1.
        -11    1    4    4    0    0  0.64698847180E-02 -0.40758293274E-02  0.26944538746E-01  0.28013230485E-01  0.51100000000E-03 0. -1.
         11    1    4    4    0    0  0.27680375483E-01 -0.50552903145E-01  0.81998606760E-01  0.10022889720E+00  0.51100000000E-03 0.  1.
</event>
<event>
 8    1  0.1213322E+005  0.1043930E+01  0.7957747E-01            NaN
         13   -1    0    0    0    0  0.00000000000E+00  0.00000000000E+00  0.74505805969E-08  0.10566000000E+00  0.10566000000E+00 0. -1.
     999900   -1    0    0    0    0 -0.00000000000E+00 -0.00000000000E+00 -0.74505805969E-08  0.93827000000E+00  0.93827000000E+00 0. -1.
     999902    2    1    2    0    0 -0.15975465370E-01  0.16858328320E-01 -0.64181009037E-02  0.10198341342E+01  0.10195494351E+01 0.  0.
     999903    2    3    3    0    0 -0.73159428935E-01 -0.10526944044E+00 -0.24047902226E-02  0.12955254718E+00  0.18550534559E-01 0.  0.
         14    1    1    2    0    0  0.15975465370E-01 -0.16858328320E-01  0.64181009037E-02  0.24095865760E-01  0.00000000000E+00 0. -1.
     999901    1    3    3    0    0  0.57183963566E-01  0.12212776876E+00 -0.40133106811E-02  0.89028158706E+00  0.88000000000E+00 0.  1.
        -11    1    4    4    0    0 -0.48788421090E-01 -0.65362361926E-01 -0.10004385863E-01  0.82176013815E-01  0.51100000000E-03 0. -1.
         11    1    4    4    0    0 -0.24371007846E-01 -0.39907078515E-01  0.75995956401E-02  0.47376533367E-01  0.51100000000E-03 0.  1.
</event>
<event>
 8    1  0.1213322E+005  0.1043930E+01  0.7957747E-01            NaN
         13   -1    0    0    0    0  0.00000000000E+00  0.00000000000E+00  0.74505805969E-08  0.10566000000E+00  0.10566000000E+00 0. -1.
     999900   -1    0    0    0    0 -0.00000000000E+00 -0.00000000000E+00 -0.74505805969E-08  0.93827000000E+00  0.93827000000E+00 0.  1.
     999902    2    1    2    0    0  0.40868707567E-02 -0.38462330071E-02  0.19244887274E-01  0.10238835114E+01  0.10236872487E+01 0.  0.
     999903    2    3    3    0    0 -0.12210902803E+00  0.20819357553E-01  0.47038098902E-01  0.13410474175E+00  0.20674589144E-01 0.  0.
         14    1    1    2    0    0 -0.40868707567E-02  0.38462330071E-02 -0.19244887274E-01  0.20046488648E-01  0.00000000000E+00 0.  1.
     999901    1    3    3    0    0  0.12619589878E+00 -0.24665590560E-01 -0.27793211627E-01  0.88977876961E+00  0.88000000000E+00 0.  1.
        -11    1    4    4    0    0 -0.69873325451E-01  0.16775351414E-02  0.28149670234E-01  0.75350917639E-01  0.51100000000E-03 0. -1.
         11    1    4    4    0    0 -0.52235702575E-01  0.19141822412E-01  0.18888428668E-01  0.58753824108E-01  0.51100000000E-03 0.  1.
</event>
<event>
 8    1  0.1213322E+005  0.1043930E+01  0.7957747E-01            NaN
         13   -1    0    0    0    0  0.00000000000E+00  0.00000000000E+00  0.74505805969E-08  0.10566000000E+00  0.10566000000E+00 0. -1.
     999900   -1    0    0    0    0 -0.00000000000E+00 -0.00000000000E+00 -0.74505805969E-08  0.93827000000E+00  0.93827000000E+00 0. -1.
     999902    2    1    2    0    0 -0.10062774538E-01 -0.10275944465E-01  0.18602363661E-01  0.10204161232E+01  0.10201451672E+01 0.  0.
     999903    2    3    3    0    0  0.31507046993E-01  0.25514137059E-01  0.12448474358E+00  0.13237329862E+00  0.19559488809E-01 0.  0.
         14    1    1    2    0    0  0.10062774538E-01  0.10275944465E-01 -0.18602363661E-01  0.23513876750E-01  0.00000000000E+00 0.  1.
     999901    1    3    3    0    0 -0.41569821531E-01 -0.35790081525E-01 -0.10588237992E+00  0.88804282463E+00  0.88000000000E+00 0. -1.
        -11    1    4    4    0    0  0.40120497852E-02 -0.27297326623E-02  0.77092888616E-02  0.91237185203E-02  0.51100000000E-03 0.  1.
         11    1    4    4    0    0  0.27494997208E-01  0.28243869722E-01  0.11677545472E+00  0.12324958010E+00  0.51100000000E-03 0. -1.
</event>
<event>
 8    1  0.1213322E+005  0.1043930E+01  0.7957747E-01            NaN
         13   -1    0    0    0    0  0.00000000000E+00  0.00000000000E+00  0.74505805969E-08  0.10566000000E+00  0.10566000000E+00 0. -1.
     999900   -1    0    0    0    0 -0.00000000000E+00 -0.00000000000E+00 -0.74505805969E-08  0.93827000000E+00  0.93827000000E+00 0.  1.
     999902    2    1    2    0    0 -0.13139462400E-01  0.85203659190E-02  0.93575268288E-02  0.10256870448E+01  0.10255247966E+01 0.  0.
     999903    2    3    3    0    0 -0.91473057459E-01  0.99525397443E-01  0.11859463886E-01  0.13752921669E+00  0.22383332680E-01 0.  0.
         14    1    1    2    0    0  0.13139462400E-01 -0.85203659190E-02 -0.93575268288E-02  0.18242955241E-01  0.00000000000E+00 0.  1.
     999901    1    3    3    0    0  0.78333595059E-01 -0.91005031524E-01 -0.25019370571E-02  0.88815782807E+00  0.88000000000E+00 0. -1.
        -11    1    4    4    0    0 -0.52925874094E-01  0.44167575774E-01 -0.55335052039E-03  0.68938307320E-01  0.51100000000E-03 0.  1.
         11    1    4    4    0    0 -0.38547183364E-01  0.55357821669E-01  0.12412814406E-01  0.68590909367E-01  0.51100000000E-03 0. -1.
</event>
<event>
 8    1  0.1213322E+005  0.1043930E+01  0.7957747E-01            NaN
         13   -1    0    0    0    0  0.00000000000E+00  0.00000000000E+00  0.74505805969E-08  0.10566000000E+00  0.10566000000E+00 0. -1.
     999900   -1    0    0    0    0 -0.00000000000E+00 -0.00000000000E+00 -0.74505805969E-08  0.93827000000E+00  0.93827000000E+00 0.  1.
     999902    2    1    2    0    0  0.71009989006E-02  0.21319349868E-01 -0.65079539742E-02  0.10205357202E+01  0.10202675452E+01 0.  0.
     999903    2    3    3    0    0  0.52470758638E-01  0.71054809912E-01 -0.97605490113E-01  0.13327544709E+00  0.20821781212E-01 0.  0.
         14    1    1    2    0    0 -0.71009989006E-02 -0.21319349868E-01  0.65079539742E-02  0.23394279838E-01  0.00000000000E+00 0. -1.
     999901    1    3    3    0    0 -0.45369759737E-01 -0.49735460043E-01  0.91097536139E-01  0.88726027307E+00  0.88000000000E+00 0.  1.
        -11    1    4    4    0    0  0.13121635052E-01  0.22273654146E-01 -0.42869304300E-01  0.50063273441E-01  0.51100000000E-03 0.  1.
         11    1    4    4    0    0  0.39349123586E-01  0.48781155765E-01 -0.54736185813E-01  0.83212173647E-01  0.51100000000E-03 0. -1.
</event>
<event>
 8    1  0.1213322E+005  0.1043930E+01  0.7957747E-01            NaN
         13   -1    0    0    0    0  0.00000000000E+00  0.00000000000E+00  0.74505805969E-08  0.10566000000E+00  0.10566000000E+00 0. -1.
     999900   -1    0    0    0    0 -0.00000000000E+00 -0.00000000000E+00 -0.74505805969E-08  0.93827000000E+00  0.93827000000E+00 0. -1.
     999902    2    1    2    0    0  0.77653364561E-02 -0.18175369401E-01 -0.13561417685E-01  0.10199600907E+01  0.10196783954E+01 0.  0.
     999903    2    3    3    0    0  0.35972299098E-01  0.23693056419E-01  0.11949622920E+00  0.12852701119E+00  0.19608074506E-01 0.  0.
         14    1    1    2    0    0 -0.77653364561E-02  0.18175369401E-01  0.13561417685E-01  0.23969909319E-01  0.00000000000E+00 0. -1.
     999901    1    3    3    0    0 -0.28206962642E-01 -0.41868425821E-01 -0.13305764689E+00  0.89143307949E+00  0.88000000000E+00 0. -1.
        -11    1    4    4    0    0  0.20448173005E-01  0.92988587758E-02  0.86092463027E-01  0.88976232022E-01  0.51100000000E-03 0.  1.
         11    1    4    4    0    0  0.15524126093E-01  0.14394197643E-01  0.33403766175E-01  0.39550779164E-01  0.51100000000E-03 0. -1.
</event>
<event>
 8    1  0.1213322E+005  0.1043930E+01  0.7957747E-01            NaN
         13   -1    0    0    0    0  0.00000000000E+00  0.00000000000E+00  0.74505805969E-08  0.10566000000E+00  0.10566000000E+00 0.  1.
     999900   -1    0    0    0    0 -0.00000000000E+00 -0.00000000000E+00 -0.74505805969E-08  0.93827000000E+00  0.93827000000E+00 0. -1.
     999902    2    1    2    0    0  0.16870803111E-01 -0.26129514650E-02  0.16775571696E-01  0.10199952696E+01  0.10197144104E+01 0.  0.
     999903    2    3    3    0    0 -0.74818049632E-01 -0.91267374326E-01  0.51190488625E-01  0.13013525876E+00  0.19678548708E-01 0.  0.
         14    1    1    2    0    0 -0.16870803111E-01  0.26129514650E-02 -0.16775571696E-01  0.23934730387E-01  0.00000000000E+00 0. -1.
     999901    1    3    3    0    0  0.91688852744E-01  0.88654422861E-01 -0.34414916929E-01  0.88986001085E+00  0.88000000000E+00 0. -1.
        -11    1    4    4    0    0 -0.48182524289E-02 -0.64242170651E-02 -0.14795610998E-02  0.81814634031E-02  0.51100000000E-03 0. -1.
         11    1    4    4    0    0 -0.69999797203E-01 -0.84843157261E-01  0.52670049725E-01  0.12195379536E+00  0.51100000000E-03 0.  1.
</event>
<event>
 8    1  0.1213322E+005  0.1043930E+01  0.7957747E-01            NaN
         13   -1    0    0    0    0  0.00000000000E+00  0.00000000000E+00  0.74505805969E-08  0.10566000000E+00  0.10566000000E+00 0. -1.
     999900   -1    0    0    0    0 -0.00000000000E+00 -0.00000000000E+00 -0.74505805969E-08  0.93827000000E+00  0.93827000000E+00 0.  1.
     999902    2    1    2    0    0 -0.13689413319E-01 -0.11570330743E-02 -0.18751219915E-01  0.10206846346E+01  0.10204199020E+01 0.  0.
     999903    2    3    3    0    0 -0.99462866278E-01 -0.84133052188E-01 -0.14695059876E-01  0.13262013393E+00  0.20023059215E-01 0.  0.
         14    1    1    2    0    0  0.13689413319E-01  0.11570330743E-02  0.18751219915E-01  0.23245365363E-01  0.00000000000E+00 0. -1.
     999901    1    3    3    0    0  0.85773452959E-01  0.82976019114E-01 -0.40561600384E-02  0.88806450071E+00  0.88000000000E+00 0. -1.
        -11    1    4    4    0    0 -0.42481501033E-01 -0.39657087510E-01 -0.16150274076E-01  0.60319607040E-01  0.51100000000E-03 0.  1.
         11    1    4    4    0    0 -0.56981365246E-01 -0.44475964679E-01  0.14552141999E-02  0.72300526891E-01  0.51100000000E-03 0. -1.
</event>
<event>
 8    1  0.1213322E+005  0.1043930E+01  0.7957747E-01            NaN
         13   -1    0    0    0    0  0.00000000000E+00  0.00000000000E+00  0.74505805969E-08  0.10566000000E+00  0.10566000000E+00 0. -1.
     999900   -1    0    0    0    0 -0.00000000000E+00 -0.00000000000E+00 -0.74505805969E-08  0.93827000000E+00  0.93827000000E+00 0.  1.
     999902    2    1    2    0    0 -0.15060329061E-01  0.18769179714E-01 -0.43547555078E-02  0.10194747447E+01  0.10191813850E+01 0.  0.
     999903    2    3    3    0    0  0.84973590686E-01  0.18621282751E-02  0.93820061316E-01  0.12822229548E+00  0.20366013803E-01 0.  0.
         14    1    1    2    0    0  0.15060329061E-01 -0.18769179714E-01  0.43547555078E-02  0.24455255348E-01  0.00000000000E+00 0.  1.
     999901    1    3    3    0    0 -0.10003391975E+00  0.16907051439E-01 -0.98174816824E-01  0.89125244917E+00  0.88000000000E+00 0.  1.
        -11    1    4    4    0    0  0.56293847886E-01 -0.17140605437E-02  0.47774360136E-01  0.73855168545E-01  0.51100000000E-03 0. -1.
         11    1    4    4    0    0  0.28679742800E-01  0.35761888187E-02  0.46045701180E-01  0.54367126940E-01  0.51100000000E-03 0.  1.
</event>
<event>
 8    1  0.1213322E+005  0.1043930E+01  0.7957747E-01            NaN
         13   -1    0    0    0    0  0.00000000000E+00  0.00000000000E+00  0.74505805969E-08  0.10566000000E+00  0.10566000000E+00 0.  1.
     999900   -1    0    0    0    0 -0.00000000000E+00 -0.00000000000E+00 -0.74505805969E-08  0.93827000000E+00  0.93827000000E+00 0. -1.
     999902    2    1    2    0    0  0.21998029561E-02 -0.23984307972E-01 -0.71299007207E-03  0.10198344710E+01  0.10195497799E+01 0.  0.
     999903    2    3    3    0    0 -0.10937136017E+00 -0.37808991155E-01 -0.57545746057E-01  0.13086360060E+00  0.20546406846E-01 0.  0.
         14    1    1    2    0    0 -0.21998029561E-02  0.23984307972E-01  0.71299007207E-03  0.24095528979E-01  0.00000000000E+00 0.  1.
     999901    1    3    3    0    0  0.11157116313E+00  0.13824683183E-01  0.56832755985E-01  0.88897087042E+00  0.88000000000E+00 0.  1.
        -11    1    4    4    0    0 -0.78688317733E-01 -0.29711730986E-01 -0.51285469738E-01  0.98514460020E-01  0.51100000000E-03 0. -1.
         11    1    4    4    0    0 -0.30683042440E-01 -0.80972601686E-02 -0.62602763193E-02  0.32349140579E-01  0.51100000000E-03 0.  1.
</event>
<event>
 8    1  0.1213322E+005  0.1043930E+01  0.7957747E-01            NaN
         13   -1    0    0    0    0  0.00000000000E+00  0.00000000000E+00  0.74505805969E-08  0.10566000000E+00  0.10566000000E+00 0. -1.
     999900   -1    0    0    0    0 -0.00000000000E+00 -0.00000000000E+00 -0.74505805969E-08  0.93827000000E+00  0.93827000000E+00 0. -1.
     999902    2    1    2    0    0  0.14759630133E-01  0.85943153994E-02  0.16854025107E-01  0.10199348525E+01  0.10196525567E+01 0.  0.
     999903    2    3    3    0    0 -0.54653311293E-02  0.11985184822E+00 -0.46907215868E-01  0.13041094420E+00  0.20307439574E-01 0.  0.
         14    1    1    2    0    0 -0.14759630133E-01 -0.85943153994E-02 -0.16854025107E-01  0.23995147450E-01  0.00000000000E+00 0.  1.
     999901    1    3    3    0    0  0.20224961262E-01 -0.11125753282E+00  0.63761240975E-01  0.88952390835E+00  0.88000000000E+00 0.  1.
        -11    1    4    4    0    0  0.24665623284E-02  0.26869174846E-01 -0.19004389585E-01  0.33007036086E-01  0.51100000000E-03 0. -1.
         11    1    4    4    0    0 -0.79318934577E-02  0.92982673372E-01 -0.27902826283E-01  0.97403908119E-01  0.51100000000E-03 0.  1.
</event>
<event>
 8    1  0.1213322E+005  0.1043930E+01  0.7957747E-01            NaN
         13   -1    0    0    0    0  0.00000000000E+00  0.00000000000E+00  0.74505805969E-08  0.10566000000E+00  0.10566000000E+00 0. -1.
     999900   -1    0    0    0    0 -0.00000000000E+00 -0.00000000000E+00 -0.74505805969E-08  0.93827000000E+00  0.93827000000E+00 0.  1.
     999902    2    1    2    0    0 -0.22007036909E-02  0.23160685749E-01 -0.51653612408E-02  0.10200984785E+01  0.10198200647E+01 0.  0.
     999903    2    3    3    0    0  0.47237574612E-01  0.10809901129E+00  0.56105788176E-01  0.13251027652E+00  0.22233515697E-01 0.  0.
         14    1    1    2    0    0  0.22007036909E-02 -0.23160685749E-01  0.51653612408E-02  0.23831521518E-01  0.00000000000E+00 0. -1.
     999901    1    3    3    0    0 -0.49438278303E-01 -0.84938325540E-01 -0.61271149417E-01  0.88758820196E+00  0.88000000000E+00 0. -1.
        -11    1    4    4    0    0  0.10559744735E-01  0.36559983098E-01  0.28358577680E-01  0.47461675297E-01  0.51100000000E-03 0. -1.
         11    1    4    4    0    0  0.36677829877E-01  0.71539028192E-01  0.27747210496E-01  0.85048601226E-01  0.51100000000E-03 0.  1.
</event>
<event>
 8    1  0.1213322E+005  0.1043930E+01  0.7957747E-01            NaN
         13   -1    0    0    0    0  0.00000000000E+00  0.00000000000E+00  0.74505805969E-08  0.10566000000E+00  0.10566000000E+00 0.  1.
     999900   -1    0    0    0    0 -0.00000000000E+00 -0.00000000000E+00 -0.74505805969E-08  0.93827000000E+00  0.93827000000E+00 0.  1.
     999902    2    1    2    0    0  0.21076899810E-01  0.76947468542E-02 -0.58831468325E-02  0.10207339604E+01  0.10204703630E+01 0.  0.
     999903    2    3    3    0    0  0.11742969730E+00 -0.40816500327E-01 -0.43676241851E-01  0.13334142006E+00  0.20410773992E-01 0.  0.
         14    1    1    2    0    0 -0.21076899810E-01 -0.76947468542E-02  0.58831468325E-02  0.23196039563E-01  0.00000000000E+00 0.  1.
     999901    1    3    3    0    0 -0.96352797487E-01  0.48511247181E-01  0.37793095019E-01  0.88739254038E+00  0.88000000000E+00 0. -1.
        -11    1    4    4    0    0  0.64877784561E-01 -0.26186422305E-01 -0.34548795317E-01  0.78030353206E-01  0.51100000000E-03 0. -1.
         11    1    4    4    0    0  0.52551912737E-01 -0.14630078022E-01 -0.91274465343E-02  0.55311066853E-01  0.51100000000E-03 0.  1.
</event>
<event>
 8    1  0.1213322E+005  0.1043930E+01  0.7957747E-01            NaN
         13   -1    0    0    0    0  0.00000000000E+00  0.00000000000E+00  0.74505805969E-08  0.10566000000E+00  0.10566000000E+00 0. -1.
     999900   -1    0    0    0    0 -0.00000000000E+00 -0.00000000000E+00 -0.74505805969E-08  0.93827000000E+00  0.93827000000E+00 0.  1.
     999902    2    1    2    0    0 -0.23301618203E-01 -0.46921705623E-02  0.10092021809E-02  0.10201392378E+01  0.10198617868E+01 0.  0.
     999903    2    3    3    0    0 -0.29096018304E-01 -0.11645113305E+00  0.50541071853E-01  0.13167030372E+00  0.19370706422E-01 0.  0.
         14    1    1    2    0    0  0.23301618203E-01  0.46921705623E-02 -0.10092021809E-02  0.23790762167E-01  0.00000000000E+00 0. -1.
     999901    1    3    3    0    0  0.57944001008E-02  0.11175896249E+00 -0.49531869672E-01  0.88846893411E+00  0.88000000000E+00 0. -1.
        -11    1    4    4    0    0 -0.20901603782E-01 -0.49092123783E-01  0.27344814774E-01  0.59957598970E-01  0.51100000000E-03 0. -1.
         11    1    4    4    0    0 -0.81944145215E-02 -0.67359009270E-01  0.23196257079E-01  0.71712704751E-01  0.51100000000E-03 0.  1.
</event>
<event>
 8    1  0.1213322E+005  0.1043930E+01  0.7957747E-01            NaN
         13   -1    0    0    0    0  0.00000000000E+00  0.00000000000E+00  0.74505805969E-08  0.10566000000E+00  0.10566000000E+00 0.  1.
     999900   -1    0    0    0    0 -0.00000000000E+00 -0.00000000000E+00 -0.74505805969E-08  0.93827000000E+00  0.93827000000E+00 0.  1.
     999902    2    1    2    0    0 -0.11914213785E-01 -0.14341624579E-01 -0.15156288025E-01  0.10199020215E+01  0.10196189434E+01 0.  0.
     999903    2    3    3    0    0  0.11588999091E+00  0.14387613941E-01 -0.52222925460E-01  0.12943404366E+00  0.19708990028E-01 0.  0.
         14    1    1    2    0    0  0.11914213785E-01  0.14341624579E-01  0.15156288025E-01  0.24027978532E-01  0.00000000000E+00 0. -1.
     999901    1    3    3    0    0 -0.12780420469E+00 -0.28729238520E-01  0.37066637435E-01  0.89046797780E+00  0.88000000000E+00 0.  1.
        -11    1    4    4    0    0  0.40073120351E-01  0.14479735298E-01 -0.18978926029E-01  0.46647384312E-01  0.51100000000E-03 0.  1.
         11    1    4    4    0    0  0.75816870557E-01 -0.92121356285E-04 -0.33243999431E-01  0.82786659352E-01  0.51100000000E-03 0. -1.
</event>
<event>
 8    1  0.1213322E+005  0.1043930E+01  0.7957747E-01            NaN
         13   -1    0    0    0    0  0.00000000000E+00  0.00000000000E+00  0.74505805969E-08  0.10566000000E+00  0.10566000000E+00 0. -1.
     999900   -1    0    0    0    0 -0.00000000000E+00 -0.00000000000E+00 -0.74505805969E-08  0.93827000000E+00  0.93827000000E+00 0. -1.
     999902    2    1    2    0    0  0.23935865336E-01 -0.32246943602E-02  0.44902199921E-02  0.10193640402E+01  0.10190679860E+01 0.  0.
     999903    2    3    3    0    0  0.33420243077E-01  0.61398262218E-01  0.10872748292E+00  0.13080819680E+00  0.20061394681E-01 0.  0.
         14    1    1    2    0    0 -0.23935865336E-01  0.32246943602E-02 -0.44902199921E-02  0.24565959755E-01  0.00000000000E+00 0.  1.
     999901    1    3    3    0    0 -0.94843777414E-02 -0.64622956579E-01 -0.10423726293E+00  0.88855584345E+00  0.88000000000E+00 0. -1.
        -11    1    4    4    0    0  0.63810112438E-02  0.25555831516E-01  0.53470592181E-01  0.59608583091E-01  0.51100000000E-03 0. -1.
         11    1    4    4    0    0  0.27039231833E-01  0.35842430702E-01  0.55256890742E-01  0.71199613709E-01  0.51100000000E-03 0.  1.
</event>
<event>
 8    1  0.1213322E+005  0.1043930E+01  0.7957747E-01            NaN
         13   -1    0    0    0    0  0.00000000000E+00  0.00000000000E+00  0.74505805969E-08  0.10566000000E+00  0.10566000000E+00 0.  1.
     999900   -1    0    0    0    0 -0.00000000000E+00 -0.00000000000E+00 -0.74505805969E-08  0.93827000000E+00  0.93827000000E+00 0. -1.
     999902    2    1    2    0    0 -0.15456913956E-01 -0.15671033038E-01 -0.92148099070E-02  0.10200676827E+01  0.10197885404E+01 0.  0.
     999903    2    3    3    0    0  0.68842409784E-01 -0.97053372830E-01  0.49510018838E-01  0.13036095195E+00  0.19598501646E-01 0.  0.
         14    1    1    2    0    0  0.15456913956E-01  0.15671033038E-01  0.92148099070E-02  0.23862317305E-01  0.00000000000E+00 0. -1.
     999901    1    3    3    0    0 -0.84299323741E-01  0.81382339791E-01 -0.58724828745E-01  0.88970673074E+00  0.88000000000E+00 0. -1.
        -11    1    4    4    0    0  0.48653152337E-01 -0.56588119712E-01  0.23769393394E-01  0.78323621649E-01  0.51100000000E-03 0. -1.
         11    1    4    4    0    0  0.20189257447E-01 -0.40465253117E-01  0.25740625444E-01  0.52037330306E-01  0.51100000000E-03 0.  1.
</event>
<event>
 8    1  0.1213322E+005  0.1043930E+01  0.7957747E-01            NaN
         13   -1    0    0    0    0  0.00000000000E+00  0.00000000000E+00  0.74505805969E-08  0.10566000000E+00  0.10566000000E+00 0.  1.
     999900   -1    0    0    0    0 -0.00000000000E+00 -0.00000000000E+00 -0.74505805969E-08  0.93827000000E+00  0.93827000000E+00 0. -1.
     999902    2    1    2    0    0  0.20570145537E-02  0.13392409591E-01 -0.19515258752E-01  0.10201721956E+01  0.10198955219E+01 0.  0.
     999903    2    3    3    0    0  0.21544371326E-01 -0.12393323188E+00  0.18740208697E-01  0.12848751502E+00  0.18282237131E-01 0.  0.
         14    1    1    2    0    0 -0.20570145537E-02 -0.13392409591E-01  0.19515258752E-01  0.23757804353E-01  0.00000000000E+00 0.  1.
     999901    1    3    3    0    0 -0.19487356772E-01  0.13732564147E+00 -0.38255467448E-01  0.89168468063E+00  0.88000000000E+00 0.  1.
        -11    1    4    4    0    0  0.10988274193E-01 -0.98631218632E-01  0.10188131765E-01  0.99764315306E-01  0.51100000000E-03 0. -1.
         11    1    4    4    0    0  0.10556097133E-01 -0.25302013244E-01  0.85520769318E-02  0.28723199713E-01  0.51100000000E-03 0.  1.
</event>
<event>
 8    1  0.1213322E+005  0.1043930E+01  0.7957747E-01            NaN
         13   -1    0    0    0    0  0.00000000000E+00  0.00000000000E+00  0.74505805969E-08  0.10566000000E+00  0.10566000000E+00 0.  1.
     999900   -1    0    0    0    0 -0.00000000000E+00 -0.00000000000E+00 -0.74505805969E-08  0.93827000000E+00  0.93827000000E+00 0. -1.
     999902    2    1    2    0    0 -0.21353315501E-01  0.71991472369E-02 -0.45044958787E-03  0.10213912620E+01  0.10211425539E+01 0.  0.
     999903    2    3    3    0    0  0.81621945736E-01 -0.98037208632E-01 -0.70206528067E-03  0.12915886052E+00  0.20201040873E-01 0.  0.
         14    1    1    2    0    0  0.21353315501E-01 -0.71991472369E-02  0.45044958787E-03  0.22538737956E-01  0.00000000000E+00 0.  1.
     999901    1    3    3    0    0 -0.10297526124E+00  0.10523635587E+00  0.25161569279E-03  0.89223240153E+00  0.88000000000E+00 0.  1.
        -11    1    4    4    0    0  0.71420860657E-01 -0.73120531119E-01 -0.13154220855E-02  0.10222300555E+00  0.51100000000E-03 0. -1.
         11    1    4    4    0    0  0.10201085080E-01 -0.24916677513E-01  0.61335680488E-03  0.26935854964E-01  0.51100000000E-03 0.  1.
</event>
<event>
 8    1  0.1213322E+005  0.1043930E+01  0.7957747E-01            NaN
         13   -1    0    0    0    0  0.00000000000E+00  0.00000000000E+00  0.74505805969E-08  0.10566000000E+00  0.10566000000E+00 0.  1.
     999900   -1    0    0    0    0 -0.00000000000E+00 -0.00000000000E+00 -0.74505805969E-08  0.93827000000E+00  0.93827000000E+00 0. -1.
     999902    2    1    2    0    0 -0.16769437620E-01  0.11065049110E-01 -0.12774632862E-01  0.10201215856E+01  0.10198437179E+01 0.  0.
     999903    2    3    3    0    0  0.34253341704E-01  0.10788863851E+00  0.61245255452E-01  0.13025807063E+00  0.20073213788E-01 0.  0.
         14    1    1    2    0    0  0.16769437620E-01 -0.11065049110E-01  0.12774632862E-01  0.23808414366E-01  0.00000000000E+00 0.  1.
     999901    1    3    3    0    0 -0.51022779323E-01 -0.96823589395E-01 -0.74019888314E-01  0.88986351501E+00  0.88000000000E+00 0.  1.
        -11    1    4    4    0    0  0.20233323010E-01  0.72948034205E-01  0.50853665973E-01  0.91198462259E-01  0.51100000000E-03 0.  1.
         11    1    4    4    0    0  0.14020018694E-01  0.34940604300E-01  0.10391589479E-01  0.39059608369E-01  0.51100000000E-03 0. -1.
</event>
<event>
 8    1  0.1213322E+005  0.1043930E+01  0.7957747E-01            NaN
         13   -1    0    0    0    0  0.00000000000E+00  0.00000000000E+00  0.74505805969E-08  0.10566000000E+00  0.10566000000E+00 0. -1.
     999900   -1    0    0    0    0 -0.00000000000E+00 -0.00000000000E+00 -0.74505805969E-08  0.93827000000E+00  0.93827000000E+00 0. -1.
     999902    2    1    2    0    0  0.90657061163E-03 -0.21658731531E-01  0.13497492420E-02  0.10222103236E+01  0.10219795503E+01 0.  0.
     999903    2    3    3    0    0  0.11914383793E+00 -0.56752821554E-01 -0.42020891002E-02  0.13359203124E+00  0.20323296616E-01 0.  0.
         14    1    1    2    0    0 -0.90657061163E-03  0.21658731531E-01 -0.13497492420E-02  0.21719676444E-01  0.00000000000E+00 0. -1.
     999901    1    3    3    0    0 -0.11823726732E+00  0.35094090023E-01  0.55518383422E-02  0.88861829232E+00  0.88000000000E+00 0.  1.
        -11    1    4    4    0    0  0.20582772787E-01 -0.83744303444E-02  0.68073018571E-02  0.23246120080E-01  0.51100000000E-03 0.  1.
         11    1    4    4    0    0  0.98561065144E-01 -0.48378391210E-01 -0.11009390957E-01  0.11034591116E+00  0.51100000000E-03 0. -1.
</event>
<event>
 8    1  0.1213322E+005  0.1043930E+01  0.7957747E-01            NaN
         13   -1    0    0    0    0  0.00000000000E+00  0.00000000000E+00  0.74505805969E-08  0.10566000000E+00  0.10566000000E+00 0. -1.
     999900   -1    0    0    0    0 -0.00000000000E+00 -0.00000000000E+00 -0.74505805969E-08  0.93827000000E+00  0.93827000000E+00 0. -1.
     999902    2    1    2    0    0 -0.18140316330E-01 -0.65272213800E-02  0.28244620020E-01  0.10097330081E+01  0.10091537610E+01 0.  0.
     999903    2    3    3    0    0 -0.97269265348E-01 -0.72152911544E-01  0.15045270496E-01  0.12365042469E+00  0.19892579915E-01 0.  0.
         14    1    1    2    0    0  0.18140316330E-01  0.65272213800E-02 -0.28244620020E-01  0.34196991908E-01  0.00000000000E+00 0.  1.
     999901    1    3    3    0    0  0.79128949019E-01  0.65625690164E-01  0.13199349524E-01  0.88608258340E+00  0.88000000000E+00 0. -1.
        -11    1    4    4    0    0 -0.65288120749E-01 -0.39644278300E-01  0.28245775475E-02  0.76435900415E-01  0.51100000000E-03 0.  1.
         11    1    4    4    0    0 -0.31981144599E-01 -0.32508633244E-01  0.12220692949E-01  0.47214524274E-01  0.51100000000E-03 0. -1.
</event>
<event>
 8    1  0.1213322E+005  0.1043930E+01  0.7957747E-01            NaN
         13   -1    0    0    0    0  0.00000000000E+00  0.00000000000E+00  0.74505805969E-08  0.10566000000E+00  0.10566000000E+00 0. -1.
     999900   -1    0    0    0    0 -0.00000000000E+00 -0.00000000000E+00 -0.74505805969E-08  0.93827000000E+00  0.93827000000E+00 0.  1.
     999902    2    1    2    0    0 -0.16177394271E-02  0.71882123548E-02 -0.19601488511E-01  0.10229894692E+01  0.10227751211E+01 0.  0.
     999903    2    3    3    0    0 -0.33843575019E-01  0.10512772849E+00 -0.74833054494E-01  0.13525010477E+00  0.22257087138E-01 0.  0.
         14    1    1    2    0    0  0.16177394271E-02 -0.71882123548E-02  0.19601488511E-01  0.20940530785E-01  0.00000000000E+00 0. -1.
     999901    1    3    3    0    0  0.32225835592E-01 -0.97939516138E-01  0.55231565982E-01  0.88773936444E+00  0.88000000000E+00 0. -1.
        -11    1    4    4    0    0 -0.21148768364E-01  0.46863643849E-01 -0.46091765552E-01  0.69052034661E-01  0.51100000000E-03 0. -1.
         11    1    4    4    0    0 -0.12694806655E-01  0.58264084643E-01 -0.28741288941E-01  0.66198070110E-01  0.51100000000E-03 0.  1.
</event>
<event>
 8    1  0.1213322E+005  0.1043930E+01  0.7957747E-01            NaN
         13   -1    0    0    0    0  0.00000000000E+00  0.00000000000E+00  0.74505805969E-08  0.10566000000E+00  0.10566000000E+00 0.  1.
     999900   -1    0    0    0    0 -0.00000000000E+00 -0.00000000000E+00 -0.74505805969E-08  0.93827000000E+00  0.93827000000E+00 0. -1.
     999902    2    1    2    0    0 -0.17921847629E-01 -0.15450712968E-01 -0.85391584712E-03  0.10202520287E+01  0.10199772329E+01 0.  0.
     999903    2    3    3    0    0 -0.10538230669E+00  0.72426530374E-01 -0.20964012544E-01  0.13133349597E+00  0.21400104621E-01 0.  0.
         14    1    1    2    0    0  0.17921847629E-01  0.15450712968E-01  0.85391584712E-03  0.23677971322E-01  0.00000000000E+00 0. -1.
     999901    1    3    3    0    0  0.87460459059E-01 -0.87877243342E-01  0.20110096697E-01  0.88891853270E+00  0.88000000000E+00 0. -1.
        -11    1    4    4    0    0 -0.45221369669E-01  0.18778875998E-01 -0.57851865441E-02  0.49308700681E-01  0.51100000000E-03 0. -1.
         11    1    4    4    0    0 -0.60160937019E-01  0.53647654376E-01 -0.15178826000E-01  0.82024795293E-01  0.51100000000E-03 0.  1.
</event>
<event>
 8    1  0.1213322E+005  0.1043930E+01  0.7957747E-01            NaN
         13   -1    0    0    0    0  0.00000000000E+00  0.00000000000E+00  0.74505805969E-08  0.10566000000E+00  0.10566000000E+00 0. -1.
     999900   -1    0    0    0    0 -0.00000000000E+00 -0.00000000000E+00 -0.74505805969E-08  0.93827000000E+00  0.93827000000E+00 0. -1.
     999902    2    1    2    0    0 -0.14410056757E-01  0.14867733490E-01 -0.10270545774E-01  0.10208175933E+01  0.10205559149E+01 0.  0.
     999903    2    3    3    0    0  0.48840303975E-01 -0.11580933170E+00  0.18791701202E-01  0.12844899358E+00  0.18677240615E-01 0.  0.
         14    1    1    2    0    0  0.14410056757E-01 -0.14867733490E-01  0.10270545774E-01  0.23112406741E-01  0.00000000000E+00 0. -1.
     999901    1    3    3    0    0 -0.63250360732E-01  0.13067706518E+00 -0.29062246976E-01  0.89236859968E+00  0.88000000000E+00 0. -1.
        -11    1    4    4    0    0  0.17752217090E-01 -0.41242968649E-01  0.15806016587E-01  0.47604778709E-01  0.51100000000E-03 0. -1.
         11    1    4    4    0    0  0.31088086884E-01 -0.74566363047E-01  0.29856846155E-02  0.80844214869E-01  0.51100000000E-03 0.  1.
</event>
<event>
 8    1  0.1213322E+005  0.1043930E+01  0.7957747E-01            NaN
         13   -1    0    0    0    0  0.00000000000E+00  0.00000000000E+00  0.74505805969E-08  0.10566000000E+00  0.10566000000E+00 0. -1.
     999900   -1    0    0    0    0 -0.00000000000E+00 -0.00000000000E+00 -0.74505805969E-08  0.93827000000E+00  0.93827000000E+00 0.  1.
     999902    2    1    2    0    0  0.67820110205E-02 -0.60100437756E-02  0.22872046702E-01  0.10193282354E+01  0.10190313070E+01 0.  0.
     999903    2    3    3    0    0 -0.36264847107E-01 -0.31331862289E-01 -0.11609327690E+00  0.12702470655E+00  0.18994799329E-01 0.  0.
         14    1    1    2    0    0 -0.67820110205E-02  0.60100437756E-02 -0.22872046702E-01  0.24601764571E-01  0.00000000000E+00 0.  1.
     999901    1    3    3    0    0  0.43046858127E-01  0.25321818513E-01  0.13896532360E+00  0.89230352888E+00  0.88000000000E+00 0. -1.
        -11    1    4    4    0    0 -0.14602542527E-01 -0.22725200714E-01 -0.48416974183E-01  0.55444869066E-01  0.51100000000E-03 0.  1.
         11    1    4    4    0    0 -0.21662304579E-01 -0.86066615749E-02 -0.67676302720E-01  0.71579837482E-01  0.51100000000E-03 0. -1.
</event>
<event>
 8    1  0.1213322E+005  0.1043930E+01  0.7957747E-01            NaN
         13   -1    0    0    0    0  0.00000000000E+00  0.00000000000E+00  0.74505805969E-08  0.10566000000E+00  0.10566000000E+00 0.  1.
     999900   -1    0    0    0    0 -0.00000000000E+00 -0.00000000000E+00 -0.74505805969E-08  0.93827000000E+00  0.93827000000E+00 0.  1.
     999902    2    1    2    0    0 -0.77659101136E-02 -0.21313188434E-01 -0.36324374150E-02  0.10209570602E+01  0.10206985661E+01 0.  0.
     999903    2    3    3    0    0  0.11177630613E-01 -0.77756689315E-01  0.10468925433E+00  0.13231859861E+00  0.19424968672E-01 0.  0.
         14    1    1    2    0    0  0.77659101136E-02  0.21313188434E-01  0.36324374150E-02  0.22972939792E-01  0.00000000000E+00 0. -1.
     999901    1    3    3    0    0 -0.18943540727E-01  0.56443500881E-01 -0.10832169174E+00  0.88863846160E+00  0.88000000000E+00 0.  1.
        -11    1    4    4    0    0  0.13826355847E-02 -0.51965050241E-01  0.56418747048E-01  0.76717757183E-01  0.51100000000E-03 0. -1.
         11    1    4    4    0    0  0.97949950287E-02 -0.25791639074E-01  0.48270507277E-01  0.55600841429E-01  0.51100000000E-03 0.  1.
</event>
<event>
 8    1  0.1213322E+005  0.1043930E+01  0.7957747E-01            NaN
         13   -1    0    0    0    0  0.00000000000E+00  0.00000000000E+00  0.74505805969E-08  0.10566000000E+00  0.10566000000E+00 0.  1.
     999900   -1    0    0    0    0 -0.00000000000E+00 -0.00000000000E+00 -0.74505805969E-08  0.93827000000E+00  0.93827000000E+00 0. -1.
     999902    2    1    2    0    0 -0.74565201267E-02  0.22604663698E-01  0.55673683273E-02  0.10194848348E+01  0.10191917200E+01 0.  0.
     999903    2    3    3    0    0  0.22066087406E-01  0.95074842230E-01  0.86984506245E-01  0.13226881739E+00  0.20064842129E-01 0.  0.
         14    1    1    2    0    0  0.74565201267E-02 -0.22604663698E-01 -0.55673683273E-02  0.24445165236E-01  0.00000000000E+00 0.  1.
     999901    1    3    3    0    0 -0.29522607532E-01 -0.72470178532E-01 -0.81417137918E-01  0.88721601737E+00  0.88000000000E+00 0. -1.
        -11    1    4    4    0    0  0.11171037321E-01  0.69257459211E-01  0.51382150447E-01  0.86958462709E-01  0.51100000000E-03 0.  1.
         11    1    4    4    0    0  0.10895050084E-01  0.25817383019E-01  0.35602355798E-01  0.45310354685E-01  0.51100000000E-03 0. -1.
</event>
<event>
 8    1  0.1213322E+005  0.1043930E+01  0.7957747E-01            NaN
         13   -1    0    0    0    0  0.00000000000E+00  0.00000000000E+00  0.74505805969E-08  0.10566000000E+00  0.10566000000E+00 0.  1.
     999900   -1    0    0    0    0 -0.00000000000E+00 -0.00000000000E+00 -0.74505805969E-08  0.93827000000E+00  0.93827000000E+00 0.  1.
     999902    2    1    2    0    0  0.28541386919E-02  0.13459355640E-01  0.16930303100E-01  0.10221140534E+01  0.10218812077E+01 0.  0.
     999903    2    3    3    0    0 -0.10402775419E+00  0.20250387714E-01 -0.74369366129E-01  0.13093198070E+00  0.19507155299E-01 0.  0.
         14    1    1    2    0    0 -0.28541386919E-02 -0.13459355640E-01 -0.16930303100E-01  0.21815946575E-01  0.00000000000E+00 0. -1.
     999901    1    3    3    0    0  0.10688189288E+00 -0.67910320742E-02  0.91299669229E-01  0.89118207272E+00  0.88000000000E+00 0. -1.
        -11    1    4    4    0    0 -0.91508031695E-01  0.16053161855E-01 -0.71923039904E-01  0.11749301537E+00  0.51100000000E-03 0. -1.
         11    1    4    4    0    0 -0.12519722494E-01  0.41972258591E-02 -0.24463262250E-02  0.13438965334E-01  0.51100000000E-03 0.  1.
</event>
<event>
 8    1  0.1213322E+005  0.1043930E+01  0.7957747E-01            NaN
         13   -1    0    0    0    0  0.00000000000E+00  0.00000000000E+00  0.74505805969E-08  0.10566000000E+00  0.10566000000E+00 0.  1.
     999900   -1    0    0    0    0 -0.00000000000E+00 -0.00000000000E+00 -0.74505805969E-08  0.93827000000E+00  0.93827000000E+00 0.  1.
     999902    2    1    2    0    0  0.16795414260E-01  0.84714547731E-02  0.13899338501E-01  0.10205410475E+01  0.10202729961E+01 0.  0.
     999903    2    3    3    0    0  0.43337764959E-01 -0.11586230019E+00  0.38274733693E-01  0.13107067767E+00  0.20305980115E-01 0.  0.
         14    1    1    2    0    0 -0.16795414260E-01 -0.84714547731E-02 -0.13899338501E-01  0.23388952454E-01  0.00000000000E+00 0.  1.
     999901    1    3    3    0    0 -0.26542350699E-01  0.12433375496E+00 -0.24375395192E-01  0.88947036988E+00  0.88000000000E+00 0. -1.
        -11    1    4    4    0    0  0.16430559588E-01 -0.39324798606E-01  0.33877969711E-02  0.42756769793E-01  0.51100000000E-03 0. -1.
         11    1    4    4    0    0  0.26907205370E-01 -0.76537501581E-01  0.34886936722E-01  0.88313907874E-01  0.51100000000E-03 0.  1.
</event>
<event>
 8    1  0.1213322E+005  0.1043930E+01  0.7957747E-01            NaN
         13   -1    0    0    0    0  0.00000000000E+00  0.00000000000E+00  0.74505805969E-08  0.10566000000E+00  0.10566000000E+00 0. -1.
     999900   -1    0    0    0    0 -0.00000000000E+00 -0.00000000000E+00 -0.74505805969E-08  0.93827000000E+00  0.93827000000E+00 0.  1.
     999902    2    1    2    0    0  0.15343517127E-01 -0.87772117420E-03  0.18101913272E-01  0.10201839861E+01  0.10199075901E+01 0.  0.
     999903    2    3    3    0    0  0.11197794108E-01  0.12154476942E-01 -0.12582103222E+00  0.12838757466E+00  0.19476017947E-01 0.  0.
         14    1    1    2    0    0 -0.15343517127E-01  0.87772117420E-03 -0.18101913272E-01  0.23746013905E-01  0.00000000000E+00 0.  1.
     999901    1    3    3    0    0  0.41457230186E-02 -0.13032198116E-01  0.14392294549E+00  0.89179641143E+00  0.88000000000E+00 0. -1.
        -11    1    4    4    0    0  0.31540423059E-02  0.14383542572E-01 -0.50553875609E-01  0.52657285724E-01  0.51100000000E-03 0. -1.
         11    1    4    4    0    0  0.80437518024E-02 -0.22290656304E-02 -0.75267156614E-01  0.75730288936E-01  0.51100000000E-03 0.  1.
</event>
<event>
 8    1  0.1213322E+005  0.1043930E+01  0.7957747E-01            NaN
         13   -1    0    0    0    0  0.00000000000E+00  0.00000000000E+00  0.74505805969E-08  0.10566000000E+00  0.10566000000E+00 0. -1.
     999900   -1    0    0    0    0 -0.00000000000E+00 -0.00000000000E+00 -0.74505805969E-08  0.93827000000E+00  0.93827000000E+00 0. -1.
     999902    2    1    2    0    0 -0.74193771761E-03  0.17774549992E-02  0.23612679933E-01  0.10202388947E+01  0.10199637904E+01 0.  0.
     999903    2    3    3    0    0  0.23208947286E-02  0.73298676207E-01 -0.10360878552E+00  0.12821312863E+00  0.18048363604E-01 0.  0.
         14    1    1    2    0    0  0.74193771761E-03 -0.17774549992E-02 -0.23612679933E-01  0.23691105324E-01  0.00000000000E+00 0.  1.
     999901    1    3    3    0    0 -0.30628324462E-02 -0.71521221208E-01  0.12722146545E+00  0.89202576605E+00  0.88000000000E+00 0.  1.
        -11    1    4    4    0    0  0.82759626554E-02  0.36301632078E-01 -0.61007394680E-01  0.71473515207E-01  0.51100000000E-03 0.  1.
         11    1    4    4    0    0 -0.59550679268E-02  0.36997044129E-01 -0.42601390840E-01  0.56739613418E-01  0.51100000000E-03 0. -1.
</event>
<event>
 8    1  0.1213322E+005  0.1043930E+01  0.7957747E-01            NaN
         13   -1    0    0    0    0  0.00000000000E+00  0.00000000000E+00  0.74505805969E-08  0.10566000000E+00  0.10566000000E+00 0.  1.
     999900   -1    0    0    0    0 -0.00000000000E+00 -0.00000000000E+00 -0.74505805969E-08  0.93827000000E+00  0.93827000000E+00 0. -1.
     999902    2    1    2    0    0  0.44880246467E-02 -0.16199409149E-01 -0.16701094538E-01  0.10202342244E+01  0.10199590104E+01 0.  0.
     999903    2    3    3    0    0 -0.71171029682E-01 -0.12502903478E-01 -0.10891895324E+00  0.13217899520E+00  0.19654778961E-01 0.  0.
         14    1    1    2    0    0 -0.44880246467E-02  0.16199409149E-01  0.16701094538E-01  0.23695775590E-01  0.00000000000E+00 0. -1.
     999901    1    3    3    0    0  0.75659054328E-01 -0.36965056709E-02  0.92217858706E-01  0.88805522921E+00  0.88000000000E+00 0.  1.
        -11    1    4    4    0    0 -0.45194684250E-01 -0.51179475386E-02 -0.83516097078E-01  0.95099697495E-01  0.51100000000E-03 0. -1.
         11    1    4    4    0    0 -0.25976345431E-01 -0.73849559398E-02 -0.25402856167E-01  0.37079297710E-01  0.51100000000E-03 0.  1.
</event>
<event>
 8    1  0.1213322E+005  0.1043930E+01  0.7957747E-01            NaN
         13   -1    0    0    0    0  0.00000000000E+00  0.00000000000E+00  0.74505805969E-08  0.10566000000E+00  0.10566000000E+00 0. -1.
     999900   -1    0    0    0    0 -0.00000000000E+00 -0.00000000000E+00 -0.74505805969E-08  0.93827000000E+00  0.93827000000E+00 0. -1.
     999902    2    1    2    0    0 -0.14489382016E-01 -0.13018608519E-02  0.18248563183E-01  0.10205923246E+01  0.10203254608E+01 0.  0.
     999903    2    3    3    0    0  0.81344223985E-01  0.77624431225E-01  0.64087149608E-01  0.13069647926E+00  0.18220094610E-01 0.  0.
         14    1    1    2    0    0  0.14489382016E-01  0.13018608519E-02 -0.18248563183E-01  0.23337675358E-01  0.00000000000E+00 0.  1.
     999901    1    3    3    0    0 -0.95833606001E-01 -0.78926292077E-01 -0.45838586425E-01  0.88989584538E+00  0.88000000000E+00 0. -1.
        -11    1    4    4    0    0  0.17833546052E-01  0.28440459599E-01  0.18539501498E-01  0.38351914473E-01  0.51100000000E-03 0.  1.
         11    1    4    4    0    0  0.63510677933E-01  0.49183971626E-01  0.45547648110E-01  0.92344564788E-01  0.51100000000E-03 0. -1.
</event>
<event>
 8    1  0.1213322E+005  0.1043930E+01  0.7957747E-01            NaN
         13   -1    0    0    0    0  0.00000000000E+00  0.00000000000E+00  0.74505805969E-08  0.10566000000E+00  0.10566000000E+00 0.  1.
     999900   -1    0    0    0    0 -0.00000000000E+00 -0.00000000000E+00 -0.74505805969E-08  0.93827000000E+00  0.93827000000E+00 0. -1.
     999902    2    1    2    0    0  0.14791421470E-01  0.15204243914E-01 -0.79290647205E-02  0.10212843547E+01  0.10210332551E+01 0.  0.
     999903    2    3    3    0    0  0.11371207481E+00 -0.51025678912E-01 -0.41165462908E-01  0.13264699535E+00  0.19146126838E-01 0.  0.
         14    1    1    2    0    0 -0.14791421470E-01 -0.15204243914E-01  0.79290647205E-02  0.22645645265E-01  0.00000000000E+00 0. -1.
     999901    1    3    3    0    0 -0.98920653337E-01  0.66229922826E-01  0.33236398187E-01  0.88863735939E+00  0.88000000000E+00 0.  1.
        -11    1    4    4    0    0  0.56576105179E-01 -0.18778543414E-01 -0.27399227349E-01  0.65608445724E-01  0.51100000000E-03 0.  1.
         11    1    4    4    0    0  0.57135969629E-01 -0.32247135498E-01 -0.13766235559E-01  0.67038549624E-01  0.51100000000E-03 0. -1.
</event>
<event>
 8    1  0.1213322E+005  0.1043930E+01  0.7957747E-01            NaN
         13   -1    0    0    0    0  0.00000000000E+00  0.00000000000E+00  0.74505805969E-08  0.10566000000E+00  0.10566000000E+00 0. -1.
     999900   -1    0    0    0    0 -0.00000000000E+00 -0.00000000000E+00 -0.74505805969E-08  0.93827000000E+00  0.93827000000E+00 0. -1.
     999902    2    1    2    0    0 -0.11980758111E-01  0.19488892794E-01  0.35618494811E-02  0.10207774131E+01  0.10205148136E+01 0.  0.
     999903    2    3    3    0    0 -0.84657824984E-01  0.92059297377E-01 -0.42297368744E-01  0.13361818978E+00  0.20564330115E-01 0.  0.
         14    1    1    2    0    0  0.11980758111E-01 -0.19488892794E-01 -0.35618494811E-02  0.23152586874E-01  0.00000000000E+00 0.  1.
     999901    1    3    3    0    0  0.72677066873E-01 -0.72570404583E-01  0.45859218225E-01  0.88715922335E+00  0.88000000000E+00 0.  1.
        -11    1    4    4    0    0 -0.47466291573E-01  0.50365062617E-01 -0.12615773936E-01  0.70349891550E-01  0.51100000000E-03 0. -1.
         11    1    4    4    0    0 -0.37191533411E-01  0.41694234760E-01 -0.29681594807E-01  0.63268298230E-01  0.51100000000E-03 0.  1.
</event>
<event>
 8    1  0.1213322E+005  0.1043930E+01  0.7957747E-01            NaN
         13   -1    0    0    0    0  0.00000000000E+00  0.00000000000E+00  0.74505805969E-08  0.10566000000E+00  0.10566000000E+00 0.  1.
     999900   -1    0    0    0    0 -0.00000000000E+00 -0.00000000000E+00 -0.74505805969E-08  0.93827000000E+00  0.93827000000E+00 0. -1.
     999902    2    1    2    0    0 -0.20460829424E-01  0.63734120104E-02  0.92112489910E-02  0.10206037695E+01  0.10203371704E+01 0.  0.
     999903    2    3    3    0    0 -0.46910231743E-03  0.13015436503E+00 -0.18590434328E-02  0.13164710866E+00  0.19675527489E-01 0.  0.
         14    1    1    2    0    0  0.20460829424E-01 -0.63734120104E-02 -0.92112489910E-02  0.23326230501E-01  0.00000000000E+00 0. -1.
     999901    1    3    3    0    0 -0.19991727107E-01 -0.12378095302E+00  0.11070292424E-01  0.88895666084E+00  0.88000000000E+00 0.  1.
        -11    1    4    4    0    0  0.75135149820E-02  0.10365272338E+00 -0.25249699990E-02  0.10395660905E+00  0.51100000000E-03 0. -1.
         11    1    4    4    0    0 -0.79826172994E-02  0.26501641652E-01  0.66592656625E-03  0.27690499606E-01  0.51100000000E-03 0.  1.
</event>
<event>
 8    1  0.1213322E+005  0.1043930E+01  0.7957747E-01            NaN
         13   -1    0    0    0    0  0.00000000000E+00  0.00000000000E+00  0.74505805969E-08  0.10566000000E+00  0.10566000000E+00 0. -1.
     999900   -1    0    0    0    0 -0.00000000000E+00 -0.00000000000E+00 -0.74505805969E-08  0.93827000000E+00  0.93827000000E+00 0.  1.
     999902    2    1    2    0    0 -0.30951088707E-01  0.27361272074E-02 -0.86648206671E-02  0.10116726690E+01  0.10111582734E+01 0.  0.
     999903    2    3    3    0    0  0.91896570027E-01  0.46489339229E-01  0.57187823684E-01  0.11962868940E+00  0.20840775075E-01 0.  0.
         14    1    1    2    0    0  0.30951088707E-01 -0.27361272074E-02  0.86648206671E-02  0.32257330972E-01  0.00000000000E+00 0. -1.
     999901    1    3    3    0    0 -0.12284765873E+00 -0.43753212022E-01 -0.65852644351E-01  0.89204397963E+00  0.88000000000E+00 0. -1.
        -11    1    4    4    0    0  0.26875415894E-01  0.24631762270E-01  0.20854395261E-01  0.42002126312E-01  0.51100000000E-03 0.  1.
         11    1    4    4    0    0  0.65021154133E-01  0.21857576959E-01  0.36333428423E-01  0.77626563091E-01  0.51100000000E-03 0. -1.
</event>
<event>
 8    1  0.1213322E+005  0.1043930E+01  0.7957747E-01            NaN
         13   -1    0    0    0    0  0.00000000000E+00  0.00000000000E+00  0.74505805969E-08  0.10566000000E+00  0.10566000000E+00 0. -1.
     999900   -1    0    0    0    0 -0.00000000000E+00 -0.00000000000E+00 -0.74505805969E-08  0.93827000000E+00  0.93827000000E+00 0.  1.
     999902    2    1    2    0    0  0.17060875545E-01  0.14303759349E-01 -0.75351181278E-02  0.10204257661E+01  0.10201550348E+01 0.  0.
     999903    2    3    3    0    0  0.84577055940E-01 -0.72635597599E-01 -0.66938178733E-01  0.13158066711E+00  0.20088398494E-01 0.  0.
         14    1    1    2    0    0 -0.17060875545E-01 -0.14303759349E-01  0.75351181278E-02  0.23504233896E-01  0.00000000000E+00 0.  1.
     999901    1    3    3    0    0 -0.67516180396E-01  0.86939356948E-01  0.59403060605E-01  0.88884509900E+00  0.88000000000E+00 0. -1.
        -11    1    4    4    0    0  0.57993514106E-02 -0.79151668087E-02 -0.12820204141E-01  0.16152433180E-01  0.51100000000E-03 0. -1.
         11    1    4    4    0    0  0.78777704530E-01 -0.64720430791E-01 -0.54117974591E-01  0.11542823393E+00  0.51100000000E-03 0.  1.
</event>
<event>
 8    1  0.1213322E+005  0.1043930E+01  0.7957747E-01            NaN
         13   -1    0    0    0    0  0.00000000000E+00  0.00000000000E+00  0.74505805969E-08  0.10566000000E+00  0.10566000000E+00 0.  1.
     999900   -1    0    0    0    0 -0.00000000000E+00 -0.00000000000E+00 -0.74505805969E-08  0.93827000000E+00  0.93827000000E+00 0.  1.
     999902    2    1    2    0    0 -0.10031600916E-01  0.20428699717E-01 -0.63597625434E-02  0.10202992707E+01  0.10200255832E+01 0.  0.
     999903    2    3    3    0    0  0.67150419973E-01  0.10976143122E+00  0.20186915901E-01  0.13201883781E+00  0.21557163000E-01 0.  0.
         14    1    1    2    0    0  0.10031600916E-01 -0.20428699717E-01  0.63597625434E-02  0.23630729330E-01  0.00000000000E+00 0. -1.
     999901    1    3    3    0    0 -0.77182020889E-01 -0.89332731504E-01 -0.26546678444E-01  0.88828043286E+00  0.88000000000E+00 0. -1.
        -11    1    4    4    0    0  0.21191575458E-01  0.18089883603E-01  0.28089454930E-02  0.28008535395E-01  0.51100000000E-03 0.  1.
         11    1    4    4    0    0  0.45958844515E-01  0.91671547618E-01  0.17377970408E-01  0.10401030241E+00  0.51100000000E-03 0. -1.
</event>
<event>
 8    1  0.1213322E+005  0.1043930E+01  0.7957747E-01            NaN
         13   -1    0    0    0    0  0.00000000000E+00  0.00000000000E+00  0.74505805969E-08  0.10566000000E+00  0.10566000000E+00 0. -1.
     999900   -1    0    0    0    0 -0.00000000000E+00 -0.00000000000E+00 -0.74505805969E-08  0.93827000000E+00  0.93827000000E+00 0.  1.
     999902    2    1    2    0    0  0.20550633404E-01 -0.12292437038E-01 -0.17067927657E-02  0.10199227993E+01  0.10196402164E+01 0.  0.
     999903    2    3    3    0    0 -0.67903904365E-01  0.88024505857E-01 -0.60044224229E-01  0.12790769286E+00  0.19895104202E-01 0.  0.
         14    1    1    2    0    0 -0.20550633404E-01  0.12292437038E-01  0.17067927657E-02  0.24007200653E-01  0.00000000000E+00 0.  1.
     999901    1    3    3    0    0  0.88454537770E-01 -0.10031694289E+00  0.58337431463E-01  0.89201510648E+00  0.88000000000E+00 0. -1.
        -11    1    4    4    0    0 -0.48321341201E-01  0.75266342896E-01 -0.49924462855E-01  0.10243382010E+00  0.51100000000E-03 0.  1.
         11    1    4    4    0    0 -0.19582563164E-01  0.12758162960E-01 -0.10119761374E-01  0.25473872762E-01  0.51100000000E-03 0. -1.
</event>
<event>
 8    1  0.1213322E+005  0.1043930E+01  0.7957747E-01            NaN
         13   -1    0    0    0    0  0.00000000000E+00  0.00000000000E+00  0.74505805969E-08  0.10566000000E+00  0.10566000000E+00 0. -1.
     999900   -1    0    0    0    0 -0.00000000000E+00 -0.00000000000E+00 -0.74505805969E-08  0.93827000000E+00  0.93827000000E+00 0. -1.
     999902    2    1    2    0    0  0.37728685365E-03 -0.63046740856E-02 -0.13442434756E-01  0.10290777169E+01  0.10289705327E+01 0.  0.
     999903    2    3    3    0    0  0.10177033392E+00  0.33276758476E-01  0.83360750452E-01  0.13710344797E+00  0.19590742892E-01 0.  0.
         14    1    1    2    0    0 -0.37728685365E-03  0.63046740856E-02  0.13442434756E-01  0.14852283086E-01  0.00000000000E+00 0. -1.
     999901    1    3    3    0    0 -0.10139304707E+00 -0.39581432562E-01 -0.96803185208E-01  0.89197426895E+00  0.88000000000E+00 0. -1.
        -11    1    4    4    0    0  0.26524387860E-01  0.40348913079E-03  0.16840777948E-01  0.31425767735E-01  0.51100000000E-03 0. -1.
         11    1    4    4    0    0  0.75245946063E-01  0.32873269345E-01  0.66519972504E-01  0.10567768023E+00  0.51100000000E-03 0.  1.
</event>
<event>
 8    1  0.1213322E+005  0.1043930E+01  0.7957747E-01            NaN
         13   -1    0    0    0    0  0.00000000000E+00  0.00000000000E+00  0.74505805969E-08  0.10566000000E+00  0.10566000000E+00 0. -1.
     999900   -1    0    0    0    0 -0.00000000000E+00 -0.00000000000E+00 -0.74505805969E-08  0.93827000000E+00  0.93827000000E+00 0.  1.
     999902    2    1    2    0    0 -0.22821517860E-01 -0.61047075922E-02 -0.42290653842E-02  0.10199305390E+01  0.10196481405E+01 0.  0.
     999903    2    3    3    0    0 -0.31519938195E-01 -0.55480788256E-01 -0.11359856394E+00  0.13174398934E+00  0.19499246846E-01 0.  0.
         14    1    1    2    0    0  0.22821517860E-01  0.61047075922E-02  0.42290653842E-02  0.23999460957E-01  0.00000000000E+00 0. -1.
     999901    1    3    3    0    0  0.86984203353E-02  0.49376080664E-01  0.10936949856E+00  0.88818654970E+00  0.88000000000E+00 0. -1.
        -11    1    4    4    0    0 -0.17641225292E-01 -0.22321163418E-01 -0.33543558123E-01  0.43987254730E-01  0.51100000000E-03 0.  1.
         11    1    4    4    0    0 -0.13878712902E-01 -0.33159624838E-01 -0.80055005822E-01  0.87756734609E-01  0.51100000000E-03 0. -1.
</event>
<event>
 8    1  0.1213322E+005  0.1043930E+01  0.7957747E-01            NaN
         13   -1    0    0    0    0  0.00000000000E+00  0.00000000000E+00  0.74505805969E-08  0.10566000000E+00  0.10566000000E+00 0. -1.
     999900   -1    0    0    0    0 -0.00000000000E+00 -0.00000000000E+00 -0.74505805969E-08  0.93827000000E+00  0.93827000000E+00 0.  1.
     999902    2    1    2    0    0 -0.17005195933E-01 -0.53388101031E-03  0.16878217785E-01  0.10199646927E+01  0.10196831069E+01 0.  0.
     999903    2    3    3    0    0 -0.87896124652E-01 -0.90545842134E-01 -0.30886325414E-01  0.13125263107E+00  0.18681804239E-01 0.  0.
         14    1    1    2    0    0  0.17005195933E-01  0.53388101031E-03 -0.16878217785E-01  0.23965307285E-01  0.00000000000E+00 0. -1.
     999901    1    3    3    0    0  0.70890928719E-01  0.90011961124E-01  0.47764543199E-01  0.88871206164E+00  0.88000000000E+00 0. -1.
        -11    1    4    4    0    0 -0.12785205076E-01 -0.19740185319E-01 -0.11648791933E-01  0.26250559228E-01  0.51100000000E-03 0.  1.
         11    1    4    4    0    0 -0.75110919576E-01 -0.70805656815E-01 -0.19237533481E-01  0.10500207185E+00  0.51100000000E-03 0. -1.
</event>
<event>
 8    1  0.1213322E+005  0.1043930E+01  0.7957747E-01            NaN
         13   -1    0    0    0    0  0.00000000000E+00  0.00000000000E+00  0.74505805969E-08  0.10566000000E+00  0.10566000000E+00 0.  1.
     999900   -1    0    0    0    0 -0.00000000000E+00 -0.00000000000E+00 -0.74505805969E-08  0.93827000000E+00  0.93827000000E+00 0.  1.
     999902    2    1    2    0    0 -0.82533559830E-02 -0.18023035652E-01 -0.70997451606E-02  0.10228740251E+01  0.10226572823E+01 0.  0.
     999903    2    3    3    0    0 -0.12887365807E+00 -0.13510987035E-01 -0.29365255148E-01  0.13435538779E+00  0.19952080168E-01 0.  0.
         14    1    1    2    0    0  0.82533559830E-02  0.18023035652E-01  0.70997451606E-02  0.21055974934E-01  0.00000000000E+00 0. -1.
     999901    1    3    3    0    0  0.12062030208E+00 -0.45120486170E-02  0.22265509987E-01  0.88851863728E+00  0.88000000000E+00 0.  1.
        -11    1    4    4    0    0 -0.59073943834E-01 -0.82364780153E-02 -0.23498571459E-01  0.64109393943E-01  0.51100000000E-03 0. -1.
         11    1    4    4    0    0 -0.69799714234E-01 -0.52745090194E-02 -0.58666836887E-02  0.70245993843E-01  0.51100000000E-03 0.  1.
</event>
<event>
 8    1  0.1213322E+005  0.1043930E+01  0.7957747E-01            NaN
         13   -1    0    0    0    0  0.00000000000E+00  0.00000000000E+00  0.74505805969E-08  0.10566000000E+00  0.10566000000E+00 0. -1.
     999900   -1    0    0    0    0 -0.00000000000E+00 -0.00000000000E+00 -0.74505805969E-08  0.93827000000E+00  0.93827000000E+00 0.  1.
     999902    2    1    2    0    0 -0.67101003438E-02 -0.52321436742E-02  0.20322623714E-01  0.10218979822E+01  0.10216604505E+01 0.  0.
     999903    2    3    3    0    0  0.12396042776E+00 -0.27805449747E-01  0.29150506421E-01  0.13191917763E+00  0.20336831484E-01 0.  0.
         14    1    1    2    0    0  0.67101003438E-02  0.52321436742E-02 -0.20322623714E-01  0.22032017807E-01  0.00000000000E+00 0.  1.
     999901    1    3    3    0    0 -0.13067052811E+00  0.22573306073E-01 -0.88278827075E-02  0.88997880457E+00  0.88000000000E+00 0.  1.
        -11    1    4    4    0    0  0.67964693971E-01 -0.78762943203E-02  0.82693836352E-02  0.68919369306E-01  0.51100000000E-03 0.  1.
         11    1    4    4    0    0  0.55995733790E-01 -0.19929155427E-01  0.20881122786E-01  0.62999808321E-01  0.51100000000E-03 0. -1.
</event>
<event>
 8    1  0.1213322E+005  0.1043930E+01  0.7957747E-01            NaN
         13   -1    0    0    0    0  0.00000000000E+00  0.00000000000E+00  0.74505805969E-08  0.10566000000E+00  0.10566000000E+00 0.  1.
     999900   -1    0    0    0    0 -0.00000000000E+00 -0.00000000000E+00 -0.74505805969E-08  0.93827000000E+00  0.93827000000E+00 0. -1.
     999902    2    1    2    0    0 -0.20776102524E-01 -0.12195083773E-01 -0.33298423011E-02  0.10196101654E+01  0.10193200847E+01 0.  0.
     999903    2    3    3    0    0 -0.59295433218E-02 -0.11984604947E+00 -0.50294940374E-01  0.13168287607E+00  0.20311665738E-01 0.  0.
         14    1    1    2    0    0  0.20776102524E-01  0.12195083773E-01  0.33298423011E-02  0.24319834581E-01  0.00000000000E+00 0.  1.
     999901    1    3    3    0    0 -0.14846559202E-01  0.10765096570E+00  0.46965098073E-01  0.88792728935E+00  0.88000000000E+00 0.  1.
        -11    1    4    4    0    0 -0.79842426395E-02 -0.26136439362E-01 -0.17116672227E-01  0.32250630726E-01  0.51100000000E-03 0. -1.
         11    1    4    4    0    0  0.20546993177E-02 -0.93709610107E-01 -0.33178268146E-01  0.99432245343E-01  0.51100000000E-03 0.  1.
</event>
<event>
 8    1  0.1213322E+005  0.1043930E+01  0.7957747E-01            NaN
         13   -1    0    0    0    0  0.00000000000E+00  0.00000000000E+00  0.74505805969E-08  0.10566000000E+00  0.10566000000E+00 0.  1.
     999900   -1    0    0    0    0 -0.00000000000E+00 -0.00000000000E+00 -0.74505805969E-08  0.93827000000E+00  0.93827000000E+00 0. -1.
     999902    2    1    2    0    0 -0.10214385290E-01  0.16339626971E-01 -0.69961274771E-02  0.10234296860E+01  0.10232243445E+01 0.  0.
     999903    2    3    3    0    0  0.98236591427E-01  0.79138527241E-01 -0.40223772954E-01  0.13393016788E+00  0.20149530231E-01 0.  0.
         14    1    1    2    0    0  0.10214385290E-01 -0.16339626971E-01  0.69961274771E-02  0.20500314049E-01  0.00000000000E+00 0.  1.
     999901    1    3    3    0    0 -0.10845097672E+00 -0.62798900270E-01  0.33227645477E-01  0.88949951807E+00  0.88000000000E+00 0.  1.
        -11    1    4    4    0    0  0.60724694169E-01  0.55585117317E-01 -0.34513717480E-01  0.89267304005E-01  0.51100000000E-03 0. -1.
         11    1    4    4    0    0  0.37511897259E-01  0.23553409924E-01 -0.57100554742E-02  0.44662863875E-01  0.51100000000E-03 0.  1.
</event>
<event>
 8    1  0.1213322E+005  0.1043930E+01  0.7957747E-01            NaN
         13   -1    0    0    0    0  0.00000000000E+00  0.00000000000E+00  0.74505805969E-08  0.10566000000E+00  0.10566000000E+00 0. -1.
     999900   -1    0    0    0    0 -0.00000000000E+00 -0.00000000000E+00 -0.74505805969E-08  0.93827000000E+00  0.93827000000E+00 0.  1.
     999902    2    1    2    0    0 -0.22835234932E-01 -0.55327971123E-03 -0.84657122113E-02  0.10195697382E+01  0.10192786806E+01 0.  0.
     999903    2    3    3    0    0 -0.94767739193E-01 -0.48523969374E-01  0.74384260324E-01  0.13145961540E+00  0.20325164222E-01 0.  0.
         14    1    1    2    0    0  0.22835234932E-01  0.55327971123E-03  0.84657122113E-02  0.24360261823E-01  0.00000000000E+00 0.  1.
     999901    1    3    3    0    0  0.71932504261E-01  0.47970689663E-01 -0.82849972536E-01  0.88811012278E+00  0.88000000000E+00 0.  1.
        -11    1    4    4    0    0 -0.69990834346E-01 -0.44808714978E-01  0.60641592708E-01  0.10287954956E+00  0.51100000000E-03 0.  1.
         11    1    4    4    0    0 -0.24776904847E-01 -0.37152543957E-02  0.13742667616E-01  0.28580065837E-01  0.51100000000E-03 0. -1.
</event>
<event>
 8    1  0.1213322E+005  0.1043930E+01  0.7957747E-01            NaN
         13   -1    0    0    0    0  0.00000000000E+00  0.00000000000E+00  0.74505805969E-08  0.10566000000E+00  0.10566000000E+00 0. -1.
     999900   -1    0    0    0    0 -0.00000000000E+00 -0.00000000000E+00 -0.74505805969E-08  0.93827000000E+00  0.93827000000E+00 0. -1.
     999902    2    1    2    0    0 -0.16987481289E-01  0.13652348513E-01  0.13173854235E-01  0.10184641096E+01  0.10181456825E+01 0.  0.
     999903    2    3    3    0    0 -0.66042757037E-01 -0.59628264242E-01 -0.89832645935E-01  0.12807834633E+00  0.20420158411E-01 0.  0.
         14    1    1    2    0    0  0.16987481289E-01 -0.13652348513E-01 -0.13173854235E-01  0.25465890440E-01  0.00000000000E+00 0.  1.
     999901    1    3    3    0    0  0.49055275747E-01  0.73280612755E-01  0.10300650017E+00  0.89038576323E+00  0.88000000000E+00 0. -1.
        -11    1    4    4    0    0 -0.24361572829E-01 -0.24665031001E-01 -0.21755236423E-01  0.40931667665E-01  0.51100000000E-03 0.  1.
         11    1    4    4    0    0 -0.41681184208E-01 -0.34963233241E-01 -0.68077409512E-01  0.87146678666E-01  0.51100000000E-03 0. -1.
</event>
<event>
 8    1  0.1213322E+005  0.1043930E+01  0.7957747E-01            NaN
         13   -1    0    0    0    0  0.00000000000E+00  0.00000000000E+00  0.74505805969E-08  0.10566000000E+00  0.10566000000E+00 0.  1.
     999900   -1    0    0    0    0 -0.00000000000E+00 -0.00000000000E+00 -0.74505805969E-08  0.93827000000E+00  0.93827000000E+00 0.  1.
     999902    2    1    2    0    0  0.19665196542E-01  0.51231898322E-02 -0.11882457586E-01  0.10203894004E+01  0.10201178210E+01 0.  0.
     999903    2    3    3    0    0 -0.42550483895E-01  0.10010990379E+00 -0.70679118631E-01  0.13114797425E+00  0.19279959061E-01 0.  0.
         14    1    1    2    0    0 -0.19665196542E-01 -0.51231898322E-02  0.11882457586E-01  0.23540599554E-01  0.00000000000E+00 0.  1.
     999901    1    3    3    0    0  0.62215680437E-01 -0.94986713959E-01  0.58796661045E-01  0.88924142620E+00  0.88000000000E+00 0. -1.
        -11    1    4    4    0    0 -0.14348362814E-01  0.36569196987E-01 -0.14901524337E-01  0.42017832313E-01  0.51100000000E-03 0. -1.
         11    1    4    4    0    0 -0.28202121081E-01  0.63540706805E-01 -0.55777594294E-01  0.89130141932E-01  0.51100000000E-03 0.  1.
</event>
<event>
 8    1  0.1213322E+005  0.1043930E+01  0.7957747E-01            NaN
         13   -1    0    0    0    0  0.00000000000E+00  0.00000000000E+00  0.74505805969E-08  0.10566000000E+00  0.10566000000E+00 0.  1.
     999900   -1    0    0    0    0 -0.00000000000E+00 -0.00000000000E+00 -0.74505805969E-08  0.93827000000E+00  0.93827000000E+00 0.  1.
     999902    2    1    2    0    0  0.10693066242E-01  0.16015826261E-01  0.14394074399E-01  0.10198875847E+01  0.10196041622E+01 0.  0.
     999903    2    3    3    0    0 -0.42492208569E-01 -0.14751254194E-01 -0.11805144128E+00  0.12785781987E+00  0.19705126817E-01 0.  0.
         14    1    1    2    0    0 -0.10693066242E-01 -0.16015826261E-01 -0.14394074399E-01  0.24042415317E-01  0.00000000000E+00 0. -1.
     999901    1    3    3    0    0  0.53185274811E-01  0.30767080455E-01  0.13244551568E+00  0.89202976482E+00  0.88000000000E+00 0. -1.
        -11    1    4    4    0    0 -0.25325480866E-01  0.14419913448E-02 -0.65799113442E-01  0.70521229221E-01  0.51100000000E-03 0.  1.
         11    1    4    4    0    0 -0.17166727703E-01 -0.16193245539E-01 -0.52252327840E-01  0.57336590645E-01  0.51100000000E-03 0. -1.
</event>
<event>
 8    1  0.1213322E+005  0.1043930E+01  0.7957747E-01            NaN
         13   -1    0    0    0    0  0.00000000000E+00  0.00000000000E+00  0.74505805969E-08  0.10566000000E+00  0.10566000000E+00 0. -1.
     999900   -1    0    0    0    0 -0.00000000000E+00 -0.00000000000E+00 -0.74505805969E-08  0.93827000000E+00  0.93827000000E+00 0. -1.
     999902    2    1    2    0    0  0.17418833265E-02 -0.24147638904E-01 -0.44467792113E-03  0.10197155341E+01  0.10194279916E+01 0.  0.
     999903    2    3    3    0    0  0.81332556235E-01 -0.84842987837E-01  0.56951370153E-01  0.13218361524E+00  0.20389514134E-01 0.  0.
         14    1    1    2    0    0 -0.17418833265E-02  0.24147638904E-01  0.44467792113E-03  0.24214465937E-01  0.00000000000E+00 0.  1.
     999901    1    3    3    0    0 -0.79590672909E-01  0.60695348933E-01 -0.57396048074E-01  0.88753191882E+00  0.88000000000E+00 0. -1.
        -11    1    4    4    0    0  0.30944356783E-01 -0.33706263123E-01  0.33307012306E-01  0.56597558077E-01  0.51100000000E-03 0.  1.
         11    1    4    4    0    0  0.50388199452E-01 -0.51136724713E-01  0.23644357847E-01  0.75586057163E-01  0.51100000000E-03 0. -1.
</event>
<event>
 8    1  0.1213322E+005  0.1043930E+01  0.7957747E-01            NaN
         13   -1    0    0    0    0  0.00000000000E+00  0.00000000000E+00  0.74505805969E-08  0.10566000000E+00  0.10566000000E+00 0. -1.
     999900   -1    0    0    0    0 -0.00000000000E+00 -0.00000000000E+00 -0.74505805969E-08  0.93827000000E+00  0.93827000000E+00 0. -1.
     999902    2    1    2    0    0 -0.15292681568E-01 -0.13101941607E-01  0.12829187517E-01  0.10200529182E+01  0.10197734262E+01 0.  0.
     999903    2    3    3    0    0 -0.11857898954E+00 -0.37386742884E-01  0.43317620822E-01  0.13315531556E+00  0.19879046326E-01 0.  0.
         14    1    1    2    0    0  0.15292681568E-01  0.13101941607E-01 -0.12829187517E-01  0.23877081811E-01  0.00000000000E+00 0.  1.
     999901    1    3    3    0    0  0.10328630798E+00  0.24284801277E-01 -0.30488433305E-01  0.88689760263E+00  0.88000000000E+00 0.  1.
        -11    1    4    4    0    0 -0.79573440758E-01 -0.33862177509E-01  0.25784872773E-01  0.90242453007E-01  0.51100000000E-03 0.  1.
         11    1    4    4    0    0 -0.39005548786E-01 -0.35245653749E-02  0.17532748049E-01  0.42912862551E-01  0.51100000000E-03 0. -1.
</event>
<event>
 8    1  0.1213322E+005  0.1043930E+01  0.7957747E-01            NaN
         13   -1    0    0    0    0  0.00000000000E+00  0.00000000000E+00  0.74505805969E-08  0.10566000000E+00  0.10566000000E+00 0. -1.
     999900   -1    0    0    0    0 -0.00000000000E+00 -0.00000000000E+00 -0.74505805969E-08  0.93827000000E+00  0.93827000000E+00 0. -1.
     999902    2    1    2    0    0  0.11552334221E-01 -0.45765411064E-03 -0.19715565833E-01  0.10210745978E+01  0.10208187718E+01 0.  0.
     999903    2    3    3    0    0 -0.21535242210E-01 -0.57304603509E-01 -0.11648143277E+00  0.13333026729E+00  0.21481428099E-01 0.  0.
         14    1    1    2    0    0 -0.11552334221E-01  0.45765411064E-03  0.19715565833E-01  0.22855402192E-01  0.00000000000E+00 0. -1.
     999901    1    3    3    0    0  0.33087576432E-01  0.56846949398E-01  0.96765866940E-01  0.88774433052E+00  0.88000000000E+00 0.  1.
        -11    1    4    4    0    0 -0.15814976995E-01 -0.56966119651E-01 -0.10638156721E+00  0.12170682499E+00  0.51100000000E-03 0. -1.
         11    1    4    4    0    0 -0.57202652159E-02 -0.33848385737E-03 -0.10099865563E-01  0.11623442298E-01  0.51100000000E-03 0.  1.
</event>
<event>
 8    1  0.1253626E+005  0.1043930E+01  0.7957747E-01            NaN
         13   -1    0    0    0    0  0.00000000000E+00  0.00000000000E+00  0.74505805969E-08  0.10566000000E+00  0.10566000000E+00 0.  1.
     999900   -1    0    0    0    0 -0.00000000000E+00 -0.00000000000E+00 -0.74505805969E-08  0.93827000000E+00  0.93827000000E+00 0.  1.
     999902    2    1    2    0    0  0.22636736024E-01 -0.43974450675E-02 -0.11379356568E-01  0.10182152358E+01  0.10178904741E+01 0.  0.
     999903    2    3    3    0    0  0.19851394130E-01  0.12552455933E+00 -0.16543148043E-02  0.12861866333E+00  0.19736538583E-01 0.  0.
         14    1    1    2    0    0 -0.22636736024E-01  0.43974450675E-02  0.11379356568E-01  0.25714764181E-01  0.00000000000E+00 0.  1.
     999901    1    3    3    0    0  0.27853418942E-02 -0.12992200439E+00 -0.97250417635E-02  0.88959657249E+00  0.88000000000E+00 0. -1.
        -11    1    4    4    0    0  0.21585349660E-01  0.81614322234E-01  0.26289590111E-02  0.84462994620E-01  0.51100000000E-03 0. -1.
         11    1    4    4    0    0 -0.17339555302E-02  0.43910237092E-01 -0.42832738155E-02  0.44155668706E-01  0.51100000000E-03 0.  1.
</event>
<event>
 8    1  0.1213322E+005  0.1043930E+01  0.7957747E-01            NaN
         13   -1    0    0    0    0  0.00000000000E+00  0.00000000000E+00  0.74505805969E-08  0.10566000000E+00  0.10566000000E+00 0.  1.
     999900   -1    0    0    0    0 -0.00000000000E+00 -0.00000000000E+00 -0.74505805969E-08  0.93827000000E+00  0.93827000000E+00 0.  1.
     999902    2    1    2    0    0 -0.24075857380E-01  0.27032036897E-02  0.19555371486E-02  0.10196240677E+01  0.10193343225E+01 0.  0.
     999903    2    3    3    0    0 -0.85540032275E-01  0.98461608421E-01  0.10188603111E-01  0.13225982444E+00  0.19418240705E-01 0.  0.
         14    1    1    2    0    0  0.24075857380E-01 -0.27032036897E-02 -0.19555371486E-02  0.24305932287E-01  0.00000000000E+00 0. -1.
     999901    1    3    3    0    0  0.61464174895E-01 -0.95758404731E-01 -0.82330659621E-02  0.88736424328E+00  0.88000000000E+00 0.  1.
        -11    1    4    4    0    0 -0.50579142824E-01  0.49698159749E-01 -0.23926593898E-02  0.70951692800E-01  0.51100000000E-03 0. -1.
         11    1    4    4    0    0 -0.34960889451E-01  0.48763448672E-01  0.12581262500E-01  0.61308131636E-01  0.51100000000E-03 0.  1.
</event>
<event>
 8    1  0.1213322E+005  0.1043930E+01  0.7957747E-01            NaN
         13   -1    0    0    0    0  0.00000000000E+00  0.00000000000E+00  0.74505805969E-08  0.10566000000E+00  0.10566000000E+00 0.  1.
     999900   -1    0    0    0    0 -0.00000000000E+00 -0.00000000000E+00 -0.74505805969E-08  0.93827000000E+00  0.93827000000E+00 0.  1.
     999902    2    1    2    0    0 -0.71819688358E-02  0.17229383317E-01 -0.14766935645E-01  0.10201288506E+01  0.10198511544E+01 0.  0.
     999903    2    3    3    0    0 -0.11235653880E+00  0.54913827825E-01 -0.39210293368E-01  0.13272855461E+00  0.20973836229E-01 0.  0.
         14    1    1    2    0    0  0.71819688358E-02 -0.17229383317E-01  0.14766935645E-01  0.23801149430E-01  0.00000000000E+00 0.  1.
     999901    1    3    3    0    0  0.10517456997E+00 -0.37684444508E-01  0.24443357723E-01  0.88740029596E+00  0.88000000000E+00 0.  1.
        -11    1    4    4    0    0 -0.21492467587E-01  0.64844334452E-02  0.26041813992E-03  0.22456691178E-01  0.51100000000E-03 0. -1.
         11    1    4    4    0    0 -0.90864071215E-01  0.48429394380E-01 -0.39470711508E-01  0.11027186344E+00  0.51100000000E-03 0.  1.
</event>
<event>
 8    1  0.1213322E+005  0.1043930E+01  0.7957747E-01            NaN
         13   -1    0    0    0    0  0.00000000000E+00  0.00000000000E+00  0.74505805969E-08  0.10566000000E+00  0.10566000000E+00 0.  1.
     999900   -1    0    0    0    0 -0.00000000000E+00 -0.00000000000E+00 -0.74505805969E-08  0.93827000000E+00  0.93827000000E+00 0. -1.
     999902    2    1    2    0    0  0.99752871290E-02  0.11353681861E-01 -0.17678935674E-01  0.10206715131E+01  0.10204064781E+01 0.  0.
     999903    2    3    3    0    0 -0.61439993199E-02  0.13067307982E+00 -0.55502996963E-02  0.13238999585E+00  0.19573008392E-01 0.  0.
         14    1    1    2    0    0 -0.99752871290E-02 -0.11353681861E-01  0.17678935674E-01  0.23258486874E-01  0.00000000000E+00 0.  1.
     999901    1    3    3    0    0  0.16119286449E-01 -0.11931939796E+00 -0.12128635978E-01  0.88828151728E+00  0.88000000000E+00 0.  1.
        -11    1    4    4    0    0  0.44823929868E-02  0.36125599143E-01 -0.77433814269E-02  0.37220583516E-01  0.51100000000E-03 0. -1.
         11    1    4    4    0    0 -0.10626392307E-01  0.94547480675E-01  0.21930817306E-02  0.95169412334E-01  0.51100000000E-03 0.  1.
</event>
<event>
 8    1  0.1213322E+005  0.1043930E+01  0.7957747E-01            NaN
         13   -1    0    0    0    0  0.00000000000E+00  0.00000000000E+00  0.74505805969E-08  0.10566000000E+00  0.10566000000E+00 0.  1.
     999900   -1    0    0    0    0 -0.00000000000E+00 -0.00000000000E+00 -0.74505805969E-08  0.93827000000E+00  0.93827000000E+00 0. -1.
     999902    2    1    2    0    0  0.39696179378E-02 -0.29593164894E-02  0.23585601156E-01  0.10198302904E+01  0.10195454993E+01 0.  0.
     999903    2    3    3    0    0 -0.45290368680E-01  0.43651974225E-01  0.11493217815E+00  0.13250658632E+00  0.19795895894E-01 0.  0.
         14    1    1    2    0    0 -0.39696179378E-02  0.29593164894E-02 -0.23585601156E-01  0.24099709595E-01  0.00000000000E+00 0. -1.
     999901    1    3    3    0    0  0.49259986618E-01 -0.46611290714E-01 -0.91346576996E-01  0.88732370409E+00  0.88000000000E+00 0. -1.
        -11    1    4    4    0    0 -0.12764540985E-01  0.25900846983E-01  0.51224720251E-01  0.58804935734E-01  0.51100000000E-03 0. -1.
         11    1    4    4    0    0 -0.32525827696E-01  0.17751127242E-01  0.63707457902E-01  0.73701650585E-01  0.51100000000E-03 0.  1.
</event>
<event>
 8    1  0.1213322E+005  0.1043930E+01  0.7957747E-01            NaN
         13   -1    0    0    0    0  0.00000000000E+00  0.00000000000E+00  0.74505805969E-08  0.10566000000E+00  0.10566000000E+00 0. -1.
     999900   -1    0    0    0    0 -0.00000000000E+00 -0.00000000000E+00 -0.74505805969E-08  0.93827000000E+00  0.93827000000E+00 0. -1.
     999902    2    1    2    0    0  0.22947490337E-01 -0.46972703422E-02  0.33918048103E-02  0.10202623850E+01  0.10199878324E+01 0.  0.
     999903    2    3    3    0    0  0.11812215631E-01  0.10970206800E+00  0.66900363385E-01  0.13051829818E+00  0.19628942334E-01 0.  0.
         14    1    1    2    0    0 -0.22947490337E-01  0.46972703422E-02 -0.33918048103E-02  0.23667615032E-01  0.00000000000E+00 0.  1.
     999901    1    3    3    0    0  0.11135274706E-01 -0.11439933835E+00 -0.63508558575E-01  0.88974408679E+00  0.88000000000E+00 0.  1.
        -11    1    4    4    0    0  0.27679337539E-02  0.88976266748E-01  0.48599493292E-01  0.10142292330E+00  0.51100000000E-03 0.  1.
         11    1    4    4    0    0  0.90442818772E-02  0.20725801255E-01  0.18300870093E-01  0.29095374882E-01  0.51100000000E-03 0. -1.
</event>
<event>
 8    1  0.1213322E+005  0.1043930E+01  0.7957747E-01            NaN
         13   -1    0    0    0    0  0.00000000000E+00  0.00000000000E+00  0.74505805969E-08  0.10566000000E+00  0.10566000000E+00 0. -1.
     999900   -1    0    0    0    0 -0.00000000000E+00 -0.00000000000E+00 -0.74505805969E-08  0.93827000000E+00  0.93827000000E+00 0.  1.
     999902    2    1    2    0    0 -0.20013123754E-02 -0.13311932493E-01  0.23817857055E-01  0.10165712151E+01  0.10162029975E+01 0.  0.
     999903    2    3    3    0    0 -0.79339754542E-01  0.85973174080E-01 -0.40369351760E-01  0.12530314945E+00  0.19621707082E-01 0.  0.
         14    1    1    2    0    0  0.20013123754E-02  0.13311932493E-01 -0.23817857055E-01  0.27358784925E-01  0.00000000000E+00 0.  1.
     999901    1    3    3    0    0  0.77338442167E-01 -0.99285106572E-01  0.64187208815E-01  0.89126806562E+00  0.88000000000E+00 0. -1.
        -11    1    4    4    0    0 -0.29690229643E-01  0.19014203520E-01 -0.11689141020E-01  0.37147635328E-01  0.51100000000E-03 0.  1.
         11    1    4    4    0    0 -0.49649524900E-01  0.66958970560E-01 -0.28680210741E-01  0.88155514123E-01  0.51100000000E-03 0. -1.
</event>
<event>
 8    1  0.1213322E+005  0.1043930E+01  0.7957747E-01            NaN
         13   -1    0    0    0    0  0.00000000000E+00  0.00000000000E+00  0.74505805969E-08  0.10566000000E+00  0.10566000000E+00 0. -1.
     999900   -1    0    0    0    0 -0.00000000000E+00 -0.00000000000E+00 -0.74505805969E-08  0.93827000000E+00  0.93827000000E+00 0.  1.
     999902    2    1    2    0    0  0.34253902779E-02 -0.20395352047E-01 -0.11386496794E-01  0.10203216118E+01  0.10200484476E+01 0.  0.
     999903    2    3    3    0    0  0.16837476754E-02 -0.25445224160E-01  0.12565026391E+00  0.12969957732E+00  0.19588187708E-01 0.  0.
         14    1    1    2    0    0 -0.34253902779E-02  0.20395352047E-01  0.11386496794E-01  0.23608388189E-01  0.00000000000E+00 0.  1.
     999901    1    3    3    0    0  0.17416426025E-02  0.50498721132E-02 -0.13703676071E+00  0.89062203449E+00  0.88000000000E+00 0.  1.
        -11    1    4    4    0    0 -0.58050859550E-04 -0.10850316823E-01  0.95892099438E-01  0.96505381201E-01  0.51100000000E-03 0.  1.
         11    1    4    4    0    0  0.17417985350E-02 -0.14594907337E-01  0.29758164475E-01  0.33194196123E-01  0.51100000000E-03 0. -1.
</event>
<event>
 8    1  0.1213322E+005  0.1043930E+01  0.7957747E-01            NaN
         13   -1    0    0    0    0  0.00000000000E+00  0.00000000000E+00  0.74505805969E-08  0.10566000000E+00  0.10566000000E+00 0. -1.
     999900   -1    0    0    0    0 -0.00000000000E+00 -0.00000000000E+00 -0.74505805969E-08  0.93827000000E+00  0.93827000000E+00 0.  1.
     999902    2    1    2    0    0  0.67785681470E-02  0.20509662053E-01 -0.92887360850E-02  0.10204166880E+01  0.10201457451E+01 0.  0.
     999903    2    3    3    0    0 -0.10309510658E+00  0.16568343960E-02  0.75702133964E-01  0.12932123772E+00  0.19021654427E-01 0.  0.
         14    1    1    2    0    0 -0.67785681470E-02 -0.20509662053E-01  0.92887360850E-02  0.23513312010E-01  0.00000000000E+00 0.  1.
     999901    1    3    3    0    0  0.10987367472E+00  0.18852827657E-01 -0.84990870049E-01  0.89109545027E+00  0.88000000000E+00 0.  1.
        -11    1    4    4    0    0 -0.48517210351E-01  0.35200114329E-02  0.24534590882E-01  0.54484102741E-01  0.51100000000E-03 0.  1.
         11    1    4    4    0    0 -0.54577896226E-01 -0.18631770369E-02  0.51167543082E-01  0.74837134974E-01  0.51100000000E-03 0. -1.
</event>
<event>
 8    1  0.1213322E+005  0.1043930E+01  0.7957747E-01            NaN
         13   -1    0    0    0    0  0.00000000000E+00  0.00000000000E+00  0.74505805969E-08  0.10566000000E+00  0.10566000000E+00 0.  1.
     999900   -1    0    0    0    0 -0.00000000000E+00 -0.00000000000E+00 -0.74505805969E-08  0.93827000000E+00  0.93827000000E+00 0. -1.
     999902    2    1    2    0    0 -0.10240533503E-01 -0.12201381629E-01  0.16226431047E-01  0.10211915017E+01  0.10209383154E+01 0.  0.
     999903    2    3    3    0    0 -0.10283983631E+00  0.64223229996E-01  0.49309758731E-01  0.13242276986E+00  0.20091850746E-01 0.  0.
         14    1    1    2    0    0  0.10240533503E-01  0.12201381629E-01 -0.16226431047E-01  0.22738498293E-01  0.00000000000E+00 0. -1.
     999901    1    3    3    0    0  0.92599302811E-01 -0.76424611624E-01 -0.33083327684E-01  0.88876873185E+00  0.88000000000E+00 0.  1.
        -11    1    4    4    0    0 -0.87950895619E-01  0.51661495406E-01  0.33606394424E-01  0.10739609404E+00  0.51100000000E-03 0.  1.
         11    1    4    4    0    0 -0.14888940695E-01  0.12561734590E-01  0.15703364307E-01  0.25026675818E-01  0.51100000000E-03 0. -1.
</event>
<event>
 8    1  0.1213322E+005  0.1043930E+01  0.7957747E-01            NaN
         13   -1    0    0    0    0  0.00000000000E+00  0.00000000000E+00  0.74505805969E-08  0.10566000000E+00  0.10566000000E+00 0.  1.
     999900   -1    0    0    0    0 -0.00000000000E+00 -0.00000000000E+00 -0.74505805969E-08  0.93827000000E+00  0.93827000000E+00 0.  1.
     999902    2    1    2    0    0  0.20780551619E-01  0.99217417574E-02 -0.74625013066E-02  0.10197233643E+01  0.10194360100E+01 0.  0.
     999903    2    3    3    0    0  0.75316431456E-01  0.77641783347E-01  0.72044052878E-01  0.13187120412E+00  0.22335119244E-01 0.  0.
         14    1    1    2    0    0 -0.20780551619E-01 -0.99217417574E-02  0.74625013066E-02  0.24206635678E-01  0.00000000000E+00 0. -1.
     999901    1    3    3    0    0 -0.54535879837E-01 -0.67720041590E-01 -0.79506554184E-01  0.88785216021E+00  0.88000000000E+00 0. -1.
        -11    1    4    4    0    0  0.28300861950E-01  0.36419413750E-01  0.19046904627E-01  0.49903488674E-01  0.51100000000E-03 0.  1.
         11    1    4    4    0    0  0.47015569506E-01  0.41222369597E-01  0.52997148251E-01  0.81967715443E-01  0.51100000000E-03 0. -1.
</event>
<event>
 8    1  0.1213322E+005  0.1043930E+01  0.7957747E-01            NaN
         13   -1    0    0    0    0  0.00000000000E+00  0.00000000000E+00  0.74505805969E-08  0.10566000000E+00  0.10566000000E+00 0. -1.
     999900   -1    0    0    0    0 -0.00000000000E+00 -0.00000000000E+00 -0.74505805969E-08  0.93827000000E+00  0.93827000000E+00 0.  1.
     999902    2    1    2    0    0  0.10998289869E-01 -0.13967811411E-01  0.17518320919E-01  0.10189709595E+01  0.10186652358E+01 0.  0.
     999903    2    3    3    0    0  0.10668493289E+00  0.65150614364E-01 -0.25753287152E-01  0.12920239912E+00  0.20093548242E-01 0.  0.
         14    1    1    2    0    0 -0.10998289869E-01  0.13967811411E-01 -0.17518320919E-01  0.24959040516E-01  0.00000000000E+00 0. -1.
     999901    1    3    3    0    0 -0.95686643022E-01 -0.79118425775E-01  0.43271608072E-01  0.88976856037E+00  0.88000000000E+00 0. -1.
        -11    1    4    4    0    0  0.51077954668E-01  0.37523937639E-01 -0.43795502636E-02  0.63533022363E-01  0.51100000000E-03 0. -1.
         11    1    4    4    0    0  0.55606978223E-01  0.27626676724E-01 -0.21373736889E-01  0.65669376756E-01  0.51100000000E-03 0.  1.
</event>
<event>
 8    1  0.1213322E+005  0.1043930E+01  0.7957747E-01            NaN
         13   -1    0    0    0    0  0.00000000000E+00  0.00000000000E+00  0.74505805969E-08  0.10566000000E+00  0.10566000000E+00 0.  1.
     999900   -1    0    0    0    0 -0.00000000000E+00 -0.00000000000E+00 -0.74505805969E-08  0.93827000000E+00  0.93827000000E+00 0. -1.
     999902    2    1    2    0    0 -0.48436185613E-02 -0.17026459475E-01  0.15477146695E-01  0.10204161098E+01  0.10201451534E+01 0.  0.
     999903    2    3    3    0    0  0.65485012864E-02  0.11856732688E+00 -0.43400674835E-01  0.12801370439E+00  0.20069779831E-01 0.  0.
         14    1    1    2    0    0  0.48436185613E-02  0.17026459475E-01 -0.15477146695E-01  0.23513890210E-01  0.00000000000E+00 0. -1.
     999901    1    3    3    0    0 -0.11392119848E-01 -0.13559378636E+00  0.58877821530E-01  0.89240240540E+00  0.88000000000E+00 0. -1.
        -11    1    4    4    0    0  0.11791657597E-01  0.40857208356E-01 -0.14338571001E-01  0.44879955468E-01  0.51100000000E-03 0. -1.
         11    1    4    4    0    0 -0.52431563105E-02  0.77710118528E-01 -0.29062103834E-01  0.83133748923E-01  0.51100000000E-03 0.  1.
</event>
<event>
 8    1  0.1213322E+005  0.1043930E+01  0.7957747E-01            NaN
         13   -1    0    0    0    0  0.00000000000E+00  0.00000000000E+00  0.74505805969E-08  0.10566000000E+00  0.10566000000E+00 0.  1.
     999900   -1    0    0    0    0 -0.00000000000E+00 -0.00000000000E+00 -0.74505805969E-08  0.93827000000E+00  0.93827000000E+00 0.  1.
     999902    2    1    2    0    0 -0.70160203260E-02  0.20962270142E-01 -0.35040122372E-02  0.10215487710E+01  0.10213035651E+01 0.  0.
     999903    2    3    3    0    0  0.34760934008E-01 -0.88662026825E-01  0.84773716038E-01  0.12938524465E+00  0.22015473403E-01 0.  0.
         14    1    1    2    0    0  0.70160203260E-02 -0.20962270142E-01  0.35040122372E-02  0.22381229021E-01  0.00000000000E+00 0. -1.
     999901    1    3    3    0    0 -0.41776954334E-01  0.10962429697E+00 -0.88277728275E-01  0.89216352633E+00  0.88000000000E+00 0.  1.
        -11    1    4    4    0    0  0.14757692491E-01 -0.42970679688E-01  0.26197283400E-01  0.52448332472E-01  0.51100000000E-03 0. -1.
         11    1    4    4    0    0  0.20003241517E-01 -0.45691347136E-01  0.58576432638E-01  0.76936912180E-01  0.51100000000E-03 0.  1.
</event>
<event>
 8    1  0.1213322E+005  0.1043930E+01  0.7957747E-01            NaN
         13   -1    0    0    0    0  0.00000000000E+00  0.00000000000E+00  0.74505805969E-08  0.10566000000E+00  0.10566000000E+00 0.  1.
     999900   -1    0    0    0    0 -0.00000000000E+00 -0.00000000000E+00 -0.74505805969E-08  0.93827000000E+00  0.93827000000E+00 0. -1.
     999902    2    1    2    0    0 -0.14095825228E-01 -0.18627187977E-02 -0.18521518505E-01  0.10205802964E+01  0.10203131543E+01 0.  0.
     999903    2    3    3    0    0 -0.99744658277E-01 -0.65757142480E-01 -0.55250723945E-01  0.13335582959E+00  0.21404115217E-01 0.  0.
         14    1    1    2    0    0  0.14095825228E-01  0.18627187977E-02  0.18521518505E-01  0.23349703593E-01  0.00000000000E+00 0.  1.
     999901    1    3    3    0    0  0.85648833048E-01  0.63894423682E-01  0.36729205440E-01  0.88722446681E+00  0.88000000000E+00 0.  1.
        -11    1    4    4    0    0 -0.91045045807E-01 -0.65738413781E-01 -0.48463199779E-01  0.12230977993E+00  0.51100000000E-03 0. -1.
         11    1    4    4    0    0 -0.86996124692E-02 -0.18728699117E-04 -0.67875241660E-02  0.11046049664E-01  0.51100000000E-03 0.  1.
</event>
<event>
 8    1  0.1213322E+005  0.1043930E+01  0.7957747E-01            NaN
         13   -1    0    0    0    0  0.00000000000E+00  0.00000000000E+00  0.74505805969E-08  0.10566000000E+00  0.10566000000E+00 0.  1.
     999900   -1    0    0    0    0 -0.00000000000E+00 -0.00000000000E+00 -0.74505805969E-08  0.93827000000E+00  0.93827000000E+00 0.  1.
     999902    2    1    2    0    0  0.13100908450E-01  0.13321495892E-01  0.13666128701E-01  0.10207813688E+01  0.10205188600E+01 0.  0.
     999903    2    3    3    0    0 -0.89026147485E-01  0.93661711673E-01  0.12108778405E-01  0.13123827752E+00  0.19460005172E-01 0.  0.
         14    1    1    2    0    0 -0.13100908450E-01 -0.13321495892E-01 -0.13666128701E-01  0.23148631249E-01  0.00000000000E+00 0. -1.
     999901    1    3    3    0    0  0.10212705593E+00 -0.80340215781E-01  0.15573502960E-02  0.88954309124E+00  0.88000000000E+00 0.  1.
        -11    1    4    4    0    0 -0.65781268929E-02  0.35032047526E-02  0.47295421423E-02  0.88415997893E-02  0.51100000000E-03 0. -1.
         11    1    4    4    0    0 -0.82448020592E-01  0.90158506920E-01  0.73792362630E-02  0.12239667773E+00  0.51100000000E-03 0.  1.
</event>
<event>
 8    1  0.1213322E+005  0.1043930E+01  0.7957747E-01            NaN
         13   -1    0    0    0    0  0.00000000000E+00  0.00000000000E+00  0.74505805969E-08  0.10566000000E+00  0.10566000000E+00 0.  1.
     999900   -1    0    0    0    0 -0.00000000000E+00 -0.00000000000E+00 -0.74505805969E-08  0.93827000000E+00  0.93827000000E+00 0.  1.
     999902    2    1    2    0    0 -0.10737840938E-01 -0.21669121300E-01 -0.33648635560E-02  0.10195133181E+01  0.10192208944E+01 0.  0.
     999903    2    3    3    0    0 -0.89918671426E-01 -0.34816702970E-01  0.86903659727E-01  0.13126173829E+00  0.19489165929E-01 0.  0.
         14    1    1    2    0    0  0.10737840938E-01  0.21669121300E-01  0.33648635560E-02  0.24416681852E-01  0.00000000000E+00 0.  1.
     999901    1    3    3    0    0  0.79180830488E-01  0.13147581670E-01 -0.90268523284E-01  0.88825157986E+00  0.88000000000E+00 0.  1.
        -11    1    4    4    0    0 -0.62217091953E-01 -0.32591043058E-01  0.67052603003E-01  0.97105382493E-01  0.51100000000E-03 0.  1.
         11    1    4    4    0    0 -0.27701579473E-01 -0.22256599121E-02  0.19851056725E-01  0.34156355799E-01  0.51100000000E-03 0. -1.
</event>
<event>
 8    1  0.1213322E+005  0.1043930E+01  0.7957747E-01            NaN
         13   -1    0    0    0    0  0.00000000000E+00  0.00000000000E+00  0.74505805969E-08  0.10566000000E+00  0.10566000000E+00 0.  1.
     999900   -1    0    0    0    0 -0.00000000000E+00 -0.00000000000E+00 -0.74505805969E-08  0.93827000000E+00  0.93827000000E+00 0.  1.
     999902    2    1    2    0    0  0.91783093991E-02  0.12695700311E-01 -0.18257202832E-01  0.10198728259E+01  0.10195890512E+01 0.  0.
     999903    2    3    3    0    0 -0.85479161380E-01  0.96849353369E-01 -0.60966096015E-02  0.13072168346E+00  0.19092029745E-01 0.  0.
         14    1    1    2    0    0 -0.91783093991E-02 -0.12695700311E-01  0.18257202832E-01  0.24057174087E-01  0.00000000000E+00 0.  1.
     999901    1    3    3    0    0  0.94657470779E-01 -0.84153653058E-01 -0.12160593231E-01  0.88915114245E+00  0.88000000000E+00 0. -1.
        -11    1    4    4    0    0 -0.75559634870E-01  0.93062692813E-01 -0.43941219605E-02  0.11995621136E+00  0.51100000000E-03 0.  1.
         11    1    4    4    0    0 -0.99195265094E-02  0.37866605557E-02 -0.17024876410E-02  0.10765472098E-01  0.51100000000E-03 0. -1.
</event>
<event>
 8    1  0.1213322E+005  0.1043930E+01  0.7957747E-01            NaN
         13   -1    0    0    0    0  0.00000000000E+00  0.00000000000E+00  0.74505805969E-08  0.10566000000E+00  0.10566000000E+00 0. -1.
     999900   -1    0    0    0    0 -0.00000000000E+00 -0.00000000000E+00 -0.74505805969E-08  0.93827000000E+00  0.93827000000E+00 0. -1.
     999902    2    1    2    0    0  0.72057212871E-02  0.20948721962E-01  0.83203888114E-02  0.10202656758E+01  0.10199912004E+01 0.  0.
     999903    2    3    3    0    0  0.11603979798E+00  0.68281169779E-02  0.58756426423E-01  0.13201568753E+00  0.21539874892E-01 0.  0.
         14    1    1    2    0    0 -0.72057212871E-02 -0.20948721962E-01 -0.83203888114E-02  0.23664324226E-01  0.00000000000E+00 0. -1.
     999901    1    3    3    0    0 -0.10883407669E+00  0.14120604984E-01 -0.50436037612E-01  0.88824998825E+00  0.88000000000E+00 0. -1.
        -11    1    4    4    0    0  0.62627614081E-01  0.35989003921E-02  0.19655203208E-01  0.65740081105E-01  0.51100000000E-03 0.  1.
         11    1    4    4    0    0  0.53412183897E-01  0.32292165858E-02  0.39101223215E-01  0.66275606420E-01  0.51100000000E-03 0. -1.
</event>
<event>
 8    1  0.1213322E+005  0.1043930E+01  0.7957747E-01            NaN
         13   -1    0    0    0    0  0.00000000000E+00  0.00000000000E+00  0.74505805969E-08  0.10566000000E+00  0.10566000000E+00 0. -1.
     999900   -1    0    0    0    0 -0.00000000000E+00 -0.00000000000E+00 -0.74505805969E-08  0.93827000000E+00  0.93827000000E+00 0.  1.
     999902    2    1    2    0    0 -0.18705835623E-01 -0.13408775558E-01 -0.10289797134E-01  0.10187192191E+01  0.10184072191E+01 0.  0.
     999903    2    3    3    0    0  0.47807748003E-01  0.73775158455E-01 -0.91327942691E-01  0.12821808143E+00  0.19254311631E-01 0.  0.
         14    1    1    2    0    0  0.18705835623E-01  0.13408775558E-01  0.10289797134E-01  0.25210780896E-01  0.00000000000E+00 0.  1.
     999901    1    3    3    0    0 -0.66513583626E-01 -0.87183934013E-01  0.81038145557E-01  0.89050113767E+00  0.88000000000E+00 0.  1.
        -11    1    4    4    0    0  0.34196308239E-01  0.65088161756E-01 -0.70555622984E-01  0.10190296048E+00  0.51100000000E-03 0. -1.
         11    1    4    4    0    0  0.13611439764E-01  0.86869966992E-02 -0.20772319707E-01  0.26315120959E-01  0.51100000000E-03 0.  1.
</event>
<event>
 8    1  0.1213322E+005  0.1043930E+01  0.7957747E-01            NaN
         13   -1    0    0    0    0  0.00000000000E+00  0.00000000000E+00  0.74505805969E-08  0.10566000000E+00  0.10566000000E+00 0.  1.
     999900   -1    0    0    0    0 -0.00000000000E+00 -0.00000000000E+00 -0.74505805969E-08  0.93827000000E+00  0.93827000000E+00 0. -1.
     999902    2    1    2    0    0 -0.23314444629E-01 -0.14931812386E-02 -0.63150139256E-03  0.10205592552E+01  0.10202916258E+01 0.  0.
     999903    2    3    3    0    0 -0.24764173633E-01  0.10212928299E+00  0.75878164280E-01  0.13118113215E+00  0.20182638041E-01 0.  0.
         14    1    1    2    0    0  0.23314444629E-01  0.14931812386E-02  0.63150139256E-03  0.23370744801E-01  0.00000000000E+00 0. -1.
     999901    1    3    3    0    0  0.14497290044E-02 -0.10362246423E+00 -0.76509665673E-01  0.88937812304E+00  0.88000000000E+00 0. -1.
        -11    1    4    4    0    0 -0.10313773233E-02  0.35499384072E-01  0.18178757004E-01  0.39899853833E-01  0.51100000000E-03 0.  1.
         11    1    4    4    0    0 -0.23732796310E-01  0.66629898921E-01  0.57699407277E-01  0.91281278322E-01  0.51100000000E-03 0. -1.
</event>
<event>
 8    1  0.1213322E+005  0.1043930E+01  0.7957747E-01            NaN
         13   -1    0    0    0    0  0.00000000000E+00  0.00000000000E+00  0.74505805969E-08  0.10566000000E+00  0.10566000000E+00 0. -1.
     999900   -1    0    0    0    0 -0.00000000000E+00 -0.00000000000E+00 -0.74505805969E-08  0.93827000000E+00  0.93827000000E+00 0.  1.
     999902    2    1    2    0    0  0.95893069008E-03  0.15245977083E-01 -0.16653706182E-01  0.10213312103E+01  0.10210811603E+01 0.  0.
     999903    2    3    3    0    0 -0.78222986327E-01  0.11965929679E-01 -0.10543770668E+00  0.13332043706E+00  0.19879886418E-01 0.  0.
         14    1    1    2    0    0 -0.95893069008E-03 -0.15245977083E-01  0.16653706182E-01  0.22598789677E-01  0.00000000000E+00 0. -1.
     999901    1    3    3    0    0  0.79181917017E-01  0.32800474037E-02  0.88784000497E-01  0.88801077327E+00  0.88000000000E+00 0.  1.
        -11    1    4    4    0    0 -0.41708341363E-01  0.64336715345E-02 -0.39835389957E-01  0.58035310654E-01  0.51100000000E-03 0. -1.
         11    1    4    4    0    0 -0.36514644964E-01  0.55322581444E-02 -0.65602316723E-01  0.75285126402E-01  0.51100000000E-03 0.  1.
</event>
<event>
 8    1  0.1213322E+005  0.1043930E+01  0.7957747E-01            NaN
         13   -1    0    0    0    0  0.00000000000E+00  0.00000000000E+00  0.74505805969E-08  0.10566000000E+00  0.10566000000E+00 0. -1.
     999900   -1    0    0    0    0 -0.00000000000E+00 -0.00000000000E+00 -0.74505805969E-08  0.93827000000E+00  0.93827000000E+00 0. -1.
     999902    2    1    2    0    0  0.19300421391E-01  0.44758581251E-03 -0.13935045228E-01  0.10201205043E+01  0.10198426110E+01 0.  0.
     999903    2    3    3    0    0  0.26433368660E-01  0.96806943669E-01  0.79835549687E-01  0.12987956544E+00  0.20607746239E-01 0.  0.
         14    1    1    2    0    0 -0.19300421391E-01 -0.44758581251E-03  0.13935045228E-01  0.23809495678E-01  0.00000000000E+00 0. -1.
     999901    1    3    3    0    0 -0.71329472691E-02 -0.96359357856E-01 -0.93770594915E-01  0.89024093888E+00  0.88000000000E+00 0. -1.
        -11    1    4    4    0    0  0.10524660639E-01  0.68981589543E-01  0.47966947330E-01  0.84677726319E-01  0.51100000000E-03 0.  1.
         11    1    4    4    0    0  0.15908708021E-01  0.27825354126E-01  0.31868602357E-01  0.45201839125E-01  0.51100000000E-03 0. -1.
</event>
<event>
 8    1  0.1213322E+005  0.1043930E+01  0.7957747E-01            NaN
         13   -1    0    0    0    0  0.00000000000E+00  0.00000000000E+00  0.74505805969E-08  0.10566000000E+00  0.10566000000E+00 0.  1.
     999900   -1    0    0    0    0 -0.00000000000E+00 -0.00000000000E+00 -0.74505805969E-08  0.93827000000E+00  0.93827000000E+00 0. -1.
     999902    2    1    2    0    0 -0.18701050800E-01  0.11605335120E-02  0.14264244525E-01  0.10203812249E+01  0.10201094545E+01 0.  0.
     999903    2    3    3    0    0  0.54976280642E-01  0.10902982752E+00 -0.37898786639E-01  0.12921058150E+00  0.18685866854E-01 0.  0.
         14    1    1    2    0    0  0.18701050800E-01 -0.11605335120E-02 -0.14264244525E-01  0.23548775147E-01  0.00000000000E+00 0. -1.
     999901    1    3    3    0    0 -0.73677331443E-01 -0.10786929401E+00  0.52163031164E-01  0.89117064336E+00  0.88000000000E+00 0. -1.
        -11    1    4    4    0    0  0.25229255848E-01  0.36877219732E-01 -0.20920597314E-01  0.49339408172E-01  0.51100000000E-03 0. -1.
         11    1    4    4    0    0  0.29747024795E-01  0.72152607787E-01 -0.16978189325E-01  0.79871173325E-01  0.51100000000E-03 0.  1.
</event>
<event>
 8    1  0.1213322E+005  0.1043930E+01  0.7957747E-01            NaN
         13   -1    0    0    0    0  0.00000000000E+00  0.00000000000E+00  0.74505805969E-08  0.10566000000E+00  0.10566000000E+00 0. -1.
     999900   -1    0    0    0    0 -0.00000000000E+00 -0.00000000000E+00 -0.74505805969E-08  0.93827000000E+00  0.93827000000E+00 0.  1.
     999902    2    1    2    0    0 -0.51797303307E-02 -0.23164725011E-01 -0.27961672143E-02  0.10200291079E+01  0.10197490517E+01 0.  0.
     999903    2    3    3    0    0  0.63479456843E-01  0.10853208010E+00 -0.51912104871E-02  0.12758086366E+00  0.21001767848E-01 0.  0.
         14    1    1    2    0    0  0.51797303307E-02  0.23164725011E-01  0.27961672143E-02  0.23900892080E-01  0.00000000000E+00 0.  1.
     999901    1    3    3    0    0 -0.68659187173E-01 -0.13169680511E+00  0.23950432729E-02  0.89244824427E+00  0.88000000000E+00 0.  1.
        -11    1    4    4    0    0  0.22074088036E-01  0.22291235503E-01 -0.58260814190E-02  0.31911892588E-01  0.51100000000E-03 0. -1.
         11    1    4    4    0    0  0.41405368807E-01  0.86240844597E-01  0.63487093185E-03  0.95668971067E-01  0.51100000000E-03 0.  1.
</event>
<event>
 8    1  0.1213322E+005  0.1043930E+01  0.7957747E-01            NaN
         13   -1    0    0    0    0  0.00000000000E+00  0.00000000000E+00  0.74505805969E-08  0.10566000000E+00  0.10566000000E+00 0. -1.
     999900   -1    0    0    0    0 -0.00000000000E+00 -0.00000000000E+00 -0.74505805969E-08  0.93827000000E+00  0.93827000000E+00 0. -1.
     999902    2    1    2    0    0  0.15534111570E-01 -0.17141813849E-01  0.19820239848E-02  0.10207119289E+01  0.10204478248E+01 0.  0.
     999903    2    3    3    0    0  0.90955562140E-01 -0.90208889150E-01 -0.32791515578E-01  0.13378668308E+00  0.20323265256E-01 0.  0.
         14    1    1    2    0    0 -0.15534111570E-01  0.17141813849E-01 -0.19820239848E-02  0.23218071052E-01  0.00000000000E+00 0.  1.
     999901    1    3    3    0    0 -0.75421450570E-01  0.73067075301E-01  0.34773539562E-01  0.88692524587E+00  0.88000000000E+00 0.  1.
        -11    1    4    4    0    0  0.52646457413E-01 -0.64925160524E-01 -0.24819050948E-01  0.87196171694E-01  0.51100000000E-03 0.  1.
         11    1    4    4    0    0  0.38309104726E-01 -0.25283728626E-01 -0.79724646297E-02  0.46590511389E-01  0.51100000000E-03 0. -1.
</event>
<event>
 8    1  0.1213322E+005  0.1043930E+01  0.7957747E-01            NaN
         13   -1    0    0    0    0  0.00000000000E+00  0.00000000000E+00  0.74505805969E-08  0.10566000000E+00  0.10566000000E+00 0. -1.
     999900   -1    0    0    0    0 -0.00000000000E+00 -0.00000000000E+00 -0.74505805969E-08  0.93827000000E+00  0.93827000000E+00 0.  1.
     999902    2    1    2    0    0  0.11343515102E-01  0.26828291245E-01  0.34659919221E-02  0.10145966462E+01  0.10141725242E+01 0.  0.
     999903    2    3    3    0    0  0.65094368863E-01 -0.87326274560E-01  0.56134910728E-01  0.12403815053E+00  0.19266019269E-01 0.  0.
         14    1    1    2    0    0 -0.11343515102E-01 -0.26828291245E-01 -0.34659919221E-02  0.29333353814E-01  0.00000000000E+00 0. -1.
     999901    1    3    3    0    0 -0.53750853761E-01  0.11415456581E+00 -0.52668918806E-01  0.89055849565E+00  0.88000000000E+00 0.  1.
        -11    1    4    4    0    0  0.19329779036E-02 -0.12251802934E-01  0.48109825850E-02  0.13313517685E-01  0.51100000000E-03 0.  1.
         11    1    4    4    0    0  0.63161390959E-01 -0.75074471626E-01  0.51323928143E-01  0.11072463285E+00  0.51100000000E-03 0. -1.
</event>
<event>
 8    1  0.1213322E+005  0.1043930E+01  0.7957747E-01            NaN
         13   -1    0    0    0    0  0.00000000000E+00  0.00000000000E+00  0.74505805969E-08  0.10566000000E+00  0.10566000000E+00 0. -1.
     999900   -1    0    0    0    0 -0.00000000000E+00 -0.00000000000E+00 -0.74505805969E-08  0.93827000000E+00  0.93827000000E+00 0.  1.
     999902    2    1    2    0    0  0.17168168720E-01  0.15424345388E-01 -0.48939365450E-02  0.10203374787E+01  0.10200646858E+01 0.  0.
     999903    2    3    3    0    0 -0.10537927640E+00  0.59956607031E-01  0.43391505350E-01  0.12942082570E+00  0.12936025965E-01 0.  0.
         14    1    1    2    0    0 -0.17168168720E-01 -0.15424345388E-01  0.48939365450E-02  0.23592521331E-01  0.00000000000E+00 0. -1.
     999901    1    3    3    0    0  0.12254744512E+00 -0.44532261644E-01 -0.48285441895E-01  0.89091665297E+00  0.88000000000E+00 0.  1.
        -11    1    4    4    0    0 -0.52093799283E-01  0.24619676656E-01  0.15548183663E-01  0.59681651607E-01  0.51100000000E-03 0.  1.
         11    1    4    4    0    0 -0.53285477118E-01  0.35336930376E-01  0.27843321687E-01  0.69739174096E-01  0.51100000000E-03 0. -1.
</event>
<event>
 8    1  0.1213322E+005  0.1043930E+01  0.7957747E-01            NaN
         13   -1    0    0    0    0  0.00000000000E+00  0.00000000000E+00  0.74505805969E-08  0.10566000000E+00  0.10566000000E+00 0. -1.
     999900   -1    0    0    0    0 -0.00000000000E+00 -0.00000000000E+00 -0.74505805969E-08  0.93827000000E+00  0.93827000000E+00 0. -1.
     999902    2    1    2    0    0 -0.14542370029E-01  0.38204561000E-02  0.16920060501E-01  0.10212945221E+01  0.10210436504E+01 0.  0.
     999903    2    3    3    0    0 -0.55300571793E-01  0.72579153602E-01 -0.91819724669E-01  0.13100618099E+00  0.20146236416E-01 0.  0.
         14    1    1    2    0    0  0.14542370029E-01 -0.38204561000E-02 -0.16920060501E-01  0.22635477867E-01  0.00000000000E+00 0.  1.
     999901    1    3    3    0    0  0.40758201764E-01 -0.68758697502E-01  0.10873978517E+00  0.89028834114E+00  0.88000000000E+00 0.  1.
        -11    1    4    4    0    0 -0.34800195704E-01  0.42714659775E-01 -0.41389893921E-01  0.68912845106E-01  0.51100000000E-03 0. -1.
         11    1    4    4    0    0 -0.20500376090E-01  0.29864493827E-01 -0.50429830747E-01  0.62093335887E-01  0.51100000000E-03 0.  1.
</event>
<event>
 8    1  0.1213322E+005  0.1043930E+01  0.7957747E-01            NaN
         13   -1    0    0    0    0  0.00000000000E+00  0.00000000000E+00  0.74505805969E-08  0.10566000000E+00  0.10566000000E+00 0.  1.
     999900   -1    0    0    0    0 -0.00000000000E+00 -0.00000000000E+00 -0.74505805969E-08  0.93827000000E+00  0.93827000000E+00 0. -1.
     999902    2    1    2    0    0 -0.22188884835E-01 -0.76600023959E-02 -0.26418964035E-02  0.10203079369E+01  0.10200344525E+01 0.  0.
     999903    2    3    3    0    0  0.30070322424E-01  0.77607986088E-01  0.96801318970E-01  0.12907810816E+00  0.19064072434E-01 0.  0.
         14    1    1    2    0    0  0.22188884835E-01  0.76600023959E-02  0.26418964035E-02  0.23622063067E-01  0.00000000000E+00 0.  1.
     999901    1    3    3    0    0 -0.52259207259E-01 -0.85267988484E-01 -0.99443215373E-01  0.89122982877E+00  0.88000000000E+00 0. -1.
        -11    1    4    4    0    0  0.32245491201E-02  0.13358747190E-01  0.27963266217E-01  0.31161823150E-01  0.51100000000E-03 0.  1.
         11    1    4    4    0    0  0.26845773304E-01  0.64249238898E-01  0.68838052752E-01  0.97916285015E-01  0.51100000000E-03 0. -1.
</event>
<event>
 8    1  0.1213322E+005  0.1043930E+01  0.7957747E-01            NaN
         13   -1    0    0    0    0  0.00000000000E+00  0.00000000000E+00  0.74505805969E-08  0.10566000000E+00  0.10566000000E+00 0.  1.
     999900   -1    0    0    0    0 -0.00000000000E+00 -0.00000000000E+00 -0.74505805969E-08  0.93827000000E+00  0.93827000000E+00 0.  1.
     999902    2    1    2    0    0  0.10620794438E-01 -0.28235838916E-05  0.23457304847E-01  0.10181803120E+01  0.10178546563E+01 0.  0.
     999903    2    3    3    0    0  0.89166100817E-01 -0.91633615922E-01 -0.48888038689E-02  0.12949078850E+00  0.19916094041E-01 0.  0.
         14    1    1    2    0    0 -0.10620794438E-01  0.28235838915E-05 -0.23457304847E-01  0.25749688021E-01  0.00000000000E+00 0. -1.
     999901    1    3    3    0    0 -0.78545306379E-01  0.91630792338E-01  0.28346108716E-01  0.88868952348E+00  0.88000000000E+00 0. -1.
        -11    1    4    4    0    0  0.75939526874E-02 -0.17585120320E-01 -0.22045553301E-02  0.19287969289E-01  0.51100000000E-03 0. -1.
         11    1    4    4    0    0  0.81572148129E-01 -0.74048495602E-01 -0.26842485388E-02  0.11020281921E+00  0.51100000000E-03 0.  1.
</event>
<event>
 8    1  0.1213322E+005  0.1043930E+01  0.7957747E-01            NaN
         13   -1    0    0    0    0  0.00000000000E+00  0.00000000000E+00  0.74505805969E-08  0.10566000000E+00  0.10566000000E+00 0. -1.
     999900   -1    0    0    0    0 -0.00000000000E+00 -0.00000000000E+00 -0.74505805969E-08  0.93827000000E+00  0.93827000000E+00 0. -1.
     999902    2    1    2    0    0 -0.22862851020E-01 -0.36656702956E-02 -0.39313803918E-02  0.10204437732E+01  0.10201734615E+01 0.  0.
     999903    2    3    3    0    0  0.85674390547E-01 -0.47196142804E-01  0.81286843722E-01  0.12862687468E+00  0.19228750255E-01 0.  0.
         14    1    1    2    0    0  0.22862851020E-01  0.36656702956E-02  0.39313803918E-02  0.23486226756E-01  0.00000000000E+00 0. -1.
     999901    1    3    3    0    0 -0.10853724157E+00  0.43530472509E-01 -0.85218224114E-01  0.89181689856E+00  0.88000000000E+00 0.  1.
        -11    1    4    4    0    0  0.76678510540E-01 -0.34455026291E-01  0.69373491158E-01  0.10899396869E+00  0.51100000000E-03 0. -1.
         11    1    4    4    0    0  0.89958800071E-02 -0.12741116513E-01  0.11913352564E-01  0.19632905985E-01  0.51100000000E-03 0.  1.
</event>
<event>
 8    1  0.1213322E+005  0.1043930E+01  0.7957747E-01            NaN
         13   -1    0    0    0    0  0.00000000000E+00  0.00000000000E+00  0.74505805969E-08  0.10566000000E+00  0.10566000000E+00 0. -1.
     999900   -1    0    0    0    0 -0.00000000000E+00 -0.00000000000E+00 -0.74505805969E-08  0.93827000000E+00  0.93827000000E+00 0.  1.
     999902    2    1    2    0    0 -0.18712262393E-01 -0.89968045770E-02  0.11012724198E-01  0.10204274182E+01  0.10201567255E+01 0.  0.
     999903    2    3    3    0    0  0.43956152155E-01 -0.12164814084E+00  0.40808001513E-02  0.13100867245E+00  0.20401123610E-01 0.  0.
         14    1    1    2    0    0  0.18712262393E-01  0.89968045770E-02 -0.11012724198E-01  0.23502581788E-01  0.00000000000E+00 0. -1.
     999901    1    3    3    0    0 -0.62668414548E-01  0.11265133626E+00  0.69319240468E-02  0.88941874576E+00  0.88000000000E+00 0.  1.
        -11    1    4    4    0    0  0.18178962339E-01 -0.67124505681E-01 -0.62244637559E-02  0.69822482086E-01  0.51100000000E-03 0. -1.
         11    1    4    4    0    0  0.25777189816E-01 -0.54523635160E-01  0.10305263907E-01  0.61186190362E-01  0.51100000000E-03 0.  1.
</event>
<event>
 8    1  0.1213322E+005  0.1043930E+01  0.7957747E-01            NaN
         13   -1    0    0    0    0  0.00000000000E+00  0.00000000000E+00  0.74505805969E-08  0.10566000000E+00  0.10566000000E+00 0.  1.
     999900   -1    0    0    0    0 -0.00000000000E+00 -0.00000000000E+00 -0.74505805969E-08  0.93827000000E+00  0.93827000000E+00 0. -1.
     999902    2    1    2    0    0 -0.25897627171E-02  0.10158121797E-01 -0.23524915699E-01  0.10181750788E+01  0.10178492890E+01 0.  0.
     999903    2    3    3    0    0  0.20021101091E-01  0.12065594087E+00  0.35697104508E-01  0.12900227955E+00  0.20213963054E-01 0.  0.
         14    1    1    2    0    0  0.25897627171E-02 -0.10158121797E-01  0.23524915699E-01  0.25754921239E-01  0.00000000000E+00 0.  1.
     999901    1    3    3    0    0 -0.22610863808E-01 -0.11049781907E+00 -0.59222020207E-01  0.88917279921E+00  0.88000000000E+00 0. -1.
        -11    1    4    4    0    0  0.51372912641E-02  0.80125681158E-01  0.17685535580E-01  0.82216518002E-01  0.51100000000E-03 0.  1.
         11    1    4    4    0    0  0.14883809827E-01  0.40530259712E-01  0.18011568928E-01  0.46785761547E-01  0.51100000000E-03 0. -1.
</event>
<event>
 8    1  0.1213322E+005  0.1043930E+01  0.7957747E-01            NaN
         13   -1    0    0    0    0  0.00000000000E+00  0.00000000000E+00  0.74505805969E-08  0.10566000000E+00  0.10566000000E+00 0.  1.
     999900   -1    0    0    0    0 -0.00000000000E+00 -0.00000000000E+00 -0.74505805969E-08  0.93827000000E+00  0.93827000000E+00 0.  1.
     999902    2    1    2    0    0  0.19475576977E-01  0.43040305755E-02 -0.11788415399E-01  0.10207612815E+01  0.10204983118E+01 0.  0.
     999903    2    3    3    0    0  0.65765550804E-01 -0.11200678622E+00 -0.52686282162E-02  0.13187800719E+00  0.22213115625E-01 0.  0.
         14    1    1    2    0    0 -0.19475576977E-01 -0.43040305755E-02  0.11788415399E-01  0.23168718467E-01  0.00000000000E+00 0.  1.
     999901    1    3    3    0    0 -0.46289973826E-01  0.11631081679E+00 -0.65197871831E-02  0.88888327434E+00  0.88000000000E+00 0. -1.
        -11    1    4    4    0    0  0.11687763633E-01 -0.27916249775E-01  0.72310076959E-02  0.31120241219E-01  0.51100000000E-03 0.  1.
         11    1    4    4    0    0  0.54077787171E-01 -0.84090536443E-01 -0.12499635912E-01  0.10075776597E+00  0.51100000000E-03 0. -1.
</event>
<event>
 8    1  0.1213322E+005  0.1043930E+01  0.7957747E-01            NaN
         13   -1    0    0    0    0  0.00000000000E+00  0.00000000000E+00  0.74505805969E-08  0.10566000000E+00  0.10566000000E+00 0. -1.
     999900   -1    0    0    0    0 -0.00000000000E+00 -0.00000000000E+00 -0.74505805969E-08  0.93827000000E+00  0.93827000000E+00 0.  1.
     999902    2    1    2    0    0 -0.16039093835E-01 -0.26853543312E-01  0.21867980175E-01  0.10057649129E+01  0.10050405395E+01 0.  0.
     999903    2    3    3    0    0 -0.92934672647E-01  0.21433601138E-01  0.70414972041E-01  0.11976187179E+00  0.16981902434E-01 0.  0.
         14    1    1    2    0    0  0.16039093835E-01  0.26853543312E-01 -0.21867980175E-01  0.38165087140E-01  0.00000000000E+00 0. -1.
     999901    1    3    3    0    0  0.76895578812E-01 -0.48287144450E-01 -0.48546991866E-01  0.88600304107E+00  0.88000000000E+00 0.  1.
        -11    1    4    4    0    0 -0.31364124743E-01 -0.87209768974E-03  0.22216171684E-01  0.38448514673E-01  0.51100000000E-03 0.  1.
         11    1    4    4    0    0 -0.61570547904E-01  0.22305698828E-01  0.48198800358E-01  0.81313357121E-01  0.51100000000E-03 0. -1.
</event>
<event>
 8    1  0.1213322E+005  0.1043930E+01  0.7957747E-01            NaN
         13   -1    0    0    0    0  0.00000000000E+00  0.00000000000E+00  0.74505805969E-08  0.10566000000E+00  0.10566000000E+00 0. -1.
     999900   -1    0    0    0    0 -0.00000000000E+00 -0.00000000000E+00 -0.74505805969E-08  0.93827000000E+00  0.93827000000E+00 0.  1.
     999902    2    1    2    0    0 -0.76561473028E-02  0.90123875416E-02 -0.18030671641E-01  0.10223674204E+01  0.10221400087E+01 0.  0.
     999903    2    3    3    0    0 -0.20652132456E-02  0.85614010452E-01 -0.10232114762E+00  0.13500957174E+00  0.20589883923E-01 0.  0.
         14    1    1    2    0    0  0.76561473028E-02 -0.90123875416E-02  0.18030671641E-01  0.21562579636E-01  0.00000000000E+00 0. -1.
     999901    1    3    3    0    0 -0.55909340572E-02 -0.76601622910E-01  0.84290475977E-01  0.88735784863E+00  0.88000000000E+00 0.  1.
        -11    1    4    4    0    0 -0.74057302804E-02  0.22452529238E-01 -0.19108910809E-01  0.30403494922E-01  0.51100000000E-03 0. -1.
         11    1    4    4    0    0  0.53405170348E-02  0.63161481213E-01 -0.83212236808E-01  0.10460607682E+00  0.51100000000E-03 0.  1.
</event>
<event>
 8    1  0.1213322E+005  0.1043930E+01  0.7957747E-01            NaN
         13   -1    0    0    0    0  0.00000000000E+00  0.00000000000E+00  0.74505805969E-08  0.10566000000E+00  0.10566000000E+00 0.  1.
     999900   -1    0    0    0    0 -0.00000000000E+00 -0.00000000000E+00 -0.74505805969E-08  0.93827000000E+00  0.93827000000E+00 0.  1.
     999902    2    1    2    0    0  0.21226990388E-01  0.38560974431E-02 -0.93067010767E-02  0.10204338451E+01  0.10201633021E+01 0.  0.
     999903    2    3    3    0    0  0.95034482318E-01  0.60420599099E-01 -0.68555587473E-01  0.13355306439E+00  0.21315506332E-01 0.  0.
         14    1    1    2    0    0 -0.21226990388E-01 -0.38560974431E-02  0.93067010767E-02  0.23496154863E-01  0.00000000000E+00 0.  1.
     999901    1    3    3    0    0 -0.73807491930E-01 -0.56564501656E-01  0.59248886397E-01  0.88688078074E+00  0.88000000000E+00 0. -1.
        -11    1    4    4    0    0  0.55299515157E-01  0.46893197998E-01 -0.46464471727E-01  0.86117458445E-01  0.51100000000E-03 0. -1.
         11    1    4    4    0    0  0.39734967161E-01  0.13527401101E-01 -0.22091115746E-01  0.47435605948E-01  0.51100000000E-03 0.  1.
</event>
<event>
 8    1  0.1213322E+005  0.1043930E+01  0.7957747E-01            NaN
         13   -1    0    0    0    0  0.00000000000E+00  0.00000000000E+00  0.74505805969E-08  0.10566000000E+00  0.10566000000E+00 0.  1.
     999900   -1    0    0    0    0 -0.00000000000E+00 -0.00000000000E+00 -0.74505805969E-08  0.93827000000E+00  0.93827000000E+00 0. -1.
     999902    2    1    2    0    0  0.20419400215E-02 -0.22640403405E-01 -0.41760446474E-02  0.10208173036E+01  0.10205556186E+01 0.  0.
     999903    2    3    3    0    0  0.36237329570E-01 -0.85210723047E-01  0.92758940299E-01  0.13262770624E+00  0.20294730390E-01 0.  0.
         14    1    1    2    0    0 -0.20419400215E-02  0.22640403405E-01  0.41760446474E-02  0.23112696388E-01  0.00000000000E+00 0. -1.
     999901    1    3    3    0    0 -0.34195389549E-01  0.62570319642E-01 -0.96934984947E-01  0.88818959737E+00  0.88000000000E+00 0.  1.
        -11    1    4    4    0    0  0.84632094734E-02 -0.42550820890E-01  0.35942253545E-01  0.56340970740E-01  0.51100000000E-03 0. -1.
         11    1    4    4    0    0  0.27774120097E-01 -0.42659902157E-01  0.56816686754E-01  0.76286735504E-01  0.51100000000E-03 0.  1.
</event>
<event>
 8    1  0.1213322E+005  0.1043930E+01  0.7957747E-01            NaN
         13   -1    0    0    0    0  0.00000000000E+00  0.00000000000E+00  0.74505805969E-08  0.10566000000E+00  0.10566000000E+00 0. -1.
     999900   -1    0    0    0    0 -0.00000000000E+00 -0.00000000000E+00 -0.74505805969E-08  0.93827000000E+00  0.93827000000E+00 0.  1.
     999902    2    1    2    0    0 -0.75837231968E-02 -0.53821763781E-03  0.22511875959E-01  0.10201689585E+01  0.10198922084E+01 0.  0.
     999903    2    3    3    0    0 -0.12249241376E+00  0.20174998171E-01  0.40276348530E-01  0.13227897600E+00  0.21543473713E-01 0.  0.
         14    1    1    2    0    0  0.75837231968E-02  0.53821763781E-03 -0.22511875959E-01  0.23761041537E-01  0.00000000000E+00 0.  1.
     999901    1    3    3    0    0  0.11490869056E+00 -0.20713215809E-01 -0.17764472571E-01  0.88788998247E+00  0.88000000000E+00 0.  1.
        -11    1    4    4    0    0 -0.21275496647E-01  0.11313878510E-01  0.42390107772E-02  0.24472044007E-01  0.51100000000E-03 0. -1.
         11    1    4    4    0    0 -0.10121691711E+00  0.88611196616E-02  0.36037337753E-01  0.10780693199E+00  0.51100000000E-03 0.  1.
</event>
<event>
 8    1  0.1213322E+005  0.1043930E+01  0.7957747E-01            NaN
         13   -1    0    0    0    0  0.00000000000E+00  0.00000000000E+00  0.74505805969E-08  0.10566000000E+00  0.10566000000E+00 0. -1.
     999900   -1    0    0    0    0 -0.00000000000E+00 -0.00000000000E+00 -0.74505805969E-08  0.93827000000E+00  0.93827000000E+00 0.  1.
     999902    2    1    2    0    0  0.65615194009E-02  0.19068055059E-01 -0.12150859828E-01  0.10203866856E+01  0.10201150427E+01 0.  0.
     999903    2    3    3    0    0  0.14506468057E-01  0.38366672581E-01  0.12204514575E+00  0.12996873495E+00  0.17731759176E-01 0.  0.
         14    1    1    2    0    0 -0.65615194009E-02 -0.19068055059E-01  0.12150859828E-01  0.23543314447E-01  0.00000000000E+00 0. -1.
     999901    1    3    3    0    0 -0.79449486558E-02 -0.19298617522E-01 -0.13419600557E+00  0.89041795060E+00  0.88000000000E+00 0.  1.
        -11    1    4    4    0    0  0.12946358393E-01  0.16331218386E-01  0.41416095156E-01  0.46366700859E-01  0.51100000000E-03 0.  1.
         11    1    4    4    0    0  0.15601096633E-02  0.22035454195E-01  0.80629050590E-01  0.83602034089E-01  0.51100000000E-03 0. -1.
</event>
<event>
 8    1  0.1213322E+005  0.1043930E+01  0.7957747E-01            NaN
         13   -1    0    0    0    0  0.00000000000E+00  0.00000000000E+00  0.74505805969E-08  0.10566000000E+00  0.10566000000E+00 0. -1.
     999900   -1    0    0    0    0 -0.00000000000E+00 -0.00000000000E+00 -0.74505805969E-08  0.93827000000E+00  0.93827000000E+00 0. -1.
     999902    2    1    2    0    0  0.73802285031E-02 -0.20100256274E-01  0.99238537942E-02  0.10203297680E+01  0.10200567948E+01 0.  0.
     999903    2    3    3    0    0 -0.21766826201E-01  0.13329260507E-01  0.12727955671E+00  0.13143188616E+00  0.20561887907E-01 0.  0.
         14    1    1    2    0    0 -0.73802285031E-02  0.20100256274E-01 -0.99238537942E-02  0.23600231973E-01  0.00000000000E+00 0.  1.
     999901    1    3    3    0    0  0.29147054705E-01 -0.33429516781E-01 -0.11735570291E+00  0.88889788187E+00  0.88000000000E+00 0. -1.
        -11    1    4    4    0    0 -0.10814563624E-01  0.68665343348E-02  0.22613826605E-01  0.25995198689E-01  0.51100000000E-03 0.  1.
         11    1    4    4    0    0 -0.10952262577E-01  0.64627261719E-02  0.10466573010E+00  0.10543668747E+00  0.51100000000E-03 0. -1.
</event>
<event>
 7    1  0.1213322E+005  0.1043930E+01  0.7957747E-01            NaN
         13   -1    0    0    0    0  0.00000000000E+00  0.00000000000E+00  0.74505805969E-08  0.10566000000E+00  0.10566000000E+00 0. -1.
     999900   -1    0    0    0    0 -0.00000000000E+00 -0.00000000000E+00 -0.74505805969E-08  0.93827000000E+00  0.93827000000E+00 0.  1.
     999903    2    1    2    0    0  0.10493025843E+00  0.25305598069E-01 -0.27605484729E-01  0.11331735431E+00  0.20688827218E-01 0.  0.
         14    1    1    2    0    0 -0.26933941487E-01 -0.33689653438E-01 -0.16108040587E-01  0.46042360109E-01  0.00000000000E+00 0.  1.
     999901    1    1    2    0    0 -0.77996316946E-01  0.83840553687E-02  0.43713525317E-01  0.88457028558E+00  0.88000000000E+00 0. -1.
        -11    1    3    3    0    0  0.31818044008E-01  0.17521588659E-01 -0.75383711925E-02  0.37100972425E-01  0.51100000000E-03 0.  1.
         11    1    3    3    0    0  0.73112214425E-01  0.77840094108E-02 -0.20067113537E-01  0.76216381883E-01  0.51100000000E-03 0. -1.
</event>
<event>
 8    1  0.1213322E+005  0.1043930E+01  0.7957747E-01            NaN
         13   -1    0    0    0    0  0.00000000000E+00  0.00000000000E+00  0.74505805969E-08  0.10566000000E+00  0.10566000000E+00 0.  1.
     999900   -1    0    0    0    0 -0.00000000000E+00 -0.00000000000E+00 -0.74505805969E-08  0.93827000000E+00  0.93827000000E+00 0.  1.
     999902    2    1    2    0    0 -0.95172794782E-02  0.11324847807E-01  0.19097507829E-01  0.10197733117E+01  0.10194871562E+01 0.  0.
     999903    2    3    3    0    0 -0.82890932002E-01 -0.70400491640E-01  0.70853527092E-01  0.13143699611E+00  0.20696033745E-01 0.  0.
         14    1    1    2    0    0  0.95172794782E-02 -0.11324847807E-01 -0.19097507829E-01  0.24156688345E-01  0.00000000000E+00 0. -1.
     999901    1    3    3    0    0  0.73373652524E-01  0.81725339447E-01 -0.51756019263E-01  0.88833631555E+00  0.88000000000E+00 0.  1.
        -11    1    4    4    0    0 -0.15667004416E-01 -0.24680099906E-01  0.15605506730E-01  0.33141444146E-01  0.51100000000E-03 0.  1.
         11    1    4    4    0    0 -0.67223927586E-01 -0.45720391734E-01  0.55248020362E-01  0.98295551961E-01  0.51100000000E-03 0. -1.
</event>
<event>
 8    1  0.1213322E+005  0.1043930E+01  0.7957747E-01            NaN
         13   -1    0    0    0    0  0.00000000000E+00  0.00000000000E+00  0.74505805969E-08  0.10566000000E+00  0.10566000000E+00 0. -1.
     999900   -1    0    0    0    0 -0.00000000000E+00 -0.00000000000E+00 -0.74505805969E-08  0.93827000000E+00  0.93827000000E+00 0.  1.
     999902    2    1    2    0    0 -0.20060704890E-01 -0.88755873920E-03  0.13543603574E-01  0.10197091652E+01  0.10194214696E+01 0.  0.
     999903    2    3    3    0    0  0.67264126143E-01 -0.92381635473E-01 -0.54330571188E-01  0.12807936769E+00  0.19841477342E-01 0.  0.
         14    1    1    2    0    0  0.20060704890E-01  0.88755873920E-03 -0.13543603574E-01  0.24220834812E-01  0.00000000000E+00 0. -1.
     999901    1    3    3    0    0 -0.87324831034E-01  0.91494076733E-01  0.67874174762E-01  0.89162979750E+00  0.88000000000E+00 0. -1.
        -11    1    4    4    0    0  0.25591385709E-01 -0.34707340549E-01 -0.31308061460E-01  0.53291409663E-01  0.51100000000E-03 0.  1.
         11    1    4    4    0    0  0.41672740434E-01 -0.57674294923E-01 -0.23022509728E-01  0.74787958024E-01  0.51100000000E-03 0. -1.
</event>
<event>
 8    1  0.1213322E+005  0.1043930E+01  0.7957747E-01            NaN
         13   -1    0    0    0    0  0.00000000000E+00  0.00000000000E+00  0.74505805969E-08  0.10566000000E+00  0.10566000000E+00 0.  1.
     999900   -1    0    0    0    0 -0.00000000000E+00 -0.00000000000E+00 -0.74505805969E-08  0.93827000000E+00  0.93827000000E+00 0. -1.
     999902    2    1    2    0    0  0.77085058713E-02  0.12115350602E-01 -0.18638032083E-01  0.10204017399E+01  0.10201304484E+01 0.  0.
     999903    2    3    3    0    0 -0.84812259379E-01 -0.86901595205E-01  0.36312950907E-01  0.12833444531E+00  0.20151745823E-01 0.  0.
         14    1    1    2    0    0 -0.77085058713E-02 -0.12115350602E-01  0.18638032083E-01  0.23528260091E-01  0.00000000000E+00 0.  1.
     999901    1    3    3    0    0  0.92520765250E-01  0.99016945806E-01 -0.54950982990E-01  0.89206729460E+00  0.88000000000E+00 0. -1.
        -11    1    4    4    0    0 -0.28167390904E-01 -0.34223270952E-01  0.40209344158E-02  0.44509136361E-01  0.51100000000E-03 0. -1.
         11    1    4    4    0    0 -0.56644868475E-01 -0.52678324252E-01  0.32292016491E-01  0.83825308950E-01  0.51100000000E-03 0.  1.
</event>
<event>
 8    1  0.1213322E+005  0.1043930E+01  0.7957747E-01            NaN
         13   -1    0    0    0    0  0.00000000000E+00  0.00000000000E+00  0.74505805969E-08  0.10566000000E+00  0.10566000000E+00 0.  1.
     999900   -1    0    0    0    0 -0.00000000000E+00 -0.00000000000E+00 -0.74505805969E-08  0.93827000000E+00  0.93827000000E+00 0.  1.
     999902    2    1    2    0    0  0.16273084564E-01 -0.16325887814E-01  0.70052745591E-02  0.10198380560E+01  0.10195534506E+01 0.  0.
     999903    2    3    3    0    0  0.78247555816E-01  0.99324193534E-01  0.22608190382E-01  0.12997333179E+00  0.19848458188E-01 0.  0.
         14    1    1    2    0    0 -0.16273084564E-01  0.16325887814E-01 -0.70052745591E-02  0.24091944002E-01  0.00000000000E+00 0. -1.
     999901    1    3    3    0    0 -0.61974471252E-01 -0.11565008135E+00 -0.15602915823E-01  0.88986472421E+00  0.88000000000E+00 0.  1.
        -11    1    4    4    0    0  0.12950391667E-01  0.29365795773E-01  0.25835959078E-02  0.32202464106E-01  0.51100000000E-03 0. -1.
         11    1    4    4    0    0  0.65297164149E-01  0.69958397761E-01  0.20024594474E-01  0.97770867686E-01  0.51100000000E-03 0.  1.
</event>
<event>
 8    1  0.1213322E+005  0.1043930E+01  0.7957747E-01            NaN
         13   -1    0    0    0    0  0.00000000000E+00  0.00000000000E+00  0.74505805969E-08  0.10566000000E+00  0.10566000000E+00 0. -1.
     999900   -1    0    0    0    0 -0.00000000000E+00 -0.00000000000E+00 -0.74505805969E-08  0.93827000000E+00  0.93827000000E+00 0.  1.
     999902    2    1    2    0    0  0.54900624118E-02 -0.21472578870E-01  0.12597786828E-01  0.10184365369E+01  0.10181174112E+01 0.  0.
     999903    2    3    3    0    0 -0.68621315526E-01 -0.10926445008E+00 -0.55195613540E-02  0.13078336853E+00  0.20645070362E-01 0.  0.
         14    1    1    2    0    0 -0.54900624118E-02  0.21472578870E-01 -0.12597786828E-01  0.25493463115E-01  0.00000000000E+00 0.  1.
     999901    1    3    3    0    0  0.74111377938E-01  0.87791871209E-01  0.18117348182E-01  0.88765316836E+00  0.88000000000E+00 0.  1.
        -11    1    4    4    0    0 -0.51026614011E-01 -0.78324200397E-01 -0.13083126179E-01  0.94391869443E-01  0.51100000000E-03 0.  1.
         11    1    4    4    0    0 -0.17594701515E-01 -0.30940249682E-01  0.75635648245E-02  0.36391499085E-01  0.51100000000E-03 0. -1.
</event>
<event>
 8    1  0.1213322E+005  0.1043930E+01  0.7957747E-01            NaN
         13   -1    0    0    0    0  0.00000000000E+00  0.00000000000E+00  0.74505805969E-08  0.10566000000E+00  0.10566000000E+00 0. -1.
     999900   -1    0    0    0    0 -0.00000000000E+00 -0.00000000000E+00 -0.74505805969E-08  0.93827000000E+00  0.93827000000E+00 0. -1.
     999902    2    1    2    0    0  0.21712564426E-01 -0.54098313408E-02  0.70482413211E-02  0.10204698330E+01  0.10202001278E+01 0.  0.
     999903    2    3    3    0    0  0.10790376518E+00 -0.71621876337E-01  0.30152080248E-01  0.13348237800E+00  0.11639655581E-01 0.  0.
         14    1    1    2    0    0 -0.21712564426E-01  0.54098313408E-02 -0.70482413211E-02  0.23460166981E-01  0.00000000000E+00 0.  1.
     999901    1    3    3    0    0 -0.86191200757E-01  0.66212044996E-01 -0.23103838927E-01  0.88698745502E+00  0.88000000000E+00 0.  1.
        -11    1    4    4    0    0  0.71849431983E-01 -0.48507917662E-01  0.25697259100E-01  0.90421066121E-01  0.51100000000E-03 0. -1.
         11    1    4    4    0    0  0.36054333200E-01 -0.23113958675E-01  0.44548211481E-02  0.43061311877E-01  0.51100000000E-03 0.  1.
</event>
<event>
 8    1  0.1213322E+005  0.1043930E+01  0.7957747E-01            NaN
         13   -1    0    0    0    0  0.00000000000E+00  0.00000000000E+00  0.74505805969E-08  0.10566000000E+00  0.10566000000E+00 0. -1.
     999900   -1    0    0    0    0 -0.00000000000E+00 -0.00000000000E+00 -0.74505805969E-08  0.93827000000E+00  0.93827000000E+00 0. -1.
     999902    2    1    2    0    0  0.20340131044E-01  0.39561850463E-02 -0.13145733912E-01  0.10193905898E+01  0.10190951830E+01 0.  0.
     999903    2    3    3    0    0 -0.76375178272E-01 -0.99727434711E-01  0.13036297223E-01  0.12765652476E+00  0.18641732194E-01 0.  0.
         14    1    1    2    0    0 -0.20340131044E-01 -0.39561850463E-02  0.13145733912E-01  0.24539410162E-01  0.00000000000E+00 0.  1.
     999901    1    3    3    0    0  0.96715309316E-01  0.10368361976E+00 -0.26182031135E-01  0.89173406508E+00  0.88000000000E+00 0. -1.
        -11    1    4    4    0    0 -0.25838039035E-01 -0.44693529885E-01 -0.96639108811E-03  0.51636333211E-01  0.51100000000E-03 0.  1.
         11    1    4    4    0    0 -0.50537139237E-01 -0.55033904826E-01  0.14002688311E-01  0.76020191552E-01  0.51100000000E-03 0. -1.
</event>
<event>
 8    1  0.1213322E+005  0.1043930E+01  0.7957747E-01            NaN
         13   -1    0    0    0    0  0.00000000000E+00  0.00000000000E+00  0.74505805969E-08  0.10566000000E+00  0.10566000000E+00 0. -1.
     999900   -1    0    0    0    0 -0.00000000000E+00 -0.00000000000E+00 -0.74505805969E-08  0.93827000000E+00  0.93827000000E+00 0. -1.
     999902    2    1    2    0    0 -0.17244002352E-01  0.14426164542E-01 -0.62701560455E-02  0.10205893767E+01  0.10203224447E+01 0.  0.
     999903    2    3    3    0    0 -0.12960944324E-01 -0.12464859645E+00  0.23926884370E-01  0.12914560672E+00  0.20020820792E-01 0.  0.
         14    1    1    2    0    0  0.17244002352E-01 -0.14426164542E-01  0.62701560455E-02  0.23340623328E-01  0.00000000000E+00 0.  1.
     999901    1    3    3    0    0 -0.42830580275E-02  0.13907476099E+00 -0.30197040416E-01  0.89144376995E+00  0.88000000000E+00 0. -1.
        -11    1    4    4    0    0 -0.79953548213E-02 -0.25326472682E-01 -0.11388328635E-02  0.26587853966E-01  0.51100000000E-03 0.  1.
         11    1    4    4    0    0 -0.49655895028E-02 -0.99322123769E-01  0.25065717234E-01  0.10255775276E+00  0.51100000000E-03 0. -1.
</event>
<event>
 8    1  0.1213322E+005  0.1043930E+01  0.7957747E-01            NaN
         13   -1    0    0    0    0  0.00000000000E+00  0.00000000000E+00  0.74505805969E-08  0.10566000000E+00  0.10566000000E+00 0. -1.
     999900   -1    0    0    0    0 -0.00000000000E+00 -0.00000000000E+00 -0.74505805969E-08  0.93827000000E+00  0.93827000000E+00 0. -1.
     999902    2    1    2    0    0 -0.13347476835E-01  0.28546902319E-02  0.19324865070E-01  0.10202708621E+01  0.10199965085E+01 0.  0.
     999903    2    3    3    0    0  0.65235185982E-01 -0.89132151858E-01 -0.64018254459E-01  0.12809213028E+00  0.10444469880E-01 0.  0.
         14    1    1    2    0    0  0.13347476835E-01 -0.28546902319E-02 -0.19324865070E-01  0.23659137857E-01  0.00000000000E+00 0.  1.
     999901    1    3    3    0    0 -0.78582662817E-01  0.91986842090E-01  0.83343119529E-01  0.89217873186E+00  0.88000000000E+00 0.  1.
        -11    1    4    4    0    0  0.48836751716E-01 -0.72410262043E-01 -0.53394463209E-01  0.10236944949E+00  0.51100000000E-03 0.  1.
         11    1    4    4    0    0  0.16398434267E-01 -0.16721889815E-01 -0.10623791250E-01  0.25722680788E-01  0.51100000000E-03 0. -1.
</event>
<event>
 8    1  0.1213322E+005  0.1043930E+01  0.7957747E-01            NaN
         13   -1    0    0    0    0  0.00000000000E+00  0.00000000000E+00  0.74505805969E-08  0.10566000000E+00  0.10566000000E+00 0. -1.
     999900   -1    0    0    0    0 -0.00000000000E+00 -0.00000000000E+00 -0.74505805969E-08  0.93827000000E+00  0.93827000000E+00 0. -1.
     999902    2    1    2    0    0  0.14348409573E-01 -0.13963851154E-02 -0.18550860075E-01  0.10204361464E+01  0.10201656570E+01 0.  0.
     999903    2    3    3    0    0  0.35977383401E-01  0.58410727601E-02 -0.12712145748E+00  0.13347066343E+00  0.18057209014E-01 0.  0.
         14    1    1    2    0    0 -0.14348409573E-01  0.13963851154E-02  0.18550860075E-01  0.23493853625E-01  0.00000000000E+00 0. -1.
     999901    1    3    3    0    0 -0.21628973828E-01 -0.72374578755E-02  0.10857059741E+00  0.88696548294E+00  0.88000000000E+00 0.  1.
        -11    1    4    4    0    0  0.13362948336E-01 -0.46128005739E-03 -0.76585988622E-01  0.77746099206E-01  0.51100000000E-03 0. -1.
         11    1    4    4    0    0  0.22614435065E-01  0.63023528175E-02 -0.50535468862E-01  0.55724564229E-01  0.51100000000E-03 0.  1.
</event>
<event>
 8    1  0.1213322E+005  0.1043930E+01  0.7957747E-01            NaN
         13   -1    0    0    0    0  0.00000000000E+00  0.00000000000E+00  0.74505805969E-08  0.10566000000E+00  0.10566000000E+00 0. -1.
     999900   -1    0    0    0    0 -0.00000000000E+00 -0.00000000000E+00 -0.74505805969E-08  0.93827000000E+00  0.93827000000E+00 0. -1.
     999902    2    1    2    0    0 -0.39521811942E-02  0.13413985951E-01 -0.17484087678E-01  0.10215414298E+01  0.10212960612E+01 0.  0.
     999903    2    3    3    0    0 -0.32044532987E-01 -0.11227243914E+00  0.53023374629E-01  0.12937689341E+00  0.17174097008E-01 0.  0.
         14    1    1    2    0    0  0.39521811942E-02 -0.13413985951E-01  0.17484087678E-01  0.22388570236E-01  0.00000000000E+00 0. -1.
     999901    1    3    3    0    0  0.28092351792E-01  0.12568642509E+00 -0.70507462307E-01  0.89216453635E+00  0.88000000000E+00 0.  1.
        -11    1    4    4    0    0 -0.81158874575E-02 -0.11840535863E-01  0.10130247043E-01  0.17576943560E-01  0.51100000000E-03 0.  1.
         11    1    4    4    0    0 -0.23928645529E-01 -0.10043190327E+00  0.42893127585E-01  0.11179994985E+00  0.51100000000E-03 0. -1.
</event>
<event>
 8    1  0.1213322E+005  0.1043930E+01  0.7957747E-01            NaN
         13   -1    0    0    0    0  0.00000000000E+00  0.00000000000E+00  0.74505805969E-08  0.10566000000E+00  0.10566000000E+00 0. -1.
     999900   -1    0    0    0    0 -0.00000000000E+00 -0.00000000000E+00 -0.74505805969E-08  0.93827000000E+00  0.93827000000E+00 0. -1.
     999902    2    1    2    0    0  0.15199304308E-01  0.10137404213E-01  0.11978866750E-01  0.10220832825E+01  0.10218497724E+01 0.  0.
     999903    2    3    3    0    0 -0.11784434238E+00  0.36324411058E-01 -0.37426245334E-01  0.13032813881E+00  0.19440886213E-01 0.  0.
         14    1    1    2    0    0 -0.15199304308E-01 -0.10137404213E-01 -0.11978866750E-01  0.21846717471E-01  0.00000000000E+00 0.  1.
     999901    1    3    3    0    0  0.13304364669E+00 -0.26187006845E-01  0.49405112084E-01  0.89175514372E+00  0.88000000000E+00 0.  1.
        -11    1    4    4    0    0 -0.14281852136E-01  0.96046243714E-02 -0.10002914148E-01  0.19913300133E-01  0.51100000000E-03 0. -1.
         11    1    4    4    0    0 -0.10356249024E+00  0.26719786687E-01 -0.27423331186E-01  0.11041483868E+00  0.51100000000E-03 0.  1.
</event>
<event>
 8    1  0.1213322E+005  0.1043930E+01  0.7957747E-01            NaN
         13   -1    0    0    0    0  0.00000000000E+00  0.00000000000E+00  0.74505805969E-08  0.10566000000E+00  0.10566000000E+00 0. -1.
     999900   -1    0    0    0    0 -0.00000000000E+00 -0.00000000000E+00 -0.74505805969E-08  0.93827000000E+00  0.93827000000E+00 0. -1.
     999902    2    1    2    0    0 -0.18642545832E-01  0.13161526678E-01  0.58032294953E-02  0.10203832853E+01  0.10201115631E+01 0.  0.
     999903    2    3    3    0    0  0.15224794841E-01 -0.12411608249E+00 -0.22451364448E-01  0.12864876159E+00  0.20244598796E-01 0.  0.
         14    1    1    2    0    0  0.18642545832E-01 -0.13161526678E-01 -0.58032294953E-02  0.23546714679E-01  0.00000000000E+00 0. -1.
     999901    1    3    3    0    0 -0.33867340673E-01  0.13727760917E+00  0.28254593944E-01  0.89173452374E+00  0.88000000000E+00 0. -1.
        -11    1    4    4    0    0  0.70378901519E-03 -0.83213721157E-01 -0.13040538026E-01  0.84233814236E-01  0.51100000000E-03 0.  1.
         11    1    4    4    0    0  0.14521005826E-01 -0.40902361336E-01 -0.94108264220E-02  0.44414947349E-01  0.51100000000E-03 0. -1.
</event>
<event>
 8    1  0.1213322E+005  0.1043930E+01  0.7957747E-01            NaN
         13   -1    0    0    0    0  0.00000000000E+00  0.00000000000E+00  0.74505805969E-08  0.10566000000E+00  0.10566000000E+00 0. -1.
     999900   -1    0    0    0    0 -0.00000000000E+00 -0.00000000000E+00 -0.74505805969E-08  0.93827000000E+00  0.93827000000E+00 0. -1.
     999902    2    1    2    0    0 -0.83788876452E-02  0.17520449002E-01  0.13039586689E-01  0.10205376356E+01  0.10202695051E+01 0.  0.
     999903    2    3    3    0    0  0.70382654820E-01 -0.40322901969E-01  0.10062875079E+00  0.13080672375E+00  0.20114645689E-01 0.  0.
         14    1    1    2    0    0  0.83788876452E-02 -0.17520449002E-01 -0.13039586689E-01  0.23392364405E-01  0.00000000000E+00 0.  1.
     999901    1    3    3    0    0 -0.78761542466E-01  0.57843350971E-01 -0.87589164096E-01  0.88973091184E+00  0.88000000000E+00 0. -1.
        -11    1    4    4    0    0  0.16869594650E-01 -0.13230968367E-01  0.40770096106E-01  0.46066295760E-01  0.51100000000E-03 0.  1.
         11    1    4    4    0    0  0.53513060170E-01 -0.27091933602E-01  0.59858654680E-01  0.84740427991E-01  0.51100000000E-03 0. -1.
</event>
<event>
 8    1  0.1213322E+005  0.1043930E+01  0.7957747E-01            NaN
         13   -1    0    0    0    0  0.00000000000E+00  0.00000000000E+00  0.74505805969E-08  0.10566000000E+00  0.10566000000E+00 0.  1.
     999900   -1    0    0    0    0 -0.00000000000E+00 -0.00000000000E+00 -0.74505805969E-08  0.93827000000E+00  0.93827000000E+00 0.  1.
     999902    2    1    2    0    0 -0.15185094827E-01 -0.16780173811E-01 -0.71723253540E-02  0.10201896632E+01  0.10199134009E+01 0.  0.
     999903    2    3    3    0    0 -0.25296827367E-01 -0.97740628205E-01  0.82511277243E-01  0.13187666048E+00  0.19753046115E-01 0.  0.
         14    1    1    2    0    0  0.15185094827E-01  0.16780173811E-01  0.71723253540E-02  0.23740336750E-01  0.00000000000E+00 0.  1.
     999901    1    3    3    0    0  0.10111732539E-01  0.80960454395E-01 -0.89683602598E-01  0.88831300277E+00  0.88000000000E+00 0. -1.
        -11    1    4    4    0    0 -0.16078981271E-01 -0.84656483967E-01  0.74780843527E-01  0.11409509015E+00  0.51100000000E-03 0.  1.
         11    1    4    4    0    0 -0.92178460958E-02 -0.13084144238E-01  0.77304337167E-02  0.17781570334E-01  0.51100000000E-03 0. -1.
</event>
<event>
 8    1  0.1213322E+005  0.1043930E+01  0.7957747E-01            NaN
         13   -1    0    0    0    0  0.00000000000E+00  0.00000000000E+00  0.74505805969E-08  0.10566000000E+00  0.10566000000E+00 0.  1.
     999900   -1    0    0    0    0 -0.00000000000E+00 -0.00000000000E+00 -0.74505805969E-08  0.93827000000E+00  0.93827000000E+00 0.  1.
     999902    2    1    2    0    0  0.22828947349E-01 -0.26166216810E-02  0.30199155569E-03  0.10209496009E+01  0.10206909369E+01 0.  0.
     999903    2    3    3    0    0 -0.12118942575E+00 -0.73912195872E-02  0.36602345115E-01  0.12849130813E+00  0.20706944630E-01 0.  0.
         14    1    1    2    0    0 -0.22828947349E-01  0.26166216810E-02 -0.30199155569E-03  0.22980399147E-01  0.00000000000E+00 0.  1.
     999901    1    3    3    0    0  0.14401837310E+00  0.47745979061E-02 -0.36300353559E-01  0.89245829272E+00  0.88000000000E+00 0.  1.
        -11    1    4    4    0    0 -0.56160946774E-01 -0.40057977211E-02  0.62671715572E-02  0.56653657589E-01  0.51100000000E-03 0.  1.
         11    1    4    4    0    0 -0.65028478981E-01 -0.33854218661E-02  0.30335173558E-01  0.71837650543E-01  0.51100000000E-03 0. -1.
</event>
<event>
 8    1  0.1213322E+005  0.1043930E+01  0.7957747E-01            NaN
         13   -1    0    0    0    0  0.00000000000E+00  0.00000000000E+00  0.74505805969E-08  0.10566000000E+00  0.10566000000E+00 0.  1.
     999900   -1    0    0    0    0 -0.00000000000E+00 -0.00000000000E+00 -0.74505805969E-08  0.93827000000E+00  0.93827000000E+00 0.  1.
     999902    2    1    2    0    0 -0.82069016486E-02  0.21605493173E-01  0.76373938872E-02  0.10195890806E+01  0.10192984906E+01 0.  0.
     999903    2    3    3    0    0  0.54207500015E-01  0.30183323024E-01  0.11360303533E+00  0.13099589258E+00  0.20119348634E-01 0.  0.
         14    1    1    2    0    0  0.82069016486E-02 -0.21605493173E-01 -0.76373938872E-02  0.24340919360E-01  0.00000000000E+00 0. -1.
     999901    1    3    3    0    0 -0.62414401664E-01 -0.85778298514E-02 -0.10596564144E+00  0.88859318806E+00  0.88000000000E+00 0.  1.
        -11    1    4    4    0    0  0.34403013629E-01  0.10521216129E-01  0.50608981220E-01  0.62095035524E-01  0.51100000000E-03 0.  1.
         11    1    4    4    0    0  0.19804486386E-01  0.19662106895E-01  0.62994054112E-01  0.68900857056E-01  0.51100000000E-03 0. -1.
</event>
<event>
 8    1  0.1213322E+005  0.1043930E+01  0.7957747E-01            NaN
         13   -1    0    0    0    0  0.00000000000E+00  0.00000000000E+00  0.74505805969E-08  0.10566000000E+00  0.10566000000E+00 0.  1.
     999900   -1    0    0    0    0 -0.00000000000E+00 -0.00000000000E+00 -0.74505805969E-08  0.93827000000E+00  0.93827000000E+00 0. -1.
     999902    2    1    2    0    0  0.58977597050E-02 -0.12351146740E-01  0.19712912880E-01  0.10199313890E+01  0.10196490107E+01 0.  0.
     999903    2    3    3    0    0 -0.10822407225E+00  0.28446790718E-01  0.64091517780E-01  0.13051712962E+00  0.20132778139E-01 0.  0.
         14    1    1    2    0    0 -0.58977597050E-02  0.12351146740E-01 -0.19712912880E-01  0.23998610992E-01  0.00000000000E+00 0. -1.
     999901    1    3    3    0    0  0.11412183196E+00 -0.40797937458E-01 -0.44378604900E-01  0.88941425939E+00  0.88000000000E+00 0.  1.
        -11    1    4    4    0    0 -0.41634610016E-01  0.20738733256E-01  0.29502259276E-01  0.55083393429E-01  0.51100000000E-03 0.  1.
         11    1    4    4    0    0 -0.66589462236E-01  0.77080574625E-02  0.34589258504E-01  0.75433736190E-01  0.51100000000E-03 0. -1.
</event>
<event>
 8    1  0.1213322E+005  0.1043930E+01  0.7957747E-01            NaN
         13   -1    0    0    0    0  0.00000000000E+00  0.00000000000E+00  0.74505805969E-08  0.10566000000E+00  0.10566000000E+00 0. -1.
     999900   -1    0    0    0    0 -0.00000000000E+00 -0.00000000000E+00 -0.74505805969E-08  0.93827000000E+00  0.93827000000E+00 0. -1.
     999902    2    1    2    0    0 -0.19375178296E-01 -0.82629061071E-02  0.12713843135E-01  0.10193268506E+01  0.10190298884E+01 0.  0.
     999903    2    3    3    0    0  0.10339223438E+00  0.65793165745E-01 -0.25516238346E-01  0.12690448509E+00  0.20856057330E-01 0.  0.
         14    1    1    2    0    0  0.19375178296E-01  0.82629061071E-02 -0.12713843135E-01  0.24603149364E-01  0.00000000000E+00 0. -1.
     999901    1    3    3    0    0 -0.12276741268E+00 -0.74056071852E-01  0.38230081482E-01  0.89242236554E+00  0.88000000000E+00 0.  1.
        -11    1    4    4    0    0  0.46096442650E-01  0.36320913029E-01 -0.34225688627E-02  0.58788313863E-01  0.51100000000E-03 0. -1.
         11    1    4    4    0    0  0.57295791734E-01  0.29472252716E-01 -0.22093669484E-01  0.68116171228E-01  0.51100000000E-03 0.  1.
</event>
<event>
 8    1  0.1213322E+005  0.1043930E+01  0.7957747E-01            NaN
         13   -1    0    0    0    0  0.00000000000E+00  0.00000000000E+00  0.74505805969E-08  0.10566000000E+00  0.10566000000E+00 0.  1.
     999900   -1    0    0    0    0 -0.00000000000E+00 -0.00000000000E+00 -0.74505805969E-08  0.93827000000E+00  0.93827000000E+00 0.  1.
     999902    2    1    2    0    0 -0.10889846031E-01 -0.21709711574E-01  0.28336772848E-03  0.10196404833E+01  0.10193511341E+01 0.  0.
     999903    2    3    3    0    0 -0.92560543158E-01 -0.90575104855E-01  0.22231247907E-01  0.13290813667E+00  0.19976001588E-01 0.  0.
         14    1    1    2    0    0  0.10889846031E-01  0.21709711574E-01 -0.28336772848E-03  0.24289516678E-01  0.00000000000E+00 0.  1.
     999901    1    3    3    0    0  0.81670697127E-01  0.68865393281E-01 -0.21947880178E-01  0.88673234666E+00  0.88000000000E+00 0.  1.
        -11    1    4    4    0    0 -0.27735114271E-02 -0.11139692542E-02  0.37444257216E-02  0.48182090158E-02  0.51100000000E-03 0. -1.
         11    1    4    4    0    0 -0.89787031731E-01 -0.89461135600E-01  0.18486822185E-01  0.12808992765E+00  0.51100000000E-03 0.  1.
</event>
<event>
 8    1  0.1213322E+005  0.1043930E+01  0.7957747E-01            NaN
         13   -1    0    0    0    0  0.00000000000E+00  0.00000000000E+00  0.74505805969E-08  0.10566000000E+00  0.10566000000E+00 0.  1.
     999900   -1    0    0    0    0 -0.00000000000E+00 -0.00000000000E+00 -0.74505805969E-08  0.93827000000E+00  0.93827000000E+00 0. -1.
     999902    2    1    2    0    0  0.79092713672E-03  0.17545492293E-01  0.15147251573E-01  0.10207371327E+01  0.10204736081E+01 0.  0.
     999903    2    3    3    0    0 -0.73472608018E-01  0.93704198712E-01 -0.52824117978E-01  0.13172907403E+00  0.19582147982E-01 0.  0.
         14    1    1    2    0    0 -0.79092713672E-03 -0.17545492293E-01 -0.15147251573E-01  0.23192867347E-01  0.00000000000E+00 0. -1.
     999901    1    3    3    0    0  0.74263535155E-01 -0.76158706419E-01  0.67971369551E-01  0.88900805862E+00  0.88000000000E+00 0.  1.
        -11    1    4    4    0    0 -0.21027266462E-01  0.15019547108E-01 -0.78134754065E-02  0.27000819415E-01  0.51100000000E-03 0. -1.
         11    1    4    4    0    0 -0.52445341557E-01  0.78684651604E-01 -0.45010642571E-01  0.10472825462E+00  0.51100000000E-03 0.  1.
</event>
<event>
 8    1  0.1213322E+005  0.1043930E+01  0.7957747E-01            NaN
         13   -1    0    0    0    0  0.00000000000E+00  0.00000000000E+00  0.74505805969E-08  0.10566000000E+00  0.10566000000E+00 0.  1.
     999900   -1    0    0    0    0 -0.00000000000E+00 -0.00000000000E+00 -0.74505805969E-08  0.93827000000E+00  0.93827000000E+00 0. -1.
     999902    2    1    2    0    0  0.30386798943E-02  0.22136894948E-01 -0.80004262903E-02  0.10201964264E+01  0.10199203234E+01 0.  0.
     999903    2    3    3    0    0 -0.12629617067E+00  0.84030927120E-02  0.22378103544E-01  0.13011835347E+00  0.20215630021E-01 0.  0.
         14    1    1    2    0    0 -0.30386798943E-02 -0.22136894948E-01  0.80004262903E-02  0.23733573567E-01  0.00000000000E+00 0.  1.
     999901    1    3    3    0    0  0.12933485057E+00  0.13733802236E-01 -0.30378529834E-01  0.89007807296E+00  0.88000000000E+00 0.  1.
        -11    1    4    4    0    0 -0.10290142653E+00 -0.11187975981E-02  0.18521419527E-01  0.10456222737E+00  0.51100000000E-03 0. -1.
         11    1    4    4    0    0 -0.23394744145E-01  0.95218903101E-02  0.38566840166E-02  0.25556126101E-01  0.51100000000E-03 0.  1.
</event>
<event>
 8    1  0.1213322E+005  0.1043930E+01  0.7957747E-01            NaN
         13   -1    0    0    0    0  0.00000000000E+00  0.00000000000E+00  0.74505805969E-08  0.10566000000E+00  0.10566000000E+00 0.  1.
     999900   -1    0    0    0    0 -0.00000000000E+00 -0.00000000000E+00 -0.74505805969E-08  0.93827000000E+00  0.93827000000E+00 0.  1.
     999902    2    1    2    0    0 -0.13242255615E-01  0.10570843693E-01  0.15850052492E-01  0.10207281847E+01  0.10204644544E+01 0.  0.
     999903    2    3    3    0    0 -0.30125270904E-01  0.11223469457E+00 -0.57895873441E-01  0.13165055231E+00  0.21812316503E-01 0.  0.
         14    1    1    2    0    0  0.13242255615E-01 -0.10570843693E-01 -0.15850052492E-01  0.23201815320E-01  0.00000000000E+00 0. -1.
     999901    1    3    3    0    0  0.16883015289E-01 -0.10166385088E+00  0.73745925933E-01  0.88907763237E+00  0.88000000000E+00 0. -1.
        -11    1    4    4    0    0  0.14808886754E-03  0.13160853456E-01 -0.42152910452E-03  0.13178345942E-01  0.51100000000E-03 0.  1.
         11    1    4    4    0    0 -0.30273359771E-01  0.99073841114E-01 -0.57474344336E-01  0.11847220637E+00  0.51100000000E-03 0. -1.
</event>
<event>
 8    1  0.1213322E+005  0.1043930E+01  0.7957747E-01            NaN
         13   -1    0    0    0    0  0.00000000000E+00  0.00000000000E+00  0.74505805969E-08  0.10566000000E+00  0.10566000000E+00 0. -1.
     999900   -1    0    0    0    0 -0.00000000000E+00 -0.00000000000E+00 -0.74505805969E-08  0.93827000000E+00  0.93827000000E+00 0.  1.
     999902    2    1    2    0    0 -0.74912601645E-02 -0.19654683315E-01 -0.12657601004E-01  0.10193812644E+01  0.10190856303E+01 0.  0.
     999903    2    3    3    0    0 -0.50324662733E-01 -0.59808425241E-01 -0.10549694121E+00  0.13255198748E+00  0.18188055698E-01 0.  0.
         14    1    1    2    0    0  0.74912601645E-02  0.19654683315E-01  0.12657601004E-01  0.24548735573E-01  0.00000000000E+00 0. -1.
     999901    1    3    3    0    0  0.42833402568E-01  0.40153741926E-01  0.92839340208E-01  0.88682927695E+00  0.88000000000E+00 0. -1.
        -11    1    4    4    0    0 -0.16046753971E-01 -0.22842813355E-01 -0.52136802215E-01  0.59142198989E-01  0.51100000000E-03 0. -1.
         11    1    4    4    0    0 -0.34277908762E-01 -0.36965611886E-01 -0.53360138996E-01  0.73409788488E-01  0.51100000000E-03 0.  1.
</event>
<event>
 8    1  0.1213322E+005  0.1043930E+01  0.7957747E-01            NaN
         13   -1    0    0    0    0  0.00000000000E+00  0.00000000000E+00  0.74505805969E-08  0.10566000000E+00  0.10566000000E+00 0.  1.
     999900   -1    0    0    0    0 -0.00000000000E+00 -0.00000000000E+00 -0.74505805969E-08  0.93827000000E+00  0.93827000000E+00 0.  1.
     999902    2    1    2    0    0  0.79882414005E-02 -0.12965879235E-01  0.18248043232E-01  0.10201620151E+01  0.10198851013E+01 0.  0.
     999903    2    3    3    0    0  0.15449300935E-01  0.12601521855E+00 -0.88992076655E-02  0.12881001605E+00  0.19857193497E-01 0.  0.
         14    1    1    2    0    0 -0.79882414005E-02  0.12965879235E-01 -0.18248043232E-01  0.23767984913E-01  0.00000000000E+00 0. -1.
     999901    1    3    3    0    0 -0.74610595345E-02 -0.13898109778E+00  0.27147250898E-01  0.89135199903E+00  0.88000000000E+00 0. -1.
        -11    1    4    4    0    0  0.15612875511E-02  0.78999047156E-01 -0.10772804736E-01  0.79747109749E-01  0.51100000000E-03 0. -1.
         11    1    4    4    0    0  0.13888013384E-01  0.47016171391E-01  0.18735970706E-02  0.49062906304E-01  0.51100000000E-03 0.  1.
</event>
<event>
 8    1  0.1213322E+005  0.1043930E+01  0.7957747E-01            NaN
         13   -1    0    0    0    0  0.00000000000E+00  0.00000000000E+00  0.74505805969E-08  0.10566000000E+00  0.10566000000E+00 0.  1.
     999900   -1    0    0    0    0 -0.00000000000E+00 -0.00000000000E+00 -0.74505805969E-08  0.93827000000E+00  0.93827000000E+00 0. -1.
     999902    2    1    2    0    0  0.18388151474E-01  0.15286304146E-01  0.40102951690E-02  0.10196838111E+01  0.10193955056E+01 0.  0.
     999903    2    3    3    0    0  0.82364819259E-01  0.10209182437E+00 -0.10518625995E-01  0.13298245105E+00  0.19156897963E-01 0.  0.
         14    1    1    2    0    0 -0.18388151474E-01 -0.15286304146E-01 -0.40102951690E-02  0.24246188905E-01  0.00000000000E+00 0.  1.
     999901    1    3    3    0    0 -0.63976667786E-01 -0.86805520219E-01  0.14528921164E-01  0.88670136005E+00  0.88000000000E+00 0. -1.
        -11    1    4    4    0    0  0.51861357376E-01  0.78000290761E-01 -0.62933616986E-02  0.93880313539E-01  0.51100000000E-03 0.  1.
         11    1    4    4    0    0  0.30503461883E-01  0.24091533605E-01 -0.42252642969E-02  0.39102137508E-01  0.51100000000E-03 0. -1.
</event>
<event>
 8    1  0.1213322E+005  0.1043930E+01  0.7957747E-01            NaN
         13   -1    0    0    0    0  0.00000000000E+00  0.00000000000E+00  0.74505805969E-08  0.10566000000E+00  0.10566000000E+00 0.  1.
     999900   -1    0    0    0    0 -0.00000000000E+00 -0.00000000000E+00 -0.74505805969E-08  0.93827000000E+00  0.93827000000E+00 0.  1.
     999902    2    1    2    0    0 -0.16688540085E-01  0.15134111290E-01 -0.65760837252E-02  0.10204610083E+01  0.10201910977E+01 0.  0.
     999903    2    3    3    0    0 -0.10815777229E-01  0.12758797524E+00  0.28062685911E-01  0.13260955381E+00  0.20052604779E-01 0.  0.
         14    1    1    2    0    0  0.16688540085E-01 -0.15134111290E-01  0.65760837252E-02  0.23468991710E-01  0.00000000000E+00 0.  1.
     999901    1    3    3    0    0 -0.58727628560E-02 -0.11245386395E+00 -0.34638769636E-01  0.88785145448E+00  0.88000000000E+00 0.  1.
        -11    1    4    4    0    0  0.29424383166E-02  0.14950992753E-01  0.85146816808E-02  0.17462847782E-01  0.51100000000E-03 0.  1.
         11    1    4    4    0    0 -0.13758215546E-01  0.11263698249E+00  0.19548004230E-01  0.11514670603E+00  0.51100000000E-03 0. -1.
</event>
<event>
 8    1  0.1213322E+005  0.1043930E+01  0.7957747E-01            NaN
         13   -1    0    0    0    0  0.00000000000E+00  0.00000000000E+00  0.74505805969E-08  0.10566000000E+00  0.10566000000E+00 0. -1.
     999900   -1    0    0    0    0 -0.00000000000E+00 -0.00000000000E+00 -0.74505805969E-08  0.93827000000E+00  0.93827000000E+00 0. -1.
     999902    2    1    2    0    0 -0.20291392541E-01 -0.11560681093E-01  0.32475832784E-02  0.10203516889E+01  0.10200792284E+01 0.  0.
     999903    2    3    3    0    0  0.64998172551E-01  0.10836799785E+00  0.15006935340E-02  0.12812960353E+00  0.21131914873E-01 0.  0.
         14    1    1    2    0    0  0.20291392541E-01  0.11560681093E-01 -0.32475832784E-02  0.23578311129E-01  0.00000000000E+00 0. -1.
     999901    1    3    3    0    0 -0.85289565091E-01 -0.11992867894E+00  0.17468897444E-02  0.89222208534E+00  0.88000000000E+00 0.  1.
        -11    1    4    4    0    0  0.12747182324E-01  0.29207411754E-01  0.86024207909E-02  0.33012517672E-01  0.51100000000E-03 0.  1.
         11    1    4    4    0    0  0.52250990227E-01  0.79160586098E-01 -0.71017272569E-02  0.95117085857E-01  0.51100000000E-03 0. -1.
</event>
<event>
 8    1  0.1213322E+005  0.1043930E+01  0.7957747E-01            NaN
         13   -1    0    0    0    0  0.00000000000E+00  0.00000000000E+00  0.74505805969E-08  0.10566000000E+00  0.10566000000E+00 0. -1.
     999900   -1    0    0    0    0 -0.00000000000E+00 -0.00000000000E+00 -0.74505805969E-08  0.93827000000E+00  0.93827000000E+00 0. -1.
     999902    2    1    2    0    0 -0.24995172872E-02 -0.50509478514E-02 -0.18349314845E-01  0.10247347658E+01  0.10245549684E+01 0.  0.
     999903    2    3    3    0    0  0.10824003973E-01  0.12698163914E+00  0.33565191172E-01  0.13327235146E+00  0.19834360714E-01 0.  0.
         14    1    1    2    0    0  0.24995172872E-02  0.50509478514E-02  0.18349314845E-01  0.19195234204E-01  0.00000000000E+00 0. -1.
     999901    1    3    3    0    0 -0.13323521260E-01 -0.13203258699E+00 -0.51914506016E-01  0.89146241434E+00  0.88000000000E+00 0. -1.
        -11    1    4    4    0    0  0.14094686744E-02  0.10075138906E+00  0.30234085241E-01  0.10520071307E+00  0.51100000000E-03 0.  1.
         11    1    4    4    0    0  0.94145352986E-02  0.26230250078E-01  0.33311059309E-02  0.28071638387E-01  0.51100000000E-03 0. -1.
</event>
<event>
 8    1  0.1213322E+005  0.1043930E+01  0.7957747E-01            NaN
         13   -1    0    0    0    0  0.00000000000E+00  0.00000000000E+00  0.74505805969E-08  0.10566000000E+00  0.10566000000E+00 0.  1.
     999900   -1    0    0    0    0 -0.00000000000E+00 -0.00000000000E+00 -0.74505805969E-08  0.93827000000E+00  0.93827000000E+00 0.  1.
     999902    2    1    2    0    0  0.19320106825E-01 -0.11776778241E-01  0.14012725915E-01  0.10173158023E+01  0.10169676131E+01 0.  0.
     999903    2    3    3    0    0  0.97221618057E-01 -0.72820568701E-01  0.45072328121E-01  0.13122343197E+00  0.20813363310E-01 0.  0.
         14    1    1    2    0    0 -0.19320106825E-01  0.11776778241E-01 -0.14012725915E-01  0.26614197735E-01  0.00000000000E+00 0. -1.
     999901    1    3    3    0    0 -0.77901511232E-01  0.61043790460E-01 -0.31059602205E-01  0.88609237030E+00  0.88000000000E+00 0. -1.
        -11    1    4    4    0    0  0.56903875558E-01 -0.46429480826E-01  0.16760124923E-01  0.75332002839E-01  0.51100000000E-03 0.  1.
         11    1    4    4    0    0  0.40317742499E-01 -0.26391087875E-01  0.28312203197E-01  0.55891429131E-01  0.51100000000E-03 0. -1.
</event>
<event>
 8    1  0.1213322E+005  0.1043930E+01  0.7957747E-01            NaN
         13   -1    0    0    0    0  0.00000000000E+00  0.00000000000E+00  0.74505805969E-08  0.10566000000E+00  0.10566000000E+00 0.  1.
     999900   -1    0    0    0    0 -0.00000000000E+00 -0.00000000000E+00 -0.74505805969E-08  0.93827000000E+00  0.93827000000E+00 0. -1.
     999902    2    1    2    0    0 -0.18372259251E-01  0.12929589216E-01 -0.87878976954E-02  0.10198065398E+01  0.10195211804E+01 0.  0.
     999903    2    3    3    0    0  0.55813552102E-01 -0.37973419287E-01 -0.10892954007E+00  0.12956893137E+00  0.19113610479E-01 0.  0.
         14    1    1    2    0    0  0.18372259251E-01 -0.12929589216E-01  0.87878976954E-02  0.24123460224E-01  0.00000000000E+00 0.  1.
     999901    1    3    3    0    0 -0.74185811353E-01  0.50903008503E-01  0.10014164238E+00  0.89023760841E+00  0.88000000000E+00 0.  1.
        -11    1    4    4    0    0  0.31665299053E-01 -0.21499028632E-01 -0.43741737781E-01  0.58124866807E-01  0.51100000000E-03 0. -1.
         11    1    4    4    0    0  0.24148253049E-01 -0.16474390656E-01 -0.65187802292E-01  0.71444064564E-01  0.51100000000E-03 0.  1.
</event>
<event>
 8    1  0.1213322E+005  0.1043930E+01  0.7957747E-01            NaN
         13   -1    0    0    0    0  0.00000000000E+00  0.00000000000E+00  0.74505805969E-08  0.10566000000E+00  0.10566000000E+00 0. -1.
     999900   -1    0    0    0    0 -0.00000000000E+00 -0.00000000000E+00 -0.74505805969E-08  0.93827000000E+00  0.93827000000E+00 0. -1.
     999902    2    1    2    0    0  0.14884743533E-01 -0.22098930593E-01 -0.78501024244E-02  0.10161533474E+01  0.10157736376E+01 0.  0.
     999903    2    3    3    0    0  0.83056188989E-01 -0.84654309974E-01  0.47327487711E-01  0.12958406755E+00  0.22078422563E-01 0.  0.
         14    1    1    2    0    0 -0.14884743533E-01  0.22098930593E-01  0.78501024244E-02  0.27776652632E-01  0.00000000000E+00 0. -1.
     999901    1    3    3    0    0 -0.68171445456E-01  0.62555379382E-01 -0.55177590135E-01  0.88656927982E+00  0.88000000000E+00 0. -1.
        -11    1    4    4    0    0  0.50932055074E-01 -0.61207325025E-01  0.40111853210E-01  0.89160713095E-01  0.51100000000E-03 0.  1.
         11    1    4    4    0    0  0.32124133916E-01 -0.23446984949E-01  0.72156345013E-02  0.40423354454E-01  0.51100000000E-03 0. -1.
</event>
<event>
 8    1  0.1213322E+005  0.1043930E+01  0.7957747E-01            NaN
         13   -1    0    0    0    0  0.00000000000E+00  0.00000000000E+00  0.74505805969E-08  0.10566000000E+00  0.10566000000E+00 0.  1.
     999900   -1    0    0    0    0 -0.00000000000E+00 -0.00000000000E+00 -0.74505805969E-08  0.93827000000E+00  0.93827000000E+00 0. -1.
     999902    2    1    2    0    0  0.10359294526E-01  0.19105658930E-01 -0.29201542926E-02  0.10220012862E+01  0.10217660009E+01 0.  0.
     999903    2    3    3    0    0 -0.11834556426E+00  0.41990537923E-01  0.33637574864E-01  0.13159400531E+00  0.20411220848E-01 0.  0.
         14    1    1    2    0    0 -0.10359294526E-01 -0.19105658930E-01  0.29201542926E-02  0.21928713763E-01  0.00000000000E+00 0. -1.
     999901    1    3    3    0    0  0.12870485879E+00 -0.22884878994E-01 -0.36557729157E-01  0.89040728092E+00  0.88000000000E+00 0.  1.
        -11    1    4    4    0    0 -0.49071916318E-01  0.28107483044E-01  0.15971731605E-01  0.58765984257E-01  0.51100000000E-03 0.  1.
         11    1    4    4    0    0 -0.69273647941E-01  0.13883054880E-01  0.17665843259E-01  0.72828021056E-01  0.51100000000E-03 0. -1.
</event>
<event>
 8    1  0.1213322E+005  0.1043930E+01  0.7957747E-01            NaN
         13   -1    0    0    0    0  0.00000000000E+00  0.00000000000E+00  0.74505805969E-08  0.10566000000E+00  0.10566000000E+00 0. -1.
     999900   -1    0    0    0    0 -0.00000000000E+00 -0.00000000000E+00 -0.74505805969E-08  0.93827000000E+00  0.93827000000E+00 0.  1.
     999902    2    1    2    0    0 -0.48846026321E-02  0.11163926879E-01 -0.20001065111E-01  0.10205091714E+01  0.10202403804E+01 0.  0.
     999903    2    3    3    0    0 -0.21819249695E-01  0.45866611554E-01  0.11709735188E+00  0.12905696600E+00  0.19081010001E-01 0.  0.
         14    1    1    2    0    0  0.48846026321E-02 -0.11163926879E-01  0.20001065111E-01  0.23420828589E-01  0.00000000000E+00 0.  1.
     999901    1    3    3    0    0  0.16934647063E-01 -0.34702684675E-01 -0.13709841699E+00  0.89145220541E+00  0.88000000000E+00 0.  1.
        -11    1    4    4    0    0  0.20472236821E-02  0.92304528614E-02  0.12452588157E-01  0.15643543641E-01  0.51100000000E-03 0.  1.
         11    1    4    4    0    0 -0.23866473377E-01  0.36636158692E-01  0.10464476372E+00  0.11341342236E+00  0.51100000000E-03 0. -1.
</event>
<event>
 8    1  0.1213322E+005  0.1043930E+01  0.7957747E-01            NaN
         13   -1    0    0    0    0  0.00000000000E+00  0.00000000000E+00  0.74505805969E-08  0.10566000000E+00  0.10566000000E+00 0. -1.
     999900   -1    0    0    0    0 -0.00000000000E+00 -0.00000000000E+00 -0.74505805969E-08  0.93827000000E+00  0.93827000000E+00 0.  1.
     999902    2    1    2    0    0  0.22221139446E-01 -0.58902657662E-02  0.81027228573E-02  0.10195552510E+01  0.10192638429E+01 0.  0.
     999903    2    3    3    0    0  0.11727834528E+00 -0.50941249001E-01  0.29673348586E-01  0.13302789367E+00  0.21603049688E-01 0.  0.
         14    1    1    2    0    0 -0.22221139446E-01  0.58902657662E-02 -0.81027228573E-02  0.24374748959E-01  0.00000000000E+00 0.  1.
     999901    1    3    3    0    0 -0.95057205838E-01  0.45050983235E-01 -0.21570625729E-01  0.88652735737E+00  0.88000000000E+00 0.  1.
        -11    1    4    4    0    0  0.10417147406E+00 -0.38749236266E-01  0.29975698225E-01  0.11511734415E+00  0.51100000000E-03 0.  1.
         11    1    4    4    0    0  0.13106871221E-01 -0.12192012735E-01 -0.30234963866E-03  0.17910549518E-01  0.51100000000E-03 0. -1.
</event>
<event>
 8    1  0.1213322E+005  0.1043930E+01  0.7957747E-01            NaN
         13   -1    0    0    0    0  0.00000000000E+00  0.00000000000E+00  0.74505805969E-08  0.10566000000E+00  0.10566000000E+00 0. -1.
     999900   -1    0    0    0    0 -0.00000000000E+00 -0.00000000000E+00 -0.74505805969E-08  0.93827000000E+00  0.93827000000E+00 0. -1.
     999902    2    1    2    0    0 -0.92126792058E-02 -0.49484341692E-02  0.22193821397E-01  0.10193958164E+01  0.10191005369E+01 0.  0.
     999903    2    3    3    0    0  0.71018355296E-01 -0.35158820899E-01  0.10303947181E+00  0.13154126433E+00  0.20154949652E-01 0.  0.
         14    1    1    2    0    0  0.92126792058E-02  0.49484341692E-02 -0.22193821397E-01  0.24534183644E-01  0.00000000000E+00 0.  1.
     999901    1    3    3    0    0 -0.80231034502E-01  0.30210386730E-01 -0.80845650408E-01  0.88785455203E+00  0.88000000000E+00 0. -1.
        -11    1    4    4    0    0  0.85167856893E-02 -0.12789856263E-01  0.18690207491E-01  0.24201261099E-01  0.51100000000E-03 0. -1.
         11    1    4    4    0    0  0.62501569607E-01 -0.22368964636E-01  0.84349264314E-01  0.10734000323E+00  0.51100000000E-03 0.  1.
</event>
<event>
 8    1  0.1213322E+005  0.1043930E+01  0.7957747E-01            NaN
         13   -1    0    0    0    0  0.00000000000E+00  0.00000000000E+00  0.74505805969E-08  0.10566000000E+00  0.10566000000E+00 0. -1.
     999900   -1    0    0    0    0 -0.00000000000E+00 -0.00000000000E+00 -0.74505805969E-08  0.93827000000E+00  0.93827000000E+00 0. -1.
     999902    2    1    2    0    0  0.36831956927E-02 -0.14163979096E-01 -0.16298641692E-01  0.10220249788E+01  0.10217902071E+01 0.  0.
     999903    2    3    3    0    0 -0.43606458252E-01 -0.11794654713E+00  0.38051969593E-01  0.13300241339E+00  0.20706964948E-01 0.  0.
         14    1    1    2    0    0 -0.36831956927E-02  0.14163979096E-01  0.16298641692E-01  0.21905021236E-01  0.00000000000E+00 0. -1.
     999901    1    3    3    0    0  0.47289653944E-01  0.10378256803E+00 -0.54350611285E-01  0.88902256537E+00  0.88000000000E+00 0. -1.
        -11    1    4    4    0    0 -0.38484862212E-01 -0.94097983892E-01  0.22674211139E-01  0.10416283485E+00  0.51100000000E-03 0.  1.
         11    1    4    4    0    0 -0.51215960395E-02 -0.23848563235E-01  0.15377758455E-01  0.28839578541E-01  0.51100000000E-03 0. -1.
</event>
<event>
 8    1  0.1213322E+005  0.1043930E+01  0.7957747E-01            NaN
         13   -1    0    0    0    0  0.00000000000E+00  0.00000000000E+00  0.74505805969E-08  0.10566000000E+00  0.10566000000E+00 0.  1.
     999900   -1    0    0    0    0 -0.00000000000E+00 -0.00000000000E+00 -0.74505805969E-08  0.93827000000E+00  0.93827000000E+00 0.  1.
     999902    2    1    2    0    0 -0.92310190274E-02  0.35963815183E-02 -0.20999422224E-01  0.10207110120E+01  0.10204468867E+01 0.  0.
     999903    2    3    3    0    0  0.11664358245E+00 -0.35960442900E-01 -0.40788035673E-01  0.13065441438E+00  0.22539595462E-01 0.  0.
         14    1    1    2    0    0  0.92310190274E-02 -0.35963815183E-02  0.20999422224E-01  0.23218988049E-01  0.00000000000E+00 0.  1.
     999901    1    3    3    0    0 -0.12587460147E+00  0.39556824419E-01  0.19788613450E-01  0.89005659757E+00  0.88000000000E+00 0. -1.
        -11    1    4    4    0    0  0.82193936988E-01 -0.19018770901E-01 -0.18893627720E-01  0.86456851745E-01  0.51100000000E-03 0. -1.
         11    1    4    4    0    0  0.34449645459E-01 -0.16941671999E-01 -0.21894407954E-01  0.44197562636E-01  0.51100000000E-03 0.  1.
</event>
<event>
 8    1  0.1213322E+005  0.1043930E+01  0.7957747E-01            NaN
         13   -1    0    0    0    0  0.00000000000E+00  0.00000000000E+00  0.74505805969E-08  0.10566000000E+00  0.10566000000E+00 0.  1.
     999900   -1    0    0    0    0 -0.00000000000E+00 -0.00000000000E+00 -0.74505805969E-08  0.93827000000E+00  0.93827000000E+00 0.  1.
     999902    2    1    2    0    0 -0.68928898209E-03  0.25964833873E-01 -0.62777007762E-02  0.10172081504E+01  0.10168571011E+01 0.  0.
     999903    2    3    3    0    0 -0.64810107628E-01 -0.51534641004E-01  0.92709101478E-01  0.12596405648E+00  0.20391094939E-01 0.  0.
         14    1    1    2    0    0  0.68928898209E-03 -0.25964833873E-01  0.62777007762E-02  0.26721849569E-01  0.00000000000E+00 0.  1.
     999901    1    3    3    0    0  0.64120818646E-01  0.77499474877E-01 -0.98986802254E-01  0.89124409396E+00  0.88000000000E+00 0.  1.
        -11    1    4    4    0    0 -0.61304340360E-01 -0.40214512565E-01  0.77662503963E-01  0.10680428274E+00  0.51100000000E-03 0. -1.
         11    1    4    4    0    0 -0.35057672687E-02 -0.11320128439E-01  0.15046597515E-01  0.19159773741E-01  0.51100000000E-03 0.  1.
</event>
<event>
 8    1  0.1213322E+005  0.1043930E+01  0.7957747E-01            NaN
         13   -1    0    0    0    0  0.00000000000E+00  0.00000000000E+00  0.74505805969E-08  0.10566000000E+00  0.10566000000E+00 0.  1.
     999900   -1    0    0    0    0 -0.00000000000E+00 -0.00000000000E+00 -0.74505805969E-08  0.93827000000E+00  0.93827000000E+00 0. -1.
     999902    2    1    2    0    0 -0.35056798466E-02 -0.12419438830E-01  0.20576042723E-01  0.10196420238E+01  0.10193527118E+01 0.  0.
     999903    2    3    3    0    0 -0.12467287964E+00  0.29284082805E-01 -0.87887760978E-02  0.12987634310E+00  0.19741770136E-01 0.  0.
         14    1    1    2    0    0  0.35056798466E-02  0.12419438830E-01 -0.20576042723E-01  0.24287976165E-01  0.00000000000E+00 0.  1.
     999901    1    3    3    0    0  0.12116719980E+00 -0.41703521635E-01  0.29364818821E-01  0.88976568073E+00  0.88000000000E+00 0.  1.
        -11    1    4    4    0    0 -0.77880677078E-01  0.86028319800E-02 -0.72676856611E-02  0.78692369110E-01  0.51100000000E-03 0.  1.
         11    1    4    4    0    0 -0.46792202566E-01  0.20681250825E-01 -0.15210904368E-02  0.51183973993E-01  0.51100000000E-03 0. -1.
</event>
<event>
 8    1  0.1213322E+005  0.1043930E+01  0.7957747E-01            NaN
         13   -1    0    0    0    0  0.00000000000E+00  0.00000000000E+00  0.74505805969E-08  0.10566000000E+00  0.10566000000E+00 0. -1.
     999900   -1    0    0    0    0 -0.00000000000E+00 -0.00000000000E+00 -0.74505805969E-08  0.93827000000E+00  0.93827000000E+00 0.  1.
     999902    2    1    2    0    0  0.13144916170E-01 -0.12982150972E-01 -0.13548736166E-01  0.10210194497E+01  0.10207623736E+01 0.  0.
     999903    2    3    3    0    0 -0.59870316793E-01 -0.11579767323E+00 -0.56844679672E-02  0.13199520783E+00  0.19921489787E-01 0.  0.
         14    1    1    2    0    0 -0.13144916170E-01  0.12982150972E-01  0.13548736166E-01  0.22910550335E-01  0.00000000000E+00 0. -1.
     999901    1    3    3    0    0  0.73015232963E-01  0.10281552225E+00 -0.78642681984E-02  0.88902424184E+00  0.88000000000E+00 0.  1.
        -11    1    4    4    0    0 -0.19572766193E-01 -0.54324304328E-01  0.38513043316E-02  0.57873282983E-01  0.51100000000E-03 0. -1.
         11    1    4    4    0    0 -0.40297550600E-01 -0.61473368900E-01 -0.95357722988E-02  0.74121924844E-01  0.51100000000E-03 0.  1.
</event>
<event>
 8    1  0.1213322E+005  0.1043930E+01  0.7957747E-01            NaN
         13   -1    0    0    0    0  0.00000000000E+00  0.00000000000E+00  0.74505805969E-08  0.10566000000E+00  0.10566000000E+00 0. -1.
     999900   -1    0    0    0    0 -0.00000000000E+00 -0.00000000000E+00 -0.74505805969E-08  0.93827000000E+00  0.93827000000E+00 0.  1.
     999902    2    1    2    0    0  0.86852944314E-02 -0.18891397671E-01  0.54510103593E-02  0.10224350527E+01  0.10222090805E+01 0.  0.
     999903    2    3    3    0    0 -0.96508189195E-01  0.53770707428E-01  0.67548226233E-01  0.13103081515E+00  0.20029780127E-01 0.  0.
         14    1    1    2    0    0 -0.86852944314E-02  0.18891397671E-01 -0.54510103593E-02  0.21494947296E-01  0.00000000000E+00 0.  1.
     999901    1    3    3    0    0  0.10519348363E+00 -0.72662105099E-01 -0.62097215874E-01  0.89140423756E+00  0.88000000000E+00 0.  1.
        -11    1    4    4    0    0 -0.89499260079E-01  0.42917496705E-01  0.58050787782E-01  0.11498775657E+00  0.51100000000E-03 0. -1.
         11    1    4    4    0    0 -0.70089291157E-02  0.10853210723E-01  0.94974384514E-02  0.16043058576E-01  0.51100000000E-03 0.  1.
</event>
<event>
 8    1  0.1213322E+005  0.1043930E+01  0.7957747E-01            NaN
         13   -1    0    0    0    0  0.00000000000E+00  0.00000000000E+00  0.74505805969E-08  0.10566000000E+00  0.10566000000E+00 0.  1.
     999900   -1    0    0    0    0 -0.00000000000E+00 -0.00000000000E+00 -0.74505805969E-08  0.93827000000E+00  0.93827000000E+00 0. -1.
     999902    2    1    2    0    0 -0.21294097315E-01 -0.11000469212E-01 -0.65703272146E-03  0.10199533323E+01  0.10196714762E+01 0.  0.
     999903    2    3    3    0    0  0.28783493608E-01 -0.82201362702E-01 -0.95196160605E-01  0.13061932356E+00  0.20335809783E-01 0.  0.
         14    1    1    2    0    0  0.21294097315E-01  0.11000469212E-01  0.65703272146E-03  0.23976667728E-01  0.00000000000E+00 0. -1.
     999901    1    3    3    0    0 -0.50077590923E-01  0.71200893490E-01  0.94539127884E-01  0.88933400871E+00  0.88000000000E+00 0.  1.
        -11    1    4    4    0    0  0.12726041311E-01 -0.43215751251E-01 -0.34649265706E-01  0.56836484925E-01  0.51100000000E-03 0.  1.
         11    1    4    4    0    0  0.16057452297E-01 -0.38985611451E-01 -0.60546894899E-01  0.73782838637E-01  0.51100000000E-03 0. -1.
</event>
<event>
 8    1  0.1213322E+005  0.1043930E+01  0.7957747E-01            NaN
         13   -1    0    0    0    0  0.00000000000E+00  0.00000000000E+00  0.74505805969E-08  0.10566000000E+00  0.10566000000E+00 0.  1.
     999900   -1    0    0    0    0 -0.00000000000E+00 -0.00000000000E+00 -0.74505805969E-08  0.93827000000E+00  0.93827000000E+00 0.  1.
     999902    2    1    2    0    0  0.13314884737E-01  0.76375040343E-02  0.17311994717E-01  0.10207929564E+01  0.10205307135E+01 0.  0.
     999903    2    3    3    0    0 -0.15177492053E-02  0.12491044586E+00  0.39254961104E-01  0.13261817427E+00  0.21016782063E-01 0.  0.
         14    1    1    2    0    0 -0.13314884737E-01 -0.76375040343E-02 -0.17311994717E-01  0.23137043556E-01  0.00000000000E+00 0.  1.
     999901    1    3    3    0    0  0.14832633942E-01 -0.11727294182E+00 -0.21942966386E-01  0.88817478217E+00  0.88000000000E+00 0. -1.
        -11    1    4    4    0    0 -0.68293253706E-02  0.92064055132E-01  0.21053700250E-01  0.94688697042E-01  0.51100000000E-03 0.  1.
         11    1    4    4    0    0  0.53115761653E-02  0.32846390728E-01  0.18201260854E-01  0.37929477229E-01  0.51100000000E-03 0. -1.
</event>
<event>
 8    1  0.1213322E+005  0.1043930E+01  0.7957747E-01            NaN
         13   -1    0    0    0    0  0.00000000000E+00  0.00000000000E+00  0.74505805969E-08  0.10566000000E+00  0.10566000000E+00 0.  1.
     999900   -1    0    0    0    0 -0.00000000000E+00 -0.00000000000E+00 -0.74505805969E-08  0.93827000000E+00  0.93827000000E+00 0.  1.
     999902    2    1    2    0    0  0.99211527281E-02  0.30037279886E-02  0.21024687781E-01  0.10204888151E+01  0.10202195512E+01 0.  0.
     999903    2    3    3    0    0 -0.98165751432E-01  0.77534859042E-01 -0.27711677644E-01  0.12941479928E+00  0.18223174112E-01 0.  0.
         14    1    1    2    0    0 -0.99211527281E-02 -0.30037279886E-02 -0.21024687781E-01  0.23441184901E-01  0.00000000000E+00 0. -1.
     999901    1    3    3    0    0  0.10808690416E+00 -0.74531131054E-01  0.48736365425E-01  0.89107401582E+00  0.88000000000E+00 0.  1.
        -11    1    4    4    0    0 -0.41123030698E-01  0.43960452764E-01 -0.11983513782E-01  0.61379889089E-01  0.51100000000E-03 0. -1.
         11    1    4    4    0    0 -0.57042720733E-01  0.33574406278E-01 -0.15728163862E-01  0.68034910194E-01  0.51100000000E-03 0.  1.
</event>
<event>
 8    1  0.1213322E+005  0.1043930E+01  0.7957747E-01            NaN
         13   -1    0    0    0    0  0.00000000000E+00  0.00000000000E+00  0.74505805969E-08  0.10566000000E+00  0.10566000000E+00 0. -1.
     999900   -1    0    0    0    0 -0.00000000000E+00 -0.00000000000E+00 -0.74505805969E-08  0.93827000000E+00  0.93827000000E+00 0.  1.
     999902    2    1    2    0    0  0.67996010587E-02  0.14234447543E-01 -0.17172612579E-01  0.10206114946E+01  0.10203450741E+01 0.  0.
     999903    2    3    3    0    0  0.24671244761E-01  0.11842021958E+00 -0.52906204263E-01  0.13356529495E+00  0.20213926898E-01 0.  0.
         14    1    1    2    0    0 -0.67996010587E-02 -0.14234447543E-01  0.17172612579E-01  0.23318505402E-01  0.00000000000E+00 0. -1.
     999901    1    3    3    0    0 -0.17871643702E-01 -0.10418577204E+00  0.35733591684E-01  0.88704619965E+00  0.88000000000E+00 0.  1.
        -11    1    4    4    0    0 -0.18168879872E-02  0.79947013765E-02  0.16666184056E-03  0.82161565970E-02  0.51100000000E-03 0. -1.
         11    1    4    4    0    0  0.26488132748E-01  0.11042551820E+00 -0.53072866104E-01  0.12534913835E+00  0.51100000000E-03 0.  1.
</event>
<event>
 8    1  0.1213322E+005  0.1043930E+01  0.7957747E-01            NaN
         13   -1    0    0    0    0  0.00000000000E+00  0.00000000000E+00  0.74505805969E-08  0.10566000000E+00  0.10566000000E+00 0. -1.
     999900   -1    0    0    0    0 -0.00000000000E+00 -0.00000000000E+00 -0.74505805969E-08  0.93827000000E+00  0.93827000000E+00 0.  1.
     999902    2    1    2    0    0 -0.17777446868E-01 -0.20151977296E-02  0.15795062041E-01  0.10200640698E+01  0.10197848420E+01 0.  0.
     999903    2    3    3    0    0 -0.72507986468E-01 -0.31984125028E-01  0.10516232836E+00  0.13333971757E+00  0.20975524296E-01 0.  0.
         14    1    1    2    0    0  0.17777446868E-01  0.20151977296E-02 -0.15795062041E-01  0.23865930192E-01  0.00000000000E+00 0.  1.
     999901    1    3    3    0    0  0.54730539600E-01  0.29968927298E-01 -0.89367266318E-01  0.88672435224E+00  0.88000000000E+00 0.  1.
        -11    1    4    4    0    0 -0.44596994249E-01 -0.28311117267E-01  0.78087548878E-01  0.94277980821E-01  0.51100000000E-03 0. -1.
         11    1    4    4    0    0 -0.27910992219E-01 -0.36730077607E-02  0.27074779482E-01  0.39061736746E-01  0.51100000000E-03 0.  1.
</event>
<event>
 8    1  0.1213322E+005  0.1043930E+01  0.7957747E-01            NaN
         13   -1    0    0    0    0  0.00000000000E+00  0.00000000000E+00  0.74505805969E-08  0.10566000000E+00  0.10566000000E+00 0.  1.
     999900   -1    0    0    0    0 -0.00000000000E+00 -0.00000000000E+00 -0.74505805969E-08  0.93827000000E+00  0.93827000000E+00 0.  1.
     999902    2    1    2    0    0  0.16493626260E-01  0.86445529106E-02 -0.15785345288E-01  0.10195180126E+01  0.10192257026E+01 0.  0.
     999903    2    3    3    0    0 -0.34707832103E-01 -0.66274594065E-01 -0.10498244315E+00  0.13036640002E+00  0.19419821223E-01 0.  0.
         14    1    1    2    0    0 -0.16493626260E-01 -0.86445529106E-02  0.15785345288E-01  0.24411987385E-01  0.00000000000E+00 0.  1.
     999901    1    3    3    0    0  0.51201458363E-01  0.74919146975E-01  0.89197097858E-01  0.88915161260E+00  0.88000000000E+00 0.  1.
        -11    1    4    4    0    0 -0.26194892847E-01 -0.48998852075E-01 -0.61946131203E-01  0.83214447111E-01  0.51100000000E-03 0.  1.
         11    1    4    4    0    0 -0.85129392553E-02 -0.17275741990E-01 -0.43036311942E-01  0.47151952904E-01  0.51100000000E-03 0. -1.
</event>
<event>
 8    1  0.1213322E+005  0.1043930E+01  0.7957747E-01            NaN
         13   -1    0    0    0    0  0.00000000000E+00  0.00000000000E+00  0.74505805969E-08  0.10566000000E+00  0.10566000000E+00 0.  1.
     999900   -1    0    0    0    0 -0.00000000000E+00 -0.00000000000E+00 -0.74505805969E-08  0.93827000000E+00  0.93827000000E+00 0. -1.
     999902    2    1    2    0    0  0.54401878007E-02 -0.14786283361E-01  0.16791146565E-01  0.10209045267E+01  0.10206448355E+01 0.  0.
     999903    2    3    3    0    0  0.95462109601E-01  0.86640168093E-01 -0.23093705296E-02  0.13031140902E+00  0.18873182877E-01 0.  0.
         14    1    1    2    0    0 -0.54401878007E-02  0.14786283361E-01 -0.16791146565E-01  0.23025473326E-01  0.00000000000E+00 0. -1.
     999901    1    3    3    0    0 -0.90021921800E-01 -0.10142645145E+00  0.19100517094E-01  0.89059311765E+00  0.88000000000E+00 0. -1.
        -11    1    4    4    0    0  0.68258551501E-01  0.63487544417E-01  0.67175521682E-02  0.93462745397E-01  0.51100000000E-03 0. -1.
         11    1    4    4    0    0  0.27203558100E-01  0.23152623676E-01 -0.90269226978E-02  0.36848663623E-01  0.51100000000E-03 0.  1.
</event>
<event>
 8    1  0.1213322E+005  0.1043930E+01  0.7957747E-01            NaN
         13   -1    0    0    0    0  0.00000000000E+00  0.00000000000E+00  0.74505805969E-08  0.10566000000E+00  0.10566000000E+00 0.  1.
     999900   -1    0    0    0    0 -0.00000000000E+00 -0.00000000000E+00 -0.74505805969E-08  0.93827000000E+00  0.93827000000E+00 0. -1.
     999902    2    1    2    0    0  0.16385524900E-01 -0.12900155492E-01  0.11249420398E-01  0.10202350871E+01  0.10199598934E+01 0.  0.
     999903    2    3    3    0    0 -0.87708139469E-02  0.10830105483E+00  0.68078445528E-01  0.12975650069E+00  0.19900479158E-01 0.  0.
         14    1    1    2    0    0 -0.16385524900E-01  0.12900155492E-01 -0.11249420398E-01  0.23694912898E-01  0.00000000000E+00 0. -1.
     999901    1    3    3    0    0  0.25156338847E-01 -0.12120121032E+00 -0.56829025129E-01  0.89047858642E+00  0.88000000000E+00 0. -1.
        -11    1    4    4    0    0  0.49876244319E-02  0.58750430040E-01  0.38683764375E-01  0.70520806679E-01  0.51100000000E-03 0.  1.
         11    1    4    4    0    0 -0.13758438379E-01  0.49550624788E-01  0.29394681152E-01  0.59235694007E-01  0.51100000000E-03 0. -1.
</event>
<event>
 8    1  0.1213322E+005  0.1043930E+01  0.7957747E-01            NaN
         13   -1    0    0    0    0  0.00000000000E+00  0.00000000000E+00  0.74505805969E-08  0.10566000000E+00  0.10566000000E+00 0.  1.
     999900   -1    0    0    0    0 -0.00000000000E+00 -0.00000000000E+00 -0.74505805969E-08  0.93827000000E+00  0.93827000000E+00 0.  1.
     999902    2    1    2    0    0 -0.30228124579E-02 -0.11875848679E-01 -0.21545926330E-01  0.10191429042E+01  0.10188414298E+01 0.  0.
     999903    2    3    3    0    0 -0.11998549381E+00 -0.25543830124E-01  0.35739415733E-01  0.12945268116E+00  0.20777026749E-01 0.  0.
         14    1    1    2    0    0  0.30228124579E-02  0.11875848679E-01  0.21545926330E-01  0.24787095804E-01  0.00000000000E+00 0.  1.
     999901    1    3    3    0    0  0.11696268135E+00  0.13667981445E-01 -0.57285342063E-01  0.88969022303E+00  0.88000000000E+00 0.  1.
        -11    1    4    4    0    0 -0.17084557258E-01 -0.77570651841E-02 -0.87837168473E-03  0.18790604428E-01  0.51100000000E-03 0. -1.
         11    1    4    4    0    0 -0.10290093655E+00 -0.17786764940E-01  0.36617787418E-01  0.11066207673E+00  0.51100000000E-03 0.  1.
</event>
<event>
 8    1  0.1213322E+005  0.1043930E+01  0.7957747E-01            NaN
         13   -1    0    0    0    0  0.00000000000E+00  0.00000000000E+00  0.74505805969E-08  0.10566000000E+00  0.10566000000E+00 0.  1.
     999900   -1    0    0    0    0 -0.00000000000E+00 -0.00000000000E+00 -0.74505805969E-08  0.93827000000E+00  0.93827000000E+00 0.  1.
     999902    2    1    2    0    0  0.87614082855E-02 -0.10551759603E-01 -0.22267651217E-01  0.10177775585E+01  0.10174415012E+01 0.  0.
     999903    2    3    3    0    0 -0.52297345745E-01  0.11286952107E+00  0.96060600217E-02  0.12649930933E+00  0.20862830942E-01 0.  0.
         14    1    1    2    0    0 -0.87614082855E-02  0.10551759603E-01  0.22267651217E-01  0.26152441503E-01  0.00000000000E+00 0.  1.
     999901    1    3    3    0    0  0.61058754030E-01 -0.12342128067E+00 -0.31873711238E-01  0.89127824916E+00  0.88000000000E+00 0.  1.
        -11    1    4    4    0    0 -0.30468982704E-01  0.61555336276E-01 -0.49532951465E-02  0.68863739260E-01  0.51100000000E-03 0.  1.
         11    1    4    4    0    0 -0.21828363041E-01  0.51314184790E-01  0.14559355168E-01  0.57635570073E-01  0.51100000000E-03 0. -1.
</event>
<event>
 8    1  0.1213322E+005  0.1043930E+01  0.7957747E-01            NaN
         13   -1    0    0    0    0  0.00000000000E+00  0.00000000000E+00  0.74505805969E-08  0.10566000000E+00  0.10566000000E+00 0.  1.
     999900   -1    0    0    0    0 -0.00000000000E+00 -0.00000000000E+00 -0.74505805969E-08  0.93827000000E+00  0.93827000000E+00 0.  1.
     999902    2    1    2    0    0 -0.21993678667E-01 -0.62088342288E-02 -0.61606780418E-02  0.10202609173E+01  0.10199863302E+01 0.  0.
     999903    2    3    3    0    0 -0.10370083823E+00  0.78936887566E-01 -0.10416817855E-01  0.13237355470E+00  0.20720806484E-01 0.  0.
         14    1    1    2    0    0  0.21993678667E-01  0.62088342288E-02  0.61606780418E-02  0.23669082739E-01  0.00000000000E+00 0. -1.
     999901    1    3    3    0    0  0.81707159566E-01 -0.85145721795E-01  0.42561398128E-02  0.88788736256E+00  0.88000000000E+00 0.  1.
        -11    1    4    4    0    0 -0.64465321711E-01  0.57886321555E-01 -0.13722937555E-01  0.87722198232E-01  0.51100000000E-03 0. -1.
         11    1    4    4    0    0 -0.39235516523E-01  0.21050566011E-01  0.33061197007E-02  0.44651356471E-01  0.51100000000E-03 0.  1.
</event>
<event>
 8    1  0.1213322E+005  0.1043930E+01  0.7957747E-01            NaN
         13   -1    0    0    0    0  0.00000000000E+00  0.00000000000E+00  0.74505805969E-08  0.10566000000E+00  0.10566000000E+00 0.  1.
     999900   -1    0    0    0    0 -0.00000000000E+00 -0.00000000000E+00 -0.74505805969E-08  0.93827000000E+00  0.93827000000E+00 0. -1.
     999902    2    1    2    0    0 -0.21126352895E-01 -0.83164194874E-02  0.92602920045E-02  0.10194098322E+01  0.10191148941E+01 0.  0.
     999903    2    3    3    0    0  0.10678225716E+00  0.63811119843E-01  0.17200377134E-01  0.12720691842E+00  0.20283926127E-01 0.  0.
         14    1    1    2    0    0  0.21126352895E-01  0.83164194874E-02 -0.92602920045E-02  0.24520167775E-01  0.00000000000E+00 0. -1.
     999901    1    3    3    0    0 -0.12790861006E+00 -0.72127539330E-01 -0.79400851291E-02  0.89220291381E+00  0.88000000000E+00 0. -1.
        -11    1    4    4    0    0  0.34151118878E-01  0.12583885093E-01  0.11375880718E-01  0.38135611543E-01  0.51100000000E-03 0.  1.
         11    1    4    4    0    0  0.72631138285E-01  0.51227234749E-01  0.58244964152E-02  0.89071306873E-01  0.51100000000E-03 0. -1.
</event>
<event>
 8    1  0.1213322E+005  0.1043930E+01  0.7957747E-01            NaN
         13   -1    0    0    0    0  0.00000000000E+00  0.00000000000E+00  0.74505805969E-08  0.10566000000E+00  0.10566000000E+00 0.  1.
     999900   -1    0    0    0    0 -0.00000000000E+00 -0.00000000000E+00 -0.74505805969E-08  0.93827000000E+00  0.93827000000E+00 0.  1.
     999902    2    1    2    0    0  0.25658703102E-01 -0.51600527595E-02 -0.11419587420E-02  0.10177326860E+01  0.10173954595E+01 0.  0.
     999903    2    3    3    0    0  0.99542297373E-01 -0.82695863991E-01 -0.81153654268E-02  0.13121183691E+00  0.20085121409E-01 0.  0.
         14    1    1    2    0    0 -0.25658703102E-01  0.51600527595E-02  0.11419587420E-02  0.26197313968E-01  0.00000000000E+00 0. -1.
     999901    1    3    3    0    0 -0.73883594272E-01  0.77535811231E-01  0.69734066847E-02  0.88652084912E+00  0.88000000000E+00 0. -1.
        -11    1    4    4    0    0  0.54733671691E-01 -0.51757143750E-01 -0.13354251671E-01  0.76506038354E-01  0.51100000000E-03 0. -1.
         11    1    4    4    0    0  0.44808625683E-01 -0.30938720240E-01  0.52388862442E-02  0.54705798557E-01  0.51100000000E-03 0.  1.
</event>
<event>
 8    1  0.1213322E+005  0.1043930E+01  0.7957747E-01            NaN
         13   -1    0    0    0    0  0.00000000000E+00  0.00000000000E+00  0.74505805969E-08  0.10566000000E+00  0.10566000000E+00 0.  1.
     999900   -1    0    0    0    0 -0.00000000000E+00 -0.00000000000E+00 -0.74505805969E-08  0.93827000000E+00  0.93827000000E+00 0. -1.
     999902    2    1    2    0    0  0.14997731595E-01 -0.57922834535E-02  0.18194547313E-01  0.10196498836E+01  0.10193607610E+01 0.  0.
     999903    2    3    3    0    0 -0.94694167809E-01 -0.49056588938E-01  0.71866662796E-01  0.13016418450E+00  0.20108788350E-01 0.  0.
         14    1    1    2    0    0 -0.14997731595E-01  0.57922834535E-02 -0.18194547313E-01  0.24280116403E-01  0.00000000000E+00 0. -1.
     999901    1    3    3    0    0  0.10969189940E+00  0.43264305485E-01 -0.53672115482E-01  0.88948569910E+00  0.88000000000E+00 0. -1.
        -11    1    4    4    0    0 -0.35075264747E-01 -0.22378594470E-01  0.39061367307E-01  0.57071246915E-01  0.51100000000E-03 0.  1.
         11    1    4    4    0    0 -0.59618903062E-01 -0.26677994468E-01  0.32805295488E-01  0.73092937582E-01  0.51100000000E-03 0. -1.
</event>
<event>
 8    1  0.1213322E+005  0.1043930E+01  0.7957747E-01            NaN
         13   -1    0    0    0    0  0.00000000000E+00  0.00000000000E+00  0.74505805969E-08  0.10566000000E+00  0.10566000000E+00 0. -1.
     999900   -1    0    0    0    0 -0.00000000000E+00 -0.00000000000E+00 -0.74505805969E-08  0.93827000000E+00  0.93827000000E+00 0. -1.
     999902    2    1    2    0    0 -0.18212019875E-01 -0.91469343026E-02  0.11744680194E-01  0.10204080616E+01  0.10201369175E+01 0.  0.
     999903    2    3    3    0    0 -0.76629375791E-01 -0.97685127377E-01 -0.41527306391E-01  0.13243874697E+00  0.20026461933E-01 0.  0.
         14    1    1    2    0    0  0.18212019875E-01  0.91469343026E-02 -0.11744680194E-01  0.23521938439E-01  0.00000000000E+00 0.  1.
     999901    1    3    3    0    0  0.58417355916E-01  0.88538193074E-01  0.53271986585E-01  0.88796931459E+00  0.88000000000E+00 0. -1.
        -11    1    4    4    0    0 -0.27429540853E-01 -0.40613362965E-01 -0.26082540079E-01  0.55519230729E-01  0.51100000000E-03 0. -1.
         11    1    4    4    0    0 -0.49199834938E-01 -0.57071764412E-01 -0.15444766311E-01  0.76919516239E-01  0.51100000000E-03 0.  1.
</event>
<event>
 8    1  0.1213322E+005  0.1043930E+01  0.7957747E-01            NaN
         13   -1    0    0    0    0  0.00000000000E+00  0.00000000000E+00  0.74505805969E-08  0.10566000000E+00  0.10566000000E+00 0. -1.
     999900   -1    0    0    0    0 -0.00000000000E+00 -0.00000000000E+00 -0.74505805969E-08  0.93827000000E+00  0.93827000000E+00 0.  1.
     999902    2    1    2    0    0 -0.10221806312E-01  0.19171274738E-01 -0.83928469799E-02  0.10206391653E+01  0.10203733840E+01 0.  0.
     999903    2    3    3    0    0 -0.29988262254E-01 -0.25911047686E-01 -0.12408403877E+00  0.13170295815E+00  0.19445879842E-01 0.  0.
         14    1    1    2    0    0  0.10221806312E-01 -0.19171274738E-01  0.83928469799E-02  0.23290834673E-01  0.00000000000E+00 0.  1.
     999901    1    3    3    0    0  0.19766455943E-01  0.45082322424E-01  0.11569119179E+00  0.88893620718E+00  0.88000000000E+00 0. -1.
        -11    1    4    4    0    0 -0.12261061509E-01 -0.11834907763E-01 -0.26379179009E-01  0.31408929897E-01  0.51100000000E-03 0. -1.
         11    1    4    4    0    0 -0.17727200746E-01 -0.14076139923E-01 -0.97704859759E-01  0.10029402825E+00  0.51100000000E-03 0.  1.
</event>
<event>
 8    1  0.1213322E+005  0.1043930E+01  0.7957747E-01            NaN
         13   -1    0    0    0    0  0.00000000000E+00  0.00000000000E+00  0.74505805969E-08  0.10566000000E+00  0.10566000000E+00 0.  1.
     999900   -1    0    0    0    0 -0.00000000000E+00 -0.00000000000E+00 -0.74505805969E-08  0.93827000000E+00  0.93827000000E+00 0. -1.
     999902    2    1    2    0    0  0.20037634606E-02 -0.72455574450E-02  0.22838345773E-01  0.10198862231E+01  0.10196027682E+01 0.  0.
     999903    2    3    3    0    0  0.77693669795E-01 -0.71765883202E-01 -0.71364725006E-01  0.12928751834E+00  0.20873191043E-01 0.  0.
         14    1    1    2    0    0 -0.20037634606E-02  0.72455574450E-02 -0.22838345773E-01  0.24043776915E-01  0.00000000000E+00 0. -1.
     999901    1    3    3    0    0 -0.75689906335E-01  0.64520325757E-01  0.94203070779E-01  0.89059870475E+00  0.88000000000E+00 0.  1.
        -11    1    4    4    0    0  0.24832430805E-01 -0.16076971812E-01 -0.10814792082E-01  0.31501420462E-01  0.51100000000E-03 0.  1.
         11    1    4    4    0    0  0.52861238990E-01 -0.55688911390E-01 -0.60549932924E-01  0.97786097874E-01  0.51100000000E-03 0. -1.
</event>
<event>
 8    1  0.1213322E+005  0.1043930E+01  0.7957747E-01            NaN
         13   -1    0    0    0    0  0.00000000000E+00  0.00000000000E+00  0.74505805969E-08  0.10566000000E+00  0.10566000000E+00 0.  1.
     999900   -1    0    0    0    0 -0.00000000000E+00 -0.00000000000E+00 -0.74505805969E-08  0.93827000000E+00  0.93827000000E+00 0.  1.
     999902    2    1    2    0    0  0.23241390388E-01  0.16045451966E-02 -0.29670760115E-02  0.10204451042E+01  0.10201748234E+01 0.  0.
     999903    2    3    3    0    0 -0.56221280671E-01 -0.74510967974E-01  0.86661331908E-01  0.12907473280E+00  0.20913714410E-01 0.  0.
         14    1    1    2    0    0 -0.23241390388E-01 -0.16045451966E-02  0.29670760115E-02  0.23484895838E-01  0.00000000000E+00 0.  1.
     999901    1    3    3    0    0  0.79462671059E-01  0.76115513170E-01 -0.89628407920E-01  0.89137037136E+00  0.88000000000E+00 0.  1.
        -11    1    4    4    0    0 -0.36453402911E-01 -0.58304918357E-01  0.53078051645E-01  0.86866879625E-01  0.51100000000E-03 0. -1.
         11    1    4    4    0    0 -0.19767877760E-01 -0.16206049617E-01  0.33583280263E-01  0.42207853174E-01  0.51100000000E-03 0.  1.
</event>
<event>
 8    1  0.1213322E+005  0.1043930E+01  0.7957747E-01            NaN
         13   -1    0    0    0    0  0.00000000000E+00  0.00000000000E+00  0.74505805969E-08  0.10566000000E+00  0.10566000000E+00 0. -1.
     999900   -1    0    0    0    0 -0.00000000000E+00 -0.00000000000E+00 -0.74505805969E-08  0.93827000000E+00  0.93827000000E+00 0. -1.
     999902    2    1    2    0    0  0.16049476494E-01 -0.17024150190E-01 -0.69064037380E-03  0.10205230701E+01  0.10202546016E+01 0.  0.
     999903    2    3    3    0    0  0.41043056797E-01 -0.11756355281E+00 -0.43242136085E-01  0.13342472132E+00  0.20653146657E-01 0.  0.
         14    1    1    2    0    0 -0.16049476494E-01  0.17024150190E-01  0.69064037380E-03  0.23406929947E-01  0.00000000000E+00 0.  1.
     999901    1    3    3    0    0 -0.24993580303E-01  0.10053940262E+00  0.42551495712E-01  0.88709834873E+00  0.88000000000E+00 0.  1.
        -11    1    4    4    0    0  0.31415379402E-02 -0.47776295085E-02 -0.69782101464E-02  0.90361242907E-02  0.51100000000E-03 0.  1.
         11    1    4    4    0    0  0.37901518857E-01 -0.11278592330E+00 -0.36263925939E-01  0.12438859703E+00  0.51100000000E-03 0. -1.
</event>
<event>
 8    1  0.1213322E+005  0.1043930E+01  0.7957747E-01            NaN
         13   -1    0    0    0    0  0.00000000000E+00  0.00000000000E+00  0.74505805969E-08  0.10566000000E+00  0.10566000000E+00 0.  1.
     999900   -1    0    0    0    0 -0.00000000000E+00 -0.00000000000E+00 -0.74505805969E-08  0.93827000000E+00  0.93827000000E+00 0.  1.
     999902    2    1    2    0    0 -0.19140076971E-01  0.16952783003E-01 -0.96266469993E-03  0.10183435559E+01  0.10180220684E+01 0.  0.
     999903    2    3    3    0    0 -0.10526888497E+00  0.75007369996E-01  0.18247094408E-01  0.13202672684E+00  0.19759970894E-01 0.  0.
         14    1    1    2    0    0  0.19140076971E-01 -0.16952783003E-01  0.96266469993E-03  0.25586444093E-01  0.00000000000E+00 0. -1.
     999901    1    3    3    0    0  0.86128807999E-01 -0.58054586993E-01 -0.19209759108E-01  0.88631682906E+00  0.88000000000E+00 0. -1.
        -11    1    4    4    0    0 -0.68200650994E-01  0.38618386344E-01  0.16235289732E-01  0.80040953976E-01  0.51100000000E-03 0. -1.
         11    1    4    4    0    0 -0.37068233976E-01  0.36388983653E-01  0.20118046755E-02  0.51985772866E-01  0.51100000000E-03 0.  1.
</event>
<event>
 8    1  0.1213322E+005  0.1043930E+01  0.7957747E-01            NaN
         13   -1    0    0    0    0  0.00000000000E+00  0.00000000000E+00  0.74505805969E-08  0.10566000000E+00  0.10566000000E+00 0.  1.
     999900   -1    0    0    0    0 -0.00000000000E+00 -0.00000000000E+00 -0.74505805969E-08  0.93827000000E+00  0.93827000000E+00 0. -1.
     999902    2    1    2    0    0  0.15555637383E-01 -0.16633660410E-01  0.65722420701E-02  0.10202266062E+01  0.10199512131E+01 0.  0.
     999903    2    3    3    0    0  0.20565774591E-01 -0.15993509501E-01  0.12786724684E+00  0.13189221562E+00  0.19151508973E-01 0.  0.
         14    1    1    2    0    0 -0.15555637383E-01  0.16633660410E-01 -0.65722420701E-02  0.23703393826E-01  0.00000000000E+00 0. -1.
     999901    1    3    3    0    0 -0.50101372078E-02 -0.64015090839E-03 -0.12129500477E+00  0.88833439056E+00  0.88000000000E+00 0. -1.
        -11    1    4    4    0    0  0.72250260797E-02 -0.14062124716E-01  0.95893895044E-01  0.97189734958E-01  0.51100000000E-03 0. -1.
         11    1    4    4    0    0  0.13340748512E-01 -0.19313847853E-02  0.31973351791E-01  0.34702480658E-01  0.51100000000E-03 0.  1.
</event>
<event>
 8    1  0.1213322E+005  0.1043930E+01  0.7957747E-01            NaN
         13   -1    0    0    0    0  0.00000000000E+00  0.00000000000E+00  0.74505805969E-08  0.10566000000E+00  0.10566000000E+00 0. -1.
     999900   -1    0    0    0    0 -0.00000000000E+00 -0.00000000000E+00 -0.74505805969E-08  0.93827000000E+00  0.93827000000E+00 0. -1.
     999902    2    1    2    0    0  0.30805474869E-02 -0.22890221501E-01 -0.63966860583E-02  0.10199639906E+01  0.10196823881E+01 0.  0.
     999903    2    3    3    0    0 -0.62996594969E-01 -0.11547069314E+00 -0.10754870790E-01  0.13263297783E+00  0.13182852872E-01 0.  0.
         14    1    1    2    0    0 -0.30805474869E-02  0.22890221501E-01  0.63966860583E-02  0.23966009383E-01  0.00000000000E+00 0. -1.
     999901    1    3    3    0    0  0.66077142455E-01  0.92580471639E-01  0.43581847314E-02  0.88733101279E+00  0.88000000000E+00 0. -1.
        -11    1    4    4    0    0 -0.33479792381E-01 -0.51794323417E-01 -0.32780762139E-03  0.61675903033E-01  0.51100000000E-03 0.  1.
         11    1    4    4    0    0 -0.29516802588E-01 -0.63676369723E-01 -0.10427063168E-01  0.70957074795E-01  0.51100000000E-03 0. -1.
</event>
<event>
 8    1  0.1213322E+005  0.1043930E+01  0.7957747E-01            NaN
         13   -1    0    0    0    0  0.00000000000E+00  0.00000000000E+00  0.74505805969E-08  0.10566000000E+00  0.10566000000E+00 0. -1.
     999900   -1    0    0    0    0 -0.00000000000E+00 -0.00000000000E+00 -0.74505805969E-08  0.93827000000E+00  0.93827000000E+00 0. -1.
     999902    2    1    2    0    0  0.47990759015E-02  0.18866405286E-01 -0.18168647331E-01  0.10173015918E+01  0.10169530257E+01 0.  0.
     999903    2    3    3    0    0  0.31729622627E-01 -0.10579673511E+00 -0.58628906287E-01  0.12718744997E+00  0.23228875683E-01 0.  0.
         14    1    1    2    0    0 -0.47990759015E-02 -0.18866405286E-01  0.18168647331E-01  0.26628408210E-01  0.00000000000E+00 0. -1.
     999901    1    3    3    0    0 -0.26930546725E-01  0.12466314039E+00  0.40460258956E-01  0.89011414182E+00  0.88000000000E+00 0.  1.
        -11    1    4    4    0    0  0.19761595697E-02 -0.10787397283E-01 -0.14747543360E-01  0.18385437252E-01  0.51100000000E-03 0.  1.
         11    1    4    4    0    0  0.29753463057E-01 -0.95009337824E-01 -0.43881362927E-01  0.10880201272E+00  0.51100000000E-03 0. -1.
</event>
<event>
 8    1  0.1213322E+005  0.1043930E+01  0.7957747E-01            NaN
         13   -1    0    0    0    0  0.00000000000E+00  0.00000000000E+00  0.74505805969E-08  0.10566000000E+00  0.10566000000E+00 0. -1.
     999900   -1    0    0    0    0 -0.00000000000E+00 -0.00000000000E+00 -0.74505805969E-08  0.93827000000E+00  0.93827000000E+00 0.  1.
     999902    2    1    2    0    0  0.64444864071E-02  0.54483330678E-02 -0.50556722329E-02  0.10340925430E+01  0.10340457494E+01 0.  0.
     999903    2    3    3    0    0  0.92663463542E-01 -0.93127434786E-01  0.51713971666E-01  0.14259173735E+00  0.19970781400E-01 0.  0.
         14    1    1    2    0    0 -0.64444864071E-02 -0.54483330678E-02  0.50556722329E-02  0.98374569883E-02  0.00000000000E+00 0. -1.
     999901    1    3    3    0    0 -0.86218977134E-01  0.98575767854E-01 -0.56769643899E-01  0.89150080566E+00  0.88000000000E+00 0.  1.
        -11    1    4    4    0    0  0.27927573984E-01 -0.39357601922E-01  0.24639777569E-01  0.54188098115E-01  0.51100000000E-03 0.  1.
         11    1    4    4    0    0  0.64735889557E-01 -0.53769832864E-01  0.27074194098E-01  0.88403639236E-01  0.51100000000E-03 0. -1.
</event>
<event>
 8    1  0.1213322E+005  0.1043930E+01  0.7957747E-01            NaN
         13   -1    0    0    0    0  0.00000000000E+00  0.00000000000E+00  0.74505805969E-08  0.10566000000E+00  0.10566000000E+00 0. -1.
     999900   -1    0    0    0    0 -0.00000000000E+00 -0.00000000000E+00 -0.74505805969E-08  0.93827000000E+00  0.93827000000E+00 0. -1.
     999902    2    1    2    0    0 -0.11854925179E-01 -0.42455417002E-02 -0.20220533505E-01  0.10201091299E+01  0.10198309679E+01 0.  0.
     999903    2    3    3    0    0 -0.46189574689E-01 -0.97572269114E-01  0.69252666294E-01  0.13000003567E+00  0.21219165314E-01 0.  0.
         14    1    1    2    0    0  0.11854925179E-01  0.42455417002E-02  0.20220533505E-01  0.23820870063E-01  0.00000000000E+00 0. -1.
     999901    1    3    3    0    0  0.34334649510E-01  0.93326727414E-01 -0.89473199799E-01  0.89010909426E+00  0.88000000000E+00 0. -1.
        -11    1    4    4    0    0 -0.14648814479E-01 -0.45301336081E-01  0.20362373215E-01  0.51784999569E-01  0.51100000000E-03 0. -1.
         11    1    4    4    0    0 -0.31540760209E-01 -0.52270933033E-01  0.48890293079E-01  0.78215036106E-01  0.51100000000E-03 0.  1.
</event>
<event>
 8    1  0.1213322E+005  0.1043930E+01  0.7957747E-01            NaN
         13   -1    0    0    0    0  0.00000000000E+00  0.00000000000E+00  0.74505805969E-08  0.10566000000E+00  0.10566000000E+00 0.  1.
     999900   -1    0    0    0    0 -0.00000000000E+00 -0.00000000000E+00 -0.74505805969E-08  0.93827000000E+00  0.93827000000E+00 0.  1.
     999902    2    1    2    0    0  0.17100001947E-01  0.17879525005E-01 -0.17788968742E-01  0.10134581295E+01  0.10129999237E+01 0.  0.
     999903    2    3    3    0    0  0.60052348277E-01 -0.63178248937E-01 -0.88642358404E-01  0.12585716649E+00  0.19615885909E-01 0.  0.
         14    1    1    2    0    0 -0.17100001947E-01 -0.17879525005E-01  0.17788968742E-01  0.30471870470E-01  0.00000000000E+00 0.  1.
     999901    1    3    3    0    0 -0.42952346329E-01  0.81057773942E-01  0.70853389662E-01  0.88760096304E+00  0.88000000000E+00 0.  1.
        -11    1    4    4    0    0  0.32940647085E-01 -0.25016191253E-01 -0.51759237755E-01  0.66258402254E-01  0.51100000000E-03 0.  1.
         11    1    4    4    0    0  0.27111701192E-01 -0.38162057684E-01 -0.36883120649E-01  0.59598764232E-01  0.51100000000E-03 0. -1.
</event>
<event>
 8    1  0.1213322E+005  0.1043930E+01  0.7957747E-01            NaN
         13   -1    0    0    0    0  0.00000000000E+00  0.00000000000E+00  0.74505805969E-08  0.10566000000E+00  0.10566000000E+00 0. -1.
     999900   -1    0    0    0    0 -0.00000000000E+00 -0.00000000000E+00 -0.74505805969E-08  0.93827000000E+00  0.93827000000E+00 0.  1.
     999902    2    1    2    0    0 -0.96649935762E-02 -0.65358841814E-02  0.21118518850E-01  0.10198028012E+01  0.10195173523E+01 0.  0.
     999903    2    3    3    0    0  0.87291876178E-01 -0.45068244780E-01  0.84943900056E-01  0.13134399142E+00  0.19615289759E-01 0.  0.
         14    1    1    2    0    0  0.96649935762E-02  0.65358841814E-02 -0.21118518850E-01  0.24127198787E-01  0.00000000000E+00 0.  1.
     999901    1    3    3    0    0 -0.96956869754E-01  0.38532360598E-01 -0.63825381206E-01  0.88845880979E+00  0.88000000000E+00 0.  1.
        -11    1    4    4    0    0  0.74190523868E-01 -0.44727939533E-01  0.69371525253E-01  0.11098419727E+00  0.51100000000E-03 0.  1.
         11    1    4    4    0    0  0.13101352310E-01 -0.34030524691E-03  0.15572374803E-01  0.20359794154E-01  0.51100000000E-03 0. -1.
</event>
<event>
 8    1  0.1213322E+005  0.1043930E+01  0.7957747E-01            NaN
         13   -1    0    0    0    0  0.00000000000E+00  0.00000000000E+00  0.74505805969E-08  0.10566000000E+00  0.10566000000E+00 0.  1.
     999900   -1    0    0    0    0 -0.00000000000E+00 -0.00000000000E+00 -0.74505805969E-08  0.93827000000E+00  0.93827000000E+00 0. -1.
     999902    2    1    2    0    0 -0.66729809950E-02 -0.16208699281E-01 -0.16007058494E-01  0.10201923394E+01  0.10199161401E+01 0.  0.
     999903    2    3    3    0    0  0.10733193839E-01 -0.62611024396E-01  0.11131712030E+00  0.12964891140E+00  0.19544746882E-01 0.  0.
         14    1    1    2    0    0  0.66729809950E-02  0.16208699281E-01  0.16007058494E-01  0.23737660570E-01  0.00000000000E+00 0.  1.
     999901    1    3    3    0    0 -0.17406174834E-01  0.46402325115E-01 -0.12732417879E+00  0.89054342803E+00  0.88000000000E+00 0. -1.
        -11    1    4    4    0    0  0.86442493338E-02 -0.29338294237E-01  0.71146127976E-01  0.77443471011E-01  0.51100000000E-03 0. -1.
         11    1    4    4    0    0  0.20889445049E-02 -0.33272730159E-01  0.40170992321E-01  0.52205440391E-01  0.51100000000E-03 0.  1.
</event>
<event>
 8    1  0.1213322E+005  0.1043930E+01  0.7957747E-01            NaN
         13   -1    0    0    0    0  0.00000000000E+00  0.00000000000E+00  0.74505805969E-08  0.10566000000E+00  0.10566000000E+00 0.  1.
     999900   -1    0    0    0    0 -0.00000000000E+00 -0.00000000000E+00 -0.74505805969E-08  0.93827000000E+00  0.93827000000E+00 0. -1.
     999902    2    1    2    0    0 -0.10036575103E-01  0.15916156525E-01  0.11619680252E-01  0.10218149859E+01  0.10215756417E+01 0.  0.
     999903    2    3    3    0    0 -0.43829423460E-01 -0.12116271465E+00 -0.20870237833E-02  0.13045622131E+00  0.20323587974E-01 0.  0.
         14    1    1    2    0    0  0.10036575103E-01 -0.15916156525E-01 -0.11619680252E-01  0.22115014073E-01  0.00000000000E+00 0. -1.
     999901    1    3    3    0    0  0.33792848357E-01  0.13707887118E+00  0.13706704035E-01  0.89135876462E+00  0.88000000000E+00 0.  1.
        -11    1    4    4    0    0 -0.49528772206E-02 -0.15435792857E-01 -0.70789359111E-02  0.17696529279E-01  0.51100000000E-03 0. -1.
         11    1    4    4    0    0 -0.38876546239E-01 -0.10572692179E+00  0.49919121278E-02  0.11275969203E+00  0.51100000000E-03 0.  1.
</event>
<event>
 8    1  0.1213322E+005  0.1043930E+01  0.7957747E-01            NaN
         13   -1    0    0    0    0  0.00000000000E+00  0.00000000000E+00  0.74505805969E-08  0.10566000000E+00  0.10566000000E+00 0.  1.
     999900   -1    0    0    0    0 -0.00000000000E+00 -0.00000000000E+00 -0.74505805969E-08  0.93827000000E+00  0.93827000000E+00 0.  1.
     999902    2    1    2    0    0 -0.20815499233E-01  0.12008373515E-01 -0.18607716873E-02  0.10198271264E+01  0.10195422597E+01 0.  0.
     999903    2    3    3    0    0 -0.92939497648E-01  0.51640378386E-01 -0.77024039838E-01  0.13279720370E+00  0.19947824278E-01 0.  0.
         14    1    1    2    0    0  0.20815499233E-01 -0.12008373515E-01  0.18607716873E-02  0.24102873565E-01  0.00000000000E+00 0.  1.
     999901    1    3    3    0    0  0.72123998414E-01 -0.39632004871E-01  0.75163268151E-01  0.88702992274E+00  0.88000000000E+00 0. -1.
        -11    1    4    4    0    0 -0.32650655669E-01  0.10828858138E-01 -0.33253552104E-01  0.47847563498E-01  0.51100000000E-03 0.  1.
         11    1    4    4    0    0 -0.60288841979E-01  0.40811520248E-01 -0.43770487734E-01  0.84949640197E-01  0.51100000000E-03 0. -1.
</event>
<event>
 8    1  0.1213322E+005  0.1043930E+01  0.7957747E-01            NaN
         13   -1    0    0    0    0  0.00000000000E+00  0.00000000000E+00  0.74505805969E-08  0.10566000000E+00  0.10566000000E+00 0. -1.
     999900   -1    0    0    0    0 -0.00000000000E+00 -0.00000000000E+00 -0.74505805969E-08  0.93827000000E+00  0.93827000000E+00 0. -1.
     999902    2    1    2    0    0  0.16155360517E-01 -0.20076231646E-02  0.15670067196E-01  0.10213340439E+01  0.10210840573E+01 0.  0.
     999903    2    3    3    0    0  0.10035029010E+00 -0.84377302809E-01 -0.11085182803E-01  0.13308329461E+00  0.19964269916E-01 0.  0.
         14    1    1    2    0    0 -0.16155360517E-01  0.20076231646E-02 -0.15670067196E-01  0.22595956057E-01  0.00000000000E+00 0. -1.
     999901    1    3    3    0    0 -0.84194929583E-01  0.82369679644E-01  0.26755249998E-01  0.88825074934E+00  0.88000000000E+00 0. -1.
        -11    1    4    4    0    0  0.37934803525E-01 -0.43621470744E-01 -0.67917912923E-03  0.57815261252E-01  0.51100000000E-03 0.  1.
         11    1    4    4    0    0  0.62415486576E-01 -0.40755832065E-01 -0.10406003673E-01  0.75268033356E-01  0.51100000000E-03 0. -1.
</event>
<event>
 8    1  0.1213322E+005  0.1043930E+01  0.7957747E-01            NaN
         13   -1    0    0    0    0  0.00000000000E+00  0.00000000000E+00  0.74505805969E-08  0.10566000000E+00  0.10566000000E+00 0. -1.
     999900   -1    0    0    0    0 -0.00000000000E+00 -0.00000000000E+00 -0.74505805969E-08  0.93827000000E+00  0.93827000000E+00 0. -1.
     999902    2    1    2    0    0 -0.82669605780E-02 -0.59542027925E-02 -0.22659302825E-01  0.10190857014E+01  0.10187828167E+01 0.  0.
     999903    2    3    3    0    0 -0.74677041670E-01  0.10703376282E-01  0.10117808607E+00  0.12778133549E+00  0.19996044187E-01 0.  0.
         14    1    1    2    0    0  0.82669605780E-02  0.59542027925E-02  0.22659302825E-01  0.24844298593E-01  0.00000000000E+00 0. -1.
     999901    1    3    3    0    0  0.66410081092E-01 -0.16657579074E-01 -0.12383738889E+00  0.89130436592E+00  0.88000000000E+00 0. -1.
        -11    1    4    4    0    0 -0.46794643778E-01 -0.95864648472E-03  0.51182060255E-01  0.69357927466E-01  0.51100000000E-03 0. -1.
         11    1    4    4    0    0 -0.27882397891E-01  0.11662022767E-01  0.49996025814E-01  0.58423408026E-01  0.51100000000E-03 0.  1.
</event>
<event>
 8    1  0.1213322E+005  0.1043930E+01  0.7957747E-01            NaN
         13   -1    0    0    0    0  0.00000000000E+00  0.00000000000E+00  0.74505805969E-08  0.10566000000E+00  0.10566000000E+00 0. -1.
     999900   -1    0    0    0    0 -0.00000000000E+00 -0.00000000000E+00 -0.74505805969E-08  0.93827000000E+00  0.93827000000E+00 0. -1.
     999902    2    1    2    0    0 -0.68006799497E-02  0.18914626873E-01 -0.12891713205E-01  0.10200509584E+01  0.10197714200E+01 0.  0.
     999903    2    3    3    0    0  0.83928392309E-01  0.50950485997E-01 -0.85688222472E-01  0.13181822282E+00  0.19840497440E-01 0.  0.
         14    1    1    2    0    0  0.68006799497E-02 -0.18914626873E-01  0.12891713205E-01  0.23879041582E-01  0.00000000000E+00 0. -1.
     999901    1    3    3    0    0 -0.90729072258E-01 -0.32035859124E-01  0.72796509268E-01  0.88823273560E+00  0.88000000000E+00 0.  1.
        -11    1    4    4    0    0  0.37178218668E-01  0.33059531907E-01 -0.48257559046E-01  0.69312377821E-01  0.51100000000E-03 0.  1.
         11    1    4    4    0    0  0.46750173641E-01  0.17890954090E-01 -0.37430663427E-01  0.62505845001E-01  0.51100000000E-03 0. -1.
</event>
<event>
 8    1  0.1213322E+005  0.1043930E+01  0.7957747E-01            NaN
         13   -1    0    0    0    0  0.00000000000E+00  0.00000000000E+00  0.74505805969E-08  0.10566000000E+00  0.10566000000E+00 0.  1.
     999900   -1    0    0    0    0 -0.00000000000E+00 -0.00000000000E+00 -0.74505805969E-08  0.93827000000E+00  0.93827000000E+00 0. -1.
     999902    2    1    2    0    0  0.19053257762E-01  0.10741840040E-01 -0.10181030292E-01  0.10198039324E+01  0.10195185106E+01 0.  0.
     999903    2    3    3    0    0  0.11261808621E-01 -0.10957363682E+00  0.63171127670E-01  0.12855926359E+00  0.20091855671E-01 0.  0.
         14    1    1    2    0    0 -0.19053257762E-01 -0.10741840040E-01  0.10181030292E-01  0.24126067574E-01  0.00000000000E+00 0.  1.
     999901    1    3    3    0    0  0.77914491413E-02  0.12031547686E+00 -0.73352157961E-01  0.89124466884E+00  0.88000000000E+00 0. -1.
        -11    1    4    4    0    0  0.11511897855E-02 -0.12110651209E-01  0.15153159112E-01  0.19438941913E-01  0.51100000000E-03 0. -1.
         11    1    4    4    0    0  0.10110618835E-01 -0.97462985610E-01  0.48017968558E-01  0.10912032168E+00  0.51100000000E-03 0.  1.
</event>
<event>
 8    1  0.1213322E+005  0.1043930E+01  0.7957747E-01            NaN
         13   -1    0    0    0    0  0.00000000000E+00  0.00000000000E+00  0.74505805969E-08  0.10566000000E+00  0.10566000000E+00 0. -1.
     999900   -1    0    0    0    0 -0.00000000000E+00 -0.00000000000E+00 -0.74505805969E-08  0.93827000000E+00  0.93827000000E+00 0.  1.
     999902    2    1    2    0    0 -0.17629975266E-01  0.35025992351E-02  0.14942228904E-01  0.10205557742E+01  0.10202880641E+01 0.  0.
     999903    2    3    3    0    0 -0.23788184081E-01  0.46160368633E-02 -0.12549440692E+00  0.12939831783E+00  0.20196360821E-01 0.  0.
         14    1    1    2    0    0  0.17629975266E-01 -0.35025992351E-02 -0.14942228904E-01  0.23374225846E-01  0.00000000000E+00 0. -1.
     999901    1    3    3    0    0  0.61582088157E-02 -0.11134376283E-02  0.14043663583E+00  0.89115745632E+00  0.88000000000E+00 0. -1.
        -11    1    4    4    0    0 -0.89871233910E-02  0.44379402252E-02 -0.94667325744E-01  0.95197832879E-01  0.51100000000E-03 0. -1.
         11    1    4    4    0    0 -0.14801060690E-01  0.17809663810E-03 -0.30827081178E-01  0.34200484952E-01  0.51100000000E-03 0.  1.
</event>
<event>
 8    1  0.1213322E+005  0.1043930E+01  0.7957747E-01            NaN
         13   -1    0    0    0    0  0.00000000000E+00  0.00000000000E+00  0.74505805969E-08  0.10566000000E+00  0.10566000000E+00 0.  1.
     999900   -1    0    0    0    0 -0.00000000000E+00 -0.00000000000E+00 -0.74505805969E-08  0.93827000000E+00  0.93827000000E+00 0.  1.
     999902    2    1    2    0    0 -0.16279915790E-01  0.10811847310E-01 -0.12355132324E-01  0.10208089923E+01  0.10205471169E+01 0.  0.
     999903    2    3    3    0    0 -0.65881328908E-02  0.13004184108E+00  0.12616959811E-01  0.13236466237E+00  0.20172561632E-01 0.  0.
         14    1    1    2    0    0  0.16279915790E-01 -0.10811847310E-01  0.12355132324E-01  0.23121007659E-01  0.00000000000E+00 0. -1.
     999901    1    3    3    0    0 -0.96917828996E-02 -0.11922999377E+00 -0.24972092135E-01  0.88844432997E+00  0.88000000000E+00 0. -1.
        -11    1    4    4    0    0 -0.68402773420E-02  0.74637915911E-01  0.16758964805E-01  0.76803202459E-01  0.51100000000E-03 0. -1.
         11    1    4    4    0    0  0.25214445123E-03  0.55403925171E-01 -0.41420049940E-02  0.55561459912E-01  0.51100000000E-03 0.  1.
</event>
<event>
 8    1  0.1213322E+005  0.1043930E+01  0.7957747E-01            NaN
         13   -1    0    0    0    0  0.00000000000E+00  0.00000000000E+00  0.74505805969E-08  0.10566000000E+00  0.10566000000E+00 0.  1.
     999900   -1    0    0    0    0 -0.00000000000E+00 -0.00000000000E+00 -0.74505805969E-08  0.93827000000E+00  0.93827000000E+00 0. -1.
     999902    2    1    2    0    0  0.48135706287E-02 -0.37582043639E-02  0.25720079386E-01  0.10174948521E+01  0.10171513933E+01 0.  0.
     999903    2    3    3    0    0  0.73973792614E-01  0.97618579969E-01 -0.28259088089E-01  0.12734085460E+00  0.20386467096E-01 0.  0.
         14    1    1    2    0    0 -0.48135706287E-02  0.37582043639E-02 -0.25720079386E-01  0.26435147926E-01  0.00000000000E+00 0. -1.
     999901    1    3    3    0    0 -0.69160221985E-01 -0.10137678433E+00  0.53979167474E-01  0.89015399748E+00  0.88000000000E+00 0.  1.
        -11    1    4    4    0    0  0.53782642645E-01  0.78093835973E-01 -0.14046308989E-01  0.95858123204E-01  0.51100000000E-03 0. -1.
         11    1    4    4    0    0  0.20191149969E-01  0.19524743996E-01 -0.14212779099E-01  0.31482731392E-01  0.51100000000E-03 0.  1.
</event>
<event>
 8    1  0.1213322E+005  0.1043930E+01  0.7957747E-01            NaN
         13   -1    0    0    0    0  0.00000000000E+00  0.00000000000E+00  0.74505805969E-08  0.10566000000E+00  0.10566000000E+00 0. -1.
     999900   -1    0    0    0    0 -0.00000000000E+00 -0.00000000000E+00 -0.74505805969E-08  0.93827000000E+00  0.93827000000E+00 0. -1.
     999902    2    1    2    0    0 -0.25691583680E-01 -0.11260868781E-01 -0.90955251710E-03  0.10158641502E+01  0.10154763807E+01 0.  0.
     999903    2    3    3    0    0  0.10304626508E+00  0.41932146694E-01  0.49909268602E-01  0.12345982304E+00  0.19353427093E-01 0.  0.
         14    1    1    2    0    0  0.25691583680E-01  0.11260868781E-01  0.90955251710E-03  0.28065849772E-01  0.00000000000E+00 0. -1.
     999901    1    3    3    0    0 -0.12873784876E+00 -0.53193015475E-01 -0.50818821119E-01  0.89240432718E+00  0.88000000000E+00 0. -1.
        -11    1    4    4    0    0  0.41257992151E-01  0.12149538548E-01  0.28519732680E-01  0.51608812004E-01  0.51100000000E-03 0. -1.
         11    1    4    4    0    0  0.61788272928E-01  0.29782608146E-01  0.21389535922E-01  0.71851011039E-01  0.51100000000E-03 0.  1.
</event>
<event>
 8    1  0.1213322E+005  0.1043930E+01  0.7957747E-01            NaN
         13   -1    0    0    0    0  0.00000000000E+00  0.00000000000E+00  0.74505805969E-08  0.10566000000E+00  0.10566000000E+00 0.  1.
     999900   -1    0    0    0    0 -0.00000000000E+00 -0.00000000000E+00 -0.74505805969E-08  0.93827000000E+00  0.93827000000E+00 0.  1.
     999902    2    1    2    0    0  0.16713638429E-01 -0.15520750524E-01 -0.39814583830E-02  0.10207763520E+01  0.10205137281E+01 0.  0.
     999903    2    3    3    0    0  0.15767779031E-01  0.11933797018E+00 -0.43440178411E-01  0.12962835091E+00  0.20646701390E-01 0.  0.
         14    1    1    2    0    0 -0.16713638429E-01  0.15520750524E-01  0.39814583830E-02  0.23153648033E-01  0.00000000000E+00 0. -1.
     999901    1    3    3    0    0  0.94585939766E-03 -0.13485872070E+00  0.39458720028E-01  0.89114800106E+00  0.88000000000E+00 0. -1.
        -11    1    4    4    0    0  0.16129041753E-01  0.60874592534E-01 -0.29388236013E-01  0.69496701655E-01  0.51100000000E-03 0.  1.
         11    1    4    4    0    0 -0.36126272157E-03  0.58463377643E-01 -0.14051942398E-01  0.60131649256E-01  0.51100000000E-03 0. -1.
</event>
<event>
 8    1  0.1213322E+005  0.1043930E+01  0.7957747E-01            NaN
         13   -1    0    0    0    0  0.00000000000E+00  0.00000000000E+00  0.74505805969E-08  0.10566000000E+00  0.10566000000E+00 0. -1.
     999900   -1    0    0    0    0 -0.00000000000E+00 -0.00000000000E+00 -0.74505805969E-08  0.93827000000E+00  0.93827000000E+00 0. -1.
     999902    2    1    2    0    0 -0.22696381739E-01 -0.31522912105E-02 -0.47805049453E-02  0.10205223963E+01  0.10202539122E+01 0.  0.
     999903    2    3    3    0    0  0.76287167817E-01  0.20947807071E-01  0.99666622867E-01  0.12850907782E+00  0.17961201900E-01 0.  0.
         14    1    1    2    0    0  0.22696381739E-01  0.31522912105E-02  0.47805049453E-02  0.23407603710E-01  0.00000000000E+00 0.  1.
     999901    1    3    3    0    0 -0.98983549556E-01 -0.24100098282E-01 -0.10444712781E+00  0.89201331847E+00  0.88000000000E+00 0. -1.
        -11    1    4    4    0    0  0.20891915747E-01  0.14061301458E-01  0.27916243065E-01  0.37600134177E-01  0.51100000000E-03 0.  1.
         11    1    4    4    0    0  0.55395252070E-01  0.68865056132E-02  0.71750379802E-01  0.90908943643E-01  0.51100000000E-03 0. -1.
</event>
<event>
 8    1  0.1213322E+005  0.1043930E+01  0.7957747E-01            NaN
         13   -1    0    0    0    0  0.00000000000E+00  0.00000000000E+00  0.74505805969E-08  0.10566000000E+00  0.10566000000E+00 0. -1.
     999900   -1    0    0    0    0 -0.00000000000E+00 -0.00000000000E+00 -0.74505805969E-08  0.93827000000E+00  0.93827000000E+00 0. -1.
     999902    2    1    2    0    0  0.22757202911E-01 -0.30883548347E-02  0.73068442024E-02  0.10198298300E+01  0.10195450280E+01 0.  0.
     999903    2    3    3    0    0 -0.11161797488E+00  0.40393589267E-01 -0.41175317969E-01  0.12725048459E+00  0.20175843197E-01 0.  0.
         14    1    1    2    0    0 -0.22757202911E-01  0.30883548347E-02 -0.73068442024E-02  0.24100169961E-01  0.00000000000E+00 0. -1.
     999901    1    3    3    0    0  0.13437517779E+00 -0.43481944101E-01  0.48482162172E-01  0.89257934545E+00  0.88000000000E+00 0.  1.
        -11    1    4    4    0    0 -0.42010577750E-01  0.59265898322E-02 -0.10284964813E-01  0.43658386733E-01  0.51100000000E-03 0. -1.
         11    1    4    4    0    0 -0.69607397131E-01  0.34466999435E-01 -0.30890353156E-01  0.83592097859E-01  0.51100000000E-03 0.  1.
</event>
<event>
 8    1  0.1213322E+005  0.1043930E+01  0.7957747E-01            NaN
         13   -1    0    0    0    0  0.00000000000E+00  0.00000000000E+00  0.74505805969E-08  0.10566000000E+00  0.10566000000E+00 0. -1.
     999900   -1    0    0    0    0 -0.00000000000E+00 -0.00000000000E+00 -0.74505805969E-08  0.93827000000E+00  0.93827000000E+00 0. -1.
     999902    2    1    2    0    0  0.34376348324E-02 -0.18540290603E-01 -0.12866671917E-01  0.10211021452E+01  0.10208469425E+01 0.  0.
     999903    2    3    3    0    0  0.11787969156E+00 -0.57141507747E-01  0.54613709070E-02  0.13266365241E+00  0.20224848774E-01 0.  0.
         14    1    1    2    0    0 -0.34376348324E-02  0.18540290603E-01  0.12866671917E-01  0.22827854807E-01  0.00000000000E+00 0. -1.
     999901    1    3    3    0    0 -0.11444205673E+00  0.38601217145E-01 -0.18328042824E-01  0.88843849279E+00  0.88000000000E+00 0.  1.
        -11    1    4    4    0    0  0.45386412971E-01 -0.15482498735E-01 -0.57594716305E-02  0.48301831062E-01  0.51100000000E-03 0. -1.
         11    1    4    4    0    0  0.72493278587E-01 -0.41659009012E-01  0.11220842538E-01  0.84361821343E-01  0.51100000000E-03 0.  1.
</event>
<event>
 8    1  0.1213322E+005  0.1043930E+01  0.7957747E-01            NaN
         13   -1    0    0    0    0  0.00000000000E+00  0.00000000000E+00  0.74505805969E-08  0.10566000000E+00  0.10566000000E+00 0. -1.
     999900   -1    0    0    0    0 -0.00000000000E+00 -0.00000000000E+00 -0.74505805969E-08  0.93827000000E+00  0.93827000000E+00 0. -1.
     999902    2    1    2    0    0  0.12580915755E-01 -0.16598106892E-01  0.11738474682E-01  0.10200225037E+01  0.10197422908E+01 0.  0.
     999903    2    3    3    0    0  0.10888159923E+00 -0.11288568901E-01  0.73517874686E-01  0.13259999600E+00  0.13973067050E-01 0.  0.
         14    1    1    2    0    0 -0.12580915755E-01  0.16598106892E-01 -0.11738474682E-01  0.23907496345E-01  0.00000000000E+00 0.  1.
     999901    1    3    3    0    0 -0.96300683470E-01 -0.53095379905E-02 -0.61779400004E-01  0.88742250766E+00  0.88000000000E+00 0.  1.
        -11    1    4    4    0    0  0.58166118288E-01 -0.89903079664E-02  0.46999074453E-01  0.75321292305E-01  0.51100000000E-03 0.  1.
         11    1    4    4    0    0  0.50715480938E-01 -0.22982609351E-02  0.26518800232E-01  0.57278703694E-01  0.51100000000E-03 0. -1.
</event>
<event>
 8    1  0.1213322E+005  0.1043930E+01  0.7957747E-01            NaN
         13   -1    0    0    0    0  0.00000000000E+00  0.00000000000E+00  0.74505805969E-08  0.10566000000E+00  0.10566000000E+00 0.  1.
     999900   -1    0    0    0    0 -0.00000000000E+00 -0.00000000000E+00 -0.74505805969E-08  0.93827000000E+00  0.93827000000E+00 0. -1.
     999902    2    1    2    0    0 -0.15646634654E-01  0.60758837380E-02 -0.19414269287E-01  0.10182658735E+01  0.10179424059E+01 0.  0.
     999903    2    3    3    0    0  0.52986680484E-01 -0.25616143403E-01 -0.11413666583E+00  0.12996004271E+00  0.19966449412E-01 0.  0.
         14    1    1    2    0    0  0.15646634654E-01 -0.60758837380E-02  0.19414269287E-01  0.25664126542E-01  0.00000000000E+00 0.  1.
     999901    1    3    3    0    0 -0.68633315139E-01  0.31692027141E-01  0.94722396547E-01  0.88830583075E+00  0.88000000000E+00 0.  1.
        -11    1    4    4    0    0  0.15282831085E-01 -0.48016466100E-02 -0.15350693641E-01  0.22192918970E-01  0.51100000000E-03 0.  1.
         11    1    4    4    0    0  0.37703849399E-01 -0.20814496793E-01 -0.98785972194E-01  0.10776712374E+00  0.51100000000E-03 0. -1.
</event>
<event>
 8    1  0.1213322E+005  0.1043930E+01  0.7957747E-01            NaN
         13   -1    0    0    0    0  0.00000000000E+00  0.00000000000E+00  0.74505805969E-08  0.10566000000E+00  0.10566000000E+00 0. -1.
     999900   -1    0    0    0    0 -0.00000000000E+00 -0.00000000000E+00 -0.74505805969E-08  0.93827000000E+00  0.93827000000E+00 0.  1.
     999902    2    1    2    0    0  0.18726012858E-01 -0.48569022747E-02  0.13680235529E-01  0.10202360788E+01  0.10199609084E+01 0.  0.
     999903    2    3    3    0    0 -0.68254541937E-01  0.10731212754E+00  0.26557015995E-02  0.12879396150E+00  0.20155806998E-01 0.  0.
         14    1    1    2    0    0 -0.18726012858E-01  0.48569022747E-02 -0.13680235529E-01  0.23693921191E-01  0.00000000000E+00 0.  1.
     999901    1    3    3    0    0  0.86980554795E-01 -0.11216902982E+00  0.11024533929E-01  0.89144211731E+00  0.88000000000E+00 0.  1.
        -11    1    4    4    0    0 -0.27387569623E-01  0.51510702634E-01 -0.77294693198E-02  0.58850975121E-01  0.51100000000E-03 0. -1.
         11    1    4    4    0    0 -0.40866972314E-01  0.55801424906E-01  0.10385170919E-01  0.69942986380E-01  0.51100000000E-03 0.  1.
</event>
<event>
 8    1  0.1213322E+005  0.1043930E+01  0.7957747E-01            NaN
         13   -1    0    0    0    0  0.00000000000E+00  0.00000000000E+00  0.74505805969E-08  0.10566000000E+00  0.10566000000E+00 0. -1.
     999900   -1    0    0    0    0 -0.00000000000E+00 -0.00000000000E+00 -0.74505805969E-08  0.93827000000E+00  0.93827000000E+00 0.  1.
     999902    2    1    2    0    0 -0.19229175872E-01  0.11414005470E-01 -0.12098821674E-02  0.10215357029E+01  0.10212902075E+01 0.  0.
     999903    2    3    3    0    0  0.67493109791E-01 -0.67288226146E-01  0.85658082214E-01  0.12953747463E+00  0.18963782243E-01 0.  0.
         14    1    1    2    0    0  0.19229175872E-01 -0.11414005470E-01  0.12098821674E-02  0.22394297052E-01  0.00000000000E+00 0.  1.
     999901    1    3    3    0    0 -0.86722285664E-01  0.78702231616E-01 -0.86867964381E-01  0.89199822832E+00  0.88000000000E+00 0.  1.
        -11    1    4    4    0    0  0.20021287318E-01 -0.31565644989E-01  0.38707038900E-01  0.53812060645E-01  0.51100000000E-03 0. -1.
         11    1    4    4    0    0  0.47471822474E-01 -0.35722581157E-01  0.46951043313E-01  0.75725413982E-01  0.51100000000E-03 0.  1.
</event>
<event>
 8    1  0.1213322E+005  0.1043930E+01  0.7957747E-01            NaN
         13   -1    0    0    0    0  0.00000000000E+00  0.00000000000E+00  0.74505805969E-08  0.10566000000E+00  0.10566000000E+00 0.  1.
     999900   -1    0    0    0    0 -0.00000000000E+00 -0.00000000000E+00 -0.74505805969E-08  0.93827000000E+00  0.93827000000E+00 0. -1.
     999902    2    1    2    0    0  0.14577234470E-01  0.27951494025E-02 -0.17959825078E-01  0.10206305592E+01  0.10203645792E+01 0.  0.
     999903    2    3    3    0    0  0.10416565936E+00  0.55492602118E-02 -0.81549824646E-01  0.13379497181E+00  0.19220866376E-01 0.  0.
         14    1    1    2    0    0 -0.14577234470E-01 -0.27951494025E-02  0.17959825078E-01  0.23299440805E-01  0.00000000000E+00 0.  1.
     999901    1    3    3    0    0 -0.89588424889E-01 -0.27541108092E-02  0.63589999568E-01  0.88683558738E+00  0.88000000000E+00 0.  1.
        -11    1    4    4    0    0  0.49558889483E-01  0.57765450257E-02 -0.50419845348E-01  0.70935702754E-01  0.51100000000E-03 0. -1.
         11    1    4    4    0    0  0.54606769876E-01 -0.22728481396E-03 -0.31129979298E-01  0.62859269060E-01  0.51100000000E-03 0.  1.
</event>
<event>
 8    1  0.1213322E+005  0.1043930E+01  0.7957747E-01            NaN
         13   -1    0    0    0    0  0.00000000000E+00  0.00000000000E+00  0.74505805969E-08  0.10566000000E+00  0.10566000000E+00 0.  1.
     999900   -1    0    0    0    0 -0.00000000000E+00 -0.00000000000E+00 -0.74505805969E-08  0.93827000000E+00  0.93827000000E+00 0. -1.
     999902    2    1    2    0    0  0.79896253092E-03  0.10077668152E-01 -0.19998390752E-01  0.10215216674E+01  0.10212758607E+01 0.  0.
     999903    2    3    3    0    0  0.45766096633E-01 -0.56997944822E-01 -0.10997108692E+00  0.13325579108E+00  0.17893143487E-01 0.  0.
         14    1    1    2    0    0 -0.79896253092E-03 -0.10077668152E-01  0.19998390752E-01  0.22408332583E-01  0.00000000000E+00 0.  1.
     999901    1    3    3    0    0 -0.44967134102E-01  0.67075612975E-01  0.89972696166E-01  0.88826587633E+00  0.88000000000E+00 0.  1.
        -11    1    4    4    0    0  0.31075319134E-01 -0.48053542444E-01 -0.75597948269E-01  0.94816292398E-01  0.51100000000E-03 0.  1.
         11    1    4    4    0    0  0.14690777499E-01 -0.89444023786E-02 -0.34373138649E-01  0.38439498683E-01  0.51100000000E-03 0. -1.
</event>
<event>
 8    1  0.1213322E+005  0.1043930E+01  0.7957747E-01            NaN
         13   -1    0    0    0    0  0.00000000000E+00  0.00000000000E+00  0.74505805969E-08  0.10566000000E+00  0.10566000000E+00 0. -1.
     999900   -1    0    0    0    0 -0.00000000000E+00 -0.00000000000E+00 -0.74505805969E-08  0.93827000000E+00  0.93827000000E+00 0.  1.
     999902    2    1    2    0    0 -0.74526052196E-02  0.24015811637E-01  0.59213404167E-02  0.10180966339E+01  0.10177688309E+01 0.  0.
     999903    2    3    3    0    0  0.11775335334E+00  0.43268775058E-01  0.21460198686E-01  0.12888987233E+00  0.20347480014E-01 0.  0.
         14    1    1    2    0    0  0.74526052196E-02 -0.24015811637E-01 -0.59213404167E-02  0.25833366127E-01  0.00000000000E+00 0.  1.
     999901    1    3    3    0    0 -0.12520595856E+00 -0.19252963421E-01 -0.15538858269E-01  0.88920676154E+00  0.88000000000E+00 0.  1.
        -11    1    4    4    0    0  0.54161690312E-01  0.13769333242E-01  0.11280606066E-02  0.55898272577E-01  0.51100000000E-03 0.  1.
         11    1    4    4    0    0  0.63591663030E-01  0.29499441816E-01  0.20332138079E-01  0.72991599751E-01  0.51100000000E-03 0. -1.
</event>
<event>
 8    1  0.1213322E+005  0.1043930E+01  0.7957747E-01            NaN
         13   -1    0    0    0    0  0.00000000000E+00  0.00000000000E+00  0.74505805969E-08  0.10566000000E+00  0.10566000000E+00 0.  1.
     999900   -1    0    0    0    0 -0.00000000000E+00 -0.00000000000E+00 -0.74505805969E-08  0.93827000000E+00  0.93827000000E+00 0.  1.
     999902    2    1    2    0    0 -0.16589638988E-01 -0.13765115961E-01  0.98682327387E-02  0.10202218462E+01  0.10199463412E+01 0.  0.
     999903    2    3    3    0    0  0.10398141372E+00  0.50259985348E-01  0.53032106717E-01  0.12865036148E+00  0.20007764470E-01 0.  0.
         14    1    1    2    0    0  0.16589638988E-01  0.13765115961E-01 -0.98682327387E-02  0.23708153799E-01  0.00000000000E+00 0. -1.
     999901    1    3    3    0    0 -0.12057105271E+00 -0.64025101310E-01 -0.43163873979E-01  0.89157148472E+00  0.88000000000E+00 0.  1.
        -11    1    4    4    0    0  0.31500453466E-01  0.53943196370E-02  0.14019978429E-01  0.34902695727E-01  0.51100000000E-03 0. -1.
         11    1    4    4    0    0  0.72480960257E-01  0.44865665711E-01  0.39012128289E-01  0.93747665753E-01  0.51100000000E-03 0.  1.
</event>
<event>
 8    1  0.1213322E+005  0.1043930E+01  0.7957747E-01            NaN
         13   -1    0    0    0    0  0.00000000000E+00  0.00000000000E+00  0.74505805969E-08  0.10566000000E+00  0.10566000000E+00 0.  1.
     999900   -1    0    0    0    0 -0.00000000000E+00 -0.00000000000E+00 -0.74505805969E-08  0.93827000000E+00  0.93827000000E+00 0. -1.
     999902    2    1    2    0    0  0.17993464217E-02  0.14009462133E-01  0.19524996514E-01  0.10198316979E+01  0.10195469405E+01 0.  0.
     999903    2    3    3    0    0 -0.47907134710E-01  0.89290906655E-01  0.83629320886E-01  0.13290024924E+00  0.20016327580E-01 0.  0.
         14    1    1    2    0    0 -0.17993464217E-02 -0.14009462133E-01 -0.19524996514E-01  0.24098302132E-01  0.00000000000E+00 0. -1.
     999901    1    3    3    0    0  0.49706481132E-01 -0.75281444522E-01 -0.64104324372E-01  0.88693144862E+00  0.88000000000E+00 0. -1.
        -11    1    4    4    0    0 -0.24492081831E-01  0.62130412634E-01  0.61299755370E-01  0.90653027395E-01  0.51100000000E-03 0. -1.
         11    1    4    4    0    0 -0.23415052879E-01  0.27160494020E-01  0.22329565516E-01  0.42247221848E-01  0.51100000000E-03 0.  1.
</event>
<event>
 8    1  0.1213322E+005  0.1043930E+01  0.7957747E-01            NaN
         13   -1    0    0    0    0  0.00000000000E+00  0.00000000000E+00  0.74505805969E-08  0.10566000000E+00  0.10566000000E+00 0. -1.
     999900   -1    0    0    0    0 -0.00000000000E+00 -0.00000000000E+00 -0.74505805969E-08  0.93827000000E+00  0.93827000000E+00 0. -1.
     999902    2    1    2    0    0  0.97399698540E-02 -0.19252313253E-01 -0.10509862982E-01  0.10199305042E+01  0.10196481048E+01 0.  0.
     999903    2    3    3    0    0  0.22039509506E-01  0.48845908326E-01 -0.11751891495E+00  0.13075134135E+00  0.20336055540E-01 0.  0.
         14    1    1    2    0    0 -0.97399698540E-02  0.19252313253E-01  0.10509862982E-01  0.23999495792E-01  0.00000000000E+00 0. -1.
     999901    1    3    3    0    0 -0.12299539652E-01 -0.68098221579E-01  0.10700905197E+00  0.88917916286E+00  0.88000000000E+00 0.  1.
        -11    1    4    4    0    0  0.15643059661E-01  0.25384860416E-01 -0.85433002712E-01  0.90488427588E-01  0.51100000000E-03 0.  1.
         11    1    4    4    0    0  0.63964498448E-02  0.23461047910E-01 -0.32085912235E-01  0.40262913762E-01  0.51100000000E-03 0. -1.
</event>
<event>
 8    1  0.1213322E+005  0.1043930E+01  0.7957747E-01            NaN
         13   -1    0    0    0    0  0.00000000000E+00  0.00000000000E+00  0.74505805969E-08  0.10566000000E+00  0.10566000000E+00 0. -1.
     999900   -1    0    0    0    0 -0.00000000000E+00 -0.00000000000E+00 -0.74505805969E-08  0.93827000000E+00  0.93827000000E+00 0. -1.
     999902    2    1    2    0    0  0.77915436617E-03  0.23670191812E-01 -0.43857541436E-03  0.10202429274E+01  0.10199679178E+01 0.  0.
     999903    2    3    3    0    0 -0.45768767233E-01  0.11413035619E+00 -0.46901886759E-01  0.13316424446E+00  0.20307899043E-01 0.  0.
         14    1    1    2    0    0 -0.77915436617E-03 -0.23670191812E-01  0.43857541436E-03  0.23687072641E-01  0.00000000000E+00 0. -1.
     999901    1    3    3    0    0  0.46547921600E-01 -0.90460164381E-01  0.46463311344E-01  0.88707868289E+00  0.88000000000E+00 0.  1.
        -11    1    4    4    0    0 -0.14216552816E-01  0.48418451868E-01 -0.99473157311E-02  0.51436048317E-01  0.51100000000E-03 0.  1.
         11    1    4    4    0    0 -0.31552214417E-01  0.65711904324E-01 -0.36954571028E-01  0.81728196147E-01  0.51100000000E-03 0. -1.
</event>
<event>
 8    1  0.1213322E+005  0.1043930E+01  0.7957747E-01            NaN
         13   -1    0    0    0    0  0.00000000000E+00  0.00000000000E+00  0.74505805969E-08  0.10566000000E+00  0.10566000000E+00 0. -1.
     999900   -1    0    0    0    0 -0.00000000000E+00 -0.00000000000E+00 -0.74505805969E-08  0.93827000000E+00  0.93827000000E+00 0. -1.
     999902    2    1    2    0    0 -0.74362736797E-02 -0.18750701870E-01 -0.12716211203E-01  0.10200848954E+01  0.10198061604E+01 0.  0.
     999903    2    3    3    0    0  0.61076670359E-01  0.84540902307E-01 -0.73886862878E-01  0.12929590375E+00  0.19509956293E-01 0.  0.
         14    1    1    2    0    0  0.74362736797E-02  0.18750701870E-01  0.12716211203E-01  0.23845104617E-01  0.00000000000E+00 0. -1.
     999901    1    3    3    0    0 -0.68512944039E-01 -0.10329160418E+00  0.61170651676E-01  0.89078899164E+00  0.88000000000E+00 0.  1.
        -11    1    4    4    0    0  0.40461578100E-01  0.69917524440E-01 -0.54719319285E-01  0.97570818128E-01  0.51100000000E-03 0. -1.
         11    1    4    4    0    0  0.20615092259E-01  0.14623377867E-01 -0.19167543593E-01  0.31725085618E-01  0.51100000000E-03 0.  1.
</event>
<event>
 8    1  0.1213322E+005  0.1043930E+01  0.7957747E-01            NaN
         13   -1    0    0    0    0  0.00000000000E+00  0.00000000000E+00  0.74505805969E-08  0.10566000000E+00  0.10566000000E+00 0. -1.
     999900   -1    0    0    0    0 -0.00000000000E+00 -0.00000000000E+00 -0.74505805969E-08  0.93827000000E+00  0.93827000000E+00 0.  1.
     999902    2    1    2    0    0  0.11799594136E-01  0.18584875073E-01 -0.91635081117E-02  0.10200847094E+01  0.10198059700E+01 0.  0.
     999903    2    3    3    0    0 -0.28547631704E-01 -0.66445307321E-01  0.10355383592E+00  0.12791699523E+00  0.20233995979E-01 0.  0.
         14    1    1    2    0    0 -0.11799594136E-01 -0.18584875073E-01  0.91635081117E-02  0.23845290608E-01  0.00000000000E+00 0.  1.
     999901    1    3    3    0    0  0.40347225839E-01  0.85030182394E-01 -0.11271734403E+00  0.89216771416E+00  0.88000000000E+00 0.  1.
        -11    1    4    4    0    0 -0.14496483960E-01 -0.35226527712E-01  0.71497925602E-01  0.81014015999E-01  0.51100000000E-03 0.  1.
         11    1    4    4    0    0 -0.14051147744E-01 -0.31218779609E-01  0.32055910319E-01  0.46902979229E-01  0.51100000000E-03 0. -1.
</event>
<event>
 8    1  0.1213322E+005  0.1043930E+01  0.7957747E-01            NaN
         13   -1    0    0    0    0  0.00000000000E+00  0.00000000000E+00  0.74505805969E-08  0.10566000000E+00  0.10566000000E+00 0.  1.
     999900   -1    0    0    0    0 -0.00000000000E+00 -0.00000000000E+00 -0.74505805969E-08  0.93827000000E+00  0.93827000000E+00 0.  1.
     999902    2    1    2    0    0  0.37693921200E-03  0.96604889398E-02  0.36050046841E-02  0.10336119000E+01  0.10335603981E+01 0.  0.
     999903    2    3    3    0    0  0.12855858248E+00 -0.47884586604E-01  0.31649372725E-01  0.14202429575E+00  0.18680873330E-01 0.  0.
         14    1    1    2    0    0 -0.37693921200E-03 -0.96604889398E-02 -0.36050046841E-02  0.10318100043E-01  0.00000000000E+00 0.  1.
     999901    1    3    3    0    0 -0.12818164326E+00  0.57545075544E-01 -0.28044368041E-01  0.89158760420E+00  0.88000000000E+00 0.  1.
        -11    1    4    4    0    0  0.86758138475E-01 -0.29444182772E-01  0.12440783296E-01  0.92460633249E-01  0.51100000000E-03 0. -1.
         11    1    4    4    0    0  0.41800444000E-01 -0.18440403832E-01  0.19208589429E-01  0.49563662505E-01  0.51100000000E-03 0.  1.
</event>
<event>
 8    1  0.1213322E+005  0.1043930E+01  0.7957747E-01            NaN
         13   -1    0    0    0    0  0.00000000000E+00  0.00000000000E+00  0.74505805969E-08  0.10566000000E+00  0.10566000000E+00 0. -1.
     999900   -1    0    0    0    0 -0.00000000000E+00 -0.00000000000E+00 -0.74505805969E-08  0.93827000000E+00  0.93827000000E+00 0. -1.
     999902    2    1    2    0    0  0.99221906452E-02 -0.10997224846E-01 -0.11788796445E-01  0.10249994812E+01  0.10248246542E+01 0.  0.
     999903    2    3    3    0    0  0.82581794226E-02  0.12110122985E+00 -0.52574456459E-01  0.13420419564E+00  0.22649221966E-01 0.  0.
         14    1    1    2    0    0 -0.99221906452E-02  0.10997224846E-01  0.11788796445E-01  0.18930518829E-01  0.00000000000E+00 0.  1.
     999901    1    3    3    0    0  0.16640112226E-02 -0.13209845470E+00  0.40785660014E-01  0.89079528553E+00  0.88000000000E+00 0. -1.
        -11    1    4    4    0    0 -0.24360926035E-02  0.77402674457E-01 -0.41537921063E-01  0.87879284063E-01  0.51100000000E-03 0. -1.
         11    1    4    4    0    0  0.10694272026E-01  0.43698555395E-01 -0.11036535396E-01  0.46324911573E-01  0.51100000000E-03 0.  1.
</event>
<event>
 8    1  0.1213322E+005  0.1043930E+01  0.7957747E-01            NaN
         13   -1    0    0    0    0  0.00000000000E+00  0.00000000000E+00  0.74505805969E-08  0.10566000000E+00  0.10566000000E+00 0.  1.
     999900   -1    0    0    0    0 -0.00000000000E+00 -0.00000000000E+00 -0.74505805969E-08  0.93827000000E+00  0.93827000000E+00 0. -1.
     999902    2    1    2    0    0 -0.69143983676E-02  0.14214032868E-02  0.19859776538E-01  0.10228529979E+01  0.10226358176E+01 0.  0.
     999903    2    3    3    0    0 -0.12927018787E+00 -0.13931250920E-01  0.27130872414E-01  0.13422511628E+00  0.19376180664E-01 0.  0.
         14    1    1    2    0    0  0.69143983676E-02 -0.14214032868E-02 -0.19859776538E-01  0.21077002069E-01  0.00000000000E+00 0. -1.
     999901    1    3    3    0    0  0.12235578950E+00  0.15352654207E-01 -0.72710958762E-02  0.88862788165E+00  0.88000000000E+00 0. -1.
        -11    1    4    4    0    0 -0.28756329191E-01  0.47194725455E-02  0.41042338686E-02  0.29433072322E-01  0.51100000000E-03 0.  1.
         11    1    4    4    0    0 -0.10051385868E+00 -0.18650723466E-01  0.23026638545E-01  0.10479204396E+00  0.51100000000E-03 0. -1.
</event>
<event>
 8    1  0.1213322E+005  0.1043930E+01  0.7957747E-01            NaN
         13   -1    0    0    0    0  0.00000000000E+00  0.00000000000E+00  0.74505805969E-08  0.10566000000E+00  0.10566000000E+00 0. -1.
     999900   -1    0    0    0    0 -0.00000000000E+00 -0.00000000000E+00 -0.74505805969E-08  0.93827000000E+00  0.93827000000E+00 0. -1.
     999902    2    1    2    0    0  0.74279250198E-02 -0.30847807530E-02 -0.22866966352E-01  0.10196897836E+01  0.10194016218E+01 0.  0.
     999903    2    3    3    0    0  0.11051023671E+00 -0.58181479699E-01 -0.37605507342E-01  0.13183910141E+00  0.19229599104E-01 0.  0.
         14    1    1    2    0    0 -0.74279250198E-02  0.30847807530E-02  0.22866966352E-01  0.24240216430E-01  0.00000000000E+00 0. -1.
     999901    1    3    3    0    0 -0.10308231169E+00  0.55096698946E-01  0.14738540989E-01  0.88785068216E+00  0.88000000000E+00 0. -1.
        -11    1    4    4    0    0  0.65548370348E-01 -0.44635457581E-01 -0.21117042823E-01  0.82067676629E-01  0.51100000000E-03 0.  1.
         11    1    4    4    0    0  0.44961866360E-01 -0.13546022118E-01 -0.16488464519E-01  0.49771424783E-01  0.51100000000E-03 0. -1.
</event>
<event>
 8    1  0.1213322E+005  0.1043930E+01  0.7957747E-01            NaN
         13   -1    0    0    0    0  0.00000000000E+00  0.00000000000E+00  0.74505805969E-08  0.10566000000E+00  0.10566000000E+00 0.  1.
     999900   -1    0    0    0    0 -0.00000000000E+00 -0.00000000000E+00 -0.74505805969E-08  0.93827000000E+00  0.93827000000E+00 0. -1.
     999902    2    1    2    0    0 -0.22796824674E-01 -0.84470008313E-02 -0.86113605151E-02  0.10181384788E+01  0.10178117504E+01 0.  0.
     999903    2    3    3    0    0 -0.96880777144E-01 -0.86247374907E-01 -0.84861438166E-02  0.13160514836E+00  0.20576826274E-01 0.  0.
         14    1    1    2    0    0  0.22796824674E-01  0.84470008313E-02  0.86113605151E-02  0.25791521246E-01  0.00000000000E+00 0. -1.
     999901    1    3    3    0    0  0.74083952470E-01  0.77800374076E-01 -0.12521669848E-03  0.88653333039E+00  0.88000000000E+00 0.  1.
        -11    1    4    4    0    0 -0.54517487595E-02 -0.13114281458E-01 -0.19132436806E-02  0.14339719840E-01  0.51100000000E-03 0.  1.
         11    1    4    4    0    0 -0.91429028385E-01 -0.73133093449E-01 -0.65729001360E-02  0.11726542852E+00  0.51100000000E-03 0. -1.
</event>
<event>
 8    1  0.1213322E+005  0.1043930E+01  0.7957747E-01            NaN
         13   -1    0    0    0    0  0.00000000000E+00  0.00000000000E+00  0.74505805969E-08  0.10566000000E+00  0.10566000000E+00 0.  1.
     999900   -1    0    0    0    0 -0.00000000000E+00 -0.00000000000E+00 -0.74505805969E-08  0.93827000000E+00  0.93827000000E+00 0.  1.
     999902    2    1    2    0    0 -0.17478913698E-01 -0.95223863221E-02  0.14846167037E-01  0.10190986299E+01  0.10187960642E+01 0.  0.
     999903    2    3    3    0    0 -0.11483327548E+00  0.59727771290E-01  0.61451794739E-02  0.13098311755E+00  0.19097801767E-01 0.  0.
         14    1    1    2    0    0  0.17478913698E-01  0.95223863221E-02 -0.14846167037E-01  0.24831370100E-01  0.00000000000E+00 0.  1.
     999901    1    3    3    0    0  0.97354361782E-01 -0.69250157612E-01  0.87009875632E-02  0.88811551235E+00  0.88000000000E+00 0.  1.
        -11    1    4    4    0    0 -0.34572982387E-01  0.27475204477E-01  0.52871356952E-02  0.44479128780E-01  0.51100000000E-03 0. -1.
         11    1    4    4    0    0 -0.80260293094E-01  0.32252566812E-01  0.85804377871E-03  0.86503988773E-01  0.51100000000E-03 0.  1.
</event>
<event>
 8    1  0.1213322E+005  0.1043930E+01  0.7957747E-01            NaN
         13   -1    0    0    0    0  0.00000000000E+00  0.00000000000E+00  0.74505805969E-08  0.10566000000E+00  0.10566000000E+00 0.  1.
     999900   -1    0    0    0    0 -0.00000000000E+00 -0.00000000000E+00 -0.74505805969E-08  0.93827000000E+00  0.93827000000E+00 0. -1.
     999902    2    1    2    0    0 -0.24673105946E-01 -0.59243898485E-02  0.29819508865E-02  0.10183809769E+01  0.10180604410E+01 0.  0.
     999903    2    3    3    0    0 -0.44823127109E-02 -0.12468402209E+00  0.29654829848E-01  0.12977366154E+00  0.19889640621E-01 0.  0.
         14    1    1    2    0    0  0.24673105946E-01  0.59243898485E-02 -0.29819508865E-02  0.25549023136E-01  0.00000000000E+00 0.  1.
     999901    1    3    3    0    0 -0.20190793235E-01  0.11875963224E+00 -0.26672878962E-01  0.88860731533E+00  0.88000000000E+00 0. -1.
        -11    1    4    4    0    0 -0.87242709287E-02 -0.44847818911E-01  0.17385850434E-01  0.48887305925E-01  0.51100000000E-03 0. -1.
         11    1    4    4    0    0  0.42419582178E-02 -0.79836203177E-01  0.12268979414E-01  0.80886355611E-01  0.51100000000E-03 0.  1.
</event>
<event>
 8    1  0.1213322E+005  0.1043930E+01  0.7957747E-01            NaN
         13   -1    0    0    0    0  0.00000000000E+00  0.00000000000E+00  0.74505805969E-08  0.10566000000E+00  0.10566000000E+00 0. -1.
     999900   -1    0    0    0    0 -0.00000000000E+00 -0.00000000000E+00 -0.74505805969E-08  0.93827000000E+00  0.93827000000E+00 0.  1.
     999902    2    1    2    0    0  0.18332847248E-02  0.15406788452E-01 -0.19595848459E-01  0.10189354538E+01  0.10186288488E+01 0.  0.
     999903    2    3    3    0    0  0.60303121418E-01  0.32489311662E-01  0.10606837180E+00  0.12792365216E+00  0.20541165001E-01 0.  0.
         14    1    1    2    0    0 -0.18332847248E-02 -0.15406788452E-01  0.19595848459E-01  0.24994546207E-01  0.00000000000E+00 0. -1.
     999901    1    3    3    0    0 -0.58469836693E-01 -0.17082523210E-01 -0.12566422026E+00  0.89101180164E+00  0.88000000000E+00 0.  1.
        -11    1    4    4    0    0  0.24869920028E-01  0.22468836139E-01  0.39135948078E-01  0.51529070170E-01  0.51100000000E-03 0. -1.
         11    1    4    4    0    0  0.35433201390E-01  0.10020475522E-01  0.66932423722E-01  0.76394581986E-01  0.51100000000E-03 0.  1.
</event>
<event>
 8    1  0.1213322E+005  0.1043930E+01  0.7957747E-01            NaN
         13   -1    0    0    0    0  0.00000000000E+00  0.00000000000E+00  0.74505805969E-08  0.10566000000E+00  0.10566000000E+00 0.  1.
     999900   -1    0    0    0    0 -0.00000000000E+00 -0.00000000000E+00 -0.74505805969E-08  0.93827000000E+00  0.93827000000E+00 0.  1.
     999902    2    1    2    0    0 -0.21065699491E-01 -0.28696877678E-01 -0.11908267511E-01  0.10063922681E+01  0.10056919588E+01 0.  0.
     999903    2    3    3    0    0 -0.84165679986E-02 -0.99269109701E-01  0.64187859710E-01  0.12020320188E+00  0.20088146990E-01 0.  0.
         14    1    1    2    0    0  0.21065699491E-01  0.28696877678E-01  0.11908267511E-01  0.37537731932E-01  0.00000000000E+00 0.  1.
     999901    1    3    3    0    0 -0.12649131492E-01  0.70572232022E-01 -0.76096127221E-01  0.88618906619E+00  0.88000000000E+00 0.  1.
        -11    1    4    4    0    0 -0.10722116877E-01 -0.36633643774E-01  0.17217971307E-01  0.41877288635E-01  0.51100000000E-03 0. -1.
         11    1    4    4    0    0  0.23055488780E-02 -0.62635465927E-01  0.46969888403E-01  0.78325913241E-01  0.51100000000E-03 0.  1.
</event>
<event>
 8    1  0.1213322E+005  0.1043930E+01  0.7957747E-01            NaN
         13   -1    0    0    0    0  0.00000000000E+00  0.00000000000E+00  0.74505805969E-08  0.10566000000E+00  0.10566000000E+00 0. -1.
     999900   -1    0    0    0    0 -0.00000000000E+00 -0.00000000000E+00 -0.74505805969E-08  0.93827000000E+00  0.93827000000E+00 0. -1.
     999902    2    1    2    0    0 -0.14965737223E-01 -0.70679649838E-02  0.17234544754E-01  0.10200352526E+01  0.10197553420E+01 0.  0.
     999903    2    3    3    0    0 -0.86037190749E-01 -0.55817452744E-01  0.82993009448E-01  0.13338321278E+00  0.19627929388E-01 0.  0.
         14    1    1    2    0    0  0.14965737223E-01  0.70679649838E-02 -0.17234544754E-01  0.23894747384E-01  0.00000000000E+00 0.  1.
     999901    1    3    3    0    0  0.71071453526E-01  0.48749487760E-01 -0.65758464694E-01  0.88665203983E+00  0.88000000000E+00 0.  1.
        -11    1    4    4    0    0 -0.50398537745E-01 -0.24617981315E-01  0.53913018736E-01  0.77800593321E-01  0.51100000000E-03 0. -1.
         11    1    4    4    0    0 -0.35638653004E-01 -0.31199471429E-01  0.29079990713E-01  0.55582619462E-01  0.51100000000E-03 0.  1.
</event>
<event>
 8    1  0.1213322E+005  0.1043930E+01  0.7957747E-01            NaN
         13   -1    0    0    0    0  0.00000000000E+00  0.00000000000E+00  0.74505805969E-08  0.10566000000E+00  0.10566000000E+00 0.  1.
     999900   -1    0    0    0    0 -0.00000000000E+00 -0.00000000000E+00 -0.74505805969E-08  0.93827000000E+00  0.93827000000E+00 0.  1.
     999902    2    1    2    0    0 -0.46948830148E-02 -0.10608808080E-01 -0.20294049431E-01  0.10205540042E+01  0.10202862532E+01 0.  0.
     999903    2    3    3    0    0  0.10255215282E+00 -0.65734505716E-01  0.41278882510E-01  0.13019902156E+00  0.20245241036E-01 0.  0.
         14    1    1    2    0    0  0.46948830148E-02  0.10608808080E-01  0.20294049431E-01  0.23375995758E-01  0.00000000000E+00 0.  1.
     999901    1    3    3    0    0 -0.10724703583E+00  0.55125697636E-01 -0.61572931941E-01  0.89035498268E+00  0.88000000000E+00 0.  1.
        -11    1    4    4    0    0  0.41471120916E-01 -0.15713772760E-01  0.18238203812E-01  0.47954871741E-01  0.51100000000E-03 0.  1.
         11    1    4    4    0    0  0.61081031904E-01 -0.50020732956E-01  0.23040678697E-01  0.82244149821E-01  0.51100000000E-03 0. -1.
</event>
<event>
 8    1  0.1213322E+005  0.1043930E+01  0.7957747E-01            NaN
         13   -1    0    0    0    0  0.00000000000E+00  0.00000000000E+00  0.74505805969E-08  0.10566000000E+00  0.10566000000E+00 0. -1.
     999900   -1    0    0    0    0 -0.00000000000E+00 -0.00000000000E+00 -0.74505805969E-08  0.93827000000E+00  0.93827000000E+00 0. -1.
     999902    2    1    2    0    0  0.89547144078E-03  0.96280815894E-02  0.20327012673E-01  0.10214202406E+01  0.10211721787E+01 0.  0.
     999903    2    3    3    0    0  0.24462013082E-01  0.78200049732E-01  0.10473830082E+00  0.13441248287E+00  0.19569517862E-01 0.  0.
         14    1    1    2    0    0 -0.89547144078E-03 -0.96280815894E-02 -0.20327012673E-01  0.22509759404E-01  0.00000000000E+00 0.  1.
     999901    1    3    3    0    0 -0.23566541641E-01 -0.68571968143E-01 -0.84411288151E-01  0.88700775773E+00  0.88000000000E+00 0. -1.
        -11    1    4    4    0    0  0.69827437862E-03  0.31299508892E-01  0.45124639108E-01  0.54923956700E-01  0.51100000000E-03 0.  1.
         11    1    4    4    0    0  0.23763738703E-01  0.46900540841E-01  0.59613661717E-01  0.79488526169E-01  0.51100000000E-03 0. -1.
</event>
<event>
 8    1  0.1213322E+005  0.1043930E+01  0.7957747E-01            NaN
         13   -1    0    0    0    0  0.00000000000E+00  0.00000000000E+00  0.74505805969E-08  0.10566000000E+00  0.10566000000E+00 0.  1.
     999900   -1    0    0    0    0 -0.00000000000E+00 -0.00000000000E+00 -0.74505805969E-08  0.93827000000E+00  0.93827000000E+00 0. -1.
     999902    2    1    2    0    0 -0.23269793717E-01 -0.73252658988E-02 -0.38966836251E-03  0.10195313389E+01  0.10192393519E+01 0.  0.
     999903    2    3    3    0    0  0.83562831216E-01  0.46038531347E-01 -0.82367122717E-01  0.12768986893E+00  0.20446676824E-01 0.  0.
         14    1    1    2    0    0  0.23269793717E-01  0.73252658988E-02  0.38966836251E-03  0.24398661061E-01  0.00000000000E+00 0. -1.
     999901    1    3    3    0    0 -0.10683262493E+00 -0.53363797246E-01  0.81977454355E-01  0.89184147001E+00  0.88000000000E+00 0.  1.
        -11    1    4    4    0    0  0.52615197093E-01  0.32685050128E-01 -0.64929429350E-01  0.89737190639E-01  0.51100000000E-03 0. -1.
         11    1    4    4    0    0  0.30947634123E-01  0.13353481219E-01 -0.17437693367E-01  0.37952678291E-01  0.51100000000E-03 0.  1.
</event>
<event>
 8    1  0.1213322E+005  0.1043930E+01  0.7957747E-01            NaN
         13   -1    0    0    0    0  0.00000000000E+00  0.00000000000E+00  0.74505805969E-08  0.10566000000E+00  0.10566000000E+00 0. -1.
     999900   -1    0    0    0    0 -0.00000000000E+00 -0.00000000000E+00 -0.74505805969E-08  0.93827000000E+00  0.93827000000E+00 0. -1.
     999902    2    1    2    0    0 -0.14762624003E-02 -0.22325499877E-01 -0.66859765457E-02  0.10205781355E+01  0.10203109433E+01 0.  0.
     999903    2    3    3    0    0  0.19261265943E-01  0.15675567212E-01 -0.12706178753E+00  0.13132875420E+00  0.22041416840E-01 0.  0.
         14    1    1    2    0    0  0.14762624003E-02  0.22325499877E-01  0.66859765457E-02  0.23351864547E-01  0.00000000000E+00 0. -1.
     999901    1    3    3    0    0 -0.20737528344E-01 -0.38001067089E-01  0.12037581099E+00  0.88924938125E+00  0.88000000000E+00 0.  1.
        -11    1    4    4    0    0 -0.48205725976E-02  0.19339053382E-02 -0.14827433402E-01  0.15719154313E-01  0.51100000000E-03 0.  1.
         11    1    4    4    0    0  0.24081838541E-01  0.13741661874E-01 -0.11223435413E+00  0.11560959989E+00  0.51100000000E-03 0. -1.
</event>
<event>
 8    1  0.1213322E+005  0.1043930E+01  0.7957747E-01            NaN
         13   -1    0    0    0    0  0.00000000000E+00  0.00000000000E+00  0.74505805969E-08  0.10566000000E+00  0.10566000000E+00 0.  1.
     999900   -1    0    0    0    0 -0.00000000000E+00 -0.00000000000E+00 -0.74505805969E-08  0.93827000000E+00  0.93827000000E+00 0. -1.
     999902    2    1    2    0    0  0.19819613589E-01 -0.85973213460E-02  0.10386751129E-01  0.10199588587E+01  0.10196771341E+01 0.  0.
     999903    2    3    3    0    0  0.85359479881E-01 -0.80509481210E-01 -0.57109803644E-01  0.13202720719E+00  0.20040868147E-01 0.  0.
         14    1    1    2    0    0 -0.19819613589E-01  0.85973213460E-02 -0.10386751129E-01  0.23971141320E-01  0.00000000000E+00 0. -1.
     999901    1    3    3    0    0 -0.65539866293E-01  0.71912159864E-01  0.67496554774E-01  0.88793165149E+00  0.88000000000E+00 0.  1.
        -11    1    4    4    0    0  0.39000344853E-01 -0.28794376385E-01 -0.32388703963E-01  0.58304650547E-01  0.51100000000E-03 0.  1.
         11    1    4    4    0    0  0.46359135029E-01 -0.51715104825E-01 -0.24721099681E-01  0.73722556644E-01  0.51100000000E-03 0. -1.
</event>
<event>
 8    1  0.1213322E+005  0.1043930E+01  0.7957747E-01            NaN
         13   -1    0    0    0    0  0.00000000000E+00  0.00000000000E+00  0.74505805969E-08  0.10566000000E+00  0.10566000000E+00 0. -1.
     999900   -1    0    0    0    0 -0.00000000000E+00 -0.00000000000E+00 -0.74505805969E-08  0.93827000000E+00  0.93827000000E+00 0.  1.
     999902    2    1    2    0    0  0.14427667970E-01  0.10223868652E-01 -0.15614122093E-01  0.10203400466E+01  0.10200673138E+01 0.  0.
     999903    2    3    3    0    0 -0.70023316293E-01  0.98879397184E-01  0.42804842618E-01  0.12994432169E+00  0.19309898374E-01 0.  0.
         14    1    1    2    0    0 -0.14427667970E-01 -0.10223868652E-01  0.15614122093E-01  0.23589953412E-01  0.00000000000E+00 0. -1.
     999901    1    3    3    0    0  0.84450984263E-01 -0.88655528532E-01 -0.58418964711E-01  0.89039572490E+00  0.88000000000E+00 0.  1.
        -11    1    4    4    0    0 -0.19422263112E-01  0.39380842254E-01  0.21988462056E-01  0.49110371874E-01  0.51100000000E-03 0.  1.
         11    1    4    4    0    0 -0.50601053181E-01  0.59498554930E-01  0.20816380562E-01  0.80833949814E-01  0.51100000000E-03 0. -1.
</event>
<event>
 8    1  0.1213322E+005  0.1043930E+01  0.7957747E-01            NaN
         13   -1    0    0    0    0  0.00000000000E+00  0.00000000000E+00  0.74505805969E-08  0.10566000000E+00  0.10566000000E+00 0. -1.
     999900   -1    0    0    0    0 -0.00000000000E+00 -0.00000000000E+00 -0.74505805969E-08  0.93827000000E+00  0.93827000000E+00 0. -1.
     999902    2    1    2    0    0 -0.44671777500E-03 -0.20422086882E-01  0.12864775749E-01  0.10197895020E+01  0.10195037345E+01 0.  0.
     999903    2    3    3    0    0 -0.88597205787E-02 -0.11108549817E+00  0.70219718420E-01  0.13323424583E+00  0.20051754428E-01 0.  0.
         14    1    1    2    0    0  0.44671777500E-03  0.20422086882E-01 -0.12864775749E-01  0.24140498016E-01  0.00000000000E+00 0. -1.
     999901    1    3    3    0    0  0.84130028037E-02  0.90663411285E-01 -0.57354942671E-01  0.88655525615E+00  0.88000000000E+00 0. -1.
        -11    1    4    4    0    0 -0.10050228598E-01 -0.76358974193E-01  0.57933525752E-01  0.96375591109E-01  0.51100000000E-03 0. -1.
         11    1    4    4    0    0  0.11905080197E-02 -0.34726523974E-01  0.12286192669E-01  0.36858654722E-01  0.51100000000E-03 0.  1.
</event>
<event>
 8    1  0.1213322E+005  0.1043930E+01  0.7957747E-01            NaN
         13   -1    0    0    0    0  0.00000000000E+00  0.00000000000E+00  0.74505805969E-08  0.10566000000E+00  0.10566000000E+00 0. -1.
     999900   -1    0    0    0    0 -0.00000000000E+00 -0.00000000000E+00 -0.74505805969E-08  0.93827000000E+00  0.93827000000E+00 0.  1.
     999902    2    1    2    0    0 -0.12406268041E-01  0.16075025761E-01 -0.12572549251E-01  0.10200471414E+01  0.10197675126E+01 0.  0.
     999903    2    3    3    0    0 -0.76799669378E-01 -0.98598082600E-01 -0.30044175381E-01  0.13010237366E+00  0.20104826513E-01 0.  0.
         14    1    1    2    0    0  0.12406268041E-01 -0.16075025761E-01  0.12572549251E-01  0.23882858593E-01  0.00000000000E+00 0. -1.
     999901    1    3    3    0    0  0.64393401337E-01  0.11467310836E+00  0.17471626130E-01  0.88994476774E+00  0.88000000000E+00 0. -1.
        -11    1    4    4    0    0 -0.34404307644E-02 -0.87260331261E-02  0.22893891108E-02  0.96686421727E-02  0.51100000000E-03 0. -1.
         11    1    4    4    0    0 -0.73359238614E-01 -0.89872049474E-01 -0.32333564492E-01  0.12043373149E+00  0.51100000000E-03 0.  1.
</event>
<event>
 8    1  0.1213322E+005  0.1043930E+01  0.7957747E-01            NaN
         13   -1    0    0    0    0  0.00000000000E+00  0.00000000000E+00  0.74505805969E-08  0.10566000000E+00  0.10566000000E+00 0.  1.
     999900   -1    0    0    0    0 -0.00000000000E+00 -0.00000000000E+00 -0.74505805969E-08  0.93827000000E+00  0.93827000000E+00 0.  1.
     999902    2    1    2    0    0  0.19562807992E-01 -0.89317651950E-02  0.10100008100E-01  0.10201710007E+01  0.10198942987E+01 0.  0.
     999903    2    3    3    0    0  0.10294147202E+00  0.42221394267E-01  0.69901357321E-01  0.13273376417E+00  0.18773907450E-01 0.  0.
         14    1    1    2    0    0 -0.19562807992E-01  0.89317651950E-02 -0.10100008100E-01  0.23758999340E-01  0.00000000000E+00 0.  1.
     999901    1    3    3    0    0 -0.83378664025E-01 -0.51153159461E-01 -0.59801349221E-01  0.88743723649E+00  0.88000000000E+00 0.  1.
        -11    1    4    4    0    0  0.27995039588E-01  0.11576641872E-01  0.29320076322E-01  0.42162410689E-01  0.51100000000E-03 0. -1.
         11    1    4    4    0    0  0.74946432429E-01  0.30644752395E-01  0.40581281000E-01  0.90571353483E-01  0.51100000000E-03 0.  1.
</event>
<event>
 8    1  0.1213322E+005  0.1043930E+01  0.7957747E-01            NaN
         13   -1    0    0    0    0  0.00000000000E+00  0.00000000000E+00  0.74505805969E-08  0.10566000000E+00  0.10566000000E+00 0. -1.
     999900   -1    0    0    0    0 -0.00000000000E+00 -0.00000000000E+00 -0.74505805969E-08  0.93827000000E+00  0.93827000000E+00 0.  1.
     999902    2    1    2    0    0 -0.21550458258E-02 -0.22047311015E-01  0.64551650935E-02  0.10208562638E+01  0.10205954703E+01 0.  0.
     999903    2    3    3    0    0  0.11401929935E+00 -0.34007845503E-01  0.53638448883E-01  0.13188731321E+00  0.18980147717E-01 0.  0.
         14    1    1    2    0    0  0.21550458258E-02  0.22047311015E-01 -0.64551650935E-02  0.23073736192E-01  0.00000000000E+00 0. -1.
     999901    1    3    3    0    0 -0.11617434517E+00  0.11960534489E-01 -0.47183283789E-01  0.88896895060E+00  0.88000000000E+00 0. -1.
        -11    1    4    4    0    0  0.62167380023E-01 -0.21276432610E-01  0.39440668957E-01  0.76637440017E-01  0.51100000000E-03 0. -1.
         11    1    4    4    0    0  0.51851919324E-01 -0.12731412893E-01  0.14197779925E-01  0.55249873191E-01  0.51100000000E-03 0.  1.
</event>
<event>
 8    1  0.1213322E+005  0.1043930E+01  0.7957747E-01            NaN
         13   -1    0    0    0    0  0.00000000000E+00  0.00000000000E+00  0.74505805969E-08  0.10566000000E+00  0.10566000000E+00 0.  1.
     999900   -1    0    0    0    0 -0.00000000000E+00 -0.00000000000E+00 -0.74505805969E-08  0.93827000000E+00  0.93827000000E+00 0. -1.
     999902    2    1    2    0    0 -0.67203915121E-02  0.12971854354E-01 -0.18465285827E-01  0.10203843115E+01  0.10201126132E+01 0.  0.
     999903    2    3    3    0    0 -0.73103663174E-01 -0.75513484433E-02 -0.10829276628E+00  0.13308677578E+00  0.24157777758E-01 0.  0.
         14    1    1    2    0    0  0.67203915121E-02 -0.12971854354E-01  0.18465285827E-01  0.23545688525E-01  0.00000000000E+00 0. -1.
     999901    1    3    3    0    0  0.66383271662E-01  0.20523202797E-01  0.89827480451E-01  0.88729753570E+00  0.88000000000E+00 0.  1.
        -11    1    4    4    0    0 -0.68854719148E-01 -0.37519909356E-02 -0.86871379978E-01  0.11091414502E+00  0.51100000000E-03 0. -1.
         11    1    4    4    0    0 -0.42489440261E-02 -0.37993575077E-02 -0.21421386299E-01  0.22172630760E-01  0.51100000000E-03 0.  1.
</event>
<event>
 8    1  0.1213322E+005  0.1043930E+01  0.7957747E-01            NaN
         13   -1    0    0    0    0  0.00000000000E+00  0.00000000000E+00  0.74505805969E-08  0.10566000000E+00  0.10566000000E+00 0.  1.
     999900   -1    0    0    0    0 -0.00000000000E+00 -0.00000000000E+00 -0.74505805969E-08  0.93827000000E+00  0.93827000000E+00 0. -1.
     999902    2    1    2    0    0 -0.16334903988E-01 -0.15181864040E-01  0.90626079137E-02  0.10198582542E+01  0.10195741315E+01 0.  0.
     999903    2    3    3    0    0 -0.71986790293E-01 -0.10728148351E+00  0.25514368781E-01  0.13315078677E+00  0.19665561814E-01 0.  0.
         14    1    1    2    0    0  0.16334903988E-01  0.15181864040E-01 -0.90626079137E-02  0.24071745807E-01  0.00000000000E+00 0.  1.
     999901    1    3    3    0    0  0.55651886305E-01  0.92099619469E-01 -0.16451760868E-01  0.88670746743E+00  0.88000000000E+00 0. -1.
        -11    1    4    4    0    0 -0.65830840017E-02 -0.93433255363E-02  0.82880170375E-02  0.14127528958E-01  0.51100000000E-03 0. -1.
         11    1    4    4    0    0 -0.65403706291E-01 -0.97938157972E-01  0.17226351744E-01  0.11902325781E+00  0.51100000000E-03 0.  1.
</event>
<event>
 8    1  0.1213322E+005  0.1043930E+01  0.7957747E-01            NaN
         13   -1    0    0    0    0  0.00000000000E+00  0.00000000000E+00  0.74505805969E-08  0.10566000000E+00  0.10566000000E+00 0. -1.
     999900   -1    0    0    0    0 -0.00000000000E+00 -0.00000000000E+00 -0.74505805969E-08  0.93827000000E+00  0.93827000000E+00 0.  1.
     999902    2    1    2    0    0 -0.27617517725E-02 -0.94771521214E-02 -0.22642048136E-01  0.10192296755E+01  0.10189303340E+01 0.  0.
     999903    2    3    3    0    0  0.57748441625E-01  0.23711638811E-01 -0.11421077093E+00  0.13179077040E+00  0.20678071461E-01 0.  0.
         14    1    1    2    0    0  0.27617517725E-02  0.94771521214E-02  0.22642048136E-01  0.24700324471E-01  0.00000000000E+00 0. -1.
     999901    1    3    3    0    0 -0.60510193398E-01 -0.33188790933E-01  0.91568722797E-01  0.88743890513E+00  0.88000000000E+00 0. -1.
        -11    1    4    4    0    0  0.51585453969E-01  0.15412797577E-01 -0.83227545246E-01  0.99124662920E-01  0.51100000000E-03 0.  1.
         11    1    4    4    0    0  0.61629876556E-02  0.82988412340E-02 -0.30983225687E-01  0.32666107476E-01  0.51100000000E-03 0. -1.
</event>
<event>
 8    1  0.1213322E+005  0.1043930E+01  0.7957747E-01            NaN
         13   -1    0    0    0    0  0.00000000000E+00  0.00000000000E+00  0.74505805969E-08  0.10566000000E+00  0.10566000000E+00 0. -1.
     999900   -1    0    0    0    0 -0.00000000000E+00 -0.00000000000E+00 -0.74505805969E-08  0.93827000000E+00  0.93827000000E+00 0. -1.
     999902    2    1    2    0    0  0.82503255246E-02 -0.13664863911E-01  0.17832958067E-01  0.10199965345E+01  0.10197157053E+01 0.  0.
     999903    2    3    3    0    0  0.22960943801E-01  0.88650949814E-01 -0.87102016226E-01  0.12775425976E+00  0.18659952088E-01 0.  0.
         14    1    1    2    0    0 -0.82503255246E-02  0.13664863911E-01 -0.17832958067E-01  0.23933465491E-01  0.00000000000E+00 0.  1.
     999901    1    3    3    0    0 -0.14710618276E-01 -0.10231581372E+00  0.10493497429E+00  0.89224227475E+00  0.88000000000E+00 0.  1.
        -11    1    4    4    0    0  0.99402163903E-02  0.42216039608E-01 -0.28684267867E-01  0.52000483134E-01  0.51100000000E-03 0.  1.
         11    1    4    4    0    0  0.13020727410E-01  0.46434910205E-01 -0.58417748359E-01  0.75753776621E-01  0.51100000000E-03 0. -1.
</event>
<event>
 8    1  0.1213322E+005  0.1043930E+01  0.7957747E-01            NaN
         13   -1    0    0    0    0  0.00000000000E+00  0.00000000000E+00  0.74505805969E-08  0.10566000000E+00  0.10566000000E+00 0.  1.
     999900   -1    0    0    0    0 -0.00000000000E+00 -0.00000000000E+00 -0.74505805969E-08  0.93827000000E+00  0.93827000000E+00 0.  1.
     999902    2    1    2    0    0  0.81164984976E-02  0.22457586372E-01 -0.13583491021E-02  0.10200121020E+01  0.10197316423E+01 0.  0.
     999903    2    3    3    0    0 -0.10577837883E+00 -0.47042488355E-01  0.51405629144E-01  0.12839203666E+00  0.20974156313E-01 0.  0.
         14    1    1    2    0    0 -0.81164984976E-02 -0.22457586372E-01  0.13583491021E-02  0.23917898022E-01  0.00000000000E+00 0. -1.
     999901    1    3    3    0    0  0.11389487733E+00  0.69500074727E-01 -0.52763978246E-01  0.89162006531E+00  0.88000000000E+00 0. -1.
        -11    1    4    4    0    0 -0.49039530013E-01 -0.16550487147E-01  0.33054488629E-01  0.61413797051E-01  0.51100000000E-03 0.  1.
         11    1    4    4    0    0 -0.56738848815E-01 -0.30492001208E-01  0.18351140515E-01  0.66978239613E-01  0.51100000000E-03 0. -1.
</event>
<event>
 7    1  0.1213322E+005  0.1043930E+01  0.7957747E-01            NaN
         13   -1    0    0    0    0  0.00000000000E+00  0.00000000000E+00  0.74505805969E-08  0.10566000000E+00  0.10566000000E+00 0.  1.
     999900   -1    0    0    0    0 -0.00000000000E+00 -0.00000000000E+00 -0.74505805969E-08  0.93827000000E+00  0.93827000000E+00 0. -1.
     999902    2    1    2    0    0  0.17725232841E-02 -0.70558839752E-02  0.22481533498E-01  0.10203006393E+01  0.10200269839E+01 0.  0.
         14    1    1    2    0    0 -0.17725232841E-02  0.70558839752E-02 -0.22481533498E-01  0.23629360674E-01  0.00000000000E+00 0. -1.
     999901    1    3    3    0    0  0.76706291951E-01 -0.11224865325E-01 -0.86858554904E-01  0.88766787786E+00  0.88000000000E+00 0. -1.
        -11    1    3    3    0    0 -0.19955912261E-01  0.89897887184E-03  0.27965786046E-01  0.34371396645E-01  0.51100000000E-03 0.  1.
         11    1    3    3    0    0 -0.54977856406E-01  0.32700024777E-02  0.81374302356E-01  0.98261364819E-01  0.51100000000E-03 0. -1.
</event>
<event>
 7    1  0.1213322E+005  0.1043930E+01  0.7957747E-01            NaN
         13   -1    0    0    0    0  0.00000000000E+00  0.00000000000E+00  0.74505805969E-08  0.10566000000E+00  0.10566000000E+00 0.  1.
     999900   -1    0    0    0    0 -0.00000000000E+00 -0.00000000000E+00 -0.74505805969E-08  0.93827000000E+00  0.93827000000E+00 0.  1.
     999903    2    1    2    0    0 -0.19718244902E-01  0.76090114585E-01  0.74195684988E-01  0.11036392855E+00  0.22286371031E-01 0.  0.
         14    1    1    2    0    0 -0.16360352213E-01 -0.13691571814E-01  0.37940353032E-01  0.43526895725E-01  0.00000000000E+00 0.  1.
     999901    1    1    2    0    0  0.36078597115E-01 -0.62398542770E-01 -0.11213603802E+00  0.89003917573E+00  0.88000000000E+00 0.  1.
        -11    1    3    3    0    0  0.34189850872E-02  0.19881676216E-01  0.25236775984E-01  0.32312946187E-01  0.51100000000E-03 0.  1.
         11    1    3    3    0    0 -0.23137229989E-01  0.56208438368E-01  0.48958909004E-01  0.78050982359E-01  0.51100000000E-03 0. -1.
</event>
<event>
 8    1  0.1213322E+005  0.1043930E+01  0.7957747E-01            NaN
         13   -1    0    0    0    0  0.00000000000E+00  0.00000000000E+00  0.74505805969E-08  0.10566000000E+00  0.10566000000E+00 0.  1.
     999900   -1    0    0    0    0 -0.00000000000E+00 -0.00000000000E+00 -0.74505805969E-08  0.93827000000E+00  0.93827000000E+00 0. -1.
     999902    2    1    2    0    0  0.12388088695E-01  0.16267277014E-01 -0.11562000137E-01  0.10204402386E+01  0.10201698445E+01 0.  0.
     999903    2    3    3    0    0 -0.10817308561E+00  0.46196553424E-01  0.49764248823E-01  0.12960261752E+00  0.22018628669E-01 0.  0.
         14    1    1    2    0    0 -0.12388088695E-01 -0.16267277014E-01  0.11562000137E-01  0.23489761390E-01  0.00000000000E+00 0.  1.
     999901    1    3    3    0    0  0.12056117431E+00 -0.29929276410E-01 -0.61326248960E-01  0.89083762109E+00  0.88000000000E+00 0.  1.
        -11    1    4    4    0    0 -0.27382221027E-01  0.15280188920E-01  0.36494677933E-02  0.31572930462E-01  0.51100000000E-03 0. -1.
         11    1    4    4    0    0 -0.80790864585E-01  0.30916364504E-01  0.46114781029E-01  0.98029687059E-01  0.51100000000E-03 0.  1.
</event>
<event>
 8    1  0.1213322E+005  0.1043930E+01  0.7957747E-01            NaN
         13   -1    0    0    0    0  0.00000000000E+00  0.00000000000E+00  0.74505805969E-08  0.10566000000E+00  0.10566000000E+00 0.  1.
     999900   -1    0    0    0    0 -0.00000000000E+00 -0.00000000000E+00 -0.74505805969E-08  0.93827000000E+00  0.93827000000E+00 0. -1.
     999902    2    1    2    0    0 -0.14292066642E-01 -0.19604264900E-01 -0.11091735689E-02  0.10196437768E+01  0.10193545070E+01 0.  0.
     999903    2    3    3    0    0 -0.82819892551E-01 -0.10120930491E+00  0.14798852311E-01  0.13307256660E+00  0.19668348877E-01 0.  0.
         14    1    1    2    0    0  0.14292066642E-01  0.19604264900E-01  0.11091735689E-02  0.24286223197E-01  0.00000000000E+00 0. -1.
     999901    1    3    3    0    0  0.68527825909E-01  0.81605040014E-01 -0.15908025880E-01  0.88657121021E+00  0.88000000000E+00 0. -1.
        -11    1    4    4    0    0 -0.27772303359E-01 -0.28493688304E-01  0.12962557035E-01  0.41850688321E-01  0.51100000000E-03 0.  1.
         11    1    4    4    0    0 -0.55047589192E-01 -0.72715616610E-01  0.18362952760E-02  0.91221878275E-01  0.51100000000E-03 0. -1.
</event>
<event>
 8    1  0.1213322E+005  0.1043930E+01  0.7957747E-01            NaN
         13   -1    0    0    0    0  0.00000000000E+00  0.00000000000E+00  0.74505805969E-08  0.10566000000E+00  0.10566000000E+00 0. -1.
     999900   -1    0    0    0    0 -0.00000000000E+00 -0.00000000000E+00 -0.74505805969E-08  0.93827000000E+00  0.93827000000E+00 0.  1.
     999902    2    1    2    0    0 -0.14206498516E-03 -0.21503645941E-01 -0.31775652359E-02  0.10221923853E+01  0.10219612266E+01 0.  0.
     999903    2    3    3    0    0 -0.61764674045E-01 -0.26678773595E-01  0.11238976817E+00  0.13248460383E+00  0.19851406548E-01 0.  0.
         14    1    1    2    0    0  0.14206498516E-03  0.21503645941E-01  0.31775652359E-02  0.21737614681E-01  0.00000000000E+00 0.  1.
     999901    1    3    3    0    0  0.61622609060E-01  0.51751276538E-02 -0.11556733341E+00  0.88970778149E+00  0.88000000000E+00 0.  1.
        -11    1    4    4    0    0 -0.62506079242E-01 -0.23446831398E-01  0.10611295689E+00  0.12536739842E+00  0.51100000000E-03 0. -1.
         11    1    4    4    0    0  0.74140519732E-03 -0.32319421969E-02  0.62768112789E-02  0.71172054109E-02  0.51100000000E-03 0.  1.
</event>
<event>
 8    1  0.1213322E+005  0.1043930E+01  0.7957747E-01            NaN
         13   -1    0    0    0    0  0.00000000000E+00  0.00000000000E+00  0.74505805969E-08  0.10566000000E+00  0.10566000000E+00 0.  1.
     999900   -1    0    0    0    0 -0.00000000000E+00 -0.00000000000E+00 -0.74505805969E-08  0.93827000000E+00  0.93827000000E+00 0. -1.
     999902    2    1    2    0    0  0.64196086336E-02 -0.13953275794E-01  0.29673182158E-01  0.10105173823E+01  0.10099648395E+01 0.  0.
     999903    2    3    3    0    0 -0.11497742538E+00  0.16775560954E-01 -0.27143841017E-01  0.11983804867E+00  0.11096937070E-01 0.  0.
         14    1    1    2    0    0 -0.64196086336E-02  0.13953275794E-01 -0.29673182158E-01  0.33412617673E-01  0.00000000000E+00 0. -1.
     999901    1    3    3    0    0  0.12139703401E+00 -0.30728836749E-01  0.56817023175E-01  0.89067933365E+00  0.88000000000E+00 0.  1.
        -11    1    4    4    0    0 -0.83964576037E-01  0.77816227428E-02 -0.17365738811E-01  0.86095491677E-01  0.51100000000E-03 0. -1.
         11    1    4    4    0    0 -0.31012849342E-01  0.89939382117E-02 -0.97781022057E-02  0.33742556996E-01  0.51100000000E-03 0.  1.
</event>
<event>
 8    1  0.1213322E+005  0.1043930E+01  0.7957747E-01            NaN
         13   -1    0    0    0    0  0.00000000000E+00  0.00000000000E+00  0.74505805969E-08  0.10566000000E+00  0.10566000000E+00 0.  1.
     999900   -1    0    0    0    0 -0.00000000000E+00 -0.00000000000E+00 -0.74505805969E-08  0.93827000000E+00  0.93827000000E+00 0.  1.
     999902    2    1    2    0    0 -0.20126904155E-01  0.12635300308E-01  0.43202506077E-02  0.10197761670E+01  0.10194900799E+01 0.  0.
     999903    2    3    3    0    0  0.11191520770E+00  0.37483926353E-01  0.46772272989E-01  0.12856645667E+00  0.20288662132E-01 0.  0.
         14    1    1    2    0    0  0.20126904155E-01 -0.12635300308E-01 -0.43202506077E-02  0.24153833030E-01  0.00000000000E+00 0.  1.
     999901    1    3    3    0    0 -0.13204211186E+00 -0.24848626045E-01 -0.42452022381E-01  0.89120971030E+00  0.88000000000E+00 0.  1.
        -11    1    4    4    0    0  0.25029494745E-01  0.14999449816E-01  0.51490201143E-02  0.29634989980E-01  0.51100000000E-03 0. -1.
         11    1    4    4    0    0  0.86885712959E-01  0.22484476537E-01  0.41623252875E-01  0.98931466695E-01  0.51100000000E-03 0.  1.
</event>
<event>
 8    1  0.1213322E+005  0.1043930E+01  0.7957747E-01            NaN
         13   -1    0    0    0    0  0.00000000000E+00  0.00000000000E+00  0.74505805969E-08  0.10566000000E+00  0.10566000000E+00 0.  1.
     999900   -1    0    0    0    0 -0.00000000000E+00 -0.00000000000E+00 -0.74505805969E-08  0.93827000000E+00  0.93827000000E+00 0.  1.
     999902    2    1    2    0    0 -0.11185561548E-01 -0.17090649568E-01  0.79316093112E-02  0.10220184159E+01  0.10217835020E+01 0.  0.
     999903    2    3    3    0    0 -0.60480781247E-01  0.99470415347E-01  0.57974918222E-01  0.13155739304E+00  0.19848629439E-01 0.  0.
         14    1    1    2    0    0  0.11185561548E-01  0.17090649568E-01 -0.79316093112E-02  0.21911584061E-01  0.00000000000E+00 0.  1.
     999901    1    3    3    0    0  0.49295219699E-01 -0.11656106491E+00 -0.50043308911E-01  0.89046102290E+00  0.88000000000E+00 0. -1.
        -11    1    4    4    0    0 -0.48047862432E-01  0.70636014204E-01  0.50626523999E-01  0.99304328406E-01  0.51100000000E-03 0. -1.
         11    1    4    4    0    0 -0.12432918816E-01  0.28834401143E-01  0.73483942232E-02  0.32253064633E-01  0.51100000000E-03 0.  1.
</event>
<event>
 8    1  0.1213322E+005  0.1043930E+01  0.7957747E-01            NaN
         13   -1    0    0    0    0  0.00000000000E+00  0.00000000000E+00  0.74505805969E-08  0.10566000000E+00  0.10566000000E+00 0. -1.
     999900   -1    0    0    0    0 -0.00000000000E+00 -0.00000000000E+00 -0.74505805969E-08  0.93827000000E+00  0.93827000000E+00 0. -1.
     999902    2    1    2    0    0  0.67563617569E-02 -0.22611528607E-01 -0.18414107476E-02  0.10202589112E+01  0.10199842771E+01 0.  0.
     999903    2    3    3    0    0  0.43405338767E-01  0.54221787853E-01  0.10734672827E+00  0.12943426196E+00  0.20146522994E-01 0.  0.
         14    1    1    2    0    0 -0.67563617569E-02  0.22611528607E-01  0.18414107476E-02  0.23671088772E-01  0.00000000000E+00 0.  1.
     999901    1    3    3    0    0 -0.36648977011E-01 -0.76833316460E-01 -0.10918813902E+00  0.89082464926E+00  0.88000000000E+00 0. -1.
        -11    1    4    4    0    0  0.41288421096E-01  0.39408934665E-01  0.80295675960E-01  0.98516265392E-01  0.51100000000E-03 0. -1.
         11    1    4    4    0    0  0.21169176716E-02  0.14812853189E-01  0.27051052309E-01  0.30917996572E-01  0.51100000000E-03 0.  1.
</event>
<event>
 8    1  0.1213322E+005  0.1043930E+01  0.7957747E-01            NaN
         13   -1    0    0    0    0  0.00000000000E+00  0.00000000000E+00  0.74505805969E-08  0.10566000000E+00  0.10566000000E+00 0.  1.
     999900   -1    0    0    0    0 -0.00000000000E+00 -0.00000000000E+00 -0.74505805969E-08  0.93827000000E+00  0.93827000000E+00 0.  1.
     999902    2    1    2    0    0  0.84757389394E-02 -0.54356650739E-02 -0.20703628829E-01  0.10209077314E+01  0.10206481133E+01 0.  0.
     999903    2    3    3    0    0 -0.57300862535E-01  0.11193634083E+00 -0.29095015457E-01  0.13064194835E+00  0.20190728033E-01 0.  0.
         14    1    1    2    0    0 -0.84757389394E-02  0.54356650739E-02  0.20703628829E-01  0.23022268612E-01  0.00000000000E+00 0. -1.
     999901    1    3    3    0    0  0.65776601475E-01 -0.11737200591E+00  0.83913866278E-02  0.89026578303E+00  0.88000000000E+00 0.  1.
        -11    1    4    4    0    0 -0.53449484172E-01  0.87464179028E-01 -0.25232655964E-01  0.10556409437E+00  0.51100000000E-03 0.  1.
         11    1    4    4    0    0 -0.38513783631E-02  0.24472161806E-01 -0.38623594932E-02  0.25077853987E-01  0.51100000000E-03 0. -1.
</event>
<event>
 8    1  0.1213322E+005  0.1043930E+01  0.7957747E-01            NaN
         13   -1    0    0    0    0  0.00000000000E+00  0.00000000000E+00  0.74505805969E-08  0.10566000000E+00  0.10566000000E+00 0.  1.
     999900   -1    0    0    0    0 -0.00000000000E+00 -0.00000000000E+00 -0.74505805969E-08  0.93827000000E+00  0.93827000000E+00 0. -1.
     999902    2    1    2    0    0 -0.54821501252E-02 -0.23124611479E-01  0.10890390226E-02  0.10201395054E+01  0.10198620607E+01 0.  0.
     999903    2    3    3    0    0  0.10126381446E+00 -0.59494871164E-01  0.55682812578E-01  0.13126494912E+00  0.18327886833E-01 0.  0.
         14    1    1    2    0    0  0.54821501252E-02  0.23124611479E-01 -0.10890390226E-02  0.23790494573E-01  0.00000000000E+00 0. -1.
     999901    1    3    3    0    0 -0.10674596459E+00  0.36370259685E-01 -0.54593773555E-01  0.88887455631E+00  0.88000000000E+00 0. -1.
        -11    1    4    4    0    0  0.18976542440E-01 -0.94246589428E-02  0.18088401201E-01  0.27863681347E-01  0.51100000000E-03 0. -1.
         11    1    4    4    0    0  0.82287272021E-01 -0.50070212221E-01  0.37594411377E-01  0.10340126777E+00  0.51100000000E-03 0.  1.
</event>
<event>
 8    1  0.1213322E+005  0.1043930E+01  0.7957747E-01            NaN
         13   -1    0    0    0    0  0.00000000000E+00  0.00000000000E+00  0.74505805969E-08  0.10566000000E+00  0.10566000000E+00 0. -1.
     999900   -1    0    0    0    0 -0.00000000000E+00 -0.00000000000E+00 -0.74505805969E-08  0.93827000000E+00  0.93827000000E+00 0.  1.
     999902    2    1    2    0    0 -0.13465198148E-01 -0.19217676344E-01 -0.23225941239E-02  0.10203498158E+01  0.10200773115E+01 0.  0.
     999903    2    3    3    0    0  0.53504472449E-01 -0.49227292978E-02  0.11635254578E+00  0.12974717085E+00  0.20234910364E-01 0.  0.
         14    1    1    2    0    0  0.13465198148E-01  0.19217676344E-01  0.23225941239E-02  0.23580184238E-01  0.00000000000E+00 0. -1.
     999901    1    3    3    0    0 -0.66969670597E-01 -0.14294947046E-01 -0.11867513991E+00  0.89060264491E+00  0.88000000000E+00 0.  1.
        -11    1    4    4    0    0  0.36481131576E-02  0.14433092305E-02  0.26478724666E-01  0.26772669872E-01  0.51100000000E-03 0. -1.
         11    1    4    4    0    0  0.49856359291E-01 -0.63660385283E-02  0.89873821118E-01  0.10297450098E+00  0.51100000000E-03 0.  1.
</event>
<event>
 8    1  0.1213322E+005  0.1043930E+01  0.7957747E-01            NaN
         13   -1    0    0    0    0  0.00000000000E+00  0.00000000000E+00  0.74505805969E-08  0.10566000000E+00  0.10566000000E+00 0.  1.
     999900   -1    0    0    0    0 -0.00000000000E+00 -0.00000000000E+00 -0.74505805969E-08  0.93827000000E+00  0.93827000000E+00 0.  1.
     999902    2    1    2    0    0 -0.20110163573E-01 -0.11761247759E-01 -0.37775219643E-02  0.10203288284E+01  0.10200558332E+01 0.  0.
     999903    2    3    3    0    0  0.57651265844E-01  0.11075985426E+00 -0.21990006562E-01  0.12825822867E+00  0.19370055853E-01 0.  0.
         14    1    1    2    0    0  0.20110163573E-01  0.11761247759E-01  0.37775219643E-02  0.23601171580E-01  0.00000000000E+00 0.  1.
     999901    1    3    3    0    0 -0.77761429417E-01 -0.12252110202E+00  0.18212484598E-01  0.89207059975E+00  0.88000000000E+00 0.  1.
        -11    1    4    4    0    0  0.39835644988E-01  0.74090916996E-01 -0.23871240520E-01  0.87443923963E-01  0.51100000000E-03 0. -1.
         11    1    4    4    0    0  0.17815620856E-01  0.36668937263E-01  0.18812339581E-02  0.40814304706E-01  0.51100000000E-03 0.  1.
</event>
<event>
 8    1  0.1213322E+005  0.1043930E+01  0.7957747E-01            NaN
         13   -1    0    0    0    0  0.00000000000E+00  0.00000000000E+00  0.74505805969E-08  0.10566000000E+00  0.10566000000E+00 0.  1.
     999900   -1    0    0    0    0 -0.00000000000E+00 -0.00000000000E+00 -0.74505805969E-08  0.93827000000E+00  0.93827000000E+00 0. -1.
     999902    2    1    2    0    0  0.63312495195E-02 -0.20772440741E-01  0.95411022429E-02  0.10202105639E+01  0.10199347936E+01 0.  0.
     999903    2    3    3    0    0 -0.98789838728E-01 -0.65054391301E-01  0.54302440764E-01  0.13172032102E+00  0.20248008147E-01 0.  0.
         14    1    1    2    0    0 -0.63312495195E-02  0.20772440741E-01 -0.95411022429E-02  0.23719436057E-01  0.00000000000E+00 0. -1.
     999901    1    3    3    0    0  0.10512108825E+00  0.44281950560E-01 -0.44761338521E-01  0.88849024292E+00  0.88000000000E+00 0. -1.
        -11    1    4    4    0    0 -0.77818307328E-01 -0.57819846801E-01  0.37760889873E-01  0.10404311397E+00  0.51100000000E-03 0. -1.
         11    1    4    4    0    0 -0.20971531399E-01 -0.72345445002E-02  0.16541550891E-01  0.27677207053E-01  0.51100000000E-03 0.  1.
</event>
<event>
 7    1  0.1213322E+005  0.1043930E+01  0.7957747E-01            NaN
         13   -1    0    0    0    0  0.00000000000E+00  0.00000000000E+00  0.74505805969E-08  0.10566000000E+00  0.10566000000E+00 0.  1.
     999900   -1    0    0    0    0 -0.00000000000E+00 -0.00000000000E+00 -0.74505805969E-08  0.93827000000E+00  0.93827000000E+00 0.  1.
     999903    2    1    2    0    0  0.21042602164E-01  0.12747313525E-01  0.10680263838E+00  0.11125977313E+00  0.19148066326E-01 0.  0.
         14    1    1    2    0    0  0.22514962118E-01  0.76483425316E-02  0.32650992786E-01  0.40391929795E-01  0.00000000000E+00 0.  1.
     999901    1    1    2    0    0 -0.43557564281E-01 -0.20395656056E-01 -0.13945363116E+00  0.89227829708E+00  0.88000000000E+00 0.  1.
        -11    1    3    3    0    0  0.11460175715E-01 -0.32540730115E-02  0.31538225582E-01  0.33717138260E-01  0.51100000000E-03 0. -1.
         11    1    3    3    0    0  0.95824264492E-02  0.16001386536E-01  0.75264412795E-01  0.77542634867E-01  0.51100000000E-03 0.  1.
</event>
<event>
 8    1  0.1213322E+005  0.1043930E+01  0.7957747E-01            NaN
         13   -1    0    0    0    0  0.00000000000E+00  0.00000000000E+00  0.74505805969E-08  0.10566000000E+00  0.10566000000E+00 0.  1.
     999900   -1    0    0    0    0 -0.00000000000E+00 -0.00000000000E+00 -0.74505805969E-08  0.93827000000E+00  0.93827000000E+00 0. -1.
     999902    2    1    2    0    0  0.19325149781E-01  0.14154519433E-01 -0.12101751501E-02  0.10199450806E+01  0.10196630282E+01 0.  0.
     999903    2    3    3    0    0 -0.13300944603E-01  0.12964073432E+00  0.58729259078E-03  0.13179826912E+00  0.19667325924E-01 0.  0.
         14    1    1    2    0    0 -0.19325149781E-01 -0.14154519433E-01  0.12101751501E-02  0.23984919394E-01  0.00000000000E+00 0.  1.
     999901    1    3    3    0    0  0.32626094385E-01 -0.11548621488E+00 -0.17974677408E-02  0.88814681149E+00  0.88000000000E+00 0.  1.
        -11    1    4    4    0    0 -0.56778194238E-03  0.56033285074E-01  0.84940437438E-02  0.56678578957E-01  0.51100000000E-03 0.  1.
         11    1    4    4    0    0 -0.12733162661E-01  0.73607449242E-01 -0.79067511530E-02  0.75119690162E-01  0.51100000000E-03 0. -1.
</event>
<event>
 8    1  0.1213322E+005  0.1043930E+01  0.7957747E-01            NaN
         13   -1    0    0    0    0  0.00000000000E+00  0.00000000000E+00  0.74505805969E-08  0.10566000000E+00  0.10566000000E+00 0. -1.
     999900   -1    0    0    0    0 -0.00000000000E+00 -0.00000000000E+00 -0.74505805969E-08  0.93827000000E+00  0.93827000000E+00 0.  1.
     999902    2    1    2    0    0 -0.12835837612E-01 -0.44755777812E-02  0.12262033533E-01  0.10256229798E+01  0.10254595797E+01 0.  0.
     999903    2    3    3    0    0  0.67170103670E-01  0.11408062258E+00  0.49060185258E-02  0.13404536999E+00  0.20442135960E-01 0.  0.
         14    1    1    2    0    0  0.12835837612E-01  0.44755777812E-02 -0.12262033533E-01  0.18307020240E-01  0.00000000000E+00 0.  1.
     999901    1    3    3    0    0 -0.80005941282E-01 -0.11855620036E+00  0.73560150077E-02  0.89157760977E+00  0.88000000000E+00 0. -1.
        -11    1    4    4    0    0  0.37978803740E-01  0.52285347502E-01  0.10496572831E-01  0.65472026539E-01  0.51100000000E-03 0. -1.
         11    1    4    4    0    0  0.29191299931E-01  0.61795275079E-01 -0.55905543049E-02  0.68573343452E-01  0.51100000000E-03 0.  1.
</event>
<event>
 8    1  0.1213322E+005  0.1043930E+01  0.7957747E-01            NaN
         13   -1    0    0    0    0  0.00000000000E+00  0.00000000000E+00  0.74505805969E-08  0.10566000000E+00  0.10566000000E+00 0. -1.
     999900   -1    0    0    0    0 -0.00000000000E+00 -0.00000000000E+00 -0.74505805969E-08  0.93827000000E+00  0.93827000000E+00 0. -1.
     999902    2    1    2    0    0  0.12065580975E-01 -0.39295446699E-02 -0.20084309424E-01  0.10201729158E+01  0.10198962590E+01 0.  0.
     999903    2    3    3    0    0  0.63193545149E-01  0.54112370350E-01 -0.10232319187E+00  0.13296033336E+00  0.16936406909E-01 0.  0.
         14    1    1    2    0    0 -0.12065580975E-01  0.39295446699E-02  0.20084309424E-01  0.23757084220E-01  0.00000000000E+00 0. -1.
     999901    1    3    3    0    0 -0.51127964174E-01 -0.58041915020E-01  0.82238882446E-01  0.88721258242E+00  0.88000000000E+00 0.  1.
        -11    1    4    4    0    0  0.15240980954E-01  0.18736431278E-01 -0.40021324103E-01  0.46747287210E-01  0.51100000000E-03 0. -1.
         11    1    4    4    0    0  0.47952564194E-01  0.35375939072E-01 -0.62301867768E-01  0.86213046149E-01  0.51100000000E-03 0.  1.
</event>
<event>
 8    1  0.1213322E+005  0.1043930E+01  0.7957747E-01            NaN
         13   -1    0    0    0    0  0.00000000000E+00  0.00000000000E+00  0.74505805969E-08  0.10566000000E+00  0.10566000000E+00 0.  1.
     999900   -1    0    0    0    0 -0.00000000000E+00 -0.00000000000E+00 -0.74505805969E-08  0.93827000000E+00  0.93827000000E+00 0. -1.
     999902    2    1    2    0    0 -0.10781116151E-01 -0.17021624991E-01  0.11475364921E-01  0.10207426719E+01  0.10204792747E+01 0.  0.
     999903    2    3    3    0    0 -0.11839682805E+00 -0.57371083971E-01  0.67356298170E-02  0.13325651127E+00  0.20066861184E-01 0.  0.
         14    1    1    2    0    0  0.10781116151E-01  0.17021624991E-01 -0.11475364921E-01  0.23187328067E-01  0.00000000000E+00 0.  1.
     999901    1    3    3    0    0  0.10761571190E+00  0.40349458979E-01  0.47397351037E-02  0.88748616067E+00  0.88000000000E+00 0.  1.
        -11    1    4    4    0    0 -0.61395620160E-01 -0.20632545251E-01  0.90456515086E-02  0.65400374850E-01  0.51100000000E-03 0.  1.
         11    1    4    4    0    0 -0.57001207889E-01 -0.36738538720E-01 -0.23100216915E-02  0.67856136416E-01  0.51100000000E-03 0. -1.
</event>
<event>
 8    1  0.1213322E+005  0.1043930E+01  0.7957747E-01            NaN
         13   -1    0    0    0    0  0.00000000000E+00  0.00000000000E+00  0.74505805969E-08  0.10566000000E+00  0.10566000000E+00 0. -1.
     999900   -1    0    0    0    0 -0.00000000000E+00 -0.00000000000E+00 -0.74505805969E-08  0.93827000000E+00  0.93827000000E+00 0. -1.
     999902    2    1    2    0    0 -0.42232040069E-02  0.11954105402E-01  0.19314931680E-01  0.10208258299E+01  0.10205643402E+01 0.  0.
     999903    2    3    3    0    0  0.97735066967E-01 -0.17858893081E-01  0.84717038381E-01  0.13202791171E+00  0.19578291598E-01 0.  0.
         14    1    1    2    0    0  0.42232040069E-02 -0.11954105402E-01 -0.19314931680E-01  0.23104170053E-01  0.00000000000E+00 0.  1.
     999901    1    3    3    0    0 -0.10195827097E+00  0.29812998483E-01 -0.65402106701E-01  0.88879791824E+00  0.88000000000E+00 0. -1.
        -11    1    4    4    0    0  0.67114778586E-01 -0.17653852206E-01  0.67890009576E-01  0.97084326868E-01  0.51100000000E-03 0. -1.
         11    1    4    4    0    0  0.30620288381E-01 -0.20504087545E-03  0.16827028805E-01  0.34943584843E-01  0.51100000000E-03 0.  1.
</event>
<event>
 8    1  0.1213322E+005  0.1043930E+01  0.7957747E-01            NaN
         13   -1    0    0    0    0  0.00000000000E+00  0.00000000000E+00  0.74505805969E-08  0.10566000000E+00  0.10566000000E+00 0. -1.
     999900   -1    0    0    0    0 -0.00000000000E+00 -0.00000000000E+00 -0.74505805969E-08  0.93827000000E+00  0.93827000000E+00 0.  1.
     999902    2    1    2    0    0  0.22415647687E-01  0.25837239970E-02  0.48646572384E-02  0.10208475005E+01  0.10205865067E+01 0.  0.
     999903    2    3    3    0    0 -0.52210985886E-02  0.10498333836E+00  0.76662834306E-01  0.13157563604E+00  0.19651886219E-01 0.  0.
         14    1    1    2    0    0 -0.22415647687E-01 -0.25837239970E-02 -0.48646572384E-02  0.23082499452E-01  0.00000000000E+00 0. -1.
     999901    1    3    3    0    0  0.27636746276E-01 -0.10239961437E+00 -0.71798177067E-01  0.88927186450E+00  0.88000000000E+00 0.  1.
        -11    1    4    4    0    0  0.66373875207E-02  0.46847843617E-01  0.38772097235E-01  0.61174439185E-01  0.51100000000E-03 0. -1.
         11    1    4    4    0    0 -0.11858486109E-01  0.58135494748E-01  0.37890737071E-01  0.70401196859E-01  0.51100000000E-03 0.  1.
</event>
<event>
 8    1  0.1213322E+005  0.1043930E+01  0.7957747E-01            NaN
         13   -1    0    0    0    0  0.00000000000E+00  0.00000000000E+00  0.74505805969E-08  0.10566000000E+00  0.10566000000E+00 0.  1.
     999900   -1    0    0    0    0 -0.00000000000E+00 -0.00000000000E+00 -0.74505805969E-08  0.93827000000E+00  0.93827000000E+00 0. -1.
     999902    2    1    2    0    0  0.15644552293E-02  0.18956823329E-01  0.74013073214E-02  0.10235195120E+01  0.10233159841E+01 0.  0.
     999903    2    3    3    0    0  0.27757489557E-01 -0.54093092499E-01  0.11722957830E+00  0.13330346273E+00  0.18179611204E-01 0.  0.
         14    1    1    2    0    0 -0.15644552293E-02 -0.18956823329E-01 -0.74013073214E-02  0.20410488014E-01  0.00000000000E+00 0. -1.
     999901    1    3    3    0    0 -0.26193034327E-01  0.73049915828E-01 -0.10982827098E+00  0.89021604926E+00  0.88000000000E+00 0. -1.
        -11    1    4    4    0    0  0.10566520248E-01 -0.15305713566E-01  0.54360506782E-01  0.57456435989E-01  0.51100000000E-03 0. -1.
         11    1    4    4    0    0  0.17190969308E-01 -0.38787378933E-01  0.62869071521E-01  0.75847026739E-01  0.51100000000E-03 0.  1.
</event>
<event>
 8    1  0.1213322E+005  0.1043930E+01  0.7957747E-01            NaN
         13   -1    0    0    0    0  0.00000000000E+00  0.00000000000E+00  0.74505805969E-08  0.10566000000E+00  0.10566000000E+00 0.  1.
     999900   -1    0    0    0    0 -0.00000000000E+00 -0.00000000000E+00 -0.74505805969E-08  0.93827000000E+00  0.93827000000E+00 0.  1.
     999902    2    1    2    0    0  0.19964974544E-02 -0.17270525671E-01 -0.17031177070E-01  0.10195924148E+01  0.10193019054E+01 0.  0.
     999903    2    3    3    0    0 -0.77752570050E-01  0.44486379061E-01  0.88688000280E-01  0.12754400051E+00  0.19427058475E-01 0.  0.
         14    1    1    2    0    0 -0.19964974544E-02  0.17270525671E-01  0.17031177070E-01  0.24337585160E-01  0.00000000000E+00 0.  1.
     999901    1    3    3    0    0  0.79749067504E-01 -0.61756904731E-01 -0.10571917735E+00  0.89204841433E+00  0.88000000000E+00 0.  1.
        -11    1    4    4    0    0 -0.37272560685E-01  0.29927973299E-01  0.38050170167E-01  0.61098313697E-01  0.51100000000E-03 0. -1.
         11    1    4    4    0    0 -0.40480009365E-01  0.14558405761E-01  0.50637830112E-01  0.66445686812E-01  0.51100000000E-03 0.  1.
</event>
<event>
 8    1  0.1213322E+005  0.1043930E+01  0.7957747E-01            NaN
         13   -1    0    0    0    0  0.00000000000E+00  0.00000000000E+00  0.74505805969E-08  0.10566000000E+00  0.10566000000E+00 0.  1.
     999900   -1    0    0    0    0 -0.00000000000E+00 -0.00000000000E+00 -0.74505805969E-08  0.93827000000E+00  0.93827000000E+00 0. -1.
     999902    2    1    2    0    0 -0.14635734070E-01 -0.16207038820E-01 -0.97838660502E-02  0.10200010039E+01  0.10197202808E+01 0.  0.
     999903    2    3    3    0    0  0.22965542692E-01  0.95668503261E-01  0.78662444242E-01  0.12772708703E+00  0.21131728764E-01 0.  0.
         14    1    1    2    0    0  0.14635734070E-01  0.16207038820E-01  0.97838660502E-02  0.23928996092E-01  0.00000000000E+00 0. -1.
     999901    1    3    3    0    0 -0.37601276763E-01 -0.11187554208E+00 -0.88446310292E-01  0.89227391687E+00  0.88000000000E+00 0. -1.
        -11    1    4    4    0    0  0.21182796013E-01  0.54269447055E-01  0.54385962082E-01  0.79699295626E-01  0.51100000000E-03 0. -1.
         11    1    4    4    0    0  0.17827466792E-02  0.41399056206E-01  0.24276482160E-01  0.48027791408E-01  0.51100000000E-03 0.  1.
</event>
<event>
 8    1  0.1213322E+005  0.1043930E+01  0.7957747E-01            NaN
         13   -1    0    0    0    0  0.00000000000E+00  0.00000000000E+00  0.74505805969E-08  0.10566000000E+00  0.10566000000E+00 0. -1.
     999900   -1    0    0    0    0 -0.00000000000E+00 -0.00000000000E+00 -0.74505805969E-08  0.93827000000E+00  0.93827000000E+00 0.  1.
     999902    2    1    2    0    0  0.42257178430E-02 -0.22278188638E-01 -0.62726723438E-02  0.10204029773E+01  0.10201317146E+01 0.  0.
     999903    2    3    3    0    0  0.11670833606E+00  0.52934278825E-01 -0.89121608251E-02  0.13005685268E+00  0.20309720339E-01 0.  0.
         14    1    1    2    0    0 -0.42257178430E-02  0.22278188638E-01  0.62726723438E-02  0.23527022732E-01  0.00000000000E+00 0.  1.
     999901    1    3    3    0    0 -0.11248261821E+00 -0.75212467463E-01  0.26394884812E-02  0.89034612458E+00  0.88000000000E+00 0.  1.
        -11    1    4    4    0    0  0.38722695647E-01  0.80153999330E-02  0.64675343401E-03  0.39552158036E-01  0.51100000000E-03 0. -1.
         11    1    4    4    0    0  0.77985640408E-01  0.44918878892E-01 -0.95589142591E-02  0.90504694649E-01  0.51100000000E-03 0.  1.
</event>
<event>
 8    1  0.1213322E+005  0.1043930E+01  0.7957747E-01            NaN
         13   -1    0    0    0    0  0.00000000000E+00  0.00000000000E+00  0.74505805969E-08  0.10566000000E+00  0.10566000000E+00 0.  1.
     999900   -1    0    0    0    0 -0.00000000000E+00 -0.00000000000E+00 -0.74505805969E-08  0.93827000000E+00  0.93827000000E+00 0. -1.
     999902    2    1    2    0    0  0.23962120268E-01  0.25639473288E-02 -0.43411499422E-03  0.10198271892E+01  0.10195423239E+01 0.  0.
     999903    2    3    3    0    0  0.40995620648E-01 -0.12185601932E+00 -0.17566020107E-01  0.13074678201E+00  0.16019537683E-01 0.  0.
         14    1    1    2    0    0 -0.23962120268E-01 -0.25639473288E-02  0.43411499422E-03  0.24102810821E-01  0.00000000000E+00 0.  1.
     999901    1    3    3    0    0 -0.17033500381E-01  0.12441996665E+00  0.17131905113E-01  0.88908040717E+00  0.88000000000E+00 0. -1.
        -11    1    4    4    0    0  0.95002351754E-02 -0.33076567053E-01 -0.11739890201E-01  0.36364816778E-01  0.51100000000E-03 0. -1.
         11    1    4    4    0    0  0.31495385473E-01 -0.88779452266E-01 -0.58261299066E-02  0.94381965234E-01  0.51100000000E-03 0.  1.
</event>
<event>
 8    1  0.1213322E+005  0.1043930E+01  0.7957747E-01            NaN
         13   -1    0    0    0    0  0.00000000000E+00  0.00000000000E+00  0.74505805969E-08  0.10566000000E+00  0.10566000000E+00 0. -1.
     999900   -1    0    0    0    0 -0.00000000000E+00 -0.00000000000E+00 -0.74505805969E-08  0.93827000000E+00  0.93827000000E+00 0.  1.
     999902    2    1    2    0    0  0.11729168369E-01 -0.13996114339E-01  0.13734481240E-01  0.10210804796E+01  0.10208247868E+01 0.  0.
     999903    2    3    3    0    0  0.36709806389E-02 -0.74665334460E-01 -0.10640835511E+00  0.13081086326E+00  0.14154703868E-01 0.  0.
         14    1    1    2    0    0 -0.11729168369E-01  0.13996114339E-01 -0.13734481240E-01  0.22849520393E-01  0.00000000000E+00 0. -1.
     999901    1    3    3    0    0  0.80581877302E-02  0.60669220120E-01  0.12014283635E+00  0.89026961634E+00  0.88000000000E+00 0. -1.
        -11    1    4    4    0    0  0.65586021002E-02 -0.20294866869E-01 -0.35361548711E-01  0.41298875663E-01  0.51100000000E-03 0. -1.
         11    1    4    4    0    0 -0.28876214613E-02 -0.54370467590E-01 -0.71046806399E-01  0.89511987601E-01  0.51100000000E-03 0.  1.
</event>
<event>
 8    1  0.1213322E+005  0.1043930E+01  0.7957747E-01            NaN
         13   -1    0    0    0    0  0.00000000000E+00  0.00000000000E+00  0.74505805969E-08  0.10566000000E+00  0.10566000000E+00 0.  1.
     999900   -1    0    0    0    0 -0.00000000000E+00 -0.00000000000E+00 -0.74505805969E-08  0.93827000000E+00  0.93827000000E+00 0. -1.
     999902    2    1    2    0    0  0.11449672351E-01 -0.16534709773E-01 -0.13688289911E-01  0.10196018084E+01  0.10193115259E+01 0.  0.
     999903    2    3    3    0    0  0.45019286856E-01  0.11717052842E+00  0.18475474770E-01  0.12828900279E+00  0.19001477590E-01 0.  0.
         14    1    1    2    0    0 -0.11449672351E-01  0.16534709773E-01  0.13688289911E-01  0.24328191567E-01  0.00000000000E+00 0.  1.
     999901    1    3    3    0    0 -0.33569614505E-01 -0.13370523819E+00 -0.32163764681E-01  0.89131280564E+00  0.88000000000E+00 0. -1.
        -11    1    4    4    0    0  0.41761942292E-01  0.10986325988E+00  0.12312658706E-01  0.11817723292E+00  0.51100000000E-03 0. -1.
         11    1    4    4    0    0  0.32573445642E-02  0.73072685403E-02  0.61628160639E-02  0.10111769873E-01  0.51100000000E-03 0.  1.
</event>
<event>
 8    1  0.1213322E+005  0.1043930E+01  0.7957747E-01            NaN
         13   -1    0    0    0    0  0.00000000000E+00  0.00000000000E+00  0.74505805969E-08  0.10566000000E+00  0.10566000000E+00 0.  1.
     999900   -1    0    0    0    0 -0.00000000000E+00 -0.00000000000E+00 -0.74505805969E-08  0.93827000000E+00  0.93827000000E+00 0. -1.
     999902    2    1    2    0    0 -0.93935501801E-02 -0.13717393365E-01 -0.16629894907E-01  0.10204149182E+01  0.10201439341E+01 0.  0.
     999903    2    3    3    0    0  0.76245747637E-01  0.96465213272E-01  0.31524494311E-01  0.12811836364E+00  0.17365769692E-01 0.  0.
         14    1    1    2    0    0  0.93935501801E-02  0.13717393365E-01  0.16629894907E-01  0.23515081763E-01  0.00000000000E+00 0.  1.
     999901    1    3    3    0    0 -0.85639297818E-01 -0.11018260664E+00 -0.48154389218E-01  0.89229655459E+00  0.88000000000E+00 0.  1.
        -11    1    4    4    0    0  0.13405606015E-01  0.25157071448E-01  0.12763698122E-01  0.31237183407E-01  0.51100000000E-03 0. -1.
         11    1    4    4    0    0  0.62840141622E-01  0.71308141824E-01  0.18760796189E-01  0.96881180237E-01  0.51100000000E-03 0.  1.
</event>
<event>
 8    1  0.1213322E+005  0.1043930E+01  0.7957747E-01            NaN
         13   -1    0    0    0    0  0.00000000000E+00  0.00000000000E+00  0.74505805969E-08  0.10566000000E+00  0.10566000000E+00 0.  1.
     999900   -1    0    0    0    0 -0.00000000000E+00 -0.00000000000E+00 -0.74505805969E-08  0.93827000000E+00  0.93827000000E+00 0. -1.
     999902    2    1    2    0    0  0.41849449484E-02 -0.22964648943E-01  0.73465946501E-02  0.10194583569E+01  0.10191645991E+01 0.  0.
     999903    2    3    3    0    0 -0.58283350054E-01 -0.86137113286E-01  0.78745861299E-01  0.13210786048E+00  0.20857251765E-01 0.  0.
         14    1    1    2    0    0 -0.41849449484E-02  0.22964648943E-01 -0.73465946501E-02  0.24471643146E-01  0.00000000000E+00 0. -1.
     999901    1    3    3    0    0  0.62468295002E-01  0.63172464343E-01 -0.71399266648E-01  0.88735049637E+00  0.88000000000E+00 0. -1.
        -11    1    4    4    0    0 -0.44999710038E-01 -0.74724506451E-01  0.57084626266E-01  0.10424798053E+00  0.51100000000E-03 0. -1.
         11    1    4    4    0    0 -0.13283640016E-01 -0.11412606834E-01  0.21661235032E-01  0.27859879952E-01  0.51100000000E-03 0.  1.
</event>
<event>
 8    1  0.1213322E+005  0.1043930E+01  0.7957747E-01            NaN
         13   -1    0    0    0    0  0.00000000000E+00  0.00000000000E+00  0.74505805969E-08  0.10566000000E+00  0.10566000000E+00 0. -1.
     999900   -1    0    0    0    0 -0.00000000000E+00 -0.00000000000E+00 -0.74505805969E-08  0.93827000000E+00  0.93827000000E+00 0.  1.
     999902    2    1    2    0    0  0.21838541347E-01 -0.73104007635E-02  0.39671750158E-02  0.10205611677E+01  0.10202935826E+01 0.  0.
     999903    2    3    3    0    0  0.31769337451E-01  0.10412284482E+00 -0.66683162785E-01  0.13066934324E+00  0.27874279331E-01 0.  0.
         14    1    1    2    0    0 -0.21838541347E-01  0.73104007635E-02 -0.39671750158E-02  0.23368832343E-01  0.00000000000E+00 0.  1.
     999901    1    3    3    0    0 -0.99307961040E-02 -0.11143324558E+00  0.70650337800E-01  0.88989182442E+00  0.88000000000E+00 0.  1.
        -11    1    4    4    0    0  0.33792334586E-01  0.70329225262E-01 -0.40799898086E-01  0.88051204464E-01  0.51100000000E-03 0. -1.
         11    1    4    4    0    0 -0.20229971351E-02  0.33793619559E-01 -0.25883264698E-01  0.42618138776E-01  0.51100000000E-03 0.  1.
</event>
<event>
 8    1  0.1213322E+005  0.1043930E+01  0.7957747E-01            NaN
         13   -1    0    0    0    0  0.00000000000E+00  0.00000000000E+00  0.74505805969E-08  0.10566000000E+00  0.10566000000E+00 0. -1.
     999900   -1    0    0    0    0 -0.00000000000E+00 -0.00000000000E+00 -0.74505805969E-08  0.93827000000E+00  0.93827000000E+00 0. -1.
     999902    2    1    2    0    0  0.21963182746E-02  0.18331760242E-01  0.15935362433E-01  0.10195412111E+01  0.10192494632E+01 0.  0.
     999903    2    3    3    0    0  0.12028519011E+00 -0.35669158994E-01  0.27770138224E-01  0.12993391413E+00  0.19256832550E-01 0.  0.
         14    1    1    2    0    0 -0.21963182746E-02 -0.18331760242E-01 -0.15935362433E-01  0.24388788887E-01  0.00000000000E+00 0.  1.
     999901    1    3    3    0    0 -0.11808887184E+00  0.54000919236E-01 -0.11834775791E-01  0.88960729698E+00  0.88000000000E+00 0.  1.
        -11    1    4    4    0    0  0.56448319226E-01 -0.22083895174E-01  0.50603074899E-02  0.60827452703E-01  0.51100000000E-03 0. -1.
         11    1    4    4    0    0  0.63836870887E-01 -0.13585263820E-01  0.22709830734E-01  0.69106461425E-01  0.51100000000E-03 0.  1.
</event>
<event>
 8    1  0.1213322E+005  0.1043930E+01  0.7957747E-01            NaN
         13   -1    0    0    0    0  0.00000000000E+00  0.00000000000E+00  0.74505805969E-08  0.10566000000E+00  0.10566000000E+00 0. -1.
     999900   -1    0    0    0    0 -0.00000000000E+00 -0.00000000000E+00 -0.74505805969E-08  0.93827000000E+00  0.93827000000E+00 0. -1.
     999902    2    1    2    0    0  0.32465915498E-02 -0.16053077543E-01 -0.17073540891E-01  0.10202710175E+01  0.10199966675E+01 0.  0.
     999903    2    3    3    0    0 -0.49284655304E-01  0.50701371041E-01 -0.10883659635E+00  0.13143124190E+00  0.20716186187E-01 0.  0.
         14    1    1    2    0    0 -0.32465915498E-02  0.16053077543E-01  0.17073540891E-01  0.23658982519E-01  0.00000000000E+00 0.  1.
     999901    1    3    3    0    0  0.52531246854E-01 -0.66754448585E-01  0.91763055455E-01  0.88883977558E+00  0.88000000000E+00 0.  1.
        -11    1    4    4    0    0 -0.49298433119E-01  0.48671949488E-01 -0.95785645500E-01  0.11821355751E+00  0.51100000000E-03 0. -1.
         11    1    4    4    0    0  0.13777814332E-04  0.20294215530E-02 -0.13050950846E-01  0.13217684390E-01  0.51100000000E-03 0.  1.
</event>
<event>
 8    1  0.1213322E+005  0.1043930E+01  0.7957747E-01            NaN
         13   -1    0    0    0    0  0.00000000000E+00  0.00000000000E+00  0.74505805969E-08  0.10566000000E+00  0.10566000000E+00 0.  1.
     999900   -1    0    0    0    0 -0.00000000000E+00 -0.00000000000E+00 -0.74505805969E-08  0.93827000000E+00  0.93827000000E+00 0. -1.
     999902    2    1    2    0    0  0.18310850826E-01  0.72525409496E-02 -0.14285842139E-01  0.10195995275E+01  0.10193091898E+01 0.  0.
     999903    2    3    3    0    0  0.65247115374E-01  0.10927781255E+00 -0.30528495363E-01  0.13231378276E+00  0.19393857247E-01 0.  0.
         14    1    1    2    0    0 -0.18310850826E-01 -0.72525409496E-02  0.14285842139E-01  0.24330472535E-01  0.00000000000E+00 0.  1.
     999901    1    3    3    0    0 -0.46936264548E-01 -0.10202527160E+00  0.16242653224E-01  0.88728574471E+00  0.88000000000E+00 0. -1.
        -11    1    4    4    0    0  0.11561285846E-01  0.30725159139E-01 -0.14219177838E-01  0.35779112258E-01  0.51100000000E-03 0. -1.
         11    1    4    4    0    0  0.53685829528E-01  0.78552653409E-01 -0.16309317525E-01  0.96534670501E-01  0.51100000000E-03 0.  1.
</event>
<event>
 8    1  0.1213322E+005  0.1043930E+01  0.7957747E-01            NaN
         13   -1    0    0    0    0  0.00000000000E+00  0.00000000000E+00  0.74505805969E-08  0.10566000000E+00  0.10566000000E+00 0.  1.
     999900   -1    0    0    0    0 -0.00000000000E+00 -0.00000000000E+00 -0.74505805969E-08  0.93827000000E+00  0.93827000000E+00 0.  1.
     999902    2    1    2    0    0  0.51901454547E-02 -0.21528063406E-01  0.68225615374E-02  0.10207579809E+01  0.10204949353E+01 0.  0.
     999903    2    3    3    0    0  0.10913381453E+00 -0.65750505775E-01  0.33150132062E-01  0.13314711360E+00  0.19897339547E-01 0.  0.
         14    1    1    2    0    0 -0.51901454547E-02  0.21528063406E-01 -0.68225615374E-02  0.23172019114E-01  0.00000000000E+00 0. -1.
     999901    1    3    3    0    0 -0.10394366908E+00  0.44222442369E-01 -0.26327570525E-01  0.88761086728E+00  0.88000000000E+00 0.  1.
        -11    1    4    4    0    0  0.11795978562E-01 -0.14412895997E-01  0.79157409318E-02  0.20243437375E-01  0.51100000000E-03 0.  1.
         11    1    4    4    0    0  0.97337835970E-01 -0.51337609778E-01  0.25234391130E-01  0.11290367623E+00  0.51100000000E-03 0. -1.
</event>
<event>
 8    1  0.1213322E+005  0.1043930E+01  0.7957747E-01            NaN
         13   -1    0    0    0    0  0.00000000000E+00  0.00000000000E+00  0.74505805969E-08  0.10566000000E+00  0.10566000000E+00 0.  1.
     999900   -1    0    0    0    0 -0.00000000000E+00 -0.00000000000E+00 -0.74505805969E-08  0.93827000000E+00  0.93827000000E+00 0. -1.
     999902    2    1    2    0    0 -0.11673915634E-01 -0.12300585693E-01 -0.14643639001E-01  0.10215241776E+01  0.10212784265E+01 0.  0.
     999903    2    3    3    0    0 -0.14206247765E-01 -0.20523830051E-01  0.12623789799E+00  0.13027693809E+00  0.20323105934E-01 0.  0.
         14    1    1    2    0    0  0.11673915634E-01  0.12300585693E-01  0.14643639001E-01  0.22405822408E-01  0.00000000000E+00 0. -1.
     999901    1    3    3    0    0  0.25323321305E-02  0.82232443581E-02 -0.14088153699E+00  0.89124723950E+00  0.88000000000E+00 0. -1.
        -11    1    4    4    0    0 -0.51331389110E-02 -0.16790638382E-03  0.63257067142E-01  0.63467274812E-01  0.51100000000E-03 0.  1.
         11    1    4    4    0    0 -0.90731088536E-02 -0.20355923667E-01  0.62980830845E-01  0.66809663279E-01  0.51100000000E-03 0. -1.
</event>
<event>
 8    1  0.1213322E+005  0.1043930E+01  0.7957747E-01            NaN
         13   -1    0    0    0    0  0.00000000000E+00  0.00000000000E+00  0.74505805969E-08  0.10566000000E+00  0.10566000000E+00 0. -1.
     999900   -1    0    0    0    0 -0.00000000000E+00 -0.00000000000E+00 -0.74505805969E-08  0.93827000000E+00  0.93827000000E+00 0.  1.
     999902    2    1    2    0    0 -0.52963035158E-02  0.16670182228E-01  0.15958000670E-01  0.10202529311E+01  0.10199781565E+01 0.  0.
     999903    2    3    3    0    0 -0.19382724330E-01  0.69299133005E-01  0.11064114279E+00  0.13349866349E+00  0.20059183382E-01 0.  0.
         14    1    1    2    0    0  0.52963035158E-02 -0.16670182228E-01 -0.15958000670E-01  0.23677068903E-01  0.00000000000E+00 0.  1.
     999901    1    3    3    0    0  0.14086420814E-01 -0.52628950777E-01 -0.94683142124E-01  0.88675426760E+00  0.88000000000E+00 0.  1.
        -11    1    4    4    0    0 -0.16242569543E-02  0.26873620722E-02  0.16557683787E-01  0.16860549782E-01  0.51100000000E-03 0. -1.
         11    1    4    4    0    0 -0.17758467375E-01  0.66611770933E-01  0.94083459007E-01  0.11663811371E+00  0.51100000000E-03 0.  1.
</event>
<event>
 8    1  0.1213322E+005  0.1043930E+01  0.7957747E-01            NaN
         13   -1    0    0    0    0  0.00000000000E+00  0.00000000000E+00  0.74505805969E-08  0.10566000000E+00  0.10566000000E+00 0. -1.
     999900   -1    0    0    0    0 -0.00000000000E+00 -0.00000000000E+00 -0.74505805969E-08  0.93827000000E+00  0.93827000000E+00 0. -1.
     999902    2    1    2    0    0  0.15472832727E-02 -0.12558672045E-01 -0.20484122243E-01  0.10198527578E+01  0.10195685038E+01 0.  0.
     999903    2    3    3    0    0 -0.65920666890E-01 -0.55319436377E-01  0.93338632096E-01  0.12893411577E+00  0.22497368820E-01 0.  0.
         14    1    1    2    0    0 -0.15472832727E-02  0.12558672045E-01  0.20484122243E-01  0.24077242224E-01  0.00000000000E+00 0. -1.
     999901    1    3    3    0    0  0.67467950163E-01  0.42760764332E-01 -0.11382275434E+00  0.89091864200E+00  0.88000000000E+00 0. -1.
        -11    1    4    4    0    0 -0.58010461653E-01 -0.53671901286E-01  0.90954511215E-01  0.12049427738E+00  0.51100000000E-03 0.  1.
         11    1    4    4    0    0 -0.79102052375E-02 -0.16475350909E-02  0.23841208813E-02  0.84398383961E-02  0.51100000000E-03 0. -1.
</event>
<event>
 8    1  0.1213322E+005  0.1043930E+01  0.7957747E-01            NaN
         13   -1    0    0    0    0  0.00000000000E+00  0.00000000000E+00  0.74505805969E-08  0.10566000000E+00  0.10566000000E+00 0.  1.
     999900   -1    0    0    0    0 -0.00000000000E+00 -0.00000000000E+00 -0.74505805969E-08  0.93827000000E+00  0.93827000000E+00 0. -1.
     999902    2    1    2    0    0  0.61209410023E-02  0.22123881621E-01 -0.62839999410E-02  0.10201304052E+01  0.10198527457E+01 0.  0.
     999903    2    3    3    0    0 -0.78315557943E-01 -0.97220429401E-01 -0.19845408618E-01  0.12796646359E+00  0.19910727053E-01 0.  0.
         14    1    1    2    0    0 -0.61209410023E-02 -0.22123881621E-01  0.62839999410E-02  0.23799594786E-01  0.00000000000E+00 0.  1.
     999901    1    3    3    0    0  0.84436498946E-01  0.11934431102E+00  0.13561408677E-01  0.89216394162E+00  0.88000000000E+00 0. -1.
        -11    1    4    4    0    0 -0.46493399432E-01 -0.68381724160E-01 -0.19749998672E-01  0.85017762605E-01  0.51100000000E-03 0.  1.
         11    1    4    4    0    0 -0.31822158511E-01 -0.28838705241E-01 -0.95409946101E-04  0.42948700986E-01  0.51100000000E-03 0. -1.
</event>
<event>
 8    1  0.1213322E+005  0.1043930E+01  0.7957747E-01            NaN
         13   -1    0    0    0    0  0.00000000000E+00  0.00000000000E+00  0.74505805969E-08  0.10566000000E+00  0.10566000000E+00 0.  1.
     999900   -1    0    0    0    0 -0.00000000000E+00 -0.00000000000E+00 -0.74505805969E-08  0.93827000000E+00  0.93827000000E+00 0. -1.
     999902    2    1    2    0    0  0.78934398024E-02 -0.22140612767E-01 -0.32996458966E-02  0.10201939349E+01  0.10199177731E+01 0.  0.
     999903    2    3    3    0    0  0.30689725028E-01 -0.92529800685E-01 -0.89501900637E-01  0.13289176698E+00  0.12083388409E-01 0.  0.
         14    1    1    2    0    0 -0.78934398024E-02  0.22140612767E-01  0.32996458966E-02  0.23736065146E-01  0.00000000000E+00 0. -1.
     999901    1    3    3    0    0 -0.22796285226E-01  0.70389187919E-01  0.86202254741E-01  0.88730216788E+00  0.88000000000E+00 0.  1.
        -11    1    4    4    0    0  0.22131481808E-01 -0.53846470488E-01 -0.59005354783E-01  0.82892327058E-01  0.51100000000E-03 0. -1.
         11    1    4    4    0    0  0.85582432204E-02 -0.38683330198E-01 -0.30496545854E-01  0.49999439919E-01  0.51100000000E-03 0.  1.
</event>
<event>
 8    1  0.1213322E+005  0.1043930E+01  0.7957747E-01            NaN
         13   -1    0    0    0    0  0.00000000000E+00  0.00000000000E+00  0.74505805969E-08  0.10566000000E+00  0.10566000000E+00 0. -1.
     999900   -1    0    0    0    0 -0.00000000000E+00 -0.00000000000E+00 -0.74505805969E-08  0.93827000000E+00  0.93827000000E+00 0. -1.
     999902    2    1    2    0    0 -0.18452729252E-01 -0.77494046249E-02 -0.12904745214E-01  0.10201163708E+01  0.10198383798E+01 0.  0.
     999903    2    3    3    0    0 -0.89980916775E-01  0.74916468372E-01  0.54986036267E-01  0.13075756443E+00  0.19105859187E-01 0.  0.
         14    1    1    2    0    0  0.18452729252E-01  0.77494046249E-02  0.12904745214E-01  0.23813629247E-01  0.00000000000E+00 0.  1.
     999901    1    3    3    0    0  0.71528187523E-01 -0.82665872997E-01 -0.67890781481E-01  0.88935880632E+00  0.88000000000E+00 0. -1.
        -11    1    4    4    0    0 -0.45557706069E-01  0.50203703090E-01  0.31040714530E-01  0.74563419086E-01  0.51100000000E-03 0.  1.
         11    1    4    4    0    0 -0.44423210705E-01  0.24712765282E-01  0.23945321737E-01  0.56194145348E-01  0.51100000000E-03 0. -1.
</event>
<event>
 8    1  0.1213322E+005  0.1043930E+01  0.7957747E-01            NaN
         13   -1    0    0    0    0  0.00000000000E+00  0.00000000000E+00  0.74505805969E-08  0.10566000000E+00  0.10566000000E+00 0.  1.
     999900   -1    0    0    0    0 -0.00000000000E+00 -0.00000000000E+00 -0.74505805969E-08  0.93827000000E+00  0.93827000000E+00 0. -1.
     999902    2    1    2    0    0 -0.18997006699E-01 -0.89750701796E-03  0.11593544828E-01  0.10216566513E+01  0.10214138295E+01 0.  0.
     999903    2    3    3    0    0 -0.29779361538E-01  0.88118326857E-01 -0.90451808748E-01  0.13123353159E+00  0.19724609158E-01 0.  0.
         14    1    1    2    0    0  0.18997006699E-01  0.89750701796E-03 -0.11593544828E-01  0.22273348739E-01  0.00000000000E+00 0.  1.
     999901    1    3    3    0    0  0.10782354839E-01 -0.89015833875E-01  0.10204535358E+00  0.89042311967E+00  0.88000000000E+00 0.  1.
        -11    1    4    4    0    0 -0.12601076960E-01  0.18370946943E-01 -0.29859292575E-01  0.37257446319E-01  0.51100000000E-03 0.  1.
         11    1    4    4    0    0 -0.17178284578E-01  0.69747379914E-01 -0.60592516173E-01  0.93976085272E-01  0.51100000000E-03 0. -1.
</event>
<event>
 8    1  0.1213322E+005  0.1043930E+01  0.7957747E-01            NaN
         13   -1    0    0    0    0  0.00000000000E+00  0.00000000000E+00  0.74505805969E-08  0.10566000000E+00  0.10566000000E+00 0.  1.
     999900   -1    0    0    0    0 -0.00000000000E+00 -0.00000000000E+00 -0.74505805969E-08  0.93827000000E+00  0.93827000000E+00 0.  1.
     999902    2    1    2    0    0 -0.17084306307E-01  0.36334875839E-02  0.15873847765E-01  0.10203279917E+01  0.10200549769E+01 0.  0.
     999903    2    3    3    0    0 -0.50385931397E-02 -0.10943124147E+00  0.69652942350E-01  0.13138427964E+00  0.20241356853E-01 0.  0.
         14    1    1    2    0    0  0.17084306307E-01 -0.36334875839E-02 -0.15873847765E-01  0.23602008323E-01  0.00000000000E+00 0. -1.
     999901    1    3    3    0    0 -0.12045713167E-01  0.11306472905E+00 -0.53779094585E-01  0.88894371204E+00  0.88000000000E+00 0. -1.
        -11    1    4    4    0    0 -0.35749787196E-02 -0.52698668544E-01  0.21781226277E-01  0.57136792685E-01  0.51100000000E-03 0.  1.
         11    1    4    4    0    0 -0.14636144201E-02 -0.56732572925E-01  0.47871716073E-01  0.74247486952E-01  0.51100000000E-03 0. -1.
</event>
<event>
 7    1  0.1213322E+005  0.1043930E+01  0.7957747E-01            NaN
         13   -1    0    0    0    0  0.00000000000E+00  0.00000000000E+00  0.74505805969E-08  0.10566000000E+00  0.10566000000E+00 0.  1.
     999900   -1    0    0    0    0 -0.00000000000E+00 -0.00000000000E+00 -0.74505805969E-08  0.93827000000E+00  0.93827000000E+00 0.  1.
     999903    2    1    2    0    0 -0.63522922046E-01  0.89925683632E-01 -0.22101016920E-01  0.11427879979E+00  0.21199031339E-01 0.  0.
         14    1    1    2    0    0 -0.36302487689E-01 -0.14173584743E-01 -0.98594997091E-02  0.40199139933E-01  0.00000000000E+00 0.  1.
     999901    1    1    2    0    0  0.99825409734E-01 -0.75752098889E-01  0.31960516629E-01  0.88945206028E+00  0.88000000000E+00 0. -1.
        -11    1    3    3    0    0 -0.53454629571E-01  0.77309346732E-01 -0.10891713927E-01  0.94620415704E-01  0.51100000000E-03 0. -1.
         11    1    3    3    0    0 -0.10068292474E-01  0.12616336900E-01 -0.11209302993E-01  0.19658384082E-01  0.51100000000E-03 0.  1.
</event>
<event>
 8    1  0.1213322E+005  0.1043930E+01  0.7957747E-01            NaN
         13   -1    0    0    0    0  0.00000000000E+00  0.00000000000E+00  0.74505805969E-08  0.10566000000E+00  0.10566000000E+00 0.  1.
     999900   -1    0    0    0    0 -0.00000000000E+00 -0.00000000000E+00 -0.74505805969E-08  0.93827000000E+00  0.93827000000E+00 0.  1.
     999902    2    1    2    0    0 -0.84485853584E-02 -0.88009861656E-02 -0.20128951067E-01  0.10203925697E+01  0.10201210643E+01 0.  0.
     999903    2    3    3    0    0  0.36784007978E-01  0.11226684895E+00 -0.51641319414E-01  0.13039457112E+00  0.19468171196E-01 0.  0.
         14    1    1    2    0    0  0.84485853584E-02  0.88009861656E-02  0.20128951067E-01  0.23537430257E-01  0.00000000000E+00 0.  1.
     999901    1    3    3    0    0 -0.45232593336E-01 -0.12106783512E+00  0.31512368348E-01  0.88999799863E+00  0.88000000000E+00 0. -1.
        -11    1    4    4    0    0  0.33372192123E-01  0.90890518088E-01 -0.34533843602E-01  0.10279901245E+00  0.51100000000E-03 0.  1.
         11    1    4    4    0    0  0.34118158547E-02  0.21376330862E-01 -0.17107475812E-01  0.27595558668E-01  0.51100000000E-03 0. -1.
</event>
<event>
 8    1  0.1213322E+005  0.1043930E+01  0.7957747E-01            NaN
         13   -1    0    0    0    0  0.00000000000E+00  0.00000000000E+00  0.74505805969E-08  0.10566000000E+00  0.10566000000E+00 0. -1.
     999900   -1    0    0    0    0 -0.00000000000E+00 -0.00000000000E+00 -0.74505805969E-08  0.93827000000E+00  0.93827000000E+00 0. -1.
     999902    2    1    2    0    0  0.22776007020E-02 -0.50550966879E-02 -0.22096578130E-01  0.10211484234E+01  0.10208942660E+01 0.  0.
     999903    2    3    3    0    0 -0.11587730118E+00 -0.47823763674E-01 -0.36888090290E-01  0.13209919610E+00  0.19359883895E-01 0.  0.
         14    1    1    2    0    0 -0.22776007020E-02  0.50550966879E-02  0.22096578130E-01  0.22781576604E-01  0.00000000000E+00 0. -1.
     999901    1    3    3    0    0  0.11815490189E+00  0.42768666986E-01  0.14791512159E-01  0.88904922729E+00  0.88000000000E+00 0.  1.
        -11    1    4    4    0    0 -0.63160112462E-01 -0.35989102304E-01 -0.23958426131E-01  0.76542031554E-01  0.51100000000E-03 0.  1.
         11    1    4    4    0    0 -0.52717188723E-01 -0.11834661371E-01 -0.12929664159E-01  0.55557164550E-01  0.51100000000E-03 0. -1.
</event>
<event>
 8    1  0.1213322E+005  0.1043930E+01  0.7957747E-01            NaN
         13   -1    0    0    0    0  0.00000000000E+00  0.00000000000E+00  0.74505805969E-08  0.10566000000E+00  0.10566000000E+00 0.  1.
     999900   -1    0    0    0    0 -0.00000000000E+00 -0.00000000000E+00 -0.74505805969E-08  0.93827000000E+00  0.93827000000E+00 0.  1.
     999902    2    1    2    0    0  0.58960940905E-02  0.57290212912E-02 -0.21975349868E-01  0.10204672292E+01  0.10201974634E+01 0.  0.
     999903    2    3    3    0    0  0.96021746184E-01 -0.85994594742E-01  0.96037663607E-02  0.13056100075E+00  0.18403709495E-01 0.  0.
         14    1    1    2    0    0 -0.58960940905E-02 -0.57290212912E-02  0.21975349868E-01  0.23462770772E-01  0.00000000000E+00 0.  1.
     999901    1    3    3    0    0 -0.90125652094E-01  0.91723616034E-01 -0.31579116228E-01  0.88990622848E+00  0.88000000000E+00 0.  1.
        -11    1    4    4    0    0  0.17874050423E-01 -0.26119177718E-01  0.45766096211E-02  0.31982801625E-01  0.51100000000E-03 0.  1.
         11    1    4    4    0    0  0.78147695761E-01 -0.59875417025E-01  0.50271567397E-02  0.98578199124E-01  0.51100000000E-03 0. -1.
</event>
<event>
 8    1  0.1213322E+005  0.1043930E+01  0.7957747E-01            NaN
         13   -1    0    0    0    0  0.00000000000E+00  0.00000000000E+00  0.74505805969E-08  0.10566000000E+00  0.10566000000E+00 0.  1.
     999900   -1    0    0    0    0 -0.00000000000E+00 -0.00000000000E+00 -0.74505805969E-08  0.93827000000E+00  0.93827000000E+00 0. -1.
     999902    2    1    2    0    0  0.19717742995E-01 -0.47043773448E-04  0.14543071969E-01  0.10194291318E+01  0.10191346634E+01 0.  0.
     999903    2    3    3    0    0  0.11486582760E+00 -0.15285967016E-01  0.61825696418E-01  0.13290725986E+00  0.20349541755E-01 0.  0.
         14    1    1    2    0    0 -0.19717742995E-01  0.47043773448E-04 -0.14543071969E-01  0.24500868234E-01  0.00000000000E+00 0. -1.
     999901    1    3    3    0    0 -0.95148084603E-01  0.15238923243E-01 -0.47282624449E-01  0.88652187190E+00  0.88000000000E+00 0.  1.
        -11    1    4    4    0    0  0.31457072727E-01 -0.13258285800E-01  0.15800870225E-01  0.37619917434E-01  0.51100000000E-03 0.  1.
         11    1    4    4    0    0  0.83408754871E-01 -0.20276812167E-02  0.46024826193E-01  0.95287342430E-01  0.51100000000E-03 0. -1.
</event>
<event>
 8    1  0.1213322E+005  0.1043930E+01  0.7957747E-01            NaN
         13   -1    0    0    0    0  0.00000000000E+00  0.00000000000E+00  0.74505805969E-08  0.10566000000E+00  0.10566000000E+00 0. -1.
     999900   -1    0    0    0    0 -0.00000000000E+00 -0.00000000000E+00 -0.74505805969E-08  0.93827000000E+00  0.93827000000E+00 0.  1.
     999902    2    1    2    0    0  0.93929326725E-02  0.48783684173E-02  0.16139452311E-01  0.10246295445E+01  0.10244477516E+01 0.  0.
     999903    2    3    3    0    0  0.48277700744E-01  0.90272495950E-01 -0.83459109906E-01  0.13405441805E+00  0.22919512622E-01 0.  0.
         14    1    1    2    0    0 -0.93929326725E-02 -0.48783684173E-02 -0.16139452311E-01  0.19300455526E-01  0.00000000000E+00 0.  1.
     999901    1    3    3    0    0 -0.38884768072E-01 -0.85394127533E-01  0.99598562217E-01  0.89057512642E+00  0.88000000000E+00 0. -1.
        -11    1    4    4    0    0  0.50274516273E-01  0.80680456509E-01 -0.74686564669E-01  0.12089337084E+00  0.51100000000E-03 0. -1.
         11    1    4    4    0    0 -0.19968155290E-02  0.95920394416E-02 -0.87725452373E-02  0.13161047217E-01  0.51100000000E-03 0.  1.
</event>
<event>
 8    1  0.1213322E+005  0.1043930E+01  0.7957747E-01            NaN
         13   -1    0    0    0    0  0.00000000000E+00  0.00000000000E+00  0.74505805969E-08  0.10566000000E+00  0.10566000000E+00 0.  1.
     999900   -1    0    0    0    0 -0.00000000000E+00 -0.00000000000E+00 -0.74505805969E-08  0.93827000000E+00  0.93827000000E+00 0. -1.
     999902    2    1    2    0    0  0.23409188982E-01 -0.75699723857E-03 -0.25713848508E-02  0.10203678440E+01  0.10200957612E+01 0.  0.
     999903    2    3    3    0    0  0.62792703962E-01 -0.65345627662E-01 -0.94534856471E-01  0.13234755567E+00  0.19132738411E-01 0.  0.
         14    1    1    2    0    0 -0.23409188982E-01  0.75699723857E-03  0.25713848508E-02  0.23562155964E-01  0.00000000000E+00 0.  1.
     999901    1    3    3    0    0 -0.39383514980E-01  0.64588630423E-01  0.91963471620E-01  0.88802028836E+00  0.88000000000E+00 0.  1.
        -11    1    4    4    0    0  0.39096186045E-01 -0.47290333103E-01 -0.74148032321E-01  0.96244891741E-01  0.51100000000E-03 0.  1.
         11    1    4    4    0    0  0.23696517917E-01 -0.18055294559E-01 -0.20386824151E-01  0.36102663931E-01  0.51100000000E-03 0. -1.
</event>
<event>
 8    1  0.1213322E+005  0.1043930E+01  0.7957747E-01            NaN
         13   -1    0    0    0    0  0.00000000000E+00  0.00000000000E+00  0.74505805969E-08  0.10566000000E+00  0.10566000000E+00 0.  1.
     999900   -1    0    0    0    0 -0.00000000000E+00 -0.00000000000E+00 -0.74505805969E-08  0.93827000000E+00  0.93827000000E+00 0.  1.
     999902    2    1    2    0    0 -0.65224385736E-02 -0.21513755384E-01 -0.56866462585E-02  0.10207411703E+01  0.10204777386E+01 0.  0.
     999903    2    3    3    0    0 -0.54908600655E-01 -0.19907513725E-01 -0.11710918819E+00  0.13239507587E+00  0.20065657932E-01 0.  0.
         14    1    1    2    0    0  0.65224385736E-02  0.21513755384E-01  0.56866462585E-02  0.23188829667E-01  0.00000000000E+00 0.  1.
     999901    1    3    3    0    0  0.48386162081E-01 -0.16062416590E-02  0.11142254193E+00  0.88834609446E+00  0.88000000000E+00 0. -1.
        -11    1    4    4    0    0 -0.21523417141E-02 -0.81915309987E-03 -0.20814173821E-01  0.20947423219E-01  0.51100000000E-03 0. -1.
         11    1    4    4    0    0 -0.52756258940E-01 -0.19088360625E-01 -0.96295014369E-01  0.11144765265E+00  0.51100000000E-03 0.  1.
</event>
<event>
 8    1  0.1213322E+005  0.1043930E+01  0.7957747E-01            NaN
         13   -1    0    0    0    0  0.00000000000E+00  0.00000000000E+00  0.74505805969E-08  0.10566000000E+00  0.10566000000E+00 0. -1.
     999900   -1    0    0    0    0 -0.00000000000E+00 -0.00000000000E+00 -0.74505805969E-08  0.93827000000E+00  0.93827000000E+00 0. -1.
     999902    2    1    2    0    0  0.17774657316E-01 -0.18379987584E-01 -0.21679577901E-02  0.10182694773E+01  0.10179461017E+01 0.  0.
     999903    2    3    3    0    0  0.12651737987E+00  0.19022633462E-01 -0.18604125395E-01  0.13063549674E+00  0.18735301796E-01 0.  0.
         14    1    1    2    0    0 -0.17774657316E-01  0.18379987584E-01  0.21679577901E-02  0.25660522740E-01  0.00000000000E+00 0. -1.
     999901    1    3    3    0    0 -0.10874272256E+00 -0.37402621046E-01  0.16436167605E-01  0.88763398052E+00  0.88000000000E+00 0.  1.
        -11    1    4    4    0    0  0.92429994708E-01  0.22009351702E-01 -0.11824410183E-01  0.95748594147E-01  0.51100000000E-03 0.  1.
         11    1    4    4    0    0  0.34087385163E-01 -0.29867182398E-02 -0.67797152117E-02  0.34886902592E-01  0.51100000000E-03 0. -1.
</event>
<event>
 8    1  0.1213322E+005  0.1043930E+01  0.7957747E-01            NaN
         13   -1    0    0    0    0  0.00000000000E+00  0.00000000000E+00  0.74505805969E-08  0.10566000000E+00  0.10566000000E+00 0.  1.
     999900   -1    0    0    0    0 -0.00000000000E+00 -0.00000000000E+00 -0.74505805969E-08  0.93827000000E+00  0.93827000000E+00 0.  1.
     999902    2    1    2    0    0  0.10645819652E-01 -0.11561515458E-01 -0.11634066084E-01  0.10243761357E+01  0.10241894911E+01 0.  0.
     999903    2    3    3    0    0 -0.80813938999E-01  0.50081082414E-01 -0.92048223564E-01  0.13385318032E+00  0.20119415191E-01 0.  0.
         14    1    1    2    0    0 -0.10645819652E-01  0.11561515458E-01  0.11634066084E-01  0.19553864308E-01  0.00000000000E+00 0.  1.
     999901    1    3    3    0    0  0.91459758651E-01 -0.61642597872E-01  0.80414157481E-01  0.89052295537E+00  0.88000000000E+00 0.  1.
        -11    1    4    4    0    0 -0.41984291200E-01  0.17445945052E-01 -0.34062174618E-01  0.56811394693E-01  0.51100000000E-03 0. -1.
         11    1    4    4    0    0 -0.38829647799E-01  0.32635137362E-01 -0.57986048946E-01  0.77041785624E-01  0.51100000000E-03 0.  1.
</event>
<event>
 8    1  0.1213322E+005  0.1043930E+01  0.7957747E-01            NaN
         13   -1    0    0    0    0  0.00000000000E+00  0.00000000000E+00  0.74505805969E-08  0.10566000000E+00  0.10566000000E+00 0. -1.
     999900   -1    0    0    0    0 -0.00000000000E+00 -0.00000000000E+00 -0.74505805969E-08  0.93827000000E+00  0.93827000000E+00 0.  1.
     999902    2    1    2    0    0 -0.17810983558E-02  0.97819941482E-02  0.20870001424E-01  0.10208125460E+01  0.10205507520E+01 0.  0.
     999903    2    3    3    0    0 -0.55034133579E-01 -0.34085306156E-01  0.11463948580E+00  0.13314541130E+00  0.19872717278E-01 0.  0.
         14    1    1    2    0    0  0.17810983558E-02 -0.97819941482E-02 -0.20870001424E-01  0.23117454019E-01  0.00000000000E+00 0.  1.
     999901    1    3    3    0    0  0.53253035223E-01  0.43867300305E-01 -0.93769484371E-01  0.88766713468E+00  0.88000000000E+00 0.  1.
        -11    1    4    4    0    0 -0.46740163980E-01 -0.21626415651E-01  0.77008958231E-01  0.92644403779E-01  0.51100000000E-03 0.  1.
         11    1    4    4    0    0 -0.82939695984E-02 -0.12458890505E-01  0.37630527564E-01  0.40501007520E-01  0.51100000000E-03 0. -1.
</event>
<event>
 8    1  0.1213322E+005  0.1043930E+01  0.7957747E-01            NaN
         13   -1    0    0    0    0  0.00000000000E+00  0.00000000000E+00  0.74505805969E-08  0.10566000000E+00  0.10566000000E+00 0.  1.
     999900   -1    0    0    0    0 -0.00000000000E+00 -0.00000000000E+00 -0.74505805969E-08  0.93827000000E+00  0.93827000000E+00 0.  1.
     999902    2    1    2    0    0  0.23527773696E-02 -0.19472314076E-01 -0.13959623021E-01  0.10198555810E+01  0.10195713945E+01 0.  0.
     999903    2    3    3    0    0 -0.10729140692E-01  0.12548807212E+00  0.65028494720E-02  0.12766537539E+00  0.19844150742E-01 0.  0.
         14    1    1    2    0    0 -0.23527773696E-02  0.19472314076E-01  0.13959623021E-01  0.24074419031E-01  0.00000000000E+00 0.  1.
     999901    1    3    3    0    0  0.13081918062E-01 -0.14496038619E+00 -0.20462472493E-01  0.89219020558E+00  0.88000000000E+00 0.  1.
        -11    1    4    4    0    0  0.53796079669E-02  0.50993558934E-01  0.22190993265E-02  0.51327076260E-01  0.51100000000E-03 0. -1.
         11    1    4    4    0    0 -0.16108748659E-01  0.74494513185E-01  0.42837501455E-02  0.76338299132E-01  0.51100000000E-03 0.  1.
</event>
<event>
 8    1  0.1213322E+005  0.1043930E+01  0.7957747E-01            NaN
         13   -1    0    0    0    0  0.00000000000E+00  0.00000000000E+00  0.74505805969E-08  0.10566000000E+00  0.10566000000E+00 0.  1.
     999900   -1    0    0    0    0 -0.00000000000E+00 -0.00000000000E+00 -0.74505805969E-08  0.93827000000E+00  0.93827000000E+00 0. -1.
     999902    2    1    2    0    0 -0.68027781526E-02 -0.17796581740E-01  0.91335608953E-02  0.10228013927E+01  0.10225831364E+01 0.  0.
     999903    2    3    3    0    0  0.21004530185E-01 -0.90968686612E-01 -0.92927636371E-01  0.13345112912E+00  0.21381441231E-01 0.  0.
         14    1    1    2    0    0  0.68027781526E-02  0.17796581740E-01 -0.91335608953E-02  0.21128607310E-01  0.00000000000E+00 0. -1.
     999901    1    3    3    0    0 -0.27807308338E-01  0.73172104872E-01  0.10206119727E+00  0.88935026357E+00  0.88000000000E+00 0.  1.
        -11    1    4    4    0    0  0.99425114022E-02 -0.38361092136E-01 -0.54422075018E-01  0.67323475052E-01  0.51100000000E-03 0.  1.
         11    1    4    4    0    0  0.11062018783E-01 -0.52607594477E-01 -0.38505561353E-01  0.66127654066E-01  0.51100000000E-03 0. -1.
</event>
<event>
 8    1  0.1213322E+005  0.1043930E+01  0.7957747E-01            NaN
         13   -1    0    0    0    0  0.00000000000E+00  0.00000000000E+00  0.74505805969E-08  0.10566000000E+00  0.10566000000E+00 0.  1.
     999900   -1    0    0    0    0 -0.00000000000E+00 -0.00000000000E+00 -0.74505805969E-08  0.93827000000E+00  0.93827000000E+00 0.  1.
     999902    2    1    2    0    0 -0.25892890636E-01 -0.32474822486E-02 -0.50968222723E-02  0.10173411767E+01  0.10169936599E+01 0.  0.
     999903    2    3    3    0    0  0.35776165500E-01 -0.31522685816E-02 -0.12075766971E+00  0.12763307111E+00  0.20442975111E-01 0.  0.
         14    1    1    2    0    0  0.25892890636E-01  0.32474822486E-02  0.50968222723E-02  0.26588823286E-01  0.00000000000E+00 0. -1.
     999901    1    3    3    0    0 -0.61669056137E-01 -0.95213666913E-04  0.11566084744E+00  0.88970810561E+00  0.88000000000E+00 0. -1.
        -11    1    4    4    0    0  0.21240018802E-01 -0.11016778476E-01 -0.58237807137E-01  0.62963569688E-01  0.51100000000E-03 0.  1.
         11    1    4    4    0    0  0.14536146698E-01  0.78645098945E-02 -0.62519862574E-01  0.64669501420E-01  0.51100000000E-03 0. -1.
</event>
<event>
 7    1  0.1213322E+005  0.1043930E+01  0.7957747E-01            NaN
         13   -1    0    0    0    0  0.00000000000E+00  0.00000000000E+00  0.74505805969E-08  0.10566000000E+00  0.10566000000E+00 0. -1.
     999900   -1    0    0    0    0 -0.00000000000E+00 -0.00000000000E+00 -0.74505805969E-08  0.93827000000E+00  0.93827000000E+00 0.  1.
     999903    2    1    2    0    0  0.49058075757E-01  0.21923416801E-01 -0.98552526037E-01  0.11398533641E+00  0.19817303745E-01 0.  0.
         14    1    1    2    0    0  0.17876886594E-01 -0.35371144629E-01  0.18319182090E-01  0.43661119765E-01  0.00000000000E+00 0. -1.
     999901    1    1    2    0    0 -0.66934962351E-01  0.13447727827E-01  0.80233343947E-01  0.88628354382E+00  0.88000000000E+00 0.  1.
        -11    1    3    3    0    0  0.22199987014E-01  0.49633072590E-02 -0.24664064054E-01  0.33556683672E-01  0.51100000000E-03 0. -1.
         11    1    3    3    0    0  0.26858088743E-01  0.16960109542E-01 -0.73888461983E-01  0.80428652742E-01  0.51100000000E-03 0.  1.
</event>
<event>
 8    1  0.1213322E+005  0.1043930E+01  0.7957747E-01            NaN
         13   -1    0    0    0    0  0.00000000000E+00  0.00000000000E+00  0.74505805969E-08  0.10566000000E+00  0.10566000000E+00 0.  1.
     999900   -1    0    0    0    0 -0.00000000000E+00 -0.00000000000E+00 -0.74505805969E-08  0.93827000000E+00  0.93827000000E+00 0.  1.
     999902    2    1    2    0    0  0.10781188155E-01 -0.74105638998E-02 -0.19915599203E-01  0.10201018325E+01  0.10198234980E+01 0.  0.
     999903    2    3    3    0    0  0.50120964072E-01 -0.51173192487E-01 -0.11095155533E+00  0.13345064350E+00  0.19183846070E-01 0.  0.
         14    1    1    2    0    0 -0.10781188155E-01  0.74105638998E-02  0.19915599203E-01  0.23828167512E-01  0.00000000000E+00 0.  1.
     999901    1    3    3    0    0 -0.39339775916E-01  0.43762628587E-01  0.91035956132E-01  0.88665118899E+00  0.88000000000E+00 0. -1.
        -11    1    4    4    0    0  0.14690762608E-01 -0.82297507868E-02 -0.38929797716E-01  0.42418599402E-01  0.51100000000E-03 0.  1.
         11    1    4    4    0    0  0.35430201464E-01 -0.42943441700E-01 -0.72021757619E-01  0.91032044096E-01  0.51100000000E-03 0. -1.
</event>
<event>
 8    1  0.1213322E+005  0.1043930E+01  0.7957747E-01            NaN
         13   -1    0    0    0    0  0.00000000000E+00  0.00000000000E+00  0.74505805969E-08  0.10566000000E+00  0.10566000000E+00 0.  1.
     999900   -1    0    0    0    0 -0.00000000000E+00 -0.00000000000E+00 -0.74505805969E-08  0.93827000000E+00  0.93827000000E+00 0. -1.
     999902    2    1    2    0    0  0.15675866857E-01  0.15100762793E-01  0.10247573883E-01  0.10198721820E+01  0.10195883919E+01 0.  0.
     999903    2    3    3    0    0  0.92772058506E-01 -0.75618591602E-01 -0.46682322596E-01  0.13003240023E+00  0.20108695401E-01 0.  0.
         14    1    1    2    0    0 -0.15675866857E-01 -0.15100762793E-01 -0.10247573883E-01  0.24057818046E-01  0.00000000000E+00 0. -1.
     999901    1    3    3    0    0 -0.77096191649E-01  0.90719354395E-01  0.56929896479E-01  0.88983978173E+00  0.88000000000E+00 0.  1.
        -11    1    4    4    0    0  0.54556341107E-01 -0.41769469630E-01 -0.16287738962E-01  0.70616106588E-01  0.51100000000E-03 0. -1.
         11    1    4    4    0    0  0.38215717400E-01 -0.33849121972E-01 -0.30394583635E-01  0.59416293641E-01  0.51100000000E-03 0.  1.
</event>
<event>
 7    1  0.1213322E+005  0.1043930E+01  0.7957747E-01            NaN
         13   -1    0    0    0    0  0.00000000000E+00  0.00000000000E+00  0.74505805969E-08  0.10566000000E+00  0.10566000000E+00 0. -1.
     999900   -1    0    0    0    0 -0.00000000000E+00 -0.00000000000E+00 -0.74505805969E-08  0.93827000000E+00  0.93827000000E+00 0. -1.
     999903    2    1    2    0    0  0.12911867323E-01 -0.94555219044E-01  0.49621283854E-01  0.10942527813E+00  0.20105071900E-01 0.  0.
         14    1    1    2    0    0  0.41587030720E-01 -0.11105985374E-01 -0.15844418989E-01  0.45867958842E-01  0.00000000000E+00 0.  1.
     999901    1    1    2    0    0 -0.54498898043E-01  0.10566120442E+00 -0.33776864865E-01  0.88863676303E+00  0.88000000000E+00 0. -1.
        -11    1    3    3    0    0  0.84608093542E-02 -0.83522971946E-01  0.36033279418E-01  0.91358253509E-01  0.51100000000E-03 0. -1.
         11    1    3    3    0    0  0.44510579689E-02 -0.11032247098E-01  0.13588004436E-01  0.18067024620E-01  0.51100000000E-03 0.  1.
</event>
<event>
 7    1  0.1213322E+005  0.1043930E+01  0.7957747E-01            NaN
         13   -1    0    0    0    0  0.00000000000E+00  0.00000000000E+00  0.74505805969E-08  0.10566000000E+00  0.10566000000E+00 0. -1.
     999900   -1    0    0    0    0 -0.00000000000E+00 -0.00000000000E+00 -0.74505805969E-08  0.93827000000E+00  0.93827000000E+00 0. -1.
     999903    2    1    2    0    0  0.31583186451E-01  0.22506680718E-03  0.72290199700E-01  0.81318827242E-01  0.19731456353E-01 0.  0.
         14    1    1    2    0    0 -0.78474967089E-01 -0.49580527969E-02 -0.57102081269E-02  0.78838500899E-01  0.00000000000E+00 0. -1.
     999901    1    1    2    0    0  0.46891780638E-01  0.47329859897E-02 -0.66579991573E-01  0.88377267186E+00  0.88000000000E+00 0. -1.
        -11    1    3    3    0    0  0.20332057875E-01  0.79064422917E-02  0.55850055700E-01  0.59961606465E-01  0.51100000000E-03 0. -1.
         11    1    3    3    0    0  0.11251128576E-01 -0.76813754845E-02  0.16440144000E-01  0.21357220777E-01  0.51100000000E-03 0.  1.
</event>
<event>
 8    1  0.1213322E+005  0.1043930E+01  0.7957747E-01            NaN
         13   -1    0    0    0    0  0.00000000000E+00  0.00000000000E+00  0.74505805969E-08  0.10566000000E+00  0.10566000000E+00 0. -1.
     999900   -1    0    0    0    0 -0.00000000000E+00 -0.00000000000E+00 -0.74505805969E-08  0.93827000000E+00  0.93827000000E+00 0.  1.
     999902    2    1    2    0    0  0.87659191162E-02 -0.12627997653E-01  0.29720619873E-03  0.10285548254E+01  0.10284399024E+01 0.  0.
     999903    2    3    3    0    0  0.72687941945E-01  0.83692927534E-01  0.79011779451E-01  0.13751064598E+00  0.19449252971E-01 0.  0.
         14    1    1    2    0    0 -0.87659191162E-02  0.12627997653E-01 -0.29720619873E-03  0.15375174607E-01  0.00000000000E+00 0.  1.
     999901    1    3    3    0    0 -0.63922022829E-01 -0.96320925187E-01 -0.78714573253E-01  0.89104417942E+00  0.88000000000E+00 0.  1.
        -11    1    4    4    0    0  0.42398294872E-01  0.46172018907E-01  0.32935106047E-01  0.70812803004E-01  0.51100000000E-03 0.  1.
         11    1    4    4    0    0  0.30289647073E-01  0.37520908627E-01  0.46076673405E-01  0.66697842971E-01  0.51100000000E-03 0. -1.
</event>
<event>
 8    1  0.1213322E+005  0.1043930E+01  0.7957747E-01            NaN
         13   -1    0    0    0    0  0.00000000000E+00  0.00000000000E+00  0.74505805969E-08  0.10566000000E+00  0.10566000000E+00 0. -1.
     999900   -1    0    0    0    0 -0.00000000000E+00 -0.00000000000E+00 -0.74505805969E-08  0.93827000000E+00  0.93827000000E+00 0.  1.
     999902    2    1    2    0    0 -0.20857560818E-01 -0.59646318084E-02  0.89384398775E-02  0.10204670423E+01  0.10201972721E+01 0.  0.
     999903    2    3    3    0    0 -0.11228811116E-01  0.12771932487E+00  0.11144232007E-01  0.13031594356E+00  0.20487535091E-01 0.  0.
         14    1    1    2    0    0  0.20857560818E-01  0.59646318084E-02 -0.89384398775E-02  0.23462957685E-01  0.00000000000E+00 0. -1.
     999901    1    3    3    0    0 -0.96287497028E-02 -0.13368395668E+00 -0.22057921293E-02  0.89015109875E+00  0.88000000000E+00 0. -1.
        -11    1    4    4    0    0 -0.13205662355E-01  0.11317798747E+00  0.15507632803E-01  0.11499736589E+00  0.51100000000E-03 0. -1.
         11    1    4    4    0    0  0.19768512394E-02  0.14541337406E-01 -0.43634007963E-02  0.15318577672E-01  0.51100000000E-03 0.  1.
</event>
<event>
 8    1  0.1213322E+005  0.1043930E+01  0.7957747E-01            NaN
         13   -1    0    0    0    0  0.00000000000E+00  0.00000000000E+00  0.74505805969E-08  0.10566000000E+00  0.10566000000E+00 0.  1.
     999900   -1    0    0    0    0 -0.00000000000E+00 -0.00000000000E+00 -0.74505805969E-08  0.93827000000E+00  0.93827000000E+00 0.  1.
     999902    2    1    2    0    0 -0.11943983132E-01  0.20252762072E-01  0.45822736331E-02  0.10199752440E+01  0.10196939090E+01 0.  0.
     999903    2    3    3    0    0  0.31285926816E-02  0.12413962257E+00  0.42783344170E-01  0.13291324833E+00  0.20373587279E-01 0.  0.
         14    1    1    2    0    0  0.11943983132E-01 -0.20252762072E-01 -0.45822736331E-02  0.23954756026E-01  0.00000000000E+00 0. -1.
     999901    1    3    3    0    0 -0.15072575814E-01 -0.10388686050E+00 -0.38201070537E-01  0.88706199564E+00  0.88000000000E+00 0.  1.
        -11    1    4    4    0    0  0.35962222623E-02  0.30749933549E-01  0.19737736976E-01  0.36719621590E-01  0.51100000000E-03 0.  1.
         11    1    4    4    0    0 -0.46762958065E-03  0.93389689024E-01  0.23045607195E-01  0.96193626740E-01  0.51100000000E-03 0. -1.
</event>
<event>
 8    1  0.1213322E+005  0.1043930E+01  0.7957747E-01            NaN
         13   -1    0    0    0    0  0.00000000000E+00  0.00000000000E+00  0.74505805969E-08  0.10566000000E+00  0.10566000000E+00 0.  1.
     999900   -1    0    0    0    0 -0.00000000000E+00 -0.00000000000E+00 -0.74505805969E-08  0.93827000000E+00  0.93827000000E+00 0.  1.
     999902    2    1    2    0    0  0.15008732627E-01 -0.13030515498E-01 -0.12232953238E-01  0.10205911583E+01  0.10203242675E+01 0.  0.
     999903    2    3    3    0    0  0.10310294678E+00 -0.81931604471E-01  0.57818612116E-02  0.13332993169E+00  0.20010880016E-01 0.  0.
         14    1    1    2    0    0 -0.15008732627E-01  0.13030515498E-01  0.12232953238E-01  0.23338841748E-01  0.00000000000E+00 0.  1.
     999901    1    3    3    0    0 -0.88094214150E-01  0.68901088973E-01 -0.18014814450E-01  0.88726122657E+00  0.88000000000E+00 0.  1.
        -11    1    4    4    0    0  0.32350277422E-01 -0.37059331890E-01 -0.16007374289E-02  0.49221519793E-01  0.51100000000E-03 0.  1.
         11    1    4    4    0    0  0.70752669355E-01 -0.44872272581E-01  0.73825986406E-02  0.84108411893E-01  0.51100000000E-03 0. -1.
</event>
<event>
 8    1  0.1213322E+005  0.1043930E+01  0.7957747E-01            NaN
         13   -1    0    0    0    0  0.00000000000E+00  0.00000000000E+00  0.74505805969E-08  0.10566000000E+00  0.10566000000E+00 0. -1.
     999900   -1    0    0    0    0 -0.00000000000E+00 -0.00000000000E+00 -0.74505805969E-08  0.93827000000E+00  0.93827000000E+00 0.  1.
     999902    2    1    2    0    0 -0.10547146829E-01  0.19342239694E-01 -0.14318764612E-01  0.10176546967E+01  0.10173154330E+01 0.  0.
     999903    2    3    3    0    0  0.57624321130E-01  0.25955663471E-01 -0.11142091900E+00  0.12966825830E+00  0.20124044542E-01 0.  0.
         14    1    1    2    0    0  0.10547146829E-01 -0.19342239694E-01  0.14318764612E-01  0.26275303283E-01  0.00000000000E+00 0.  1.
     999901    1    3    3    0    0 -0.68171467959E-01 -0.66134237774E-02  0.97102154389E-01  0.88798643841E+00  0.88000000000E+00 0. -1.
        -11    1    4    4    0    0  0.14358771692E-01 -0.10308467982E-02 -0.16395611707E-01  0.21824623110E-01  0.51100000000E-03 0.  1.
         11    1    4    4    0    0  0.43265549437E-01  0.26986510269E-01 -0.95025307294E-01  0.10784363519E+00  0.51100000000E-03 0. -1.
</event>
<event>
 8    1  0.1213322E+005  0.1043930E+01  0.7957747E-01            NaN
         13   -1    0    0    0    0  0.00000000000E+00  0.00000000000E+00  0.74505805969E-08  0.10566000000E+00  0.10566000000E+00 0. -1.
     999900   -1    0    0    0    0 -0.00000000000E+00 -0.00000000000E+00 -0.74505805969E-08  0.93827000000E+00  0.93827000000E+00 0. -1.
     999902    2    1    2    0    0  0.69154178252E-02  0.12640350211E-02 -0.22261324612E-01  0.10205850356E+01  0.10203180032E+01 0.  0.
     999903    2    3    3    0    0  0.11629770434E+00  0.56820101624E-01 -0.17216194572E-01  0.13206018258E+00  0.19743720090E-01 0.  0.
         14    1    1    2    0    0 -0.69154178252E-02 -0.12640350211E-02  0.22261324612E-01  0.23344964376E-01  0.00000000000E+00 0. -1.
     999901    1    3    3    0    0 -0.10938228652E+00 -0.55556066603E-01 -0.50451300395E-02  0.88852485304E+00  0.88000000000E+00 0. -1.
        -11    1    4    4    0    0  0.49592257976E-01  0.25830676460E-01 -0.17206726931E-01  0.58505969526E-01  0.51100000000E-03 0. -1.
         11    1    4    4    0    0  0.66705446369E-01  0.30989425164E-01 -0.94676415837E-05  0.73554213053E-01  0.51100000000E-03 0.  1.
</event>
<event>
 8    1  0.1213322E+005  0.1043930E+01  0.7957747E-01            NaN
         13   -1    0    0    0    0  0.00000000000E+00  0.00000000000E+00  0.74505805969E-08  0.10566000000E+00  0.10566000000E+00 0.  1.
     999900   -1    0    0    0    0 -0.00000000000E+00 -0.00000000000E+00 -0.74505805969E-08  0.93827000000E+00  0.93827000000E+00 0.  1.
     999902    2    1    2    0    0  0.11839191963E-01 -0.19445732268E-01 -0.41324035308E-02  0.10207917259E+01  0.10205294547E+01 0.  0.
     999903    2    3    3    0    0 -0.21244065530E-01 -0.12308261548E+00  0.39103478958E-01  0.13303925644E+00  0.23868831835E-01 0.  0.
         14    1    1    2    0    0 -0.11839191963E-01  0.19445732268E-01  0.41324035308E-02  0.23138274108E-01  0.00000000000E+00 0. -1.
     999901    1    3    3    0    0  0.33083257493E-01  0.10363688321E+00 -0.43235882489E-01  0.88775246945E+00  0.88000000000E+00 0. -1.
        -11    1    4    4    0    0 -0.23351285259E-01 -0.11805875180E+00  0.32891121192E-01  0.12476072449E+00  0.51100000000E-03 0.  1.
         11    1    4    4    0    0  0.21072197291E-02 -0.50238636785E-02  0.62123577661E-02  0.82785319508E-02  0.51100000000E-03 0. -1.
</event>
<event>
 8    1  0.1213322E+005  0.1043930E+01  0.7957747E-01            NaN
         13   -1    0    0    0    0  0.00000000000E+00  0.00000000000E+00  0.74505805969E-08  0.10566000000E+00  0.10566000000E+00 0. -1.
     999900   -1    0    0    0    0 -0.00000000000E+00 -0.00000000000E+00 -0.74505805969E-08  0.93827000000E+00  0.93827000000E+00 0.  1.
     999902    2    1    2    0    0  0.51226235400E-02  0.17527404358E-01  0.14093967533E-01  0.10208629001E+01  0.10206022584E+01 0.  0.
     999903    2    3    3    0    0 -0.55991888124E-01  0.10362872699E-01 -0.11447056597E+00  0.12939492352E+00  0.19926241293E-01 0.  0.
         14    1    1    2    0    0 -0.51226235400E-02 -0.17527404358E-01 -0.14093967533E-01  0.23067099867E-01  0.00000000000E+00 0.  1.
     999901    1    3    3    0    0  0.61114511664E-01  0.71645316591E-02  0.12856453351E+00  0.89146797661E+00  0.88000000000E+00 0. -1.
        -11    1    4    4    0    0 -0.56769375192E-01  0.91079096319E-02 -0.10424222506E+00  0.11904796757E+00  0.51100000000E-03 0. -1.
         11    1    4    4    0    0  0.77748706771E-03  0.12549630669E-02 -0.10228340919E-01  0.10346955949E-01  0.51100000000E-03 0.  1.
</event>
<event>
 8    1  0.1213322E+005  0.1043930E+01  0.7957747E-01            NaN
         13   -1    0    0    0    0  0.00000000000E+00  0.00000000000E+00  0.74505805969E-08  0.10566000000E+00  0.10566000000E+00 0.  1.
     999900   -1    0    0    0    0 -0.00000000000E+00 -0.00000000000E+00 -0.74505805969E-08  0.93827000000E+00  0.93827000000E+00 0.  1.
     999902    2    1    2    0    0  0.14398528316E-01 -0.18543185554E-01  0.65250843454E-02  0.10195631357E+01  0.10192719184E+01 0.  0.
     999903    2    3    3    0    0  0.12393091796E+00  0.28035770750E-01 -0.25591900658E-01  0.13096961546E+00  0.18794092862E-01 0.  0.
         14    1    1    2    0    0 -0.14398528316E-01  0.18543185554E-01 -0.65250843454E-02  0.24366864260E-01  0.00000000000E+00 0. -1.
     999901    1    3    3    0    0 -0.10953238965E+00 -0.46578956305E-01  0.32116985003E-01  0.88859352028E+00  0.88000000000E+00 0. -1.
        -11    1    4    4    0    0  0.67892411657E-01  0.10601756136E-01 -0.22068985627E-01  0.72173942953E-01  0.51100000000E-03 0. -1.
         11    1    4    4    0    0  0.56038506306E-01  0.17434014614E-01 -0.35229150305E-02  0.58795672510E-01  0.51100000000E-03 0.  1.
</event>
<event>
 8    1  0.1213322E+005  0.1043930E+01  0.7957747E-01            NaN
         13   -1    0    0    0    0  0.00000000000E+00  0.00000000000E+00  0.74505805969E-08  0.10566000000E+00  0.10566000000E+00 0. -1.
     999900   -1    0    0    0    0 -0.00000000000E+00 -0.00000000000E+00 -0.74505805969E-08  0.93827000000E+00  0.93827000000E+00 0.  1.
     999902    2    1    2    0    0  0.16000997692E-01 -0.11912993561E-01 -0.13396034008E-01  0.10199007455E+01  0.10196176370E+01 0.  0.
     999903    2    3    3    0    0 -0.65739353853E-02 -0.85948163796E-01  0.95024971094E-01  0.12987493222E+00  0.20185375912E-01 0.  0.
         14    1    1    2    0    0 -0.16000997692E-01  0.11912993561E-01  0.13396034008E-01  0.24029254459E-01  0.00000000000E+00 0.  1.
     999901    1    3    3    0    0  0.22574933077E-01  0.74035170235E-01 -0.10842100510E+00  0.89002581332E+00  0.88000000000E+00 0. -1.
        -11    1    4    4    0    0 -0.13037760456E-01 -0.67981233557E-01  0.78014399489E-01  0.10429735837E+00  0.51100000000E-03 0. -1.
         11    1    4    4    0    0  0.64638250708E-02 -0.17966930239E-01  0.17010571605E-01  0.25577573851E-01  0.51100000000E-03 0.  1.
</event>
<event>
 8    1  0.1213322E+005  0.1043930E+01  0.7957747E-01            NaN
         13   -1    0    0    0    0  0.00000000000E+00  0.00000000000E+00  0.74505805969E-08  0.10566000000E+00  0.10566000000E+00 0.  1.
     999900   -1    0    0    0    0 -0.00000000000E+00 -0.00000000000E+00 -0.74505805969E-08  0.93827000000E+00  0.93827000000E+00 0. -1.
     999902    2    1    2    0    0  0.11365655412E-01  0.87963428932E-02  0.18859326431E-01  0.10202186533E+01  0.10199430732E+01 0.  0.
     999903    2    3    3    0    0  0.10597489248E-02 -0.16422908090E-01 -0.12560738370E+00  0.12802312946E+00  0.18489777147E-01 0.  0.
         14    1    1    2    0    0 -0.11365655412E-01 -0.87963428932E-02 -0.18859326431E-01  0.23711346750E-01  0.00000000000E+00 0.  1.
     999901    1    3    3    0    0  0.10305906487E-01  0.25219250983E-01  0.14446671013E+00  0.89219552379E+00  0.88000000000E+00 0.  1.
        -11    1    4    4    0    0 -0.47890253956E-02 -0.77409616689E-02 -0.21020754886E-01  0.22912671358E-01  0.51100000000E-03 0. -1.
         11    1    4    4    0    0  0.58487743203E-02 -0.86819464210E-02 -0.10458662882E+00  0.10511045811E+00  0.51100000000E-03 0.  1.
</event>
<event>
 8    1  0.1213322E+005  0.1043930E+01  0.7957747E-01            NaN
         13   -1    0    0    0    0  0.00000000000E+00  0.00000000000E+00  0.74505805969E-08  0.10566000000E+00  0.10566000000E+00 0.  1.
     999900   -1    0    0    0    0 -0.00000000000E+00 -0.00000000000E+00 -0.74505805969E-08  0.93827000000E+00  0.93827000000E+00 0. -1.
     999902    2    1    2    0    0  0.19295730385E-01  0.12090943603E-01  0.54243170792E-02  0.10205218958E+01  0.10202534001E+01 0.  0.
     999903    2    3    3    0    0  0.11858406829E+00  0.57513083249E-01 -0.92126972618E-02  0.13365347993E+00  0.20209970545E-01 0.  0.
         14    1    1    2    0    0 -0.19295730385E-01 -0.12090943603E-01 -0.54243170792E-02  0.23408104239E-01  0.00000000000E+00 0. -1.
     999901    1    3    3    0    0 -0.99288337902E-01 -0.45422139647E-01  0.14637014341E-01  0.88686841583E+00  0.88000000000E+00 0. -1.
        -11    1    4    4    0    0  0.10322124036E+00  0.52805792668E-01 -0.14223807188E-01  0.11681461386E+00  0.51100000000E-03 0. -1.
         11    1    4    4    0    0  0.15362827929E-01  0.47072905817E-02  0.50111099257E-02  0.16838866063E-01  0.51100000000E-03 0.  1.
</event>
<event>
 8    1  0.1213322E+005  0.1043930E+01  0.7957747E-01            NaN
         13   -1    0    0    0    0  0.00000000000E+00  0.00000000000E+00  0.74505805969E-08  0.10566000000E+00  0.10566000000E+00 0. -1.
     999900   -1    0    0    0    0 -0.00000000000E+00 -0.00000000000E+00 -0.74505805969E-08  0.93827000000E+00  0.93827000000E+00 0. -1.
     999902    2    1    2    0    0  0.19986827494E-01  0.77059901144E-02  0.84887766729E-02  0.10208884096E+01  0.10206283506E+01 0.  0.
     999903    2    3    3    0    0 -0.12285269737E-01 -0.10097428835E+00 -0.77427971918E-01  0.12946562618E+00  0.20482254930E-01 0.  0.
         14    1    1    2    0    0 -0.19986827494E-01 -0.77059901144E-02 -0.84887766729E-02  0.23041590360E-01  0.00000000000E+00 0.  1.
     999901    1    3    3    0    0  0.32272097231E-01  0.10868027846E+00  0.85916748591E-01  0.89142278346E+00  0.88000000000E+00 0. -1.
        -11    1    4    4    0    0 -0.23572695035E-02 -0.20665597514E-01 -0.63304851755E-02  0.21747639037E-01  0.51100000000E-03 0. -1.
         11    1    4    4    0    0 -0.99280002333E-02 -0.80308690831E-01 -0.71097486742E-01  0.10771798714E+00  0.51100000000E-03 0.  1.
</event>
<event>
 8    1  0.1213322E+005  0.1043930E+01  0.7957747E-01            NaN
         13   -1    0    0    0    0  0.00000000000E+00  0.00000000000E+00  0.74505805969E-08  0.10566000000E+00  0.10566000000E+00 0. -1.
     999900   -1    0    0    0    0 -0.00000000000E+00 -0.00000000000E+00 -0.74505805969E-08  0.93827000000E+00  0.93827000000E+00 0. -1.
     999902    2    1    2    0    0  0.19221631065E-01 -0.30053130387E-02  0.13473791835E-01  0.10202647074E+01  0.10199902093E+01 0.  0.
     999903    2    3    3    0    0  0.96873931150E-01 -0.32763641992E-01  0.83524228511E-01  0.13357282093E+00  0.20183829444E-01 0.  0.
         14    1    1    2    0    0 -0.19221631065E-01  0.30053130387E-02 -0.13473791835E-01  0.23665292597E-01  0.00000000000E+00 0. -1.
     999901    1    3    3    0    0 -0.77652300085E-01  0.29758328954E-01 -0.70050436675E-01  0.88669188647E+00  0.88000000000E+00 0. -1.
        -11    1    4    4    0    0  0.71932146779E-01 -0.24904501013E-01  0.50096768199E-01  0.91128564215E-01  0.51100000000E-03 0. -1.
         11    1    4    4    0    0  0.24941784371E-01 -0.78591409790E-02  0.33427460312E-01  0.42444256720E-01  0.51100000000E-03 0.  1.
</event>
<event>
 7    1  0.1213322E+005  0.1043930E+01  0.7957747E-01            NaN
         13   -1    0    0    0    0  0.00000000000E+00  0.00000000000E+00  0.74505805969E-08  0.10566000000E+00  0.10566000000E+00 0.  1.
     999900   -1    0    0    0    0 -0.00000000000E+00 -0.00000000000E+00 -0.74505805969E-08  0.93827000000E+00  0.93827000000E+00 0.  1.
     999903    2    1    2    0    0  0.66289661872E-01  0.75702001963E-01 -0.52998203410E-02  0.10271617083E+00  0.19935177023E-01 0.  0.
         14    1    1    2    0    0  0.65874240177E-02 -0.52700168229E-02 -0.52822649255E-01  0.53492050876E-01  0.00000000000E+00 0. -1.
     999901    1    1    2    0    0 -0.72877085890E-01 -0.70431985140E-01  0.58122469596E-01  0.88772177829E+00  0.88000000000E+00 0. -1.
        -11    1    3    3    0    0  0.35700014113E-01  0.47759362422E-01 -0.11769226513E-01  0.60780124386E-01  0.51100000000E-03 0. -1.
         11    1    3    3    0    0  0.30589647759E-01  0.27942639541E-01  0.64694061720E-02  0.41936046449E-01  0.51100000000E-03 0.  1.
</event>
<event>
 8    1  0.1213322E+005  0.1043930E+01  0.7957747E-01            NaN
         13   -1    0    0    0    0  0.00000000000E+00  0.00000000000E+00  0.74505805969E-08  0.10566000000E+00  0.10566000000E+00 0. -1.
     999900   -1    0    0    0    0 -0.00000000000E+00 -0.00000000000E+00 -0.74505805969E-08  0.93827000000E+00  0.93827000000E+00 0.  1.
     999902    2    1    2    0    0  0.17282251824E-01  0.15365096023E-01 -0.27954959531E-02  0.10206367134E+01  0.10203708755E+01 0.  0.
     999903    2    3    3    0    0  0.13751092698E-01 -0.97601630249E-01 -0.79785823087E-01  0.13007427267E+00  0.28954586297E-01 0.  0.
         14    1    1    2    0    0 -0.17282251824E-01 -0.15365096023E-01  0.27954959531E-02  0.23293286620E-01  0.00000000000E+00 0.  1.
     999901    1    3    3    0    0  0.35311591265E-02  0.11296672627E+00  0.76990327134E-01  0.89056244071E+00  0.88000000000E+00 0. -1.
        -11    1    4    4    0    0  0.22824483700E-01 -0.72779232715E-01 -0.58102434644E-01  0.95884971728E-01  0.51100000000E-03 0.  1.
         11    1    4    4    0    0 -0.90733910020E-02 -0.24822397534E-01 -0.21683388443E-01  0.34189300943E-01  0.51100000000E-03 0. -1.
</event>
<event>
 8    1  0.1213322E+005  0.1043930E+01  0.7957747E-01            NaN
         13   -1    0    0    0    0  0.00000000000E+00  0.00000000000E+00  0.74505805969E-08  0.10566000000E+00  0.10566000000E+00 0.  1.
     999900   -1    0    0    0    0 -0.00000000000E+00 -0.00000000000E+00 -0.74505805969E-08  0.93827000000E+00  0.93827000000E+00 0.  1.
     999902    2    1    2    0    0  0.84459388586E-02 -0.82710516905E-02 -0.20879739186E-01  0.10199360906E+01  0.10196538242E+01 0.  0.
     999903    2    3    3    0    0 -0.33940811798E-01 -0.10920603474E+00  0.57475123031E-01  0.12969792480E+00  0.20981544291E-01 0.  0.
         14    1    1    2    0    0 -0.84459388586E-02  0.82710516905E-02  0.20879739186E-01  0.23993909389E-01  0.00000000000E+00 0.  1.
     999901    1    3    3    0    0  0.42386750657E-01  0.10093498305E+00 -0.78354862218E-01  0.89023816581E+00  0.88000000000E+00 0.  1.
        -11    1    4    4    0    0 -0.12165142430E-01 -0.18058700932E-01  0.52079947932E-02  0.22394010370E-01  0.51100000000E-03 0. -1.
         11    1    4    4    0    0 -0.21775669368E-01 -0.91147333808E-01  0.52267128238E-01  0.10730391443E+00  0.51100000000E-03 0.  1.
</event>
<event>
 8    1  0.1213322E+005  0.1043930E+01  0.7957747E-01            NaN
         13   -1    0    0    0    0  0.00000000000E+00  0.00000000000E+00  0.74505805969E-08  0.10566000000E+00  0.10566000000E+00 0. -1.
     999900   -1    0    0    0    0 -0.00000000000E+00 -0.00000000000E+00 -0.74505805969E-08  0.93827000000E+00  0.93827000000E+00 0.  1.
     999902    2    1    2    0    0 -0.15913140791E-01  0.10681907644E-01 -0.13870305083E-01  0.10202716703E+01  0.10199973356E+01 0.  0.
     999903    2    3    3    0    0 -0.68601867238E-01 -0.10864011820E+00  0.11487239792E-01  0.13029591062E+00  0.18335107723E-01 0.  0.
         14    1    1    2    0    0  0.15913140791E-01 -0.10681907644E-01  0.13870305083E-01  0.23658329693E-01  0.00000000000E+00 0. -1.
     999901    1    3    3    0    0  0.52688726447E-01  0.11932202585E+00 -0.25357544875E-01  0.88997575969E+00  0.88000000000E+00 0. -1.
        -11    1    4    4    0    0 -0.24326168179E-01 -0.53382316317E-01  0.97081238397E-02  0.59463795230E-01  0.51100000000E-03 0.  1.
         11    1    4    4    0    0 -0.44275699058E-01 -0.55257801885E-01  0.17791159518E-02  0.70832115391E-01  0.51100000000E-03 0. -1.
</event>
<event>
 8    1  0.1213322E+005  0.1043930E+01  0.7957747E-01            NaN
         13   -1    0    0    0    0  0.00000000000E+00  0.00000000000E+00  0.74505805969E-08  0.10566000000E+00  0.10566000000E+00 0.  1.
     999900   -1    0    0    0    0 -0.00000000000E+00 -0.00000000000E+00 -0.74505805969E-08  0.93827000000E+00  0.93827000000E+00 0. -1.
     999902    2    1    2    0    0 -0.18813189837E-01  0.98041383374E-02 -0.69257204647E-02  0.10216135746E+01  0.10213698022E+01 0.  0.
     999903    2    3    3    0    0  0.10735075283E+00  0.36747829870E-01  0.59558670726E-01  0.12972598231E+00  0.20174441589E-01 0.  0.
         14    1    1    2    0    0  0.18813189837E-01 -0.98041383374E-02  0.69257204647E-02  0.22316425438E-01  0.00000000000E+00 0.  1.
     999901    1    3    3    0    0 -0.12616394267E+00 -0.26943691533E-01 -0.66484391191E-01  0.89188759225E+00  0.88000000000E+00 0.  1.
        -11    1    4    4    0    0  0.76582094916E-01  0.35315198644E-01  0.46055099664E-01  0.96090133952E-01  0.51100000000E-03 0. -1.
         11    1    4    4    0    0  0.30768657917E-01  0.14326312267E-02  0.13503571062E-01  0.33635848356E-01  0.51100000000E-03 0.  1.
</event>
<event>
 8    1  0.1213322E+005  0.1043930E+01  0.7957747E-01            NaN
         13   -1    0    0    0    0  0.00000000000E+00  0.00000000000E+00  0.74505805969E-08  0.10566000000E+00  0.10566000000E+00 0. -1.
     999900   -1    0    0    0    0 -0.00000000000E+00 -0.00000000000E+00 -0.74505805969E-08  0.93827000000E+00  0.93827000000E+00 0.  1.
     999902    2    1    2    0    0  0.69907720042E-02 -0.18830580627E-01  0.83346095376E-02  0.10221831065E+01  0.10219517483E+01 0.  0.
     999903    2    3    3    0    0  0.10800632867E+00 -0.57034330997E-01  0.52944203934E-01  0.13445922763E+00  0.18918594550E-01 0.  0.
         14    1    1    2    0    0 -0.69907720042E-02  0.18830580627E-01 -0.83346095376E-02  0.21746893482E-01  0.00000000000E+00 0.  1.
     999901    1    3    3    0    0 -0.10101555667E+00  0.38203750370E-01 -0.44609594396E-01  0.88772387889E+00  0.88000000000E+00 0.  1.
        -11    1    4    4    0    0  0.36716087013E-01 -0.95584996038E-02  0.16170318698E-01  0.41245318377E-01  0.51100000000E-03 0. -1.
         11    1    4    4    0    0  0.71290241659E-01 -0.47475831393E-01  0.36773885236E-01  0.93213909255E-01  0.51100000000E-03 0.  1.
</event>
<event>
 8    1  0.1213322E+005  0.1043930E+01  0.7957747E-01            NaN
         13   -1    0    0    0    0  0.00000000000E+00  0.00000000000E+00  0.74505805969E-08  0.10566000000E+00  0.10566000000E+00 0. -1.
     999900   -1    0    0    0    0 -0.00000000000E+00 -0.00000000000E+00 -0.74505805969E-08  0.93827000000E+00  0.93827000000E+00 0. -1.
     999902    2    1    2    0    0 -0.20735175989E-01 -0.15770672798E-01 -0.32546628788E-02  0.10176763436E+01  0.10173376459E+01 0.  0.
     999903    2    3    3    0    0 -0.59783034602E-02  0.92142203297E-01 -0.86056588292E-01  0.12710399227E+00  0.14958700500E-01 0.  0.
         14    1    1    2    0    0  0.20735175989E-01  0.15770672798E-01  0.32546628788E-02  0.26253656398E-01  0.00000000000E+00 0.  1.
     999901    1    3    3    0    0 -0.14756872529E-01 -0.10791287609E+00  0.82801925413E-01  0.89057235134E+00  0.88000000000E+00 0. -1.
        -11    1    4    4    0    0  0.50377097946E-02  0.30991144114E-01 -0.28761433654E-01  0.42582986277E-01  0.51100000000E-03 0. -1.
         11    1    4    4    0    0 -0.11016013255E-01  0.61151059183E-01 -0.57295154638E-01  0.84521005988E-01  0.51100000000E-03 0.  1.
</event>
<event>
 8    1  0.1213322E+005  0.1043930E+01  0.7957747E-01            NaN
         13   -1    0    0    0    0  0.00000000000E+00  0.00000000000E+00  0.74505805969E-08  0.10566000000E+00  0.10566000000E+00 0.  1.
     999900   -1    0    0    0    0 -0.00000000000E+00 -0.00000000000E+00 -0.74505805969E-08  0.93827000000E+00  0.93827000000E+00 0. -1.
     999902    2    1    2    0    0 -0.12449119887E-01  0.83753594198E-02  0.17319814878E-01  0.10210148692E+01  0.10207576891E+01 0.  0.
     999903    2    3    3    0    0  0.10057140566E+00 -0.70231663800E-01 -0.33867929804E-01  0.12884174224E+00  0.20151020766E-01 0.  0.
         14    1    1    2    0    0  0.12449119887E-01 -0.83753594198E-02 -0.17319814878E-01  0.22915130782E-01  0.00000000000E+00 0. -1.
     999901    1    3    3    0    0 -0.11302052555E+00  0.78607023219E-01  0.51187744682E-01  0.89217312698E+00  0.88000000000E+00 0. -1.
        -11    1    4    4    0    0  0.49780616379E-01 -0.23592558273E-01 -0.19205765836E-01  0.58342447114E-01  0.51100000000E-03 0.  1.
         11    1    4    4    0    0  0.50790789281E-01 -0.46639105526E-01 -0.14662163968E-01  0.70499295127E-01  0.51100000000E-03 0. -1.
</event>
<event>
 8    1  0.1213322E+005  0.1043930E+01  0.7957747E-01            NaN
         13   -1    0    0    0    0  0.00000000000E+00  0.00000000000E+00  0.74505805969E-08  0.10566000000E+00  0.10566000000E+00 0. -1.
     999900   -1    0    0    0    0 -0.00000000000E+00 -0.00000000000E+00 -0.74505805969E-08  0.93827000000E+00  0.93827000000E+00 0.  1.
     999902    2    1    2    0    0 -0.89047604036E-02  0.90783317054E-02  0.19742023637E-01  0.10204468494E+01  0.10201766093E+01 0.  0.
     999903    2    3    3    0    0 -0.10800680137E+00  0.67369015916E-01  0.32361600980E-01  0.13287810721E+00  0.20131187533E-01 0.  0.
         14    1    1    2    0    0  0.89047604036E-02 -0.90783317054E-02 -0.19742023637E-01  0.23483150591E-01  0.00000000000E+00 0. -1.
     999901    1    3    3    0    0  0.99102040965E-01 -0.58290684210E-01 -0.12619577343E-01  0.88756874219E+00  0.88000000000E+00 0.  1.
        -11    1    4    4    0    0 -0.57344061637E-01  0.32294858037E-01  0.67978815685E-02  0.66164730601E-01  0.51100000000E-03 0.  1.
         11    1    4    4    0    0 -0.50662739732E-01  0.35074157878E-01  0.25563719411E-01  0.66713376613E-01  0.51100000000E-03 0. -1.
</event>
<event>
 8    1  0.1213322E+005  0.1043930E+01  0.7957747E-01            NaN
         13   -1    0    0    0    0  0.00000000000E+00  0.00000000000E+00  0.74505805969E-08  0.10566000000E+00  0.10566000000E+00 0. -1.
     999900   -1    0    0    0    0 -0.00000000000E+00 -0.00000000000E+00 -0.74505805969E-08  0.93827000000E+00  0.93827000000E+00 0. -1.
     999902    2    1    2    0    0 -0.14647424849E-01  0.15709694166E-02  0.18239432125E-01  0.10204844912E+01  0.10202151268E+01 0.  0.
     999903    2    3    3    0    0  0.11215446706E+00  0.24709793946E-01 -0.52784606621E-01  0.12826336440E+00  0.21819201434E-01 0.  0.
         14    1    1    2    0    0  0.14647424849E-01 -0.15709694166E-02 -0.18239432125E-01  0.23445508821E-01  0.00000000000E+00 0.  1.
     999901    1    3    3    0    0 -0.12680189191E+00 -0.23138824529E-01  0.71024038746E-01  0.89222112678E+00  0.88000000000E+00 0.  1.
        -11    1    4    4    0    0  0.64971978245E-01  0.25163654071E-01 -0.32997801516E-01  0.77095288242E-01  0.51100000000E-03 0. -1.
         11    1    4    4    0    0  0.47182488820E-01 -0.45386012538E-03 -0.19786805105E-01  0.51168076157E-01  0.51100000000E-03 0.  1.
</event>
<event>
 8    1  0.1213322E+005  0.1043930E+01  0.7957747E-01            NaN
         13   -1    0    0    0    0  0.00000000000E+00  0.00000000000E+00  0.74505805969E-08  0.10566000000E+00  0.10566000000E+00 0. -1.
     999900   -1    0    0    0    0 -0.00000000000E+00 -0.00000000000E+00 -0.74505805969E-08  0.93827000000E+00  0.93827000000E+00 0. -1.
     999902    2    1    2    0    0 -0.16011962111E-01  0.65774091640E-02 -0.19239467177E-01  0.10180494602E+01  0.10177204435E+01 0.  0.
     999903    2    3    3    0    0  0.23747502209E-01 -0.91605510372E-01  0.80738912293E-01  0.12607615510E+00  0.20516128644E-01 0.  0.
         14    1    1    2    0    0  0.16011962111E-01 -0.65774091640E-02  0.19239467177E-01  0.25880539778E-01  0.00000000000E+00 0. -1.
     999901    1    3    3    0    0 -0.39759464320E-01  0.98182919536E-01 -0.99978379470E-01  0.89197330512E+00  0.88000000000E+00 0. -1.
        -11    1    4    4    0    0  0.67361415188E-02 -0.61880112967E-01  0.47011739658E-01  0.78005697036E-01  0.51100000000E-03 0.  1.
         11    1    4    4    0    0  0.17011360690E-01 -0.29725397404E-01  0.33727172636E-01  0.48070458063E-01  0.51100000000E-03 0. -1.
</event>
<event>
 7    1  0.1499956E+005  0.1043930E+01  0.7957747E-01            NaN
         13   -1    0    0    0    0  0.00000000000E+00  0.00000000000E+00  0.74505805969E-08  0.10566000000E+00  0.10566000000E+00 0. -1.
     999900   -1    0    0    0    0 -0.00000000000E+00 -0.00000000000E+00 -0.74505805969E-08  0.93827000000E+00  0.93827000000E+00 0.  1.
     999903    2    1    2    0    0 -0.93663400201E-01  0.21750851607E-01  0.68193685331E-02  0.98300878720E-01  0.19251672319E-01 0.  0.
         14    1    1    2    0    0 -0.28556388173E-01  0.39431245330E-02 -0.47851846317E-01  0.55864252725E-01  0.00000000000E+00 0.  1.
     999901    1    1    2    0    0  0.12221978837E+00 -0.25693976140E-01  0.41032477784E-01  0.88976486855E+00  0.88000000000E+00 0.  1.
        -11    1    3    3    0    0 -0.53186173540E-01  0.26039059062E-02  0.24639755346E-02  0.53309301986E-01  0.51100000000E-03 0.  1.
         11    1    3    3    0    0 -0.40477226662E-01  0.19146945701E-01  0.43553929986E-02  0.44991576735E-01  0.51100000000E-03 0. -1.
</event>
<event>
 8    1  0.1213322E+005  0.1043930E+01  0.7957747E-01            NaN
         13   -1    0    0    0    0  0.00000000000E+00  0.00000000000E+00  0.74505805969E-08  0.10566000000E+00  0.10566000000E+00 0. -1.
     999900   -1    0    0    0    0 -0.00000000000E+00 -0.00000000000E+00 -0.74505805969E-08  0.93827000000E+00  0.93827000000E+00 0.  1.
     999902    2    1    2    0    0 -0.12144979975E-01  0.13087035438E-01  0.15353623781E-01  0.10203820744E+01  0.10201103240E+01 0.  0.
     999903    2    3    3    0    0  0.19203297182E-01  0.11703998469E+00  0.56458866651E-01  0.13275683193E+00  0.19226236301E-01 0.  0.
         14    1    1    2    0    0  0.12144979975E-01 -0.13087035438E-01 -0.15353623781E-01  0.23547925564E-01  0.00000000000E+00 0. -1.
     999901    1    3    3    0    0 -0.31348277157E-01 -0.10395294925E+00 -0.41105242870E-01  0.88762524250E+00  0.88000000000E+00 0.  1.
        -11    1    4    4    0    0 -0.28006037797E-02  0.36315690646E-01  0.15288826744E-01  0.39505469404E-01  0.51100000000E-03 0. -1.
         11    1    4    4    0    0  0.22003900961E-01  0.80724294044E-01  0.41170039907E-01  0.93251362528E-01  0.51100000000E-03 0.  1.
</event>
<event>
 8    1  0.1213322E+005  0.1043930E+01  0.7957747E-01            NaN
         13   -1    0    0    0    0  0.00000000000E+00  0.00000000000E+00  0.74505805969E-08  0.10566000000E+00  0.10566000000E+00 0. -1.
     999900   -1    0    0    0    0 -0.00000000000E+00 -0.00000000000E+00 -0.74505805969E-08  0.93827000000E+00  0.93827000000E+00 0. -1.
     999902    2    1    2    0    0 -0.10176341165E-01 -0.40183915359E-02 -0.21433546663E-01  0.10198654553E+01  0.10195815046E+01 0.  0.
     999903    2    3    3    0    0 -0.10286764825E+00  0.75501187650E-01  0.19092030791E-01  0.13050761711E+00  0.19635429487E-01 0.  0.
         14    1    1    2    0    0  0.10176341165E-01  0.40183915359E-02  0.21433546663E-01  0.24064544720E-01  0.00000000000E+00 0. -1.
     999901    1    3    3    0    0  0.92691307086E-01 -0.79519579186E-01 -0.40525577453E-01  0.88935783817E+00  0.88000000000E+00 0. -1.
        -11    1    4    4    0    0 -0.91221800044E-01  0.69193291306E-01  0.22800285461E-01  0.11674434677E+00  0.51100000000E-03 0.  1.
         11    1    4    4    0    0 -0.11645848207E-01  0.63078963445E-02 -0.37082546705E-02  0.13763270340E-01  0.51100000000E-03 0. -1.
</event>
<event>
 8    1  0.1213322E+005  0.1043930E+01  0.7957747E-01            NaN
         13   -1    0    0    0    0  0.00000000000E+00  0.00000000000E+00  0.74505805969E-08  0.10566000000E+00  0.10566000000E+00 0.  1.
     999900   -1    0    0    0    0 -0.00000000000E+00 -0.00000000000E+00 -0.74505805969E-08  0.93827000000E+00  0.93827000000E+00 0. -1.
     999902    2    1    2    0    0 -0.11913868296E-01 -0.12780251417E-01 -0.18092685257E-01  0.10187780549E+01  0.10184675276E+01 0.  0.
     999903    2    3    3    0    0 -0.23585565750E-01 -0.23253971695E-02 -0.12822639674E+00  0.13177469134E+00  0.18996685845E-01 0.  0.
         14    1    1    2    0    0  0.11913868296E-01  0.12780251417E-01  0.18092685257E-01  0.25151945131E-01  0.00000000000E+00 0.  1.
     999901    1    3    3    0    0  0.11671697454E-01 -0.10454854248E-01  0.11013371149E+00  0.88700336353E+00  0.88000000000E+00 0.  1.
        -11    1    4    4    0    0 -0.43462605209E-02 -0.46176551550E-02 -0.72408271203E-01  0.72687217441E-01  0.51100000000E-03 0.  1.
         11    1    4    4    0    0 -0.19239305229E-01  0.22922579854E-02 -0.55818125541E-01  0.59087473904E-01  0.51100000000E-03 0. -1.
</event>
<event>
 8    1  0.1213322E+005  0.1043930E+01  0.7957747E-01            NaN
         13   -1    0    0    0    0  0.00000000000E+00  0.00000000000E+00  0.74505805969E-08  0.10566000000E+00  0.10566000000E+00 0.  1.
     999900   -1    0    0    0    0 -0.00000000000E+00 -0.00000000000E+00 -0.74505805969E-08  0.93827000000E+00  0.93827000000E+00 0. -1.
     999902    2    1    2    0    0 -0.67607007899E-02  0.19643677789E-01  0.12233715410E-01  0.10198209779E+01  0.10195359641E+01 0.  0.
     999903    2    3    3    0    0  0.27381199831E-01  0.55438547469E-01 -0.11226936336E+00  0.12968168620E+00  0.19742521017E-01 0.  0.
         14    1    1    2    0    0  0.67607007899E-02 -0.19643677789E-01 -0.12233715410E-01  0.24109022066E-01  0.00000000000E+00 0. -1.
     999901    1    3    3    0    0 -0.34141900621E-01 -0.35794869680E-01  0.12450307877E+00  0.89013929174E+00  0.88000000000E+00 0.  1.
        -11    1    4    4    0    0  0.58038437297E-02  0.14894881382E-02 -0.17634489364E-01  0.18631680361E-01  0.51100000000E-03 0. -1.
         11    1    4    4    0    0  0.21577356102E-01  0.53949059331E-01 -0.94634873994E-01  0.11105000583E+00  0.51100000000E-03 0.  1.
</event>
<event>
 8    1  0.1213322E+005  0.1043930E+01  0.7957747E-01            NaN
         13   -1    0    0    0    0  0.00000000000E+00  0.00000000000E+00  0.74505805969E-08  0.10566000000E+00  0.10566000000E+00 0.  1.
     999900   -1    0    0    0    0 -0.00000000000E+00 -0.00000000000E+00 -0.74505805969E-08  0.93827000000E+00  0.93827000000E+00 0. -1.
     999902    2    1    2    0    0  0.21958452909E-01  0.72986702543E-02  0.37392767121E-02  0.10204901529E+01  0.10202209201E+01 0.  0.
     999903    2    3    3    0    0  0.85633848346E-01 -0.55752218919E-01  0.82458981494E-01  0.13244355360E+00  0.17330475025E-01 0.  0.
         14    1    1    2    0    0 -0.21958452909E-01 -0.72986702543E-02 -0.37392767121E-02  0.23439847097E-01  0.00000000000E+00 0. -1.
     999901    1    3    3    0    0 -0.63675395438E-01  0.63050889173E-01 -0.78719704782E-01  0.88804659930E+00  0.88000000000E+00 0. -1.
        -11    1    4    4    0    0  0.39335954308E-01 -0.16303177848E-01  0.29633518746E-01  0.51879836772E-01  0.51100000000E-03 0. -1.
         11    1    4    4    0    0  0.46297894038E-01 -0.39449041070E-01  0.52825462748E-01  0.80563716829E-01  0.51100000000E-03 0.  1.
</event>
<event>
 8    1  0.1213322E+005  0.1043930E+01  0.7957747E-01            NaN
         13   -1    0    0    0    0  0.00000000000E+00  0.00000000000E+00  0.74505805969E-08  0.10566000000E+00  0.10566000000E+00 0. -1.
     999900   -1    0    0    0    0 -0.00000000000E+00 -0.00000000000E+00 -0.74505805969E-08  0.93827000000E+00  0.93827000000E+00 0.  1.
     999902    2    1    2    0    0  0.20789094105E-02  0.25443317057E-01 -0.49521329833E-02  0.10179260028E+01  0.10175937988E+01 0.  0.
     999903    2    3    3    0    0  0.60515692045E-01  0.86532413416E-01  0.73710591264E-01  0.13038188594E+00  0.20400425523E-01 0.  0.
         14    1    1    2    0    0 -0.20789094105E-02 -0.25443317057E-01  0.49521329833E-02  0.26003997160E-01  0.00000000000E+00 0.  1.
     999901    1    3    3    0    0 -0.58436782634E-01 -0.61089096359E-01 -0.78662724247E-01  0.88754411690E+00  0.88000000000E+00 0.  1.
        -11    1    4    4    0    0  0.28430039432E-01  0.29321378361E-01  0.37533559367E-01  0.55471069675E-01  0.51100000000E-03 0. -1.
         11    1    4    4    0    0  0.32085652613E-01  0.57211035055E-01  0.36177031897E-01  0.74910816265E-01  0.51100000000E-03 0.  1.
</event>
<event>
 8    1  0.1213322E+005  0.1043930E+01  0.7957747E-01            NaN
         13   -1    0    0    0    0  0.00000000000E+00  0.00000000000E+00  0.74505805969E-08  0.10566000000E+00  0.10566000000E+00 0. -1.
     999900   -1    0    0    0    0 -0.00000000000E+00 -0.00000000000E+00 -0.74505805969E-08  0.93827000000E+00  0.93827000000E+00 0. -1.
     999902    2    1    2    0    0 -0.11177664568E-01  0.16610141212E-01  0.13808665866E-01  0.10196088933E+01  0.10193187819E+01 0.  0.
     999903    2    3    3    0    0  0.74251059742E-01 -0.10179561272E+00  0.15162473455E-02  0.12749393827E+00  0.19412332378E-01 0.  0.
         14    1    1    2    0    0  0.11177664568E-01 -0.16610141212E-01 -0.13808665866E-01  0.24321106662E-01  0.00000000000E+00 0.  1.
     999901    1    3    3    0    0 -0.85428724310E-01  0.11840575393E+00  0.12292418520E-01  0.89211495507E+00  0.88000000000E+00 0. -1.
        -11    1    4    4    0    0  0.22839969470E-01 -0.47462831975E-01 -0.55622557961E-04  0.52674935589E-01  0.51100000000E-03 0.  1.
         11    1    4    4    0    0  0.51411090273E-01 -0.54332780743E-01  0.15718699035E-02  0.74819002682E-01  0.51100000000E-03 0. -1.
</event>
<event>
 8    1  0.1213322E+005  0.1043930E+01  0.7957747E-01            NaN
         13   -1    0    0    0    0  0.00000000000E+00  0.00000000000E+00  0.74505805969E-08  0.10566000000E+00  0.10566000000E+00 0. -1.
     999900   -1    0    0    0    0 -0.00000000000E+00 -0.00000000000E+00 -0.74505805969E-08  0.93827000000E+00  0.93827000000E+00 0.  1.
     999902    2    1    2    0    0  0.46058413410E-02  0.23493693677E-01  0.33924870190E-02  0.10197499176E+01  0.10194632009E+01 0.  0.
     999903    2    3    3    0    0 -0.11736837642E+00 -0.46615500381E-01  0.13329076335E-01  0.12851945094E+00  0.19779897244E-01 0.  0.
         14    1    1    2    0    0 -0.46058413410E-02 -0.23493693677E-01 -0.33924870190E-02  0.24180082407E-01  0.00000000000E+00 0.  1.
     999901    1    3    3    0    0  0.12197421776E+00  0.70109194058E-01 -0.99365893163E-02  0.89123046666E+00  0.88000000000E+00 0.  1.
        -11    1    4    4    0    0 -0.50925650545E-01 -0.30572166952E-01  0.83556027880E-02  0.59984635487E-01  0.51100000000E-03 0. -1.
         11    1    4    4    0    0 -0.66442725870E-01 -0.16043333430E-01  0.49734735473E-02  0.68534815450E-01  0.51100000000E-03 0.  1.
</event>
<event>
 8    1  0.1446155E+005  0.1043930E+01  0.7957747E-01            NaN
         13   -1    0    0    0    0  0.00000000000E+00  0.00000000000E+00  0.74505805969E-08  0.10566000000E+00  0.10566000000E+00 0.  1.
     999900   -1    0    0    0    0 -0.00000000000E+00 -0.00000000000E+00 -0.74505805969E-08  0.93827000000E+00  0.93827000000E+00 0. -1.
     999902    2    1    2    0    0  0.79367043675E-02 -0.21858325956E-01 -0.63438995726E-02  0.10198255865E+01  0.10195406829E+01 0.  0.
     999903    2    3    3    0    0 -0.23149332925E-01  0.85310251078E-01 -0.91343947674E-01  0.12871591096E+00  0.20256811262E-01 0.  0.
         14    1    1    2    0    0 -0.79367043675E-02  0.21858325956E-01  0.63438995726E-02  0.24104413530E-01  0.00000000000E+00 0. -1.
     999901    1    3    3    0    0  0.31086037293E-01 -0.10716857703E+00  0.85000048102E-01  0.89110967551E+00  0.88000000000E+00 0.  1.
        -11    1    4    4    0    0 -0.45097916945E-02  0.54352730236E-01 -0.55619285804E-01  0.77899445310E-01  0.51100000000E-03 0. -1.
         11    1    4    4    0    0 -0.18639541231E-01  0.30957520842E-01 -0.35724661870E-01  0.50816465645E-01  0.51100000000E-03 0.  1.
</event>
<event>
 8    1  0.1213322E+005  0.1043930E+01  0.7957747E-01            NaN
         13   -1    0    0    0    0  0.00000000000E+00  0.00000000000E+00  0.74505805969E-08  0.10566000000E+00  0.10566000000E+00 0. -1.
     999900   -1    0    0    0    0 -0.00000000000E+00 -0.00000000000E+00 -0.74505805969E-08  0.93827000000E+00  0.93827000000E+00 0. -1.
     999902    2    1    2    0    0  0.52485799196E-02 -0.17048414927E-01  0.15123588508E-01  0.10205437012E+01  0.10202757113E+01 0.  0.
     999903    2    3    3    0    0 -0.23235114267E-01  0.61025237330E-01 -0.10836203171E+00  0.12804411328E+00  0.19723460724E-01 0.  0.
         14    1    1    2    0    0 -0.52485799196E-02  0.17048414927E-01 -0.15123588508E-01  0.23386298810E-01  0.00000000000E+00 0. -1.
     999901    1    3    3    0    0  0.28483694187E-01 -0.78073652256E-01  0.12348562022E+00  0.89249958791E+00  0.88000000000E+00 0.  1.
        -11    1    4    4    0    0  0.10400757713E-02  0.50457972465E-02 -0.20013628069E-01  0.20672403269E-01  0.51100000000E-03 0.  1.
         11    1    4    4    0    0 -0.24275190038E-01  0.55979440083E-01 -0.88348403646E-01  0.10737171001E+00  0.51100000000E-03 0. -1.
</event>
<event>
 8    1  0.1213322E+005  0.1043930E+01  0.7957747E-01            NaN
         13   -1    0    0    0    0  0.00000000000E+00  0.00000000000E+00  0.74505805969E-08  0.10566000000E+00  0.10566000000E+00 0.  1.
     999900   -1    0    0    0    0 -0.00000000000E+00 -0.00000000000E+00 -0.74505805969E-08  0.93827000000E+00  0.93827000000E+00 0. -1.
     999902    2    1    2    0    0  0.29876129304E-01  0.91205068228E-02 -0.18868048670E-03  0.10126921648E+01  0.10122102639E+01 0.  0.
     999903    2    3    3    0    0  0.69713173635E-01  0.79316039041E-01 -0.66600910073E-01  0.12650652564E+00  0.20426922882E-01 0.  0.
         14    1    1    2    0    0 -0.29876129304E-01 -0.91205068228E-02  0.18868048670E-03  0.31237835188E-01  0.00000000000E+00 0.  1.
     999901    1    3    3    0    0 -0.39837044331E-01 -0.70195532218E-01  0.66412229586E-01  0.88618563918E+00  0.88000000000E+00 0.  1.
        -11    1    4    4    0    0  0.46984338445E-01  0.41828992551E-01 -0.31556570363E-01  0.70379478053E-01  0.51100000000E-03 0.  1.
         11    1    4    4    0    0  0.22728835190E-01  0.37487046489E-01 -0.35044339710E-01  0.56127047583E-01  0.51100000000E-03 0. -1.
</event>
<event>
 8    1  0.1213322E+005  0.1043930E+01  0.7957747E-01            NaN
         13   -1    0    0    0    0  0.00000000000E+00  0.00000000000E+00  0.74505805969E-08  0.10566000000E+00  0.10566000000E+00 0. -1.
     999900   -1    0    0    0    0 -0.00000000000E+00 -0.00000000000E+00 -0.74505805969E-08  0.93827000000E+00  0.93827000000E+00 0. -1.
     999902    2    1    2    0    0  0.20937786515E-02 -0.20199754991E-01 -0.16825079303E-02  0.10235524426E+01  0.10233495776E+01 0.  0.
     999903    2    3    3    0    0  0.10094639579E+00 -0.52170279695E-01  0.68827863941E-01  0.13463981088E+00  0.21879006212E-01 0.  0.
         14    1    1    2    0    0 -0.20937786515E-02  0.20199754991E-01  0.16825079303E-02  0.20377557353E-01  0.00000000000E+00 0. -1.
     999901    1    3    3    0    0 -0.98852617143E-01  0.31970524704E-01 -0.70510371871E-01  0.88891263176E+00  0.88000000000E+00 0.  1.
        -11    1    4    4    0    0  0.51021926722E-01 -0.17518813514E-01  0.41199441734E-01  0.67880784862E-01  0.51100000000E-03 0.  1.
         11    1    4    4    0    0  0.49924469073E-01 -0.34651466181E-01  0.27628422207E-01  0.66759026022E-01  0.51100000000E-03 0. -1.
</event>
<event>
 8    1  0.1213322E+005  0.1043930E+01  0.7957747E-01            NaN
         13   -1    0    0    0    0  0.00000000000E+00  0.00000000000E+00  0.74505805969E-08  0.10566000000E+00  0.10566000000E+00 0.  1.
     999900   -1    0    0    0    0 -0.00000000000E+00 -0.00000000000E+00 -0.74505805969E-08  0.93827000000E+00  0.93827000000E+00 0. -1.
     999902    2    1    2    0    0  0.14532266110E-01  0.15164718062E-01 -0.13880512326E-01  0.10187541375E+01  0.10184430119E+01 0.  0.
     999903    2    3    3    0    0  0.30820713854E-01 -0.98046501718E-01  0.72154011025E-01  0.12719144588E+00  0.20209643634E-01 0.  0.
         14    1    1    2    0    0 -0.14532266110E-01 -0.15164718062E-01  0.13880512326E-01  0.25175862540E-01  0.00000000000E+00 0. -1.
     999901    1    3    3    0    0 -0.16288447744E-01  0.11321121978E+00 -0.86034523351E-01  0.89156269158E+00  0.88000000000E+00 0. -1.
        -11    1    4    4    0    0  0.18747908890E-01 -0.28972384367E-01  0.21100557046E-01  0.40452166472E-01  0.51100000000E-03 0. -1.
         11    1    4    4    0    0  0.12072804964E-01 -0.69074117352E-01  0.51053453979E-01  0.86739279405E-01  0.51100000000E-03 0.  1.
</event>
<event>
 8    1  0.1213322E+005  0.1043930E+01  0.7957747E-01            NaN
         13   -1    0    0    0    0  0.00000000000E+00  0.00000000000E+00  0.74505805969E-08  0.10566000000E+00  0.10566000000E+00 0. -1.
     999900   -1    0    0    0    0 -0.00000000000E+00 -0.00000000000E+00 -0.74505805969E-08  0.93827000000E+00  0.93827000000E+00 0. -1.
     999902    2    1    2    0    0  0.20480320469E-02  0.22866770297E-01 -0.36058634808E-02  0.10206902524E+01  0.10204256491E+01 0.  0.
     999903    2    3    3    0    0  0.92108884641E-01 -0.87920452690E-01  0.81061524788E-02  0.12910630383E+00  0.19714851014E-01 0.  0.
         14    1    1    2    0    0 -0.20480320469E-02 -0.22866770297E-01  0.36058634808E-02  0.23239747643E-01  0.00000000000E+00 0. -1.
     999901    1    3    3    0    0 -0.90060852594E-01  0.11078722299E+00 -0.11712015960E-01  0.89158394852E+00  0.88000000000E+00 0.  1.
        -11    1    4    4    0    0  0.21697269948E-01 -0.16550796788E-01  0.93185361042E-02  0.28840884758E-01  0.51100000000E-03 0. -1.
         11    1    4    4    0    0  0.70411614693E-01 -0.71369655903E-01 -0.12123836254E-02  0.10026541908E+00  0.51100000000E-03 0.  1.
</event>
<event>
 8    1  0.1213322E+005  0.1043930E+01  0.7957747E-01            NaN
         13   -1    0    0    0    0  0.00000000000E+00  0.00000000000E+00  0.74505805969E-08  0.10566000000E+00  0.10566000000E+00 0. -1.
     999900   -1    0    0    0    0 -0.00000000000E+00 -0.00000000000E+00 -0.74505805969E-08  0.93827000000E+00  0.93827000000E+00 0. -1.
     999902    2    1    2    0    0 -0.14700916164E-01 -0.14964379378E-01 -0.10084693164E-01  0.10206544630E+01  0.10203890347E+01 0.  0.
     999903    2    3    3    0    0  0.54512981859E-02 -0.86041267311E-01 -0.99435639873E-01  0.13305003117E+00  0.19546047783E-01 0.  0.
         14    1    1    2    0    0  0.14700916164E-01  0.14964379378E-01  0.10084693164E-01  0.23275536995E-01  0.00000000000E+00 0. -1.
     999901    1    3    3    0    0 -0.20152214350E-01  0.71076887933E-01  0.89350946710E-01  0.88760443184E+00  0.88000000000E+00 0.  1.
        -11    1    4    4    0    0 -0.53780884989E-02 -0.82681847415E-02 -0.11122880410E-01  0.14875022838E-01  0.51100000000E-03 0. -1.
         11    1    4    4    0    0  0.10829386685E-01 -0.77773082569E-01 -0.88312759464E-01  0.11817500833E+00  0.51100000000E-03 0.  1.
</event>
<event>
 8    1  0.1386451E+005  0.1043930E+01  0.7957747E-01            NaN
         13   -1    0    0    0    0  0.00000000000E+00  0.00000000000E+00  0.74505805969E-08  0.10566000000E+00  0.10566000000E+00 0. -1.
     999900   -1    0    0    0    0 -0.00000000000E+00 -0.00000000000E+00 -0.74505805969E-08  0.93827000000E+00  0.93827000000E+00 0.  1.
     999902    2    1    2    0    0 -0.77938915294E-02 -0.92171374546E-02 -0.20089180620E-01  0.10204933717E+01  0.10202242137E+01 0.  0.
     999903    2    3    3    0    0 -0.17318327343E-02 -0.99046736461E-01 -0.87115583741E-01  0.13336393124E+00  0.19584636264E-01 0.  0.
         14    1    1    2    0    0  0.77938915294E-02  0.92171374546E-02  0.20089180620E-01  0.23436628299E-01  0.00000000000E+00 0. -1.
     999901    1    3    3    0    0 -0.60620587950E-02  0.89829599006E-01  0.67026403121E-01  0.88712944046E+00  0.88000000000E+00 0. -1.
        -11    1    4    4    0    0 -0.10310169087E-01 -0.48664028669E-01 -0.46248169902E-01  0.67923792689E-01  0.51100000000E-03 0.  1.
         11    1    4    4    0    0  0.85783363524E-02 -0.50382707792E-01 -0.40867413839E-01  0.65440138553E-01  0.51100000000E-03 0. -1.
</event>
<event>
 8    1  0.1213322E+005  0.1043930E+01  0.7957747E-01            NaN
         13   -1    0    0    0    0  0.00000000000E+00  0.00000000000E+00  0.74505805969E-08  0.10566000000E+00  0.10566000000E+00 0. -1.
     999900   -1    0    0    0    0 -0.00000000000E+00 -0.00000000000E+00 -0.74505805969E-08  0.93827000000E+00  0.93827000000E+00 0.  1.
     999902    2    1    2    0    0  0.95960410472E-03  0.52963380019E-02 -0.24411824754E-01  0.10189318156E+01  0.10186251202E+01 0.  0.
     999903    2    3    3    0    0 -0.96054829207E-02 -0.82128262728E-01  0.93899363335E-01  0.12665819213E+00  0.19694932322E-01 0.  0.
         14    1    1    2    0    0 -0.95960410472E-03 -0.52963380019E-02  0.24411824754E-01  0.24998184416E-01  0.00000000000E+00 0. -1.
     999901    1    3    3    0    0  0.10565087025E-01  0.87424600729E-01 -0.11831118809E+00  0.89227362345E+00  0.88000000000E+00 0.  1.
        -11    1    4    4    0    0  0.22071425381E-02 -0.27148881071E-01  0.42435787236E-01  0.50428071358E-01  0.51100000000E-03 0. -1.
         11    1    4    4    0    0 -0.11812625459E-01 -0.54979381657E-01  0.51463576100E-01  0.76230120776E-01  0.51100000000E-03 0.  1.
</event>
<event>
 8    1  0.1218407E+005  0.1043930E+01  0.7957747E-01            NaN
         13   -1    0    0    0    0  0.00000000000E+00  0.00000000000E+00  0.74505805969E-08  0.10566000000E+00  0.10566000000E+00 0. -1.
     999900   -1    0    0    0    0 -0.00000000000E+00 -0.00000000000E+00 -0.74505805969E-08  0.93827000000E+00  0.93827000000E+00 0. -1.
     999902    2    1    2    0    0 -0.13008235165E-01 -0.98900066393E-02 -0.19350546555E-01  0.10186027407E+01  0.10182878145E+01 0.  0.
     999903    2    3    3    0    0 -0.40858305367E-02 -0.12641055836E+00 -0.27251026899E-01  0.13084203762E+00  0.19511459872E-01 0.  0.
         14    1    1    2    0    0  0.13008235165E-01  0.98900066393E-02  0.19350546555E-01  0.25327259335E-01  0.00000000000E+00 0. -1.
     999901    1    3    3    0    0 -0.89224046285E-02  0.11652055172E+00  0.79004803445E-02  0.88776070304E+00  0.88000000000E+00 0. -1.
        -11    1    4    4    0    0  0.76378921218E-02 -0.42309377856E-01 -0.72639251436E-02  0.43605579690E-01  0.51100000000E-03 0. -1.
         11    1    4    4    0    0 -0.11723722659E-01 -0.84101180503E-01 -0.19987101755E-01  0.87236457932E-01  0.51100000000E-03 0.  1.
</event>
<event>
 8    1  0.1213322E+005  0.1043930E+01  0.7957747E-01            NaN
         13   -1    0    0    0    0  0.00000000000E+00  0.00000000000E+00  0.74505805969E-08  0.10566000000E+00  0.10566000000E+00 0. -1.
     999900   -1    0    0    0    0 -0.00000000000E+00 -0.00000000000E+00 -0.74505805969E-08  0.93827000000E+00  0.93827000000E+00 0. -1.
     999902    2    1    2    0    0 -0.28675121615E-02  0.23110658864E-01  0.10078540186E-02  0.10206203250E+01  0.10203541086E+01 0.  0.
     999903    2    3    3    0    0  0.43575660321E-01  0.11916817965E+00 -0.36313265565E-01  0.13339043284E+00  0.19350997490E-01 0.  0.
         14    1    1    2    0    0  0.28675121615E-02 -0.23110658864E-01 -0.10078540186E-02  0.23309675005E-01  0.00000000000E+00 0. -1.
     999901    1    3    3    0    0 -0.46443172483E-01 -0.96057520784E-01  0.37321119584E-01  0.88722989216E+00  0.88000000000E+00 0. -1.
        -11    1    4    4    0    0  0.15026630178E-01  0.66124456235E-01 -0.23770568562E-01  0.71857806657E-01  0.51100000000E-03 0. -1.
         11    1    4    4    0    0  0.28549030143E-01  0.53043723413E-01 -0.12542697003E-01  0.61532626181E-01  0.51100000000E-03 0.  1.
</event>
<event>
 8    1  0.1213322E+005  0.1043930E+01  0.7957747E-01            NaN
         13   -1    0    0    0    0  0.00000000000E+00  0.00000000000E+00  0.74505805969E-08  0.10566000000E+00  0.10566000000E+00 0. -1.
     999900   -1    0    0    0    0 -0.00000000000E+00 -0.00000000000E+00 -0.74505805969E-08  0.93827000000E+00  0.93827000000E+00 0. -1.
     999902    2    1    2    0    0 -0.19478521488E-01  0.64142814929E-02  0.12825186379E-01  0.10197423748E+01  0.10194554771E+01 0.  0.
     999903    2    3    3    0    0  0.10346040290E+00 -0.30439579992E-01  0.67101296219E-01  0.12877768285E+00  0.21224623584E-01 0.  0.
         14    1    1    2    0    0  0.19478521488E-01 -0.64142814929E-02 -0.12825186379E-01  0.24187625185E-01  0.00000000000E+00 0.  1.
     999901    1    3    3    0    0 -0.12293892439E+00  0.36853861485E-01 -0.54276109840E-01  0.89096469197E+00  0.88000000000E+00 0. -1.
        -11    1    4    4    0    0  0.54655421738E-01 -0.26330055654E-01  0.41549498445E-01  0.73533046299E-01  0.51100000000E-03 0.  1.
         11    1    4    4    0    0  0.48804981164E-01 -0.41095243386E-02  0.25551797774E-01  0.55244636546E-01  0.51100000000E-03 0. -1.
</event>
<event>
 8    1  0.1213322E+005  0.1043930E+01  0.7957747E-01            NaN
         13   -1    0    0    0    0  0.00000000000E+00  0.00000000000E+00  0.74505805969E-08  0.10566000000E+00  0.10566000000E+00 0.  1.
     999900   -1    0    0    0    0 -0.00000000000E+00 -0.00000000000E+00 -0.74505805969E-08  0.93827000000E+00  0.93827000000E+00 0. -1.
     999902    2    1    2    0    0  0.72218779138E-02  0.16725260733E-02  0.22646569955E-01  0.10201010261E+01  0.10198226726E+01 0.  0.
     999903    2    3    3    0    0  0.84467061351E-01  0.49576681818E-01  0.88087180454E-01  0.13300232814E+00  0.18377597712E-01 0.  0.
         14    1    1    2    0    0 -0.72218779138E-02 -0.16725260733E-02 -0.22646569955E-01  0.23828973851E-01  0.00000000000E+00 0. -1.
     999901    1    3    3    0    0 -0.77245183438E-01 -0.47904155745E-01 -0.65440610499E-01  0.88709869801E+00  0.88000000000E+00 0. -1.
        -11    1    4    4    0    0  0.39722190149E-01  0.27146680754E-01  0.31778552520E-01  0.57662224961E-01  0.51100000000E-03 0. -1.
         11    1    4    4    0    0  0.44744871202E-01  0.22430001064E-01  0.56308627934E-01  0.75340103182E-01  0.51100000000E-03 0.  1.
</event>
<event>
 8    1  0.1213322E+005  0.1043930E+01  0.7957747E-01            NaN
         13   -1    0    0    0    0  0.00000000000E+00  0.00000000000E+00  0.74505805969E-08  0.10566000000E+00  0.10566000000E+00 0.  1.
     999900   -1    0    0    0    0 -0.00000000000E+00 -0.00000000000E+00 -0.74505805969E-08  0.93827000000E+00  0.93827000000E+00 0.  1.
     999902    2    1    2    0    0  0.93220942236E-02 -0.91754781946E-02  0.20054500631E-01  0.10199868624E+01  0.10197058035E+01 0.  0.
     999903    2    3    3    0    0  0.11605066060E+00 -0.14196456259E-02  0.61132441136E-01  0.13255318209E+00  0.19063040270E-01 0.  0.
         14    1    1    2    0    0 -0.93220942236E-02  0.91754781946E-02 -0.20054500631E-01  0.23943137563E-01  0.00000000000E+00 0. -1.
     999901    1    3    3    0    0 -0.10672856637E+00 -0.77558325687E-02 -0.41077940505E-01  0.88743368035E+00  0.88000000000E+00 0. -1.
        -11    1    4    4    0    0  0.58473020988E-01 -0.39562980535E-02  0.40901549262E-01  0.71469884083E-01  0.51100000000E-03 0.  1.
         11    1    4    4    0    0  0.57577639608E-01  0.25366524276E-02  0.20230891874E-01  0.61083298007E-01  0.51100000000E-03 0. -1.
</event>
<event>
 8    1  0.1213322E+005  0.1043930E+01  0.7957747E-01            NaN
         13   -1    0    0    0    0  0.00000000000E+00  0.00000000000E+00  0.74505805969E-08  0.10566000000E+00  0.10566000000E+00 0. -1.
     999900   -1    0    0    0    0 -0.00000000000E+00 -0.00000000000E+00 -0.74505805969E-08  0.93827000000E+00  0.93827000000E+00 0. -1.
     999902    2    1    2    0    0  0.19206054493E-01 -0.20361248575E-01 -0.78823457690E-02  0.10148510669E+01  0.10144343763E+01 0.  0.
     999903    2    3    3    0    0 -0.29984668501E-01  0.74757680444E-01 -0.92564725632E-01  0.12432400765E+00  0.20010979869E-01 0.  0.
         14    1    1    2    0    0 -0.19206054493E-01  0.20361248575E-01  0.78823457690E-02  0.29078933054E-01  0.00000000000E+00 0.  1.
     999901    1    3    3    0    0  0.49190722994E-01 -0.95118929020E-01  0.84682379863E-01  0.89052705930E+00  0.88000000000E+00 0. -1.
        -11    1    4    4    0    0 -0.39374962796E-02  0.34872096668E-01 -0.44149991835E-01  0.56400797007E-01  0.51100000000E-03 0. -1.
         11    1    4    4    0    0 -0.26047172221E-01  0.39885583776E-01 -0.48414733796E-01  0.67923210639E-01  0.51100000000E-03 0.  1.
</event>
<event>
 8    1  0.1213322E+005  0.1043930E+01  0.7957747E-01            NaN
         13   -1    0    0    0    0  0.00000000000E+00  0.00000000000E+00  0.74505805969E-08  0.10566000000E+00  0.10566000000E+00 0. -1.
     999900   -1    0    0    0    0 -0.00000000000E+00 -0.00000000000E+00 -0.74505805969E-08  0.93827000000E+00  0.93827000000E+00 0.  1.
     999902    2    1    2    0    0 -0.96093229553E-02 -0.20094453723E-01 -0.52938884882E-02  0.10210356467E+01  0.10207789381E+01 0.  0.
     999903    2    3    3    0    0 -0.38070241106E-01 -0.32975006199E-01 -0.12112629022E+00  0.13289541126E+00  0.21281866922E-01 0.  0.
         14    1    1    2    0    0  0.96093229553E-02  0.20094453723E-01  0.52938884882E-02  0.22894353308E-01  0.00000000000E+00 0. -1.
     999901    1    3    3    0    0  0.28460918151E-01  0.12880552476E-01  0.11583240174E+00  0.88814023543E+00  0.88000000000E+00 0. -1.
        -11    1    4    4    0    0 -0.16182372655E-01 -0.44988797747E-02 -0.23653184533E-01  0.29014537106E-01  0.51100000000E-03 0.  1.
         11    1    4    4    0    0 -0.21887868452E-01 -0.28476126424E-01 -0.97473105692E-01  0.10388087416E+00  0.51100000000E-03 0. -1.
</event>
<event>
 8    1  0.1213322E+005  0.1043930E+01  0.7957747E-01            NaN
         13   -1    0    0    0    0  0.00000000000E+00  0.00000000000E+00  0.74505805969E-08  0.10566000000E+00  0.10566000000E+00 0.  1.
     999900   -1    0    0    0    0 -0.00000000000E+00 -0.00000000000E+00 -0.74505805969E-08  0.93827000000E+00  0.93827000000E+00 0.  1.
     999902    2    1    2    0    0 -0.20413115481E-01  0.10901618267E-01  0.17921855295E-02  0.10207189575E+01  0.10204550150E+01 0.  0.
     999903    2    3    3    0    0 -0.45387812049E-01  0.81877958897E-01  0.92201794912E-01  0.13289280681E+00  0.19881485896E-01 0.  0.
         14    1    1    2    0    0  0.20413115481E-01 -0.10901618267E-01 -0.17921855295E-02  0.23211042490E-01  0.00000000000E+00 0. -1.
     999901    1    3    3    0    0  0.24974696568E-01 -0.70976340630E-01 -0.90409609382E-01  0.88782615070E+00  0.88000000000E+00 0.  1.
        -11    1    4    4    0    0 -0.31301631733E-01  0.44645916999E-01  0.42038052258E-01  0.68851354471E-01  0.51100000000E-03 0. -1.
         11    1    4    4    0    0 -0.14086180316E-01  0.37232041898E-01  0.50163742654E-01  0.64041452340E-01  0.51100000000E-03 0.  1.
</event>
<event>
 8    1  0.1213322E+005  0.1043930E+01  0.7957747E-01            NaN
         13   -1    0    0    0    0  0.00000000000E+00  0.00000000000E+00  0.74505805969E-08  0.10566000000E+00  0.10566000000E+00 0. -1.
     999900   -1    0    0    0    0 -0.00000000000E+00 -0.00000000000E+00 -0.74505805969E-08  0.93827000000E+00  0.93827000000E+00 0. -1.
     999902    2    1    2    0    0 -0.10155397340E-01  0.21227355315E-02  0.21687832301E-01  0.10198883659E+01  0.10196049621E+01 0.  0.
     999903    2    3    3    0    0 -0.10059982109E+00 -0.23268497892E-01  0.81070147341E-01  0.13289841787E+00  0.20685107837E-01 0.  0.
         14    1    1    2    0    0  0.10155397340E-01 -0.21227355315E-02 -0.21687832301E-01  0.24041634121E-01  0.00000000000E+00 0.  1.
     999901    1    3    3    0    0  0.90444423750E-01  0.25391233424E-01 -0.59382315040E-01  0.88698994800E+00  0.88000000000E+00 0.  1.
        -11    1    4    4    0    0 -0.56531066850E-01 -0.65310968782E-02  0.54433498411E-01  0.78750768986E-01  0.51100000000E-03 0. -1.
         11    1    4    4    0    0 -0.44068754239E-01 -0.16737401014E-01  0.26636648931E-01  0.54147648889E-01  0.51100000000E-03 0.  1.
</event>
<event>
 8    1  0.1213322E+005  0.1043930E+01  0.7957747E-01            NaN
         13   -1    0    0    0    0  0.00000000000E+00  0.00000000000E+00  0.74505805969E-08  0.10566000000E+00  0.10566000000E+00 0. -1.
     999900   -1    0    0    0    0 -0.00000000000E+00 -0.00000000000E+00 -0.74505805969E-08  0.93827000000E+00  0.93827000000E+00 0. -1.
     999902    2    1    2    0    0 -0.20926185181E-02  0.19937019644E-01 -0.12808367360E-01  0.10201409673E+01  0.10198635570E+01 0.  0.
     999903    2    3    3    0    0  0.66904563562E-01  0.11196087350E+00 -0.13869444920E-01  0.13265568473E+00  0.19842161404E-01 0.  0.
         14    1    1    2    0    0  0.20926185181E-02 -0.19937019644E-01  0.12808367360E-01  0.23789032745E-01  0.00000000000E+00 0. -1.
     999901    1    3    3    0    0 -0.68997182080E-01 -0.92023853853E-01  0.10610775602E-02  0.88748528253E+00  0.88000000000E+00 0. -1.
        -11    1    4    4    0    0  0.54236344732E-01  0.73473000102E-01 -0.74453062333E-02  0.91627269630E-01  0.51100000000E-03 0. -1.
         11    1    4    4    0    0  0.12668218830E-01  0.38487873395E-01 -0.64241386864E-02  0.41028415100E-01  0.51100000000E-03 0.  1.
</event>
<event>
 8    1  0.1213322E+005  0.1043930E+01  0.7957747E-01            NaN
         13   -1    0    0    0    0  0.00000000000E+00  0.00000000000E+00  0.74505805969E-08  0.10566000000E+00  0.10566000000E+00 0.  1.
     999900   -1    0    0    0    0 -0.00000000000E+00 -0.00000000000E+00 -0.74505805969E-08  0.93827000000E+00  0.93827000000E+00 0. -1.
     999902    2    1    2    0    0 -0.41297098773E-02  0.19738682732E-01  0.80858114868E-04  0.10237637748E+01  0.10235651372E+01 0.  0.
     999903    2    3    3    0    0 -0.11081965913E+00  0.39049648034E-01 -0.62547846157E-01  0.13490044830E+00  0.21909496348E-01 0.  0.
         14    1    1    2    0    0  0.41297098773E-02 -0.19738682732E-01 -0.80858114868E-04  0.20166225172E-01  0.00000000000E+00 0. -1.
     999901    1    3    3    0    0  0.10668994925E+00 -0.19310965302E-01  0.62628704272E-01  0.88886332653E+00  0.88000000000E+00 0. -1.
        -11    1    4    4    0    0 -0.83538882003E-01  0.28816538925E-01 -0.57213749370E-01  0.10527493510E+00  0.51100000000E-03 0.  1.
         11    1    4    4    0    0 -0.27280777128E-01  0.10233109109E-01 -0.53340967875E-02  0.29625513199E-01  0.51100000000E-03 0. -1.
</event>
<event>
 8    1  0.1213322E+005  0.1043930E+01  0.7957747E-01            NaN
         13   -1    0    0    0    0  0.00000000000E+00  0.00000000000E+00  0.74505805969E-08  0.10566000000E+00  0.10566000000E+00 0.  1.
     999900   -1    0    0    0    0 -0.00000000000E+00 -0.00000000000E+00 -0.74505805969E-08  0.93827000000E+00  0.93827000000E+00 0. -1.
     999902    2    1    2    0    0  0.22461208808E-01  0.46733054143E-02 -0.97316589561E-02  0.10190091077E+01  0.10187043294E+01 0.  0.
     999903    2    3    3    0    0  0.83756091094E-02 -0.11688252710E-01 -0.12833488973E+00  0.13079019833E+00  0.20723560943E-01 0.  0.
         14    1    1    2    0    0 -0.22461208808E-01 -0.46733054143E-02  0.97316589561E-02  0.24920892252E-01  0.00000000000E+00 0. -1.
     999901    1    3    3    0    0  0.14085599698E-01  0.16361558125E-01  0.11860323077E+00  0.88821890942E+00  0.88000000000E+00 0.  1.
        -11    1    4    4    0    0 -0.56011632211E-02 -0.85431077886E-02 -0.39330190565E-01  0.40638439082E-01  0.51100000000E-03 0.  1.
         11    1    4    4    0    0  0.13976772331E-01 -0.31451449217E-02 -0.89004699161E-01  0.90151759246E-01  0.51100000000E-03 0. -1.
</event>
<event>
 8    1  0.1213322E+005  0.1043930E+01  0.7957747E-01            NaN
         13   -1    0    0    0    0  0.00000000000E+00  0.00000000000E+00  0.74505805969E-08  0.10566000000E+00  0.10566000000E+00 0.  1.
     999900   -1    0    0    0    0 -0.00000000000E+00 -0.00000000000E+00 -0.74505805969E-08  0.93827000000E+00  0.93827000000E+00 0. -1.
     999902    2    1    2    0    0  0.56702656514E-02 -0.92328574808E-02  0.22763548258E-01  0.10187193535E+01  0.10184073568E+01 0.  0.
     999903    2    3    3    0    0 -0.85901009157E-01 -0.91806394593E-01 -0.20769753981E-01  0.12905715026E+00  0.20419791613E-01 0.  0.
         14    1    1    2    0    0 -0.56702656514E-02  0.92328574808E-02 -0.22763548258E-01  0.25210646543E-01  0.00000000000E+00 0. -1.
     999901    1    3    3    0    0  0.91571274809E-01  0.82573537112E-01  0.43533302238E-01  0.88966220320E+00  0.88000000000E+00 0.  1.
        -11    1    4    4    0    0 -0.53142081794E-01 -0.59470978053E-01 -0.33121369693E-02  0.79825493799E-01  0.51100000000E-03 0.  1.
         11    1    4    4    0    0 -0.32758927363E-01 -0.32335416539E-01 -0.17457617011E-01  0.49231656457E-01  0.51100000000E-03 0. -1.
</event>
<event>
 8    1  0.1213322E+005  0.1043930E+01  0.7957747E-01            NaN
         13   -1    0    0    0    0  0.00000000000E+00  0.00000000000E+00  0.74505805969E-08  0.10566000000E+00  0.10566000000E+00 0. -1.
     999900   -1    0    0    0    0 -0.00000000000E+00 -0.00000000000E+00 -0.74505805969E-08  0.93827000000E+00  0.93827000000E+00 0.  1.
     999902    2    1    2    0    0 -0.58943167200E-03 -0.24533660453E-01 -0.87542174222E-02  0.10178745927E+01  0.10175410568E+01 0.  0.
     999903    2    3    3    0    0  0.65570727070E-01  0.75576143933E-02  0.10686429390E+00  0.12727105766E+00  0.20525764896E-01 0.  0.
         14    1    1    2    0    0  0.58943167200E-03  0.24533660453E-01  0.87542174222E-02  0.26055407262E-01  0.00000000000E+00 0. -1.
     999901    1    3    3    0    0 -0.66160158742E-01 -0.32091274846E-01 -0.11561851132E+00  0.89060353507E+00  0.88000000000E+00 0. -1.
        -11    1    4    4    0    0  0.98121223965E-02 -0.37795492461E-02  0.28844506829E-01  0.30705527737E-01  0.51100000000E-03 0.  1.
         11    1    4    4    0    0  0.55758604674E-01  0.11337163639E-01  0.78019787070E-01  0.96565529927E-01  0.51100000000E-03 0. -1.
</event>
<event>
 8    1  0.1213322E+005  0.1043930E+01  0.7957747E-01            NaN
         13   -1    0    0    0    0  0.00000000000E+00  0.00000000000E+00  0.74505805969E-08  0.10566000000E+00  0.10566000000E+00 0. -1.
     999900   -1    0    0    0    0 -0.00000000000E+00 -0.00000000000E+00 -0.74505805969E-08  0.93827000000E+00  0.93827000000E+00 0. -1.
     999902    2    1    2    0    0  0.83411985639E-02  0.15987061657E-01  0.15845423655E-01  0.10199250175E+01  0.10196424874E+01 0.  0.
     999903    2    3    3    0    0  0.79033349480E-01  0.98782121254E-01  0.36137737956E-01  0.13298410622E+00  0.19356099604E-01 0.  0.
         14    1    1    2    0    0 -0.83411985639E-02 -0.15987061657E-01 -0.15845423655E-01  0.24004982498E-01  0.00000000000E+00 0.  1.
     999901    1    3    3    0    0 -0.70692150916E-01 -0.82795059597E-01 -0.20292314301E-01  0.88694091129E+00  0.88000000000E+00 0.  1.
        -11    1    4    4    0    0  0.18810475682E-01  0.14668343220E-01  0.12208981656E-01  0.26801392544E-01  0.51100000000E-03 0.  1.
         11    1    4    4    0    0  0.60222873798E-01  0.84113778034E-01  0.23928756300E-01  0.10618271367E+00  0.51100000000E-03 0. -1.
</event>
<event>
 8    1  0.1213322E+005  0.1043930E+01  0.7957747E-01            NaN
         13   -1    0    0    0    0  0.00000000000E+00  0.00000000000E+00  0.74505805969E-08  0.10566000000E+00  0.10566000000E+00 0.  1.
     999900   -1    0    0    0    0 -0.00000000000E+00 -0.00000000000E+00 -0.74505805969E-08  0.93827000000E+00  0.93827000000E+00 0.  1.
     999902    2    1    2    0    0  0.23834485298E-01 -0.15436512487E-02 -0.15178828525E-03  0.10200450971E+01  0.10197654198E+01 0.  0.
     999903    2    3    3    0    0  0.11404061405E-01 -0.12726950613E+00  0.20247047039E-01  0.13078831834E+00  0.19184928824E-01 0.  0.
         14    1    1    2    0    0 -0.23834485298E-01  0.15436512487E-02  0.15178828525E-03  0.23884902937E-01  0.00000000000E+00 0. -1.
     999901    1    3    3    0    0  0.12430423894E-01  0.12572585488E+00 -0.20398835324E-01  0.88925677872E+00  0.88000000000E+00 0.  1.
        -11    1    4    4    0    0  0.10067117491E-01 -0.63654129210E-01  0.15467167689E-02  0.64465870613E-01  0.51100000000E-03 0.  1.
         11    1    4    4    0    0  0.13369439135E-02 -0.63615376917E-01  0.18700330270E-01  0.66322447727E-01  0.51100000000E-03 0. -1.
</event>
<event>
 8    1  0.1213322E+005  0.1043930E+01  0.7957747E-01            NaN
         13   -1    0    0    0    0  0.00000000000E+00  0.00000000000E+00  0.74505805969E-08  0.10566000000E+00  0.10566000000E+00 0. -1.
     999900   -1    0    0    0    0 -0.00000000000E+00 -0.00000000000E+00 -0.74505805969E-08  0.93827000000E+00  0.93827000000E+00 0. -1.
     999902    2    1    2    0    0  0.13152626079E-02 -0.84908880302E-02 -0.15984968212E-01  0.10257821543E+01  0.10256216085E+01 0.  0.
     999903    2    3    3    0    0  0.31017263556E-01 -0.76630251300E-01 -0.10846823493E+00  0.13781912786E+00  0.19861721005E-01 0.  0.
         14    1    1    2    0    0 -0.13152626079E-02  0.84908880302E-02  0.15984968212E-01  0.18147845712E-01  0.00000000000E+00 0. -1.
     999901    1    3    3    0    0 -0.29702000948E-01  0.68139363270E-01  0.92483266718E-01  0.88796302643E+00  0.88000000000E+00 0.  1.
        -11    1    4    4    0    0  0.31032308422E-01 -0.57292438206E-01 -0.89681602356E-01  0.11085341025E+00  0.51100000000E-03 0. -1.
         11    1    4    4    0    0 -0.15044866148E-04 -0.19337813094E-01 -0.18786632574E-01  0.26965717607E-01  0.51100000000E-03 0.  1.
</event>
<event>
 8    1  0.1213322E+005  0.1043930E+01  0.7957747E-01            NaN
         13   -1    0    0    0    0  0.00000000000E+00  0.00000000000E+00  0.74505805969E-08  0.10566000000E+00  0.10566000000E+00 0. -1.
     999900   -1    0    0    0    0 -0.00000000000E+00 -0.00000000000E+00 -0.74505805969E-08  0.93827000000E+00  0.93827000000E+00 0. -1.
     999902    2    1    2    0    0  0.18618175730E-02 -0.98464850463E-02  0.21788480212E-01  0.10199475585E+01  0.10196655650E+01 0.  0.
     999903    2    3    3    0    0  0.10007048580E+00 -0.54680202472E-01 -0.58482132044E-01  0.12972377989E+00  0.20101557910E-01 0.  0.
         14    1    1    2    0    0 -0.18618175730E-02  0.98464850463E-02 -0.21788480212E-01  0.23982441543E-01  0.00000000000E+00 0.  1.
     999901    1    3    3    0    0 -0.98208668226E-01  0.44833717426E-01  0.80270612255E-01  0.89022377857E+00  0.88000000000E+00 0.  1.
        -11    1    4    4    0    0  0.40825692173E-01 -0.18008914420E-01 -0.33126636659E-01  0.55576013867E-01  0.51100000000E-03 0.  1.
         11    1    4    4    0    0  0.59244793625E-01 -0.36671288052E-01 -0.25355495385E-01  0.74147766024E-01  0.51100000000E-03 0. -1.
</event>
<event>
 8    1  0.1213322E+005  0.1043930E+01  0.7957747E-01            NaN
         13   -1    0    0    0    0  0.00000000000E+00  0.00000000000E+00  0.74505805969E-08  0.10566000000E+00  0.10566000000E+00 0.  1.
     999900   -1    0    0    0    0 -0.00000000000E+00 -0.00000000000E+00 -0.74505805969E-08  0.93827000000E+00  0.93827000000E+00 0. -1.
     999902    2    1    2    0    0  0.75596937531E-02 -0.12169977218E-01 -0.19454863134E-01  0.10197691015E+01  0.10194828451E+01 0.  0.
     999903    2    3    3    0    0 -0.22202571437E-01  0.37498070735E-01  0.11786417771E+00  0.12723942337E+00  0.19971153859E-01 0.  0.
         14    1    1    2    0    0 -0.75596937531E-02  0.12169977218E-01  0.19454863134E-01  0.24160898466E-01  0.00000000000E+00 0.  1.
     999901    1    3    3    0    0  0.29762265190E-01 -0.49668047953E-01 -0.13731904084E+00  0.89252967816E+00  0.88000000000E+00 0. -1.
        -11    1    4    4    0    0  0.13806385659E-02  0.12083562294E-01  0.19991660054E-01  0.23406115297E-01  0.51100000000E-03 0.  1.
         11    1    4    4    0    0 -0.23583210002E-01  0.25414508441E-01  0.97872517655E-01  0.10383330808E+00  0.51100000000E-03 0. -1.
</event>
<event>
 8    1  0.1213322E+005  0.1043930E+01  0.7957747E-01            NaN
         13   -1    0    0    0    0  0.00000000000E+00  0.00000000000E+00  0.74505805969E-08  0.10566000000E+00  0.10566000000E+00 0. -1.
     999900   -1    0    0    0    0 -0.00000000000E+00 -0.00000000000E+00 -0.74505805969E-08  0.93827000000E+00  0.93827000000E+00 0.  1.
     999902    2    1    2    0    0  0.14846530854E-01 -0.18151053605E-01 -0.26053949691E-02  0.10203361807E+01  0.10200633575E+01 0.  0.
     999903    2    3    3    0    0 -0.25304922145E-01  0.12263939980E+00 -0.18535889109E-01  0.12809861617E+00  0.19619245929E-01 0.  0.
         14    1    1    2    0    0 -0.14846530854E-01  0.18151053605E-01  0.26053949691E-02  0.23593819282E-01  0.00000000000E+00 0. -1.
     999901    1    3    3    0    0  0.40151452998E-01 -0.14079045341E+00  0.15930494140E-01  0.89223756455E+00  0.88000000000E+00 0.  1.
        -11    1    4    4    0    0 -0.16433347039E-01  0.40228675247E-01 -0.15422252252E-02  0.43486098775E-01  0.51100000000E-03 0. -1.
         11    1    4    4    0    0 -0.88715751054E-02  0.82410724555E-01 -0.16993663884E-01  0.84612517394E-01  0.51100000000E-03 0.  1.
</event>
<event>
 8    1  0.1213322E+005  0.1043930E+01  0.7957747E-01            NaN
         13   -1    0    0    0    0  0.00000000000E+00  0.00000000000E+00  0.74505805969E-08  0.10566000000E+00  0.10566000000E+00 0.  1.
     999900   -1    0    0    0    0 -0.00000000000E+00 -0.00000000000E+00 -0.74505805969E-08  0.93827000000E+00  0.93827000000E+00 0. -1.
     999902    2    1    2    0    0 -0.15847870001E-01 -0.23526164055E-02  0.17331152259E-01  0.10203279106E+01  0.10200548938E+01 0.  0.
     999903    2    3    3    0    0  0.53413340047E-01  0.70941685928E-01 -0.90062809642E-01  0.12808207390E+00  0.20199016735E-01 0.  0.
         14    1    1    2    0    0  0.15847870001E-01  0.23526164055E-02 -0.17331152259E-01  0.23602089445E-01  0.00000000000E+00 0. -1.
     999901    1    3    3    0    0 -0.69261210048E-01 -0.73294302334E-01  0.10739396190E+00  0.89224583665E+00  0.88000000000E+00 0.  1.
        -11    1    4    4    0    0  0.44897558901E-01  0.45204133722E-01 -0.67346543549E-01  0.92709344458E-01  0.51100000000E-03 0.  1.
         11    1    4    4    0    0  0.85157811454E-02  0.25737552207E-01 -0.22716266094E-01  0.35372729444E-01  0.51100000000E-03 0. -1.
</event>
<event>
 8    1  0.1213322E+005  0.1043930E+01  0.7957747E-01            NaN
         13   -1    0    0    0    0  0.00000000000E+00  0.00000000000E+00  0.74505805969E-08  0.10566000000E+00  0.10566000000E+00 0. -1.
     999900   -1    0    0    0    0 -0.00000000000E+00 -0.00000000000E+00 -0.74505805969E-08  0.93827000000E+00  0.93827000000E+00 0. -1.
     999902    2    1    2    0    0  0.15950242753E-01 -0.13336065256E-01  0.12239993798E-01  0.10198037005E+01  0.10195182731E+01 0.  0.
     999903    2    3    3    0    0 -0.46641608139E-01  0.10147780343E+00 -0.57930007926E-01  0.12737790895E+00  0.19901298249E-01 0.  0.
         14    1    1    2    0    0 -0.15950242753E-01  0.13336065256E-01 -0.12239993798E-01  0.24126299521E-01  0.00000000000E+00 0.  1.
     999901    1    3    3    0    0  0.62591850893E-01 -0.11481386869E+00  0.70170001723E-01  0.89242579153E+00  0.88000000000E+00 0.  1.
        -11    1    4    4    0    0 -0.55914553431E-02  0.30464204451E-01 -0.10981669046E-01  0.32866248671E-01  0.51100000000E-03 0. -1.
         11    1    4    4    0    0 -0.41050152796E-01  0.71013598979E-01 -0.46948338879E-01  0.94511660281E-01  0.51100000000E-03 0.  1.
</event>
<event>
 8    1  0.1213322E+005  0.1043930E+01  0.7957747E-01            NaN
         13   -1    0    0    0    0  0.00000000000E+00  0.00000000000E+00  0.74505805969E-08  0.10566000000E+00  0.10566000000E+00 0.  1.
     999900   -1    0    0    0    0 -0.00000000000E+00 -0.00000000000E+00 -0.74505805969E-08  0.93827000000E+00  0.93827000000E+00 0. -1.
     999902    2    1    2    0    0  0.28134090979E-01 -0.55581024621E-02  0.16369695615E-01  0.10109089989E+01  0.10103695451E+01 0.  0.
     999903    2    3    3    0    0  0.98600498720E-01 -0.61789364733E-01 -0.38919259161E-01  0.12457704192E+00  0.21557984524E-01 0.  0.
         14    1    1    2    0    0 -0.28134090979E-01  0.55581024621E-02 -0.16369695615E-01  0.33021001086E-01  0.00000000000E+00 0. -1.
     999901    1    3    3    0    0 -0.70466407741E-01  0.56231262271E-01  0.55288954777E-01  0.88633195700E+00  0.88000000000E+00 0.  1.
        -11    1    4    4    0    0  0.58962062043E-01 -0.42481271429E-01 -0.33922767201E-01  0.80200987763E-01  0.51100000000E-03 0.  1.
         11    1    4    4    0    0  0.39638436677E-01 -0.19308093304E-01 -0.49964919609E-02  0.44376054153E-01  0.51100000000E-03 0. -1.
</event>
<event>
 8    1  0.1213322E+005  0.1043930E+01  0.7957747E-01            NaN
         13   -1    0    0    0    0  0.00000000000E+00  0.00000000000E+00  0.74505805969E-08  0.10566000000E+00  0.10566000000E+00 0.  1.
     999900   -1    0    0    0    0 -0.00000000000E+00 -0.00000000000E+00 -0.74505805969E-08  0.93827000000E+00  0.93827000000E+00 0. -1.
     999902    2    1    2    0    0  0.11285269632E-02 -0.22447434225E-01  0.59614368576E-02  0.10206770517E+01  0.10204121443E+01 0.  0.
     999903    2    3    3    0    0 -0.91599478571E-02  0.61482890026E-01  0.11256753301E+00  0.13021929761E+00  0.20532061988E-01 0.  0.
         14    1    1    2    0    0 -0.11285269632E-02  0.22447434225E-01 -0.59614368576E-02  0.23252948324E-01  0.00000000000E+00 0. -1.
     999901    1    3    3    0    0  0.10288474820E-01 -0.83930324251E-01 -0.10660609616E+00  0.89045775407E+00  0.88000000000E+00 0. -1.
        -11    1    4    4    0    0 -0.10327416233E-01  0.12667278193E-01  0.33707582533E-01  0.37464352444E-01  0.51100000000E-03 0. -1.
         11    1    4    4    0    0  0.11674683760E-02  0.48815611834E-01  0.78859950482E-01  0.92754945163E-01  0.51100000000E-03 0.  1.
</event>
<event>
 8    1  0.1213322E+005  0.1043930E+01  0.7957747E-01            NaN
         13   -1    0    0    0    0  0.00000000000E+00  0.00000000000E+00  0.74505805969E-08  0.10566000000E+00  0.10566000000E+00 0.  1.
     999900   -1    0    0    0    0 -0.00000000000E+00 -0.00000000000E+00 -0.74505805969E-08  0.93827000000E+00  0.93827000000E+00 0.  1.
     999902    2    1    2    0    0  0.31373213520E-02  0.44640420068E-02 -0.22352664880E-01  0.10209210434E+01  0.10206617289E+01 0.  0.
     999903    2    3    3    0    0  0.52810341808E-01  0.11813935165E+00 -0.17699317614E-01  0.13220785085E+00  0.20489298978E-01 0.  0.
         14    1    1    2    0    0 -0.31373213520E-02 -0.44640420068E-02  0.22352664880E-01  0.23008956594E-01  0.00000000000E+00 0.  1.
     999901    1    3    3    0    0 -0.49673020456E-01 -0.11367530964E+00 -0.46533472657E-02  0.88871319256E+00  0.88000000000E+00 0. -1.
        -11    1    4    4    0    0  0.39340554266E-01  0.66740189804E-01 -0.53748088443E-02  0.77660040150E-01  0.51100000000E-03 0. -1.
         11    1    4    4    0    0  0.13469787543E-01  0.51399161844E-01 -0.12324508770E-01  0.54547810699E-01  0.51100000000E-03 0.  1.
</event>
<event>
 8    1  0.1213322E+005  0.1043930E+01  0.7957747E-01            NaN
         13   -1    0    0    0    0  0.00000000000E+00  0.00000000000E+00  0.74505805969E-08  0.10566000000E+00  0.10566000000E+00 0.  1.
     999900   -1    0    0    0    0 -0.00000000000E+00 -0.00000000000E+00 -0.74505805969E-08  0.93827000000E+00  0.93827000000E+00 0.  1.
     999902    2    1    2    0    0  0.23726788191E-01  0.42034204210E-02 -0.85423387611E-03  0.10198186140E+01  0.10195335436E+01 0.  0.
     999903    2    3    3    0    0  0.87035490544E-02 -0.83418819305E-01 -0.97309072280E-01  0.13009568492E+00  0.20527554824E-01 0.  0.
         14    1    1    2    0    0 -0.23726788191E-01 -0.42034204210E-02  0.85423387611E-03  0.24111386037E-01  0.00000000000E+00 0.  1.
     999901    1    3    3    0    0  0.15023239137E-01  0.87622239726E-01  0.96454838404E-01  0.88972292904E+00  0.88000000000E+00 0. -1.
        -11    1    4    4    0    0  0.75602050604E-02 -0.60211251196E-01 -0.55384162556E-01  0.82159710651E-01  0.51100000000E-03 0. -1.
         11    1    4    4    0    0  0.11433439940E-02 -0.23207568109E-01 -0.41924909724E-01  0.47935974272E-01  0.51100000000E-03 0.  1.
</event>
<event>
 8    1  0.1213322E+005  0.1043930E+01  0.7957747E-01            NaN
         13   -1    0    0    0    0  0.00000000000E+00  0.00000000000E+00  0.74505805969E-08  0.10566000000E+00  0.10566000000E+00 0. -1.
     999900   -1    0    0    0    0 -0.00000000000E+00 -0.00000000000E+00 -0.74505805969E-08  0.93827000000E+00  0.93827000000E+00 0. -1.
     999902    2    1    2    0    0 -0.14594153765E-01 -0.22658290300E-02  0.19061306472E-01  0.10198165865E+01  0.10195314676E+01 0.  0.
     999903    2    3    3    0    0  0.90322940567E-01 -0.58812079292E-01  0.70596260928E-01  0.13028810095E+00  0.19340706542E-01 0.  0.
         14    1    1    2    0    0  0.14594153765E-01  0.22658290300E-02 -0.19061306472E-01  0.24113413481E-01  0.00000000000E+00 0.  1.
     999901    1    3    3    0    0 -0.10491709433E+00  0.56546250262E-01 -0.51534954456E-01  0.88952848557E+00  0.88000000000E+00 0. -1.
        -11    1    4    4    0    0  0.19799481535E-01 -0.96165057617E-02  0.62427858812E-02  0.22885151271E-01  0.51100000000E-03 0. -1.
         11    1    4    4    0    0  0.70523459032E-01 -0.49195573530E-01  0.64353475047E-01  0.10740294968E+00  0.51100000000E-03 0.  1.
</event>
<event>
 8    1  0.1213322E+005  0.1043930E+01  0.7957747E-01            NaN
         13   -1    0    0    0    0  0.00000000000E+00  0.00000000000E+00  0.74505805969E-08  0.10566000000E+00  0.10566000000E+00 0.  1.
     999900   -1    0    0    0    0 -0.00000000000E+00 -0.00000000000E+00 -0.74505805969E-08  0.93827000000E+00  0.93827000000E+00 0. -1.
     999902    2    1    2    0    0  0.11517409787E-01 -0.58383378186E-02 -0.24727700126E-01  0.10160338341E+01  0.10156508042E+01 0.  0.
     999903    2    3    3    0    0 -0.82499611470E-01  0.75057332771E-01  0.50366950365E-01  0.12416920520E+00  0.21008872779E-01 0.  0.
         14    1    1    2    0    0 -0.11517409787E-01  0.58383378186E-02  0.24727700126E-01  0.27896165869E-01  0.00000000000E+00 0.  1.
     999901    1    3    3    0    0  0.94017021257E-01 -0.80895670589E-01 -0.75094650491E-01  0.89186462893E+00  0.88000000000E+00 0. -1.
        -11    1    4    4    0    0 -0.29768341104E-01  0.15389829720E-01  0.10534857065E-01  0.35131827810E-01  0.51100000000E-03 0.  1.
         11    1    4    4    0    0 -0.52731270366E-01  0.59667503051E-01  0.39832093300E-01  0.89037377390E-01  0.51100000000E-03 0. -1.
</event>
<event>
 8    1  0.1213322E+005  0.1043930E+01  0.7957747E-01            NaN
         13   -1    0    0    0    0  0.00000000000E+00  0.00000000000E+00  0.74505805969E-08  0.10566000000E+00  0.10566000000E+00 0.  1.
     999900   -1    0    0    0    0 -0.00000000000E+00 -0.00000000000E+00 -0.74505805969E-08  0.93827000000E+00  0.93827000000E+00 0.  1.
     999902    2    1    2    0    0  0.16223807384E-01  0.14138997933E-01  0.83047520062E-02  0.10208628785E+01  0.10206022362E+01 0.  0.
     999903    2    3    3    0    0 -0.10162997574E+00 -0.69346122619E-01 -0.29855854340E-01  0.12827366087E+00  0.20620944288E-01 0.  0.
         14    1    1    2    0    0 -0.16223807384E-01 -0.14138997933E-01 -0.83047520062E-02  0.23067121503E-01  0.00000000000E+00 0. -1.
     999901    1    3    3    0    0  0.11785378312E+00  0.83485120552E-01  0.38160606346E-01  0.89258921763E+00  0.88000000000E+00 0.  1.
        -11    1    4    4    0    0 -0.35587313106E-01 -0.26446040094E-01 -0.20873547889E-01  0.49008325958E-01  0.51100000000E-03 0. -1.
         11    1    4    4    0    0 -0.66042662632E-01 -0.42900082525E-01 -0.89823064513E-02  0.79265334910E-01  0.51100000000E-03 0.  1.
</event>
<event>
 8    1  0.1213322E+005  0.1043930E+01  0.7957747E-01            NaN
         13   -1    0    0    0    0  0.00000000000E+00  0.00000000000E+00  0.74505805969E-08  0.10566000000E+00  0.10566000000E+00 0.  1.
     999900   -1    0    0    0    0 -0.00000000000E+00 -0.00000000000E+00 -0.74505805969E-08  0.93827000000E+00  0.93827000000E+00 0.  1.
     999902    2    1    2    0    0  0.11029322472E-01 -0.14300864957E-01 -0.16052141890E-01  0.10197673852E+01  0.10194810876E+01 0.  0.
     999903    2    3    3    0    0 -0.52492641537E-01 -0.11383054494E+00  0.31091628064E-01  0.13063087595E+00  0.19618002946E-01 0.  0.
         14    1    1    2    0    0 -0.11029322472E-01  0.14300864957E-01  0.16052141890E-01  0.24162614759E-01  0.00000000000E+00 0.  1.
     999901    1    3    3    0    0  0.63521964009E-01  0.99529679980E-01 -0.47143769954E-01  0.88913650929E+00  0.88000000000E+00 0.  1.
        -11    1    4    4    0    0 -0.49078355795E-01 -0.11213540371E+00  0.27696222273E-01  0.12550050049E+00  0.51100000000E-03 0.  1.
         11    1    4    4    0    0 -0.34142857425E-02 -0.16951412235E-02  0.33954057907E-02  0.51303754622E-02  0.51100000000E-03 0. -1.
</event>
<event>
 8    1  0.1213322E+005  0.1043930E+01  0.7957747E-01            NaN
         13   -1    0    0    0    0  0.00000000000E+00  0.00000000000E+00  0.74505805969E-08  0.10566000000E+00  0.10566000000E+00 0.  1.
     999900   -1    0    0    0    0 -0.00000000000E+00 -0.00000000000E+00 -0.74505805969E-08  0.93827000000E+00  0.93827000000E+00 0.  1.
     999902    2    1    2    0    0 -0.10459069391E-01  0.13640155152E-01 -0.18248157721E-01  0.10188612700E+01  0.10185528196E+01 0.  0.
     999903    2    3    3    0    0 -0.51419680515E-02 -0.96504978438E-01  0.79463964969E-01  0.12661249248E+00  0.19404917505E-01 0.  0.
         14    1    1    2    0    0  0.10459069391E-01 -0.13640155152E-01  0.18248157721E-01  0.25068730030E-01  0.00000000000E+00 0. -1.
     999901    1    3    3    0    0 -0.53171013394E-02  0.11014513359E+00 -0.97712122690E-01  0.89224877749E+00  0.88000000000E+00 0. -1.
        -11    1    4    4    0    0 -0.25440796813E-02 -0.46027629527E-01  0.25542758269E-01  0.52703971789E-01  0.51100000000E-03 0.  1.
         11    1    4    4    0    0 -0.25978883702E-02 -0.50477348911E-01  0.53921206700E-01  0.73908520687E-01  0.51100000000E-03 0. -1.
</event>
<event>
 8    1  0.1213322E+005  0.1043930E+01  0.7957747E-01            NaN
         13   -1    0    0    0    0  0.00000000000E+00  0.00000000000E+00  0.74505805969E-08  0.10566000000E+00  0.10566000000E+00 0.  1.
     999900   -1    0    0    0    0 -0.00000000000E+00 -0.00000000000E+00 -0.74505805969E-08  0.93827000000E+00  0.93827000000E+00 0. -1.
     999902    2    1    2    0    0 -0.15708954128E-01  0.18461721600E-01  0.10869062220E-01  0.10173641776E+01  0.10170172698E+01 0.  0.
     999903    2    3    3    0    0  0.79457541767E-01  0.42629818836E-01  0.89207087094E-01  0.12844483090E+00  0.20232839623E-01 0.  0.
         14    1    1    2    0    0  0.15708954128E-01 -0.18461721600E-01 -0.10869062220E-01  0.26565822362E-01  0.00000000000E+00 0. -1.
     999901    1    3    3    0    0 -0.95166495896E-01 -0.24168097236E-01 -0.78338024873E-01  0.88891934674E+00  0.88000000000E+00 0. -1.
        -11    1    4    4    0    0  0.51795970621E-01  0.21141782167E-01  0.43559733396E-01  0.70904929450E-01  0.51100000000E-03 0. -1.
         11    1    4    4    0    0  0.27661571147E-01  0.21488036670E-01  0.45647353697E-01  0.57539901449E-01  0.51100000000E-03 0.  1.
</event>
<event>
 8    1  0.1213322E+005  0.1043930E+01  0.7957747E-01            NaN
         13   -1    0    0    0    0  0.00000000000E+00  0.00000000000E+00  0.74505805969E-08  0.10566000000E+00  0.10566000000E+00 0.  1.
     999900   -1    0    0    0    0 -0.00000000000E+00 -0.00000000000E+00 -0.74505805969E-08  0.93827000000E+00  0.93827000000E+00 0. -1.
     999902    2    1    2    0    0 -0.13086465425E-01 -0.50501369642E-02  0.19118921234E-01  0.10202172901E+01  0.10199416780E+01 0.  0.
     999903    2    3    3    0    0  0.86446448112E-01 -0.94432808680E-01 -0.71806179151E-02  0.12971870582E+00  0.19617278610E-01 0.  0.
         14    1    1    2    0    0  0.13086465425E-01  0.50501369642E-02 -0.19118921234E-01  0.23712709879E-01  0.00000000000E+00 0. -1.
     999901    1    3    3    0    0 -0.99532913537E-01  0.89382671715E-01  0.26299539149E-01  0.89049858430E+00  0.88000000000E+00 0.  1.
        -11    1    4    4    0    0  0.72870244660E-01 -0.78837475336E-01  0.12972454274E-02  0.10736556264E+00  0.51100000000E-03 0.  1.
         11    1    4    4    0    0  0.13576203451E-01 -0.15595333344E-01 -0.84778633425E-02  0.22353143182E-01  0.51100000000E-03 0. -1.
</event>
<event>
 8    1  0.1213322E+005  0.1043930E+01  0.7957747E-01            NaN
         13   -1    0    0    0    0  0.00000000000E+00  0.00000000000E+00  0.74505805969E-08  0.10566000000E+00  0.10566000000E+00 0.  1.
     999900   -1    0    0    0    0 -0.00000000000E+00 -0.00000000000E+00 -0.74505805969E-08  0.93827000000E+00  0.93827000000E+00 0.  1.
     999902    2    1    2    0    0  0.85974842677E-03  0.25889481694E-01  0.10175027118E-01  0.10160995202E+01  0.10157183169E+01 0.  0.
     999903    2    3    3    0    0 -0.11903257425E+00 -0.23322129431E-01  0.29421046126E-01  0.12639936791E+00  0.19963136044E-01 0.  0.
         14    1    1    2    0    0 -0.85974842677E-03 -0.25889481694E-01 -0.10175027118E-01  0.27830479813E-01  0.00000000000E+00 0. -1.
     999901    1    3    3    0    0  0.11989232268E+00  0.49211611125E-01 -0.19246019008E-01  0.88970015227E+00  0.88000000000E+00 0. -1.
        -11    1    4    4    0    0 -0.65838305009E-01 -0.19065106519E-01  0.84659315780E-02  0.69065865748E-01  0.51100000000E-03 0. -1.
         11    1    4    4    0    0 -0.53194269240E-01 -0.42570229113E-02  0.20955114548E-01  0.57333502167E-01  0.51100000000E-03 0.  1.
</event>
<event>
 8    1  0.1213322E+005  0.1043930E+01  0.7957747E-01            NaN
         13   -1    0    0    0    0  0.00000000000E+00  0.00000000000E+00  0.74505805969E-08  0.10566000000E+00  0.10566000000E+00 0.  1.
     999900   -1    0    0    0    0 -0.00000000000E+00 -0.00000000000E+00 -0.74505805969E-08  0.93827000000E+00  0.93827000000E+00 0. -1.
     999902    2    1    2    0    0 -0.22070514524E-01 -0.85088089640E-02  0.38719960758E-02  0.10199612746E+01  0.10196796075E+01 0.  0.
     999903    2    3    3    0    0 -0.30276164463E-01  0.64215702046E-03 -0.12531544225E+00  0.13044428938E+00  0.19866908742E-01 0.  0.
         14    1    1    2    0    0  0.22070514524E-01  0.85088089640E-02 -0.38719960758E-02  0.23968725351E-01  0.00000000000E+00 0. -1.
     999901    1    3    3    0    0  0.82056499393E-02 -0.91509659845E-02  0.12918743833E+00  0.88951698527E+00  0.88000000000E+00 0.  1.
        -11    1    4    4    0    0 -0.26587372350E-01 -0.58117893635E-02 -0.11119785598E+00  0.11448095719E+00  0.51100000000E-03 0.  1.
         11    1    4    4    0    0 -0.36887921133E-02  0.64539463840E-02 -0.14117586277E-01  0.15963332186E-01  0.51100000000E-03 0. -1.
</event>
<event>
 8    1  0.1213322E+005  0.1043930E+01  0.7957747E-01            NaN
         13   -1    0    0    0    0  0.00000000000E+00  0.00000000000E+00  0.74505805969E-08  0.10566000000E+00  0.10566000000E+00 0. -1.
     999900   -1    0    0    0    0 -0.00000000000E+00 -0.00000000000E+00 -0.74505805969E-08  0.93827000000E+00  0.93827000000E+00 0. -1.
     999902    2    1    2    0    0  0.24091800980E-01 -0.50368421413E-02  0.98579433060E-03  0.10192975733E+01  0.10189998953E+01 0.  0.
     999903    2    3    3    0    0  0.18121770109E-01 -0.97505541450E-01 -0.82194311568E-01  0.13053155708E+00  0.21138906657E-01 0.  0.
         14    1    1    2    0    0 -0.24091800980E-01  0.50368421413E-02 -0.98579433060E-03  0.24632426671E-01  0.00000000000E+00 0.  1.
     999901    1    3    3    0    0  0.59700308711E-02  0.92468699309E-01  0.83180105898E-01  0.88876601625E+00  0.88000000000E+00 0.  1.
        -11    1    4    4    0    0  0.13584542865E-01 -0.54150100755E-01 -0.33226620765E-01  0.64969551831E-01  0.51100000000E-03 0. -1.
         11    1    4    4    0    0  0.45372272435E-02 -0.43355440695E-01 -0.48967690803E-01  0.65562005250E-01  0.51100000000E-03 0.  1.
</event>
<event>
 8    1  0.1213322E+005  0.1043930E+01  0.7957747E-01            NaN
         13   -1    0    0    0    0  0.00000000000E+00  0.00000000000E+00  0.74505805969E-08  0.10566000000E+00  0.10566000000E+00 0. -1.
     999900   -1    0    0    0    0 -0.00000000000E+00 -0.00000000000E+00 -0.74505805969E-08  0.93827000000E+00  0.93827000000E+00 0. -1.
     999902    2    1    2    0    0 -0.10127459780E-01  0.10510169637E-01  0.98576036637E-02  0.10263174631E+01  0.10261663284E+01 0.  0.
     999903    2    3    3    0    0 -0.12597048966E+00 -0.30141940689E-01  0.40617838636E-01  0.13726268764E+00  0.20350325488E-01 0.  0.
         14    1    1    2    0    0  0.10127459780E-01 -0.10510169637E-01 -0.98576036637E-02  0.17612536938E-01  0.00000000000E+00 0.  1.
     999901    1    3    3    0    0  0.11584302988E+00  0.40652110327E-01 -0.30760234972E-01  0.88905477542E+00  0.88000000000E+00 0. -1.
        -11    1    4    4    0    0 -0.89723421469E-01 -0.15469143684E-01  0.20686927493E-01  0.93369142957E-01  0.51100000000E-03 0. -1.
         11    1    4    4    0    0 -0.36247068196E-01 -0.14672797005E-01  0.19930911143E-01  0.43893544682E-01  0.51100000000E-03 0.  1.
</event>
<event>
 8    1  0.1213322E+005  0.1043930E+01  0.7957747E-01            NaN
         13   -1    0    0    0    0  0.00000000000E+00  0.00000000000E+00  0.74505805969E-08  0.10566000000E+00  0.10566000000E+00 0.  1.
     999900   -1    0    0    0    0 -0.00000000000E+00 -0.00000000000E+00 -0.74505805969E-08  0.93827000000E+00  0.93827000000E+00 0.  1.
     999902    2    1    2    0    0 -0.51402127766E-02  0.89144905712E-02  0.21286228871E-01  0.10202869573E+01  0.10200129812E+01 0.  0.
     999903    2    3    3    0    0  0.65995801410E-01 -0.13053061764E-01  0.11214698291E+00  0.13248147042E+00  0.21179376880E-01 0.  0.
         14    1    1    2    0    0  0.51402127766E-02 -0.89144905712E-02 -0.21286228871E-01  0.23643042721E-01  0.00000000000E+00 0. -1.
     999901    1    3    3    0    0 -0.71136014187E-01  0.21967552336E-01 -0.90860754035E-01  0.88780548686E+00  0.88000000000E+00 0.  1.
        -11    1    4    4    0    0  0.14004481576E-01  0.50033331918E-02  0.17278695337E-01  0.22802922637E-01  0.51100000000E-03 0.  1.
         11    1    4    4    0    0  0.51991319835E-01 -0.18056394956E-01  0.94868287569E-01  0.10967854778E+00  0.51100000000E-03 0. -1.
</event>
<event>
 8    1  0.1213322E+005  0.1043930E+01  0.7957747E-01            NaN
         13   -1    0    0    0    0  0.00000000000E+00  0.00000000000E+00  0.74505805969E-08  0.10566000000E+00  0.10566000000E+00 0.  1.
     999900   -1    0    0    0    0 -0.00000000000E+00 -0.00000000000E+00 -0.74505805969E-08  0.93827000000E+00  0.93827000000E+00 0. -1.
     999902    2    1    2    0    0  0.72114348346E-02 -0.19290474228E-01  0.82426843725E-02  0.10217473709E+01  0.10215065447E+01 0.  0.
     999903    2    3    3    0    0  0.25998194541E-01 -0.12844494968E+00 -0.21267841956E-01  0.13431370407E+00  0.20343027866E-01 0.  0.
         14    1    1    2    0    0 -0.72114348346E-02  0.19290474228E-01 -0.82426843725E-02  0.22182629104E-01  0.00000000000E+00 0.  1.
     999901    1    3    3    0    0 -0.18786759706E-01  0.10915447545E+00  0.29510526329E-01  0.88743366683E+00  0.88000000000E+00 0.  1.
        -11    1    4    4    0    0  0.86531323754E-02 -0.70467470915E-01 -0.28548216591E-02  0.71055979937E-01  0.51100000000E-03 0.  1.
         11    1    4    4    0    0  0.17345062165E-01 -0.57977478762E-01 -0.18413020297E-01  0.63257724134E-01  0.51100000000E-03 0. -1.
</event>
<event>
 8    1  0.1213322E+005  0.1043930E+01  0.7957747E-01            NaN
         13   -1    0    0    0    0  0.00000000000E+00  0.00000000000E+00  0.74505805969E-08  0.10566000000E+00  0.10566000000E+00 0. -1.
     999900   -1    0    0    0    0 -0.00000000000E+00 -0.00000000000E+00 -0.74505805969E-08  0.93827000000E+00  0.93827000000E+00 0.  1.
     999902    2    1    2    0    0 -0.17565597584E-01 -0.88366604175E-02 -0.13811257779E-01  0.10199011085E+01  0.10196180086E+01 0.  0.
     999903    2    3    3    0    0  0.71673839637E-01  0.99835360156E-01 -0.32181936510E-01  0.12854777392E+00  0.19611596474E-01 0.  0.
         14    1    1    2    0    0  0.17565597584E-01  0.88366604175E-02  0.13811257779E-01  0.24028891511E-01  0.00000000000E+00 0. -1.
     999901    1    3    3    0    0 -0.89239437221E-01 -0.10867202057E+00  0.18370678731E-01  0.89135333457E+00  0.88000000000E+00 0. -1.
        -11    1    4    4    0    0  0.16761618200E-01  0.19871810165E-01  0.10118307409E-02  0.26021637273E-01  0.51100000000E-03 0. -1.
         11    1    4    4    0    0  0.54912221438E-01  0.79963549990E-01 -0.33193767251E-01  0.10252613665E+00  0.51100000000E-03 0.  1.
</event>
<event>
 8    1  0.1213322E+005  0.1043930E+01  0.7957747E-01            NaN
         13   -1    0    0    0    0  0.00000000000E+00  0.00000000000E+00  0.74505805969E-08  0.10566000000E+00  0.10566000000E+00 0.  1.
     999900   -1    0    0    0    0 -0.00000000000E+00 -0.00000000000E+00 -0.74505805969E-08  0.93827000000E+00  0.93827000000E+00 0.  1.
     999902    2    1    2    0    0  0.62769941727E-02 -0.14312159388E-01  0.17378958573E-01  0.10205576496E+01  0.10202899830E+01 0.  0.
     999903    2    3    3    0    0 -0.85208026397E-01 -0.83286989134E-01  0.54194370164E-01  0.13236712350E+00  0.19669654389E-01 0.  0.
         14    1    1    2    0    0 -0.62769941727E-02  0.14312159388E-01 -0.17378958573E-01  0.23372350401E-01  0.00000000000E+00 0. -1.
     999901    1    3    3    0    0  0.91485020570E-01  0.68974829746E-01 -0.36815411591E-01  0.88819052610E+00  0.88000000000E+00 0. -1.
        -11    1    4    4    0    0 -0.62623583988E-01 -0.69076769388E-01  0.48417480578E-01  0.10506106266E+00  0.51100000000E-03 0. -1.
         11    1    4    4    0    0 -0.22584442409E-01 -0.14210219746E-01  0.57768895859E-02  0.27306060838E-01  0.51100000000E-03 0.  1.
</event>
<event>
 8    1  0.1213322E+005  0.1043930E+01  0.7957747E-01            NaN
         13   -1    0    0    0    0  0.00000000000E+00  0.00000000000E+00  0.74505805969E-08  0.10566000000E+00  0.10566000000E+00 0.  1.
     999900   -1    0    0    0    0 -0.00000000000E+00 -0.00000000000E+00 -0.74505805969E-08  0.93827000000E+00  0.93827000000E+00 0.  1.
     999902    2    1    2    0    0 -0.10271427614E-01  0.34799789651E-02  0.21764317721E-01  0.10196133801E+01  0.10193233770E+01 0.  0.
     999903    2    3    3    0    0 -0.65809611588E-01  0.21150498753E-02  0.11376583158E+00  0.13307481269E+00  0.20757237867E-01 0.  0.
         14    1    1    2    0    0  0.10271427614E-01 -0.34799789651E-02 -0.21764317721E-01  0.24316619927E-01  0.00000000000E+00 0. -1.
     999901    1    3    3    0    0  0.55538183974E-01  0.13649290898E-02 -0.92001513856E-01  0.88653856739E+00  0.88000000000E+00 0.  1.
        -11    1    4    4    0    0 -0.19222967606E-01 -0.88553909780E-02  0.34266895062E-01  0.40279295564E-01  0.51100000000E-03 0. -1.
         11    1    4    4    0    0 -0.46586643983E-01  0.10970440853E-01  0.79498936515E-01  0.92795517123E-01  0.51100000000E-03 0.  1.
</event>
<event>
 8    1  0.1213322E+005  0.1043930E+01  0.7957747E-01            NaN
         13   -1    0    0    0    0  0.00000000000E+00  0.00000000000E+00  0.74505805969E-08  0.10566000000E+00  0.10566000000E+00 0. -1.
     999900   -1    0    0    0    0 -0.00000000000E+00 -0.00000000000E+00 -0.74505805969E-08  0.93827000000E+00  0.93827000000E+00 0.  1.
     999902    2    1    2    0    0 -0.67325317739E-02  0.87321898745E-02 -0.31526150837E-01  0.10105312529E+01  0.10099791764E+01 0.  0.
     999903    2    3    3    0    0  0.95260847347E-01  0.41141158181E-01  0.56216711365E-01  0.11971600800E+00  0.20109201874E-01 0.  0.
         14    1    1    2    0    0  0.67325317739E-02 -0.87321898745E-02  0.31526150837E-01  0.33398747142E-01  0.00000000000E+00 0. -1.
     999901    1    3    3    0    0 -0.10199337912E+00 -0.32408968306E-01 -0.87742862202E-01  0.89081524486E+00  0.88000000000E+00 0.  1.
        -11    1    4    4    0    0  0.83841671455E-01  0.39028027775E-01  0.42626831374E-01  0.10183280757E+00  0.51100000000E-03 0.  1.
         11    1    4    4    0    0  0.11419175892E-01  0.21131304054E-02  0.13589879990E-01  0.17883200422E-01  0.51100000000E-03 0. -1.
</event>
<event>
 8    1  0.1253223E+005  0.1043930E+01  0.7957747E-01            NaN
         13   -1    0    0    0    0  0.00000000000E+00  0.00000000000E+00  0.74505805969E-08  0.10566000000E+00  0.10566000000E+00 0. -1.
     999900   -1    0    0    0    0 -0.00000000000E+00 -0.00000000000E+00 -0.74505805969E-08  0.93827000000E+00  0.93827000000E+00 0.  1.
     999902    2    1    2    0    0  0.98525293341E-02 -0.34918661556E-02 -0.22594130434E-01  0.10190350167E+01  0.10187308796E+01 0.  0.
     999903    2    3    3    0    0  0.14919375046E-01 -0.11283868570E+00 -0.62389183494E-01  0.13136050083E+00  0.20199361884E-01 0.  0.
         14    1    1    2    0    0 -0.98525293341E-02  0.34918661556E-02  0.22594130434E-01  0.24894983302E-01  0.00000000000E+00 0. -1.
     999901    1    3    3    0    0 -0.50668457118E-02  0.10934681954E+00  0.39795053060E-01  0.88767451587E+00  0.88000000000E+00 0. -1.
        -11    1    4    4    0    0 -0.32153066577E-02 -0.52016873840E-01 -0.29020406117E-01  0.59653486513E-01  0.51100000000E-03 0. -1.
         11    1    4    4    0    0  0.18134681704E-01 -0.60821811856E-01 -0.33368777377E-01  0.71707014320E-01  0.51100000000E-03 0.  1.
</event>
<event>
 8    1  0.1213322E+005  0.1043930E+01  0.7957747E-01            NaN
         13   -1    0    0    0    0  0.00000000000E+00  0.00000000000E+00  0.74505805969E-08  0.10566000000E+00  0.10566000000E+00 0.  1.
     999900   -1    0    0    0    0 -0.00000000000E+00 -0.00000000000E+00 -0.74505805969E-08  0.93827000000E+00  0.93827000000E+00 0.  1.
     999902    2    1    2    0    0  0.16800746056E-01 -0.56224460576E-02 -0.15653432601E-01  0.10202887877E+01  0.10200148545E+01 0.  0.
     999903    2    3    3    0    0  0.97982295326E-01 -0.54440895314E-01  0.65813948746E-01  0.13146337223E+00  0.19667259807E-01 0.  0.
         14    1    1    2    0    0 -0.16800746056E-01  0.56224460576E-02  0.15653432601E-01  0.23641212319E-01  0.00000000000E+00 0.  1.
     999901    1    3    3    0    0 -0.81181549270E-01  0.48818449256E-01 -0.81467381348E-01  0.88882541545E+00  0.88000000000E+00 0.  1.
        -11    1    4    4    0    0  0.49358230318E-01 -0.37647190511E-01  0.31394276129E-01  0.69565850445E-01  0.51100000000E-03 0.  1.
         11    1    4    4    0    0  0.48624065008E-01 -0.16793704803E-01  0.34419672617E-01  0.61897521784E-01  0.51100000000E-03 0. -1.
</event>
<event>
 8    1  0.1213322E+005  0.1043930E+01  0.7957747E-01            NaN
         13   -1    0    0    0    0  0.00000000000E+00  0.00000000000E+00  0.74505805969E-08  0.10566000000E+00  0.10566000000E+00 0.  1.
     999900   -1    0    0    0    0 -0.00000000000E+00 -0.00000000000E+00 -0.74505805969E-08  0.93827000000E+00  0.93827000000E+00 0.  1.
     999902    2    1    2    0    0 -0.16730161801E-02 -0.23693477300E-01 -0.35394032481E-02  0.10199152707E+01  0.10196325084E+01 0.  0.
     999903    2    3    3    0    0  0.81680432358E-01  0.20073749849E-01  0.96227223220E-01  0.12928810551E+00  0.19521456769E-01 0.  0.
         14    1    1    2    0    0  0.16730161801E-02  0.23693477300E-01  0.35394032481E-02  0.24014729336E-01  0.00000000000E+00 0. -1.
     999901    1    3    3    0    0 -0.83353448538E-01 -0.43767227149E-01 -0.99766626468E-01  0.89062716516E+00  0.88000000000E+00 0.  1.
        -11    1    4    4    0    0  0.42195183917E-01  0.11794816653E-02  0.41385541591E-01  0.59117247032E-01  0.51100000000E-03 0.  1.
         11    1    4    4    0    0  0.39485248441E-01  0.18894268184E-01  0.54841681628E-01  0.70170858477E-01  0.51100000000E-03 0. -1.
</event>
<event>
 8    1  0.1213322E+005  0.1043930E+01  0.7957747E-01            NaN
         13   -1    0    0    0    0  0.00000000000E+00  0.00000000000E+00  0.74505805969E-08  0.10566000000E+00  0.10566000000E+00 0.  1.
     999900   -1    0    0    0    0 -0.00000000000E+00 -0.00000000000E+00 -0.74505805969E-08  0.93827000000E+00  0.93827000000E+00 0. -1.
     999902    2    1    2    0    0  0.76426571550E-02 -0.46982376354E-02 -0.21961857360E-01  0.10202064500E+01  0.10199305828E+01 0.  0.
     999903    2    3    3    0    0  0.54600185507E-02 -0.12233037128E+00 -0.42443726560E-01  0.13214024204E+00  0.25788410212E-01 0.  0.
         14    1    1    2    0    0 -0.76426571550E-02  0.46982376354E-02  0.21961857360E-01  0.23723549987E-01  0.00000000000E+00 0.  1.
     999901    1    3    3    0    0  0.21826386044E-02  0.11763213365E+00  0.20481869200E-01  0.88806620797E+00  0.88000000000E+00 0. -1.
        -11    1    4    4    0    0  0.73219218071E-02 -0.41056993247E-01 -0.30969934634E-02  0.41822717785E-01  0.51100000000E-03 0.  1.
         11    1    4    4    0    0 -0.18619032564E-02 -0.81273378036E-01 -0.39346733097E-01  0.90317524255E-01  0.51100000000E-03 0. -1.
</event>
<event>
 8    1  0.1213322E+005  0.1043930E+01  0.7957747E-01            NaN
         13   -1    0    0    0    0  0.00000000000E+00  0.00000000000E+00  0.74505805969E-08  0.10566000000E+00  0.10566000000E+00 0. -1.
     999900   -1    0    0    0    0 -0.00000000000E+00 -0.00000000000E+00 -0.74505805969E-08  0.93827000000E+00  0.93827000000E+00 0.  1.
     999902    2    1    2    0    0 -0.18037415455E-01  0.12755364686E-01  0.37972751837E-02  0.10215142247E+01  0.10212682528E+01 0.  0.
     999903    2    3    3    0    0 -0.39815007680E-01 -0.67683416194E-01  0.10401397139E+00  0.13191428808E+00  0.20400820822E-01 0.  0.
         14    1    1    2    0    0  0.18037415455E-01 -0.12755364686E-01 -0.37972751837E-02  0.22415775324E-01  0.00000000000E+00 0.  1.
     999901    1    3    3    0    0  0.21777592225E-01  0.80438780879E-01 -0.10021669621E+00  0.88959993660E+00  0.88000000000E+00 0.  1.
        -11    1    4    4    0    0 -0.21429682177E-01 -0.53214978485E-01  0.68039304960E-01  0.88998164890E-01  0.51100000000E-03 0.  1.
         11    1    4    4    0    0 -0.18385325504E-01 -0.14468437709E-01  0.35974666434E-01  0.42916123190E-01  0.51100000000E-03 0. -1.
</event>
<event>
 8    1  0.1213322E+005  0.1043930E+01  0.7957747E-01            NaN
         13   -1    0    0    0    0  0.00000000000E+00  0.00000000000E+00  0.74505805969E-08  0.10566000000E+00  0.10566000000E+00 0.  1.
     999900   -1    0    0    0    0 -0.00000000000E+00 -0.00000000000E+00 -0.74505805969E-08  0.93827000000E+00  0.93827000000E+00 0.  1.
     999902    2    1    2    0    0 -0.20483719313E-01 -0.77890166004E-02 -0.95245157542E-02  0.10200350646E+01  0.10197551496E+01 0.  0.
     999903    2    3    3    0    0  0.89045495501E-01  0.46025837595E-01 -0.78723104498E-01  0.12892276411E+00  0.19397781556E-01 0.  0.
         14    1    1    2    0    0  0.20483719313E-01  0.77890166004E-02  0.95245157542E-02  0.23894935381E-01  0.00000000000E+00 0. -1.
     999901    1    3    3    0    0 -0.10952921481E+00 -0.53814854196E-01  0.69198588744E-01  0.89111230051E+00  0.88000000000E+00 0. -1.
        -11    1    4    4    0    0  0.72234682628E-01  0.29125251124E-01 -0.64752918880E-01  0.10128835694E+00  0.51100000000E-03 0. -1.
         11    1    4    4    0    0  0.16810812873E-01  0.16900586471E-01 -0.13970185619E-01  0.27634407172E-01  0.51100000000E-03 0.  1.
</event>
<event>
 8    1  0.1213322E+005  0.1043930E+01  0.7957747E-01            NaN
         13   -1    0    0    0    0  0.00000000000E+00  0.00000000000E+00  0.74505805969E-08  0.10566000000E+00  0.10566000000E+00 0. -1.
     999900   -1    0    0    0    0 -0.00000000000E+00 -0.00000000000E+00 -0.74505805969E-08  0.93827000000E+00  0.93827000000E+00 0. -1.
     999902    2    1    2    0    0 -0.87976373476E-02 -0.22056629045E-01  0.32882936376E-02  0.10199569697E+01  0.10196752002E+01 0.  0.
     999903    2    3    3    0    0  0.44910465208E-01 -0.10740420245E+00 -0.58563219922E-01  0.13204122013E+00  0.21274879510E-01 0.  0.
         14    1    1    2    0    0  0.87976373476E-02  0.22056629045E-01 -0.32882936376E-02  0.23973030321E-01  0.00000000000E+00 0. -1.
     999901    1    3    3    0    0 -0.53708102555E-01  0.85347573401E-01  0.61851513559E-01  0.88791574955E+00  0.88000000000E+00 0. -1.
        -11    1    4    4    0    0  0.30508054870E-01 -0.58579163048E-01 -0.42978947252E-01  0.78801718149E-01  0.51100000000E-03 0.  1.
         11    1    4    4    0    0  0.14402410338E-01 -0.48825039397E-01 -0.15584272669E-01  0.53239501982E-01  0.51100000000E-03 0. -1.
</event>
<event>
 8    1  0.1213322E+005  0.1043930E+01  0.7957747E-01            NaN
         13   -1    0    0    0    0  0.00000000000E+00  0.00000000000E+00  0.74505805969E-08  0.10566000000E+00  0.10566000000E+00 0. -1.
     999900   -1    0    0    0    0 -0.00000000000E+00 -0.00000000000E+00 -0.74505805969E-08  0.93827000000E+00  0.93827000000E+00 0. -1.
     999902    2    1    2    0    0 -0.12256548194E-01  0.15185978008E-01 -0.16552119806E-01  0.10183407528E+01  0.10180191940E+01 0.  0.
     999903    2    3    3    0    0  0.12335506922E+00 -0.14104930173E-01  0.18282138907E-01  0.12679047736E+00  0.18060077185E-01 0.  0.
         14    1    1    2    0    0  0.12256548194E-01 -0.15185978008E-01  0.16552119806E-01  0.25589247190E-01  0.00000000000E+00 0. -1.
     999901    1    3    3    0    0 -0.13561161741E+00  0.29290908181E-01 -0.34834258712E-01  0.89155027545E+00  0.88000000000E+00 0. -1.
        -11    1    4    4    0    0  0.50133049420E-01 -0.68842651382E-02  0.16365619664E-01  0.53186562012E-01  0.51100000000E-03 0.  1.
         11    1    4    4    0    0  0.73222019800E-01 -0.72206650346E-02  0.19165192429E-02  0.73603915345E-01  0.51100000000E-03 0. -1.
</event>
<event>
 8    1  0.1213322E+005  0.1043930E+01  0.7957747E-01            NaN
         13   -1    0    0    0    0  0.00000000000E+00  0.00000000000E+00  0.74505805969E-08  0.10566000000E+00  0.10566000000E+00 0. -1.
     999900   -1    0    0    0    0 -0.00000000000E+00 -0.00000000000E+00 -0.74505805969E-08  0.93827000000E+00  0.93827000000E+00 0.  1.
     999902    2    1    2    0    0  0.15711111619E-02  0.62141006581E-02 -0.22999531808E-01  0.10200540309E+01  0.10197745653E+01 0.  0.
     999903    2    3    3    0    0  0.51758398731E-01  0.82089106608E-01  0.82782568946E-01  0.12906265428E+00  0.19663716487E-01 0.  0.
         14    1    1    2    0    0 -0.15711111619E-02 -0.62141006581E-02  0.22999531808E-01  0.23875969104E-01  0.00000000000E+00 0. -1.
     999901    1    3    3    0    0 -0.50187287569E-01 -0.75875005950E-01 -0.10578210075E+00  0.89099137661E+00  0.88000000000E+00 0.  1.
        -11    1    4    4    0    0  0.22431709559E-01  0.35819475099E-01  0.48956946206E-01  0.64678126851E-01  0.51100000000E-03 0. -1.
         11    1    4    4    0    0  0.29326689172E-01  0.46269631509E-01  0.33825622740E-01  0.64384527431E-01  0.51100000000E-03 0.  1.
</event>
<event>
 8    1  0.1213322E+005  0.1043930E+01  0.7957747E-01            NaN
         13   -1    0    0    0    0  0.00000000000E+00  0.00000000000E+00  0.74505805969E-08  0.10566000000E+00  0.10566000000E+00 0. -1.
     999900   -1    0    0    0    0 -0.00000000000E+00 -0.00000000000E+00 -0.74505805969E-08  0.93827000000E+00  0.93827000000E+00 0.  1.
     999902    2    1    2    0    0 -0.50207782604E-02  0.33042910273E-02  0.22855446001E-01  0.10202974384E+01  0.10200237080E+01 0.  0.
     999903    2    3    3    0    0  0.76741027486E-01 -0.77017480036E-01  0.71138311940E-01  0.13155235974E+00  0.20603067662E-01 0.  0.
         14    1    1    2    0    0  0.50207782604E-02 -0.33042910273E-02 -0.22855446001E-01  0.23632561550E-01  0.00000000000E+00 0.  1.
     999901    1    3    3    0    0 -0.81761805746E-01  0.80321771064E-01 -0.48282865939E-01  0.88874507871E+00  0.88000000000E+00 0. -1.
        -11    1    4    4    0    0  0.44016630314E-01 -0.46545271541E-01  0.29804951295E-01  0.70657782938E-01  0.51100000000E-03 0. -1.
         11    1    4    4    0    0  0.32724397172E-01 -0.30472208495E-01  0.41333360644E-01  0.60894576802E-01  0.51100000000E-03 0.  1.
</event>
<event>
 8    1  0.1213322E+005  0.1043930E+01  0.7957747E-01            NaN
         13   -1    0    0    0    0  0.00000000000E+00  0.00000000000E+00  0.74505805969E-08  0.10566000000E+00  0.10566000000E+00 0. -1.
     999900   -1    0    0    0    0 -0.00000000000E+00 -0.00000000000E+00 -0.74505805969E-08  0.93827000000E+00  0.93827000000E+00 0. -1.
     999902    2    1    2    0    0  0.13647091599E-01  0.13881427623E-01 -0.16116212961E-01  0.10186580895E+01  0.10183445555E+01 0.  0.
     999903    2    3    3    0    0  0.49348582990E-01 -0.73411587726E-01  0.89283970976E-01  0.12736472261E+00  0.20630105130E-01 0.  0.
         14    1    1    2    0    0 -0.13647091599E-01 -0.13881427623E-01  0.16116212961E-01  0.25271910537E-01  0.00000000000E+00 0. -1.
     999901    1    3    3    0    0 -0.35701491391E-01  0.87293015349E-01 -0.10540018394E+00  0.89129336685E+00  0.88000000000E+00 0. -1.
        -11    1    4    4    0    0  0.34738752700E-01 -0.64754116353E-01  0.67898076338E-01  0.10005141886E+00  0.51100000000E-03 0.  1.
         11    1    4    4    0    0  0.14609830289E-01 -0.86574713733E-02  0.21385894638E-01  0.27313303757E-01  0.51100000000E-03 0. -1.
</event>
<event>
 8    1  0.1213322E+005  0.1043930E+01  0.7957747E-01            NaN
         13   -1    0    0    0    0  0.00000000000E+00  0.00000000000E+00  0.74505805969E-08  0.10566000000E+00  0.10566000000E+00 0. -1.
     999900   -1    0    0    0    0 -0.00000000000E+00 -0.00000000000E+00 -0.74505805969E-08  0.93827000000E+00  0.93827000000E+00 0.  1.
     999902    2    1    2    0    0 -0.23147206812E-01  0.59256519058E-02 -0.54580326039E-02  0.10194208863E+01  0.10191262173E+01 0.  0.
     999903    2    3    3    0    0 -0.40820392492E-01  0.10904519713E+00  0.57083295114E-01  0.13101928807E+00  0.18718755390E-01 0.  0.
         14    1    1    2    0    0  0.23147206812E-01 -0.59256519058E-02  0.54580326039E-02  0.24509113685E-01  0.00000000000E+00 0.  1.
     999901    1    3    3    0    0  0.17673185679E-01 -0.10311954523E+00 -0.62541327718E-01  0.88840159825E+00  0.88000000000E+00 0.  1.
        -11    1    4    4    0    0  0.29795814643E-03  0.18066070913E-01  0.94759167958E-02  0.20408964143E-01  0.51100000000E-03 0. -1.
         11    1    4    4    0    0 -0.41118350638E-01  0.90979126219E-01  0.47607378318E-01  0.11061032392E+00  0.51100000000E-03 0.  1.
</event>
<event>
 8    1  0.1213322E+005  0.1043930E+01  0.7957747E-01            NaN
         13   -1    0    0    0    0  0.00000000000E+00  0.00000000000E+00  0.74505805969E-08  0.10566000000E+00  0.10566000000E+00 0.  1.
     999900   -1    0    0    0    0 -0.00000000000E+00 -0.00000000000E+00 -0.74505805969E-08  0.93827000000E+00  0.93827000000E+00 0. -1.
     999902    2    1    2    0    0  0.14564925445E-01 -0.18686351308E-01 -0.59327168860E-02  0.10195063658E+01  0.10192137734E+01 0.  0.
     999903    2    3    3    0    0  0.52768772425E-01 -0.63307125826E-01 -0.10168899992E+00  0.13236499420E+00  0.19685107624E-01 0.  0.
         14    1    1    2    0    0 -0.14564925445E-01  0.18686351308E-01  0.59327168860E-02  0.24423634211E-01  0.00000000000E+00 0.  1.
     999901    1    3    3    0    0 -0.38203846980E-01  0.44620774518E-01  0.95756283030E-01  0.88714137159E+00  0.88000000000E+00 0.  1.
        -11    1    4    4    0    0  0.15900960829E-01 -0.33456113345E-01 -0.49642899329E-01  0.61942155680E-01  0.51100000000E-03 0. -1.
         11    1    4    4    0    0  0.36867811596E-01 -0.29851012481E-01 -0.52046100587E-01  0.70422838521E-01  0.51100000000E-03 0.  1.
</event>
<event>
 8    1  0.1213322E+005  0.1043930E+01  0.7957747E-01            NaN
         13   -1    0    0    0    0  0.00000000000E+00  0.00000000000E+00  0.74505805969E-08  0.10566000000E+00  0.10566000000E+00 0. -1.
     999900   -1    0    0    0    0 -0.00000000000E+00 -0.00000000000E+00 -0.74505805969E-08  0.93827000000E+00  0.93827000000E+00 0.  1.
     999902    2    1    2    0    0  0.65236023114E-02 -0.18810952732E-01 -0.13417860430E-01  0.10199206621E+01  0.10196380282E+01 0.  0.
     999903    2    3    3    0    0  0.10303006852E+00  0.72681943756E-01 -0.22994664030E-01  0.12987787472E+00  0.21015418171E-01 0.  0.
         14    1    1    2    0    0 -0.65236023114E-02  0.18810952732E-01  0.13417860430E-01  0.24009337940E-01  0.00000000000E+00 0.  1.
     999901    1    3    3    0    0 -0.96506466207E-01 -0.91492896488E-01  0.95768036001E-02  0.89004278734E+00  0.88000000000E+00 0. -1.
        -11    1    4    4    0    0  0.76991394409E-01  0.63935194890E-01 -0.14512080467E-01  0.10112490079E+00  0.51100000000E-03 0.  1.
         11    1    4    4    0    0  0.26038674110E-01  0.87467488660E-02 -0.84825835631E-02  0.28752973933E-01  0.51100000000E-03 0. -1.
</event>
<event>
 8    1  0.1213322E+005  0.1043930E+01  0.7957747E-01            NaN
         13   -1    0    0    0    0  0.00000000000E+00  0.00000000000E+00  0.74505805969E-08  0.10566000000E+00  0.10566000000E+00 0. -1.
     999900   -1    0    0    0    0 -0.00000000000E+00 -0.00000000000E+00 -0.74505805969E-08  0.93827000000E+00  0.93827000000E+00 0. -1.
     999902    2    1    2    0    0 -0.13367374121E-01 -0.65344773290E-02  0.18280923766E-01  0.10203592924E+01  0.10200870096E+01 0.  0.
     999903    2    3    3    0    0 -0.11010819547E-01  0.12045379433E+00 -0.41152267370E-01  0.12925667274E+00  0.19581205862E-01 0.  0.
         14    1    1    2    0    0  0.13367374121E-01  0.65344773290E-02 -0.18280923766E-01  0.23570707639E-01  0.00000000000E+00 0.  1.
     999901    1    3    3    0    0 -0.23565545744E-02 -0.12698827166E+00  0.59433191136E-01  0.89110261962E+00  0.88000000000E+00 0.  1.
        -11    1    4    4    0    0 -0.72293369842E-02  0.86171908947E-01 -0.38506093588E-01  0.94661721774E-01  0.51100000000E-03 0. -1.
         11    1    4    4    0    0 -0.37814825624E-02  0.34281885381E-01 -0.26461737817E-02  0.34594950966E-01  0.51100000000E-03 0.  1.
</event>
<event>
 8    1  0.1213322E+005  0.1043930E+01  0.7957747E-01            NaN
         13   -1    0    0    0    0  0.00000000000E+00  0.00000000000E+00  0.74505805969E-08  0.10566000000E+00  0.10566000000E+00 0. -1.
     999900   -1    0    0    0    0 -0.00000000000E+00 -0.00000000000E+00 -0.74505805969E-08  0.93827000000E+00  0.93827000000E+00 0.  1.
     999902    2    1    2    0    0 -0.19985554384E-01  0.14353736143E-01 -0.80069946579E-04  0.10193239329E+01  0.10190268994E+01 0.  0.
     999903    2    3    3    0    0  0.11719870535E+00  0.18149253525E-01  0.42750600833E-01  0.12765785562E+00  0.20099310676E-01 0.  0.
         14    1    1    2    0    0  0.19985554384E-01 -0.14353736143E-01  0.80069946579E-04  0.24606067067E-01  0.00000000000E+00 0. -1.
     999901    1    3    3    0    0 -0.13718425974E+00 -0.37955173823E-02 -0.42830670780E-01  0.89166607731E+00  0.88000000000E+00 0.  1.
        -11    1    4    4    0    0  0.17274282885E-01  0.99796610687E-02  0.87500225726E-02  0.21790330430E-01  0.51100000000E-03 0. -1.
         11    1    4    4    0    0  0.99924422469E-01  0.81695924567E-02  0.34000578261E-01  0.10586752519E+00  0.51100000000E-03 0.  1.
</event>
<event>
 8    1  0.1213322E+005  0.1043930E+01  0.7957747E-01            NaN
         13   -1    0    0    0    0  0.00000000000E+00  0.00000000000E+00  0.74505805969E-08  0.10566000000E+00  0.10566000000E+00 0. -1.
     999900   -1    0    0    0    0 -0.00000000000E+00 -0.00000000000E+00 -0.74505805969E-08  0.93827000000E+00  0.93827000000E+00 0. -1.
     999902    2    1    2    0    0 -0.15621966004E-01 -0.17270830657E-01  0.37828097245E-02  0.10203368429E+01  0.10200640352E+01 0.  0.
     999903    2    3    3    0    0  0.93341276666E-01  0.77499025620E-01 -0.34580556275E-01  0.12774171531E+00  0.20085767508E-01 0.  0.
         14    1    1    2    0    0  0.15621966004E-01  0.17270830657E-01 -0.37828097245E-02  0.23593157119E-01  0.00000000000E+00 0. -1.
     999901    1    3    3    0    0 -0.10896324267E+00 -0.94769856277E-01  0.38363366000E-01  0.89259512757E+00  0.88000000000E+00 0. -1.
        -11    1    4    4    0    0  0.42028307019E-01  0.47454662822E-01 -0.15070579758E-01  0.65159090768E-01  0.51100000000E-03 0. -1.
         11    1    4    4    0    0  0.51312969647E-01  0.30044362798E-01 -0.19509976517E-01  0.62582624543E-01  0.51100000000E-03 0.  1.
</event>
<event>
 8    1  0.1213322E+005  0.1043930E+01  0.7957747E-01            NaN
         13   -1    0    0    0    0  0.00000000000E+00  0.00000000000E+00  0.74505805969E-08  0.10566000000E+00  0.10566000000E+00 0. -1.
     999900   -1    0    0    0    0 -0.00000000000E+00 -0.00000000000E+00 -0.74505805969E-08  0.93827000000E+00  0.93827000000E+00 0.  1.
     999902    2    1    2    0    0 -0.25659188405E-02 -0.90600663843E-02  0.10264235966E-01  0.10300007760E+01  0.10299065857E+01 0.  0.
     999903    2    3    3    0    0 -0.94575681100E-01  0.82110912059E-01  0.57574851701E-01  0.13926162333E+00  0.19803405020E-01 0.  0.
         14    1    1    2    0    0  0.25659188405E-02  0.90600663843E-02 -0.10264235966E-01  0.13929224040E-01  0.00000000000E+00 0.  1.
     999901    1    3    3    0    0  0.92009762259E-01 -0.91170978443E-01 -0.47310615735E-01  0.89073915263E+00  0.88000000000E+00 0.  1.
        -11    1    4    4    0    0 -0.32733532304E-01  0.38486009326E-01  0.16506082601E-01  0.53154199597E-01  0.51100000000E-03 0. -1.
         11    1    4    4    0    0 -0.61842148796E-01  0.43624902732E-01  0.41068769100E-01  0.86107423736E-01  0.51100000000E-03 0.  1.
</event>
<event>
 8    1  0.1213322E+005  0.1043930E+01  0.7957747E-01            NaN
         13   -1    0    0    0    0  0.00000000000E+00  0.00000000000E+00  0.74505805969E-08  0.10566000000E+00  0.10566000000E+00 0. -1.
     999900   -1    0    0    0    0 -0.00000000000E+00 -0.00000000000E+00 -0.74505805969E-08  0.93827000000E+00  0.93827000000E+00 0.  1.
     999902    2    1    2    0    0  0.43964668871E-02 -0.13603788422E-01  0.20201062903E-01  0.10191817693E+01  0.10188812511E+01 0.  0.
     999903    2    3    3    0    0 -0.40631333575E-01 -0.55880393037E-01 -0.10595039453E+00  0.12804260826E+00  0.19897231867E-01 0.  0.
         14    1    1    2    0    0 -0.43964668871E-02  0.13603788422E-01 -0.20201062903E-01  0.24748230703E-01  0.00000000000E+00 0.  1.
     999901    1    3    3    0    0  0.45027800462E-01  0.42276604615E-01  0.12615145743E+00  0.89113916103E+00  0.88000000000E+00 0. -1.
        -11    1    4    4    0    0 -0.19578028172E-01 -0.25406636407E-01 -0.67038875235E-01  0.74318693977E-01  0.51100000000E-03 0.  1.
         11    1    4    4    0    0 -0.21053305402E-01 -0.30473756630E-01 -0.38911519296E-01  0.53723914288E-01  0.51100000000E-03 0. -1.
</event>
<event>
 8    1  0.1213322E+005  0.1043930E+01  0.7957747E-01            NaN
         13   -1    0    0    0    0  0.00000000000E+00  0.00000000000E+00  0.74505805969E-08  0.10566000000E+00  0.10566000000E+00 0.  1.
     999900   -1    0    0    0    0 -0.00000000000E+00 -0.00000000000E+00 -0.74505805969E-08  0.93827000000E+00  0.93827000000E+00 0.  1.
     999902    2    1    2    0    0  0.16174940180E-01 -0.52601643370E-02 -0.16587078218E-01  0.10201722816E+01  0.10198956099E+01 0.  0.
     999903    2    3    3    0    0 -0.77825937310E-01 -0.10055228707E+00 -0.18700645471E-01  0.13004800896E+00  0.19877915858E-01 0.  0.
         14    1    1    2    0    0 -0.16174940180E-01  0.52601643370E-02  0.16587078218E-01  0.23757718377E-01  0.00000000000E+00 0.  1.
     999901    1    3    3    0    0  0.94000877491E-01  0.95292122734E-01  0.21135672526E-02  0.89012427267E+00  0.88000000000E+00 0.  1.
        -11    1    4    4    0    0 -0.66850671973E-02 -0.13963105669E-01 -0.81041643994E-02  0.17481334187E-01  0.51100000000E-03 0. -1.
         11    1    4    4    0    0 -0.71140870113E-01 -0.86589181402E-01 -0.10596481071E-01  0.11256667477E+00  0.51100000000E-03 0.  1.
</event>
<event>
 8    1  0.1213322E+005  0.1043930E+01  0.7957747E-01            NaN
         13   -1    0    0    0    0  0.00000000000E+00  0.00000000000E+00  0.74505805969E-08  0.10566000000E+00  0.10566000000E+00 0. -1.
     999900   -1    0    0    0    0 -0.00000000000E+00 -0.00000000000E+00 -0.74505805969E-08  0.93827000000E+00  0.93827000000E+00 0.  1.
     999902    2    1    2    0    0 -0.76381380484E-02  0.18648478575E-01 -0.13557657438E-01  0.10196417934E+01  0.10193524757E+01 0.  0.
     999903    2    3    3    0    0  0.15340314123E-01  0.27852008312E-01 -0.12664627678E+00  0.13205982530E+00  0.19734701207E-01 0.  0.
         14    1    1    2    0    0  0.76381380484E-02 -0.18648478575E-01  0.13557657438E-01  0.24288206628E-01  0.00000000000E+00 0. -1.
     999901    1    3    3    0    0 -0.22978452172E-01 -0.92035297370E-02  0.11308861934E+00  0.88758196807E+00  0.88000000000E+00 0.  1.
        -11    1    4    4    0    0  0.75235147561E-02  0.20697963062E-01 -0.49407967801E-01  0.54096370973E-01  0.51100000000E-03 0.  1.
         11    1    4    4    0    0  0.78167993671E-02  0.71540452499E-02 -0.77238308977E-01  0.77963454326E-01  0.51100000000E-03 0. -1.
</event>
<event>
 8    1  0.1213322E+005  0.1043930E+01  0.7957747E-01            NaN
         13   -1    0    0    0    0  0.00000000000E+00  0.00000000000E+00  0.74505805969E-08  0.10566000000E+00  0.10566000000E+00 0. -1.
     999900   -1    0    0    0    0 -0.00000000000E+00 -0.00000000000E+00 -0.74505805969E-08  0.93827000000E+00  0.93827000000E+00 0. -1.
     999902    2    1    2    0    0  0.23144346620E-01 -0.13478412540E-02 -0.56798415720E-02  0.10200608137E+01  0.10197815087E+01 0.  0.
     999903    2    3    3    0    0 -0.59420700158E-01 -0.81483280098E-01  0.77371962744E-01  0.12869316913E+00  0.20128751047E-01 0.  0.
         14    1    1    2    0    0 -0.23144346620E-01  0.13478412540E-02  0.56798415720E-02  0.23869186346E-01  0.00000000000E+00 0. -1.
     999901    1    3    3    0    0  0.82565046778E-01  0.80135438844E-01 -0.83051804316E-01  0.89136764453E+00  0.88000000000E+00 0. -1.
        -11    1    4    4    0    0 -0.25743614228E-01 -0.40223244098E-01  0.24627607949E-01  0.53734748846E-01  0.51100000000E-03 0. -1.
         11    1    4    4    0    0 -0.33677085930E-01 -0.41260035999E-01  0.52744354795E-01  0.74958420282E-01  0.51100000000E-03 0.  1.
</event>
<event>
 8    1  0.1213322E+005  0.1043930E+01  0.7957747E-01            NaN
         13   -1    0    0    0    0  0.00000000000E+00  0.00000000000E+00  0.74505805969E-08  0.10566000000E+00  0.10566000000E+00 0.  1.
     999900   -1    0    0    0    0 -0.00000000000E+00 -0.00000000000E+00 -0.74505805969E-08  0.93827000000E+00  0.93827000000E+00 0. -1.
     999902    2    1    2    0    0  0.22299756063E-01  0.60221678266E-02  0.16395294126E-02  0.10207732800E+01  0.10205105856E+01 0.  0.
     999903    2    3    3    0    0  0.38954243920E-01  0.11797522299E+00  0.41825851614E-01  0.13261462353E+00  0.20041211313E-01 0.  0.
         14    1    1    2    0    0 -0.22299756063E-01 -0.60221678266E-02 -0.16395294126E-02  0.23156720028E-01  0.00000000000E+00 0.  1.
     999901    1    3    3    0    0 -0.16654487857E-01 -0.11195305516E+00 -0.40186322202E-01  0.88815865645E+00  0.88000000000E+00 0.  1.
        -11    1    4    4    0    0  0.11973654891E-01  0.42160215481E-01  0.24795230958E-01  0.50357886970E-01  0.51100000000E-03 0. -1.
         11    1    4    4    0    0  0.26980589029E-01  0.75815007509E-01  0.17030620656E-01  0.82256736556E-01  0.51100000000E-03 0.  1.
</event>
<event>
 8    1  0.1213322E+005  0.1043930E+01  0.7957747E-01            NaN
         13   -1    0    0    0    0  0.00000000000E+00  0.00000000000E+00  0.74505805969E-08  0.10566000000E+00  0.10566000000E+00 0. -1.
     999900   -1    0    0    0    0 -0.00000000000E+00 -0.00000000000E+00 -0.74505805969E-08  0.93827000000E+00  0.93827000000E+00 0. -1.
     999902    2    1    2    0    0 -0.44423929080E-02  0.14346894266E-01  0.18536821800E-01  0.10200724647E+01  0.10197934355E+01 0.  0.
     999903    2    3    3    0    0 -0.12039547010E-01 -0.14230912675E-01 -0.12495491073E+00  0.12796020429E+00  0.20312917086E-01 0.  0.
         14    1    1    2    0    0  0.44423929080E-02 -0.14346894266E-01 -0.18536821800E-01  0.23857535335E-01  0.00000000000E+00 0.  1.
     999901    1    3    3    0    0  0.75971541021E-02  0.28577806941E-01  0.14349173253E+00  0.89211226037E+00  0.88000000000E+00 0.  1.
        -11    1    4    4    0    0 -0.13089328753E-01 -0.76694087572E-03 -0.78122881875E-01  0.79217198379E-01  0.51100000000E-03 0. -1.
         11    1    4    4    0    0  0.10497817425E-02 -0.13463971800E-01 -0.46832028852E-01  0.48743005916E-01  0.51100000000E-03 0.  1.
</event>
<event>
 8    1  0.1213322E+005  0.1043930E+01  0.7957747E-01            NaN
         13   -1    0    0    0    0  0.00000000000E+00  0.00000000000E+00  0.74505805969E-08  0.10566000000E+00  0.10566000000E+00 0.  1.
     999900   -1    0    0    0    0 -0.00000000000E+00 -0.00000000000E+00 -0.74505805969E-08  0.93827000000E+00  0.93827000000E+00 0. -1.
     999902    2    1    2    0    0 -0.16711939705E-01  0.18470535549E-01 -0.11170696808E-01  0.10166310242E+01  0.10162644367E+01 0.  0.
     999903    2    3    3    0    0 -0.10266567502E+00  0.49576731795E-01 -0.60338422878E-01  0.13053108326E+00  0.19988628234E-01 0.  0.
         14    1    1    2    0    0  0.16711939705E-01 -0.18470535549E-01  0.11170696808E-01  0.27298975793E-01  0.00000000000E+00 0.  1.
     999901    1    3    3    0    0  0.85953735315E-01 -0.31106196246E-01  0.49167726070E-01  0.88609994095E+00  0.88000000000E+00 0.  1.
        -11    1    4    4    0    0 -0.49575439673E-01  0.17384619925E-01 -0.18675252857E-01  0.55758187013E-01  0.51100000000E-03 0.  1.
         11    1    4    4    0    0 -0.53090235347E-01  0.32192111870E-01 -0.41663170021E-01  0.74772896246E-01  0.51100000000E-03 0. -1.
</event>
<event>
 8    1  0.1213322E+005  0.1043930E+01  0.7957747E-01            NaN
         13   -1    0    0    0    0  0.00000000000E+00  0.00000000000E+00  0.74505805969E-08  0.10566000000E+00  0.10566000000E+00 0. -1.
     999900   -1    0    0    0    0 -0.00000000000E+00 -0.00000000000E+00 -0.74505805969E-08  0.93827000000E+00  0.93827000000E+00 0. -1.
     999902    2    1    2    0    0  0.99391931514E-03 -0.22026714911E-01 -0.92373998253E-02  0.10200240677E+01  0.10197438919E+01 0.  0.
     999903    2    3    3    0    0  0.11085601133E-01  0.83213873478E-01 -0.96692741819E-01  0.12939178645E+00  0.18582486107E-01 0.  0.
         14    1    1    2    0    0 -0.99391931514E-03  0.22026714911E-01  0.92373998253E-02  0.23905932337E-01  0.00000000000E+00 0.  1.
     999901    1    3    3    0    0 -0.10091681818E-01 -0.10524058839E+00  0.87455341993E-01  0.89063228121E+00  0.88000000000E+00 0.  1.
        -11    1    4    4    0    0  0.82812193932E-02  0.23636080517E-01 -0.18982278675E-01  0.31429777625E-01  0.51100000000E-03 0.  1.
         11    1    4    4    0    0  0.28043817400E-02  0.59577792960E-01 -0.77710463144E-01  0.97962008830E-01  0.51100000000E-03 0. -1.
</event>
<event>
 8    1  0.1213322E+005  0.1043930E+01  0.7957747E-01            NaN
         13   -1    0    0    0    0  0.00000000000E+00  0.00000000000E+00  0.74505805969E-08  0.10566000000E+00  0.10566000000E+00 0.  1.
     999900   -1    0    0    0    0 -0.00000000000E+00 -0.00000000000E+00 -0.74505805969E-08  0.93827000000E+00  0.93827000000E+00 0. -1.
     999902    2    1    2    0    0  0.66503834306E-02 -0.35283488167E-02  0.22171605224E-01  0.10205151132E+01  0.10202464601E+01 0.  0.
     999903    2    3    3    0    0  0.95268583147E-01 -0.81332691869E-01  0.38451874037E-01  0.13249948932E+00  0.19658543993E-01 0.  0.
         14    1    1    2    0    0 -0.66503834306E-02  0.35283488167E-02 -0.22171605224E-01  0.23414886790E-01  0.00000000000E+00 0. -1.
     999901    1    3    3    0    0 -0.88618199716E-01  0.77804343052E-01 -0.16280268813E-01  0.88801562389E+00  0.88000000000E+00 0. -1.
        -11    1    4    4    0    0  0.44069110908E-01 -0.46426011086E-01  0.27033129313E-01  0.69487497027E-01  0.51100000000E-03 0.  1.
         11    1    4    4    0    0  0.51199472239E-01 -0.34906680783E-01  0.11418744724E-01  0.63011992294E-01  0.51100000000E-03 0. -1.
</event>
<event>
 8    1  0.1213322E+005  0.1043930E+01  0.7957747E-01            NaN
         13   -1    0    0    0    0  0.00000000000E+00  0.00000000000E+00  0.74505805969E-08  0.10566000000E+00  0.10566000000E+00 0.  1.
     999900   -1    0    0    0    0 -0.00000000000E+00 -0.00000000000E+00 -0.74505805969E-08  0.93827000000E+00  0.93827000000E+00 0. -1.
     999902    2    1    2    0    0  0.13688241700E-01  0.18289853911E-01 -0.41142291511E-02  0.10207176413E+01  0.10204536685E+01 0.  0.
     999903    2    3    3    0    0 -0.10844751218E+00 -0.13824754228E-01  0.66288831377E-01  0.12891885153E+00  0.16549150625E-01 0.  0.
         14    1    1    2    0    0 -0.13688241700E-01 -0.18289853911E-01  0.41142291511E-02  0.23212358744E-01  0.00000000000E+00 0.  1.
     999901    1    3    3    0    0  0.12213575388E+00  0.32114608139E-01 -0.70403060529E-01  0.89179878973E+00  0.88000000000E+00 0. -1.
        -11    1    4    4    0    0 -0.27565604553E-01  0.34755408996E-02  0.14713832049E-01  0.31443598927E-01  0.51100000000E-03 0.  1.
         11    1    4    4    0    0 -0.80881907626E-01 -0.17300295128E-01  0.51574999328E-01  0.97475252600E-01  0.51100000000E-03 0. -1.
</event>
<event>
 8    1  0.1213322E+005  0.1043930E+01  0.7957747E-01            NaN
         13   -1    0    0    0    0  0.00000000000E+00  0.00000000000E+00  0.74505805969E-08  0.10566000000E+00  0.10566000000E+00 0. -1.
     999900   -1    0    0    0    0 -0.00000000000E+00 -0.00000000000E+00 -0.74505805969E-08  0.93827000000E+00  0.93827000000E+00 0.  1.
     999902    2    1    2    0    0  0.93724089746E-02 -0.83158260149E-03 -0.21838221091E-01  0.10201509866E+01  0.10198738127E+01 0.  0.
     999903    2    3    3    0    0  0.10718932510E-02 -0.98493447857E-01  0.80715397126E-01  0.12879023855E+00  0.19231276272E-01 0.  0.
         14    1    1    2    0    0 -0.93724089746E-02  0.83158260149E-03  0.21838221091E-01  0.23779013437E-01  0.00000000000E+00 0. -1.
     999901    1    3    3    0    0  0.83005157236E-02  0.97661865256E-01 -0.10255361822E+00  0.89136074801E+00  0.88000000000E+00 0.  1.
        -11    1    4    4    0    0 -0.89378120300E-02 -0.37973578638E-01  0.31537711574E-01  0.50167375163E-01  0.51100000000E-03 0.  1.
         11    1    4    4    0    0  0.10009705281E-01 -0.60519869219E-01  0.49177685552E-01  0.78622863389E-01  0.51100000000E-03 0. -1.
</event>
<event>
 8    1  0.1213322E+005  0.1043930E+01  0.7957747E-01            NaN
         13   -1    0    0    0    0  0.00000000000E+00  0.00000000000E+00  0.74505805969E-08  0.10566000000E+00  0.10566000000E+00 0. -1.
     999900   -1    0    0    0    0 -0.00000000000E+00 -0.00000000000E+00 -0.74505805969E-08  0.93827000000E+00  0.93827000000E+00 0.  1.
     999902    2    1    2    0    0  0.73020653808E-02  0.14135538856E-01  0.17798610819E-01  0.10200569155E+01  0.10197775182E+01 0.  0.
     999903    2    3    3    0    0 -0.40119516347E-01 -0.10847448801E+00  0.54693395170E-01  0.12952715729E+00  0.20239240590E-01 0.  0.
         14    1    1    2    0    0 -0.73020653808E-02 -0.14135538856E-01 -0.17798610819E-01  0.23873084523E-01  0.00000000000E+00 0. -1.
     999901    1    3    3    0    0  0.47421581727E-01  0.12261002687E+00 -0.36894784351E-01  0.89052975819E+00  0.88000000000E+00 0.  1.
        -11    1    4    4    0    0 -0.16773616615E-01 -0.57163057130E-01  0.38270475912E-01  0.70808613617E-01  0.51100000000E-03 0. -1.
         11    1    4    4    0    0 -0.23345899731E-01 -0.51311430880E-01  0.16422919258E-01  0.58718543674E-01  0.51100000000E-03 0.  1.
</event>
<event>
 8    1  0.1213322E+005  0.1043930E+01  0.7957747E-01            NaN
         13   -1    0    0    0    0  0.00000000000E+00  0.00000000000E+00  0.74505805969E-08  0.10566000000E+00  0.10566000000E+00 0. -1.
     999900   -1    0    0    0    0 -0.00000000000E+00 -0.00000000000E+00 -0.74505805969E-08  0.93827000000E+00  0.93827000000E+00 0. -1.
     999902    2    1    2    0    0 -0.26230465565E-01 -0.22769138845E-01  0.56782963135E-02  0.10087346302E+01  0.10081204492E+01 0.  0.
     999903    2    3    3    0    0 -0.55871885769E-01 -0.97218291522E-02  0.10641776997E+00  0.12239536803E+00  0.20969090779E-01 0.  0.
         14    1    1    2    0    0  0.26230465565E-01  0.22769138845E-01 -0.56782963135E-02  0.35195369816E-01  0.00000000000E+00 0.  1.
     999901    1    3    3    0    0  0.29641420204E-01 -0.13047309692E-01 -0.10073947366E+00  0.88633926215E+00  0.88000000000E+00 0. -1.
        -11    1    4    4    0    0 -0.16377931018E-01 -0.12612531547E-01  0.41125643841E-01  0.46031427078E-01  0.51100000000E-03 0.  1.
         11    1    4    4    0    0 -0.39493954751E-01  0.28907023949E-02  0.65292126131E-01  0.76363940953E-01  0.51100000000E-03 0. -1.
</event>
<event>
 8    1  0.1213322E+005  0.1043930E+01  0.7957747E-01            NaN
         13   -1    0    0    0    0  0.00000000000E+00  0.00000000000E+00  0.74505805969E-08  0.10566000000E+00  0.10566000000E+00 0.  1.
     999900   -1    0    0    0    0 -0.00000000000E+00 -0.00000000000E+00 -0.74505805969E-08  0.93827000000E+00  0.93827000000E+00 0.  1.
     999902    2    1    2    0    0 -0.14204986534E-01  0.31571553938E-02  0.17424565087E-01  0.10212283538E+01  0.10209759967E+01 0.  0.
     999903    2    3    3    0    0 -0.19992663752E-01  0.88781636896E-01  0.95693346684E-01  0.13359608126E+00  0.20219067132E-01 0.  0.
         14    1    1    2    0    0  0.14204986534E-01 -0.31571553938E-02 -0.17424565087E-01  0.22701646220E-01  0.00000000000E+00 0. -1.
     999901    1    3    3    0    0  0.57876772190E-02 -0.85624481502E-01 -0.78268781596E-01  0.88763227252E+00  0.88000000000E+00 0.  1.
        -11    1    4    4    0    0 -0.23679688546E-01  0.68929755514E-01  0.71822777147E-01  0.10232698218E+00  0.51100000000E-03 0. -1.
         11    1    4    4    0    0  0.36870247939E-02  0.19851881382E-01  0.23870569536E-01  0.31269099079E-01  0.51100000000E-03 0.  1.
</event>
<event>
 8    1  0.1213322E+005  0.1043930E+01  0.7957747E-01            NaN
         13   -1    0    0    0    0  0.00000000000E+00  0.00000000000E+00  0.74505805969E-08  0.10566000000E+00  0.10566000000E+00 0.  1.
     999900   -1    0    0    0    0 -0.00000000000E+00 -0.00000000000E+00 -0.74505805969E-08  0.93827000000E+00  0.93827000000E+00 0. -1.
     999902    2    1    2    0    0 -0.50323540856E-02 -0.22647785405E-01  0.70329046734E-02  0.10196872997E+01  0.10193990782E+01 0.  0.
     999903    2    3    3    0    0 -0.53899005859E-02 -0.10665018645E+00  0.76441539752E-01  0.13296632335E+00  0.20818761888E-01 0.  0.
         14    1    1    2    0    0  0.50323540856E-02  0.22647785405E-01 -0.70329046734E-02  0.24242700335E-01  0.00000000000E+00 0. -1.
     999901    1    3    3    0    0  0.35754650036E-03  0.84002401044E-01 -0.69408635079E-01  0.88672097632E+00  0.88000000000E+00 0. -1.
        -11    1    4    4    0    0 -0.63005974086E-02 -0.93126686573E-01  0.74153200331E-01  0.11921088675E+00  0.51100000000E-03 0. -1.
         11    1    4    4    0    0  0.91069682263E-03 -0.13523499876E-01  0.22883394212E-02  0.13755436595E-01  0.51100000000E-03 0.  1.
</event>
<event>
 8    1  0.1213322E+005  0.1043930E+01  0.7957747E-01            NaN
         13   -1    0    0    0    0  0.00000000000E+00  0.00000000000E+00  0.74505805969E-08  0.10566000000E+00  0.10566000000E+00 0. -1.
     999900   -1    0    0    0    0 -0.00000000000E+00 -0.00000000000E+00 -0.74505805969E-08  0.93827000000E+00  0.93827000000E+00 0. -1.
     999902    2    1    2    0    0  0.11796587290E-01 -0.15401200178E-01  0.11023884112E-01  0.10216167201E+01  0.10213730172E+01 0.  0.
     999903    2    3    3    0    0  0.60835496733E-01  0.77257565440E-01 -0.83425113650E-01  0.13037540898E+00  0.19191367816E-01 0.  0.
         14    1    1    2    0    0 -0.11796587290E-01  0.15401200178E-01 -0.11023884112E-01  0.22313279891E-01  0.00000000000E+00 0.  1.
     999901    1    3    3    0    0 -0.49038909443E-01 -0.92658765617E-01  0.94448997762E-01  0.89124131113E+00  0.88000000000E+00 0.  1.
        -11    1    4    4    0    0  0.47567834391E-01  0.57014508772E-01 -0.72629458795E-01  0.10386843835E+00  0.51100000000E-03 0. -1.
         11    1    4    4    0    0  0.13267662341E-01  0.20243056668E-01 -0.10795654855E-01  0.26506970631E-01  0.51100000000E-03 0.  1.
</event>
<event>
 8    1  0.1213322E+005  0.1043930E+01  0.7957747E-01            NaN
         13   -1    0    0    0    0  0.00000000000E+00  0.00000000000E+00  0.74505805969E-08  0.10566000000E+00  0.10566000000E+00 0. -1.
     999900   -1    0    0    0    0 -0.00000000000E+00 -0.00000000000E+00 -0.74505805969E-08  0.93827000000E+00  0.93827000000E+00 0.  1.
     999902    2    1    2    0    0 -0.80161056155E-02 -0.18357735889E-01 -0.12057015560E-01  0.10205497511E+01  0.10202819014E+01 0.  0.
     999903    2    3    3    0    0 -0.10901982210E+00 -0.15720220078E-01 -0.70483115864E-01  0.13284354041E+00  0.23389948209E-01 0.  0.
         14    1    1    2    0    0  0.80161056155E-02  0.18357735889E-01  0.12057015560E-01  0.23380248938E-01  0.00000000000E+00 0. -1.
     999901    1    3    3    0    0  0.10100371648E+00 -0.26375158107E-02  0.58426100303E-01  0.88770621065E+00  0.88000000000E+00 0. -1.
        -11    1    4    4    0    0 -0.98189229022E-01 -0.18360147532E-01 -0.55864266160E-01  0.11445216061E+00  0.51100000000E-03 0.  1.
         11    1    4    4    0    0 -0.10830593076E-01  0.26399274538E-02 -0.14618849704E-01  0.18391379801E-01  0.51100000000E-03 0. -1.
</event>
<event>
 8    1  0.1213322E+005  0.1043930E+01  0.7957747E-01            NaN
         13   -1    0    0    0    0  0.00000000000E+00  0.00000000000E+00  0.74505805969E-08  0.10566000000E+00  0.10566000000E+00 0.  1.
     999900   -1    0    0    0    0 -0.00000000000E+00 -0.00000000000E+00 -0.74505805969E-08  0.93827000000E+00  0.93827000000E+00 0. -1.
     999902    2    1    2    0    0  0.24623664027E-01 -0.28697787013E-02  0.41906410276E-02  0.10187879648E+01  0.10184776853E+01 0.  0.
     999903    2    3    3    0    0 -0.80370483020E-01  0.96057396979E-01  0.73473429296E-02  0.12703669808E+00  0.19947459861E-01 0.  0.
         14    1    1    2    0    0 -0.24623664027E-01  0.28697787013E-02 -0.41906410276E-02  0.25142035163E-01  0.00000000000E+00 0. -1.
     999901    1    3    3    0    0  0.10499414705E+00 -0.98927175680E-01 -0.31567019020E-02  0.89175126676E+00  0.88000000000E+00 0.  1.
        -11    1    4    4    0    0 -0.76027209459E-01  0.88924434004E-01  0.11746665307E-01  0.11758374381E+00  0.51100000000E-03 0. -1.
         11    1    4    4    0    0 -0.43432735618E-02  0.71329629744E-02 -0.43993223778E-02  0.94529542690E-02  0.51100000000E-03 0.  1.
</event>
<event>
 8    1  0.1213322E+005  0.1043930E+01  0.7957747E-01            NaN
         13   -1    0    0    0    0  0.00000000000E+00  0.00000000000E+00  0.74505805969E-08  0.10566000000E+00  0.10566000000E+00 0.  1.
     999900   -1    0    0    0    0 -0.00000000000E+00 -0.00000000000E+00 -0.74505805969E-08  0.93827000000E+00  0.93827000000E+00 0.  1.
     999902    2    1    2    0    0  0.73277030681E-02 -0.18763692388E-01 -0.12910890478E-01  0.10200038119E+01  0.10197231555E+01 0.  0.
     999903    2    3    3    0    0 -0.46987923816E-01  0.65392705331E-02  0.11756575905E+00  0.12836790900E+00  0.20149077339E-01 0.  0.
         14    1    1    2    0    0 -0.73277030681E-02  0.18763692388E-01  0.12910890478E-01  0.23926188105E-01  0.00000000000E+00 0.  1.
     999901    1    3    3    0    0  0.54315626884E-01 -0.25302962921E-01 -0.13047664953E+00  0.89163590289E+00  0.88000000000E+00 0.  1.
        -11    1    4    4    0    0 -0.46674175613E-01  0.51667400912E-02  0.97232926661E-01  0.10797998435E+00  0.51100000000E-03 0.  1.
         11    1    4    4    0    0 -0.31374820305E-03  0.13725304419E-02  0.20332832387E-01  0.20387924652E-01  0.51100000000E-03 0. -1.
</event>
<event>
 7    1  0.1570800E+005  0.1043930E+01  0.7957747E-01            NaN
         13   -1    0    0    0    0  0.00000000000E+00  0.00000000000E+00  0.74505805969E-08  0.10566000000E+00  0.10566000000E+00 0.  1.
     999900   -1    0    0    0    0 -0.00000000000E+00 -0.00000000000E+00 -0.74505805969E-08  0.93827000000E+00  0.93827000000E+00 0. -1.
     999903    2    1    2    0    0  0.83417948636E-02 -0.10480204425E+00 -0.34424778107E-01  0.11246284028E+00  0.20242803050E-01 0.  0.
         14    1    1    2    0    0  0.33911983915E-01  0.26128072518E-01  0.18938366179E-01  0.46811970051E-01  0.00000000000E+00 0.  1.
     999901    1    1    2    0    0 -0.42253778778E-01  0.78673971735E-01  0.15486411929E-01  0.88465518967E+00  0.88000000000E+00 0.  1.
        -11    1    3    3    0    0 -0.47957524196E-02 -0.64331105003E-01 -0.20741300745E-01  0.67763950518E-01  0.51100000000E-03 0.  1.
         11    1    3    3    0    0  0.13137547283E-01 -0.40470939251E-01 -0.13683477363E-01  0.44698889764E-01  0.51100000000E-03 0. -1.
</event>
<event>
 8    1  0.1213322E+005  0.1043930E+01  0.7957747E-01            NaN
         13   -1    0    0    0    0  0.00000000000E+00  0.00000000000E+00  0.74505805969E-08  0.10566000000E+00  0.10566000000E+00 0. -1.
     999900   -1    0    0    0    0 -0.00000000000E+00 -0.00000000000E+00 -0.74505805969E-08  0.93827000000E+00  0.93827000000E+00 0. -1.
     999902    2    1    2    0    0  0.42028809568E-02 -0.22543146174E-01  0.46066090040E-02  0.10205402908E+01  0.10202722219E+01 0.  0.
     999903    2    3    3    0    0  0.14260648711E-01  0.30992716107E-01 -0.12348502837E+00  0.12959993661E+00  0.19587669155E-01 0.  0.
         14    1    1    2    0    0 -0.42028809568E-02  0.22543146174E-01 -0.46066090040E-02  0.23389709154E-01  0.00000000000E+00 0.  1.
     999901    1    3    3    0    0 -0.10057767755E-01 -0.53535862282E-01  0.12809163738E+00  0.89094035424E+00  0.88000000000E+00 0.  1.
        -11    1    4    4    0    0  0.42607286085E-02  0.27417469544E-01 -0.75173486730E-01  0.80132301056E-01  0.51100000000E-03 0.  1.
         11    1    4    4    0    0  0.99999201030E-02  0.35752465638E-02 -0.48311541645E-01  0.49467635553E-01  0.51100000000E-03 0. -1.
</event>
<event>
 8    1  0.1213322E+005  0.1043930E+01  0.7957747E-01            NaN
         13   -1    0    0    0    0  0.00000000000E+00  0.00000000000E+00  0.74505805969E-08  0.10566000000E+00  0.10566000000E+00 0.  1.
     999900   -1    0    0    0    0 -0.00000000000E+00 -0.00000000000E+00 -0.74505805969E-08  0.93827000000E+00  0.93827000000E+00 0.  1.
     999902    2    1    2    0    0  0.27539125977E-02  0.24144150720E-01 -0.17779728181E-02  0.10195643431E+01  0.10192731550E+01 0.  0.
     999903    2    3    3    0    0 -0.12757148643E+00  0.13417921696E-01  0.38700824217E-02  0.12988369133E+00  0.20006772920E-01 0.  0.
         14    1    1    2    0    0 -0.27539125977E-02 -0.24144150720E-01  0.17779728181E-02  0.24365656895E-01  0.00000000000E+00 0.  1.
     999901    1    3    3    0    0  0.13032539903E+00  0.10726229024E-01 -0.56480552398E-02  0.88968065178E+00  0.88000000000E+00 0.  1.
        -11    1    4    4    0    0 -0.45176265125E-01  0.14364822776E-01  0.23930225316E-02  0.47468207696E-01  0.51100000000E-03 0. -1.
         11    1    4    4    0    0 -0.82395221303E-01 -0.94690108000E-03  0.14770598901E-02  0.82415483631E-01  0.51100000000E-03 0.  1.
</event>
<event>
 8    1  0.1213322E+005  0.1043930E+01  0.7957747E-01            NaN
         13   -1    0    0    0    0  0.00000000000E+00  0.00000000000E+00  0.74505805969E-08  0.10566000000E+00  0.10566000000E+00 0. -1.
     999900   -1    0    0    0    0 -0.00000000000E+00 -0.00000000000E+00 -0.74505805969E-08  0.93827000000E+00  0.93827000000E+00 0. -1.
     999902    2    1    2    0    0 -0.67195825769E-02 -0.15945496236E-01 -0.15933155567E-01  0.10204081572E+01  0.10201370154E+01 0.  0.
     999903    2    3    3    0    0  0.40527827503E-01 -0.10825572825E+00 -0.62737827681E-01  0.13308399211E+00  0.20334857623E-01 0.  0.
         14    1    1    2    0    0  0.67195825769E-02  0.15945496236E-01  0.15933155567E-01  0.23521842754E-01  0.00000000000E+00 0. -1.
     999901    1    3    3    0    0 -0.47247410080E-01  0.92310232012E-01  0.46804672113E-01  0.88732416513E+00  0.88000000000E+00 0.  1.
        -11    1    4    4    0    0  0.77314657034E-02 -0.46270457129E-01 -0.30031292804E-01  0.55703414916E-01  0.51100000000E-03 0.  1.
         11    1    4    4    0    0  0.32796361799E-01 -0.61985271119E-01 -0.32706534877E-01  0.77380577199E-01  0.51100000000E-03 0. -1.
</event>
<event>
 7    1  0.1213322E+005  0.1043930E+01  0.7957747E-01            NaN
         13   -1    0    0    0    0  0.00000000000E+00  0.00000000000E+00  0.74505805969E-08  0.10566000000E+00  0.10566000000E+00 0. -1.
     999900   -1    0    0    0    0 -0.00000000000E+00 -0.00000000000E+00 -0.74505805969E-08  0.93827000000E+00  0.93827000000E+00 0. -1.
     999902    2    1    2    0    0 -0.23787043852E-02  0.13199578971E-01 -0.19684207944E-01  0.10201107817E+01  0.10198326587E+01 0.  0.
         14    1    1    2    0    0  0.23787043852E-02 -0.13199578971E-01  0.19684207944E-01  0.23819218332E-01  0.00000000000E+00 0. -1.
     999901    1    3    3    0    0  0.95609722638E-01  0.11630625564E-01  0.57036437209E-01  0.88709055101E+00  0.88000000000E+00 0.  1.
        -11    1    3    3    0    0 -0.35874127352E-01  0.37555974793E-03 -0.57879282296E-01  0.68098212153E-01  0.51100000000E-03 0.  1.
         11    1    3    3    0    0 -0.62114299671E-01  0.11933936590E-02 -0.18841362856E-01  0.64922018509E-01  0.51100000000E-03 0. -1.
</event>
<event>
 8    1  0.1213322E+005  0.1043930E+01  0.7957747E-01            NaN
         13   -1    0    0    0    0  0.00000000000E+00  0.00000000000E+00  0.74505805969E-08  0.10566000000E+00  0.10566000000E+00 0. -1.
     999900   -1    0    0    0    0 -0.00000000000E+00 -0.00000000000E+00 -0.74505805969E-08  0.93827000000E+00  0.93827000000E+00 0. -1.
     999902    2    1    2    0    0  0.92159049599E-02  0.15131345554E-01  0.14207767545E-01  0.10212198441E+01  0.10209672957E+01 0.  0.
     999903    2    3    3    0    0 -0.44820675798E-02  0.21610256181E-02  0.13168090181E+00  0.13321319946E+00  0.19522746895E-01 0.  0.
         14    1    1    2    0    0 -0.92159049599E-02 -0.15131345554E-01 -0.14207767545E-01  0.22710155902E-01  0.00000000000E+00 0.  1.
     999901    1    3    3    0    0  0.13697972540E-01  0.12970319936E-01 -0.11747313427E+00  0.88800664464E+00  0.88000000000E+00 0. -1.
        -11    1    4    4    0    0  0.69890760937E-02  0.13672847024E-02  0.77216278360E-01  0.77545673102E-01  0.51100000000E-03 0. -1.
         11    1    4    4    0    0 -0.11471143673E-01  0.79374091570E-03  0.54464623451E-01  0.55667526355E-01  0.51100000000E-03 0.  1.
</event>
<event>
 8    1  0.1213322E+005  0.1043930E+01  0.7957747E-01            NaN
         13   -1    0    0    0    0  0.00000000000E+00  0.00000000000E+00  0.74505805969E-08  0.10566000000E+00  0.10566000000E+00 0. -1.
     999900   -1    0    0    0    0 -0.00000000000E+00 -0.00000000000E+00 -0.74505805969E-08  0.93827000000E+00  0.93827000000E+00 0.  1.
     999902    2    1    2    0    0 -0.10316203735E-01  0.19833028927E-01 -0.61170587082E-02  0.10207526079E+01  0.10204894390E+01 0.  0.
     999903    2    3    3    0    0 -0.10172951235E+00  0.33255102697E-01  0.75027269869E-01  0.13220269537E+00  0.19841015577E-01 0.  0.
         14    1    1    2    0    0  0.10316203735E-01 -0.19833028927E-01  0.61170587082E-02  0.23177392070E-01  0.00000000000E+00 0. -1.
     999901    1    3    3    0    0  0.91413308617E-01 -0.13422073770E-01 -0.81144328578E-01  0.88854991256E+00  0.88000000000E+00 0.  1.
        -11    1    4    4    0    0 -0.57899258603E-01  0.87700585014E-02  0.42923887800E-01  0.72608259432E-01  0.51100000000E-03 0. -1.
         11    1    4    4    0    0 -0.43830253750E-01  0.24485044195E-01  0.32103382069E-01  0.59594435934E-01  0.51100000000E-03 0.  1.
</event>
<event>
 8    1  0.1213322E+005  0.1043930E+01  0.7957747E-01            NaN
         13   -1    0    0    0    0  0.00000000000E+00  0.00000000000E+00  0.74505805969E-08  0.10566000000E+00  0.10566000000E+00 0.  1.
     999900   -1    0    0    0    0 -0.00000000000E+00 -0.00000000000E+00 -0.74505805969E-08  0.93827000000E+00  0.93827000000E+00 0. -1.
     999902    2    1    2    0    0  0.20824661262E-01  0.72727846200E-02 -0.99517087294E-02  0.10197309004E+01  0.10194437272E+01 0.  0.
     999903    2    3    3    0    0  0.19065753850E-01  0.45149299662E-01  0.11817616906E+00  0.12964411972E+00  0.20976859057E-01 0.  0.
         14    1    1    2    0    0 -0.20824661262E-01 -0.72727846200E-02  0.99517087294E-02  0.24199099559E-01  0.00000000000E+00 0.  1.
     999901    1    3    3    0    0  0.17589074126E-02 -0.37876515041E-01 -0.12812787778E+00  0.89008678072E+00  0.88000000000E+00 0. -1.
        -11    1    4    4    0    0  0.22182730166E-01  0.28336795835E-01  0.85351907529E-01  0.92629675351E-01  0.51100000000E-03 0.  1.
         11    1    4    4    0    0 -0.31169763165E-02  0.16812503826E-01  0.32824261526E-01  0.37014444370E-01  0.51100000000E-03 0. -1.
</event>
<event>
 8    1  0.1213322E+005  0.1043930E+01  0.7957747E-01            NaN
         13   -1    0    0    0    0  0.00000000000E+00  0.00000000000E+00  0.74505805969E-08  0.10566000000E+00  0.10566000000E+00 0. -1.
     999900   -1    0    0    0    0 -0.00000000000E+00 -0.00000000000E+00 -0.74505805969E-08  0.93827000000E+00  0.93827000000E+00 0. -1.
     999902    2    1    2    0    0 -0.22889348637E-01 -0.35148672778E-02  0.33876104167E-02  0.10205258876E+01  0.10202574845E+01 0.  0.
     999903    2    3    3    0    0  0.72889858115E-02  0.12341880592E+00  0.33235190270E-01  0.13040580172E+00  0.24814598156E-01 0.  0.
         14    1    1    2    0    0  0.22889348637E-01  0.35148672778E-02 -0.33876104167E-02  0.23404112402E-01  0.00000000000E+00 0.  1.
     999901    1    3    3    0    0 -0.30178334448E-01 -0.12693367320E+00 -0.29847579853E-01  0.89012008588E+00  0.88000000000E+00 0.  1.
        -11    1    4    4    0    0  0.10939228920E-01  0.72752041437E-01  0.30155461634E-01  0.79511881188E-01  0.51100000000E-03 0. -1.
         11    1    4    4    0    0 -0.36502431085E-02  0.50666764480E-01  0.30797286355E-02  0.50893920532E-01  0.51100000000E-03 0.  1.
</event>
<event>
 8    1  0.1213322E+005  0.1043930E+01  0.7957747E-01            NaN
         13   -1    0    0    0    0  0.00000000000E+00  0.00000000000E+00  0.74505805969E-08  0.10566000000E+00  0.10566000000E+00 0.  1.
     999900   -1    0    0    0    0 -0.00000000000E+00 -0.00000000000E+00 -0.74505805969E-08  0.93827000000E+00  0.93827000000E+00 0.  1.
     999902    2    1    2    0    0  0.70570687741E-02  0.19200059794E-02 -0.22250549811E-01  0.10205083090E+01  0.10202394979E+01 0.  0.
     999903    2    3    3    0    0  0.17254551062E-01 -0.98368343141E-01 -0.84906572117E-01  0.13254011207E+00  0.19588385715E-01 0.  0.
         14    1    1    2    0    0 -0.70570687741E-02 -0.19200059794E-02  0.22250549811E-01  0.23421691005E-01  0.00000000000E+00 0.  1.
     999901    1    3    3    0    0 -0.10197482288E-01  0.10028834912E+00  0.62656022306E-01  0.88796819692E+00  0.88000000000E+00 0. -1.
        -11    1    4    4    0    0 -0.30627049538E-02 -0.26188674805E-01 -0.17007376636E-01  0.31380548605E-01  0.51100000000E-03 0.  1.
         11    1    4    4    0    0  0.20317256016E-01 -0.72179668336E-01 -0.67899195481E-01  0.10115956347E+00  0.51100000000E-03 0. -1.
</event>
<event>
 8    1  0.1213322E+005  0.1043930E+01  0.7957747E-01            NaN
         13   -1    0    0    0    0  0.00000000000E+00  0.00000000000E+00  0.74505805969E-08  0.10566000000E+00  0.10566000000E+00 0.  1.
     999900   -1    0    0    0    0 -0.00000000000E+00 -0.00000000000E+00 -0.74505805969E-08  0.93827000000E+00  0.93827000000E+00 0.  1.
     999902    2    1    2    0    0  0.22476447407E-01  0.21306497733E-02  0.30148138359E-02  0.10211523913E+01  0.10208983234E+01 0.  0.
     999903    2    3    3    0    0  0.92766214970E-01 -0.91403884257E-01  0.19327339079E-01  0.13325855812E+00  0.20592634119E-01 0.  0.
         14    1    1    2    0    0 -0.22476447407E-01 -0.21306497733E-02 -0.30148138359E-02  0.22777608720E-01  0.00000000000E+00 0. -1.
     999901    1    3    3    0    0 -0.70289767562E-01  0.93534534030E-01 -0.16312525244E-01  0.88789383316E+00  0.88000000000E+00 0. -1.
        -11    1    4    4    0    0  0.33170301201E-01 -0.26576257386E-01 -0.23433127543E-02  0.42571335122E-01  0.51100000000E-03 0.  1.
         11    1    4    4    0    0  0.59595913769E-01 -0.64827626871E-01  0.21670651834E-01  0.90687223000E-01  0.51100000000E-03 0. -1.
</event>
<event>
 8    1  0.1213322E+005  0.1043930E+01  0.7957747E-01            NaN
         13   -1    0    0    0    0  0.00000000000E+00  0.00000000000E+00  0.74505805969E-08  0.10566000000E+00  0.10566000000E+00 0.  1.
     999900   -1    0    0    0    0 -0.00000000000E+00 -0.00000000000E+00 -0.74505805969E-08  0.93827000000E+00  0.93827000000E+00 0. -1.
     999902    2    1    2    0    0  0.56663983701E-02  0.13952200526E-01 -0.18833757445E-01  0.10198160540E+01  0.10195309224E+01 0.  0.
     999903    2    3    3    0    0  0.93960717181E-01 -0.55864982920E-01  0.64791543851E-01  0.12871363745E+00  0.20487645599E-01 0.  0.
         14    1    1    2    0    0 -0.56663983701E-02 -0.13952200526E-01  0.18833757445E-01  0.24113945955E-01  0.00000000000E+00 0. -1.
     999901    1    3    3    0    0 -0.88294318810E-01  0.69817183446E-01 -0.83625301296E-01  0.89110241659E+00  0.88000000000E+00 0. -1.
        -11    1    4    4    0    0  0.81875591683E-01 -0.55287566815E-01  0.60592043879E-01  0.11589643851E+00  0.51100000000E-03 0. -1.
         11    1    4    4    0    0  0.12085125498E-01 -0.57741610539E-03  0.41994999722E-02  0.12817198940E-01  0.51100000000E-03 0.  1.
</event>
<event>
 8    1  0.1213322E+005  0.1043930E+01  0.7957747E-01            NaN
         13   -1    0    0    0    0  0.00000000000E+00  0.00000000000E+00  0.74505805969E-08  0.10566000000E+00  0.10566000000E+00 0.  1.
     999900   -1    0    0    0    0 -0.00000000000E+00 -0.00000000000E+00 -0.74505805969E-08  0.93827000000E+00  0.93827000000E+00 0. -1.
     999902    2    1    2    0    0 -0.16951610815E-01  0.13373565776E-01 -0.52339233885E-02  0.10217128147E+01  0.10214712293E+01 0.  0.
     999903    2    3    3    0    0  0.94563133886E-01  0.55952108451E-01 -0.69145874664E-01  0.13135715083E+00  0.20018100831E-01 0.  0.
         14    1    1    2    0    0  0.16951610815E-01 -0.13373565776E-01  0.52339233885E-02  0.22217185349E-01  0.00000000000E+00 0. -1.
     999901    1    3    3    0    0 -0.11151474470E+00 -0.42578542675E-01  0.63911951276E-01  0.89035566382E+00  0.88000000000E+00 0. -1.
        -11    1    4    4    0    0  0.70673987100E-01  0.49197901683E-01 -0.47103667512E-01  0.98154279564E-01  0.51100000000E-03 0. -1.
         11    1    4    4    0    0  0.23889146786E-01  0.67542067677E-02 -0.22042207152E-01  0.33202871266E-01  0.51100000000E-03 0.  1.
</event>
<event>
 8    1  0.1213322E+005  0.1043930E+01  0.7957747E-01            NaN
         13   -1    0    0    0    0  0.00000000000E+00  0.00000000000E+00  0.74505805969E-08  0.10566000000E+00  0.10566000000E+00 0. -1.
     999900   -1    0    0    0    0 -0.00000000000E+00 -0.00000000000E+00 -0.74505805969E-08  0.93827000000E+00  0.93827000000E+00 0. -1.
     999902    2    1    2    0    0 -0.74277503997E-02 -0.11944209884E-01  0.19458657488E-01  0.10199201067E+01  0.10196374596E+01 0.  0.
     999903    2    3    3    0    0  0.12373889437E-01 -0.11461721970E+00 -0.57540205469E-01  0.13039063737E+00  0.20015565843E-01 0.  0.
         14    1    1    2    0    0  0.74277503997E-02  0.11944209884E-01 -0.19458657488E-01  0.24009893315E-01  0.00000000000E+00 0.  1.
     999901    1    3    3    0    0 -0.19801639837E-01  0.10267300982E+00  0.76998862958E-01  0.88952946932E+00  0.88000000000E+00 0.  1.
        -11    1    4    4    0    0  0.81401012877E-02 -0.56545347007E-01 -0.17597349871E-01  0.59779305454E-01  0.51100000000E-03 0. -1.
         11    1    4    4    0    0  0.42337881494E-02 -0.58071872694E-01 -0.39942855599E-01  0.70611331914E-01  0.51100000000E-03 0.  1.
</event>
<event>
 8    1  0.1213322E+005  0.1043930E+01  0.7957747E-01            NaN
         13   -1    0    0    0    0  0.00000000000E+00  0.00000000000E+00  0.74505805969E-08  0.10566000000E+00  0.10566000000E+00 0.  1.
     999900   -1    0    0    0    0 -0.00000000000E+00 -0.00000000000E+00 -0.74505805969E-08  0.93827000000E+00  0.93827000000E+00 0.  1.
     999902    2    1    2    0    0 -0.11160615950E-01  0.20294703760E-01  0.30147705912E-02  0.10205735621E+01  0.10203062641E+01 0.  0.
     999903    2    3    3    0    0  0.16862937426E-01  0.30628080581E-01 -0.12448258741E+00  0.13088391144E+00  0.20303835257E-01 0.  0.
         14    1    1    2    0    0  0.11160615950E-01 -0.20294703760E-01 -0.30147705912E-02  0.23356437888E-01  0.00000000000E+00 0.  1.
     999901    1    3    3    0    0 -0.28023553376E-01 -0.10333376820E-01  0.12749735800E+00  0.88968965067E+00  0.88000000000E+00 0. -1.
        -11    1    4    4    0    0  0.88180791480E-03  0.93193633527E-02 -0.65455520528E-01  0.66123478486E-01  0.51100000000E-03 0.  1.
         11    1    4    4    0    0  0.15981129511E-01  0.21308717228E-01 -0.59027066882E-01  0.64760432951E-01  0.51100000000E-03 0. -1.
</event>
<event>
 8    1  0.1213322E+005  0.1043930E+01  0.7957747E-01            NaN
         13   -1    0    0    0    0  0.00000000000E+00  0.00000000000E+00  0.74505805969E-08  0.10566000000E+00  0.10566000000E+00 0.  1.
     999900   -1    0    0    0    0 -0.00000000000E+00 -0.00000000000E+00 -0.74505805969E-08  0.93827000000E+00  0.93827000000E+00 0. -1.
     999902    2    1    2    0    0  0.65541340882E-02  0.22411531697E-01 -0.13616715770E-02  0.10205400967E+01  0.10202720232E+01 0.  0.
     999903    2    3    3    0    0  0.12230414460E+00  0.45976733171E-01  0.86316745096E-02  0.13259119580E+00  0.20826800501E-01 0.  0.
         14    1    1    2    0    0 -0.65541340882E-02 -0.22411531697E-01  0.13616715770E-02  0.23389903295E-01  0.00000000000E+00 0. -1.
     999901    1    3    3    0    0 -0.11575001051E+00 -0.23565201474E-01 -0.99933460866E-02  0.88794890091E+00  0.88000000000E+00 0.  1.
        -11    1    4    4    0    0  0.85485234775E-01  0.37663238525E-01 -0.17788930546E-02  0.93432705635E-01  0.51100000000E-03 0. -1.
         11    1    4    4    0    0  0.36818909825E-01  0.83134946464E-02  0.10410567564E-01  0.39158490164E-01  0.51100000000E-03 0.  1.
</event>
<event>
 8    1  0.1213322E+005  0.1043930E+01  0.7957747E-01            NaN
         13   -1    0    0    0    0  0.00000000000E+00  0.00000000000E+00  0.74505805969E-08  0.10566000000E+00  0.10566000000E+00 0. -1.
     999900   -1    0    0    0    0 -0.00000000000E+00 -0.00000000000E+00 -0.74505805969E-08  0.93827000000E+00  0.93827000000E+00 0.  1.
     999902    2    1    2    0    0  0.43277551238E-02  0.12245518756E-01 -0.18662826346E-01  0.10211927336E+01  0.10209395751E+01 0.  0.
     999903    2    3    3    0    0  0.83503585600E-01  0.52509695216E-01 -0.88452302372E-01  0.13397202435E+00  0.19863952632E-01 0.  0.
         14    1    1    2    0    0 -0.43277551238E-02 -0.12245518756E-01  0.18662826346E-01  0.22737266354E-01  0.00000000000E+00 0. -1.
     999901    1    3    3    0    0 -0.79175830476E-01 -0.40264176460E-01  0.69789476026E-01  0.88722070929E+00  0.88000000000E+00 0. -1.
        -11    1    4    4    0    0  0.36117660827E-01  0.27475191607E-01 -0.52692953580E-01  0.69542649183E-01  0.51100000000E-03 0. -1.
         11    1    4    4    0    0  0.47385924772E-01  0.25034503609E-01 -0.35759348793E-01  0.64429375168E-01  0.51100000000E-03 0.  1.
</event>
<event>
 8    1  0.1213322E+005  0.1043930E+01  0.7957747E-01            NaN
         13   -1    0    0    0    0  0.00000000000E+00  0.00000000000E+00  0.74505805969E-08  0.10566000000E+00  0.10566000000E+00 0.  1.
     999900   -1    0    0    0    0 -0.00000000000E+00 -0.00000000000E+00 -0.74505805969E-08  0.93827000000E+00  0.93827000000E+00 0. -1.
     999902    2    1    2    0    0 -0.20405228159E-01 -0.11529941702E-01  0.55326695973E-02  0.10198484028E+01  0.10195640447E+01 0.  0.
     999903    2    3    3    0    0 -0.38727421807E-01  0.42192802920E-01 -0.11478966621E+00  0.12984879572E+00  0.20099663255E-01 0.  0.
         14    1    1    2    0    0  0.20405228159E-01  0.11529941702E-01 -0.55326695973E-02  0.24081597221E-01  0.00000000000E+00 0. -1.
     999901    1    3    3    0    0  0.18322193649E-01 -0.53722744622E-01  0.12032233581E+00  0.88999960706E+00  0.88000000000E+00 0.  1.
        -11    1    4    4    0    0 -0.14650734950E-01  0.13192287184E-01 -0.21210381013E-01  0.28962421505E-01  0.51100000000E-03 0. -1.
         11    1    4    4    0    0 -0.24076686857E-01  0.29000515736E-01 -0.93579285199E-01  0.10088637422E+00  0.51100000000E-03 0.  1.
</event>
<event>
 8    1  0.1213322E+005  0.1043930E+01  0.7957747E-01            NaN
         13   -1    0    0    0    0  0.00000000000E+00  0.00000000000E+00  0.74505805969E-08  0.10566000000E+00  0.10566000000E+00 0.  1.
     999900   -1    0    0    0    0 -0.00000000000E+00 -0.00000000000E+00 -0.74505805969E-08  0.93827000000E+00  0.93827000000E+00 0. -1.
     999902    2    1    2    0    0  0.96962946885E-02 -0.22356022964E-01  0.93892421355E-02  0.10178154875E+01  0.10174804170E+01 0.  0.
     999903    2    3    3    0    0 -0.15000614782E-01 -0.66172777454E-01 -0.10735721203E+00  0.12868131325E+00  0.20723283666E-01 0.  0.
         14    1    1    2    0    0 -0.96962946885E-02  0.22356022964E-01 -0.93892421355E-02  0.26114512466E-01  0.00000000000E+00 0. -1.
     999901    1    3    3    0    0  0.24696909470E-01  0.43816754490E-01  0.11674645417E+00  0.88913417428E+00  0.88000000000E+00 0.  1.
        -11    1    4    4    0    0 -0.97294020340E-02 -0.48309438009E-01 -0.59095966532E-01  0.76948407690E-01  0.51100000000E-03 0.  1.
         11    1    4    4    0    0 -0.52712127476E-02 -0.17863339445E-01 -0.48261245500E-01  0.51732905564E-01  0.51100000000E-03 0. -1.
</event>
<event>
 8    1  0.1213322E+005  0.1043930E+01  0.7957747E-01            NaN
         13   -1    0    0    0    0  0.00000000000E+00  0.00000000000E+00  0.74505805969E-08  0.10566000000E+00  0.10566000000E+00 0. -1.
     999900   -1    0    0    0    0 -0.00000000000E+00 -0.00000000000E+00 -0.74505805969E-08  0.93827000000E+00  0.93827000000E+00 0.  1.
     999902    2    1    2    0    0  0.22720403137E-01  0.81368749706E-02  0.15606424679E-02  0.10197460992E+01  0.10194592909E+01 0.  0.
     999903    2    3    3    0    0 -0.10149762251E+00  0.47353673575E-02  0.75294545313E-01  0.12796228202E+00  0.19516300570E-01 0.  0.
         14    1    1    2    0    0 -0.22720403137E-01 -0.81368749706E-02 -0.15606424679E-02  0.24183900800E-01  0.00000000000E+00 0. -1.
     999901    1    3    3    0    0  0.12421802565E+00  0.34015076131E-02 -0.73733902845E-01  0.89178381718E+00  0.88000000000E+00 0.  1.
        -11    1    4    4    0    0 -0.61885995838E-01 -0.61124284169E-02  0.41395728798E-01  0.74706798524E-01  0.51100000000E-03 0. -1.
         11    1    4    4    0    0 -0.39611626670E-01  0.10847795774E-01  0.33898816515E-01  0.53255483499E-01  0.51100000000E-03 0.  1.
</event>
<event>
 8    1  0.1213322E+005  0.1043930E+01  0.7957747E-01            NaN
         13   -1    0    0    0    0  0.00000000000E+00  0.00000000000E+00  0.74505805969E-08  0.10566000000E+00  0.10566000000E+00 0.  1.
     999900   -1    0    0    0    0 -0.00000000000E+00 -0.00000000000E+00 -0.74505805969E-08  0.93827000000E+00  0.93827000000E+00 0. -1.
     999902    2    1    2    0    0  0.26750989778E-01  0.16039243066E-01  0.92453996941E-02  0.10113977055E+01  0.10108743584E+01 0.  0.
     999903    2    3    3    0    0  0.16296127784E-01  0.12233583242E+00 -0.46799084226E-03  0.12488621710E+00  0.19097867176E-01 0.  0.
         14    1    1    2    0    0 -0.26750989778E-01 -0.16039243066E-01 -0.92453996941E-02  0.32532294535E-01  0.00000000000E+00 0. -1.
     999901    1    3    3    0    0  0.10454861994E-01 -0.10629658936E+00  0.97133905363E-02  0.88651148837E+00  0.88000000000E+00 0. -1.
        -11    1    4    4    0    0  0.14078969703E-01  0.83603947771E-01  0.80485849858E-02  0.85163832183E-01  0.51100000000E-03 0. -1.
         11    1    4    4    0    0  0.22171580806E-02  0.38731884652E-01 -0.85165758280E-02  0.39722384917E-01  0.51100000000E-03 0.  1.
</event>
<event>
 8    1  0.1213322E+005  0.1043930E+01  0.7957747E-01            NaN
         13   -1    0    0    0    0  0.00000000000E+00  0.00000000000E+00  0.74505805969E-08  0.10566000000E+00  0.10566000000E+00 0. -1.
     999900   -1    0    0    0    0 -0.00000000000E+00 -0.00000000000E+00 -0.74505805969E-08  0.93827000000E+00  0.93827000000E+00 0. -1.
     999902    2    1    2    0    0 -0.13587728246E-01  0.17123014785E-01  0.88408712303E-02  0.10203506659E+01  0.10200781815E+01 0.  0.
     999903    2    3    3    0    0 -0.83715383359E-01  0.94595575846E-01  0.38668212209E-01  0.13366607933E+00  0.20366682277E-01 0.  0.
         14    1    1    2    0    0  0.13587728246E-01 -0.17123014785E-01 -0.88408712303E-02  0.23579334136E-01  0.00000000000E+00 0. -1.
     999901    1    3    3    0    0  0.70127655114E-01 -0.77472561061E-01 -0.29827340979E-01  0.88668458654E+00  0.88000000000E+00 0.  1.
        -11    1    4    4    0    0 -0.56457270366E-01  0.54841722263E-01  0.32150887529E-01  0.85023400119E-01  0.51100000000E-03 0.  1.
         11    1    4    4    0    0 -0.27258112993E-01  0.39753853583E-01  0.65173246803E-02  0.48642679209E-01  0.51100000000E-03 0. -1.
</event>
<event>
 8    1  0.1213322E+005  0.1043930E+01  0.7957747E-01            NaN
         13   -1    0    0    0    0  0.00000000000E+00  0.00000000000E+00  0.74505805969E-08  0.10566000000E+00  0.10566000000E+00 0.  1.
     999900   -1    0    0    0    0 -0.00000000000E+00 -0.00000000000E+00 -0.74505805969E-08  0.93827000000E+00  0.93827000000E+00 0. -1.
     999902    2    1    2    0    0 -0.21466448287E-01  0.54563831176E-02  0.57062780761E-02  0.10210576995E+01  0.10208014908E+01 0.  0.
     999903    2    3    3    0    0 -0.78638471844E-03 -0.76790597002E-01 -0.10344225744E+00  0.13026836778E+00  0.19290744745E-01 0.  0.
         14    1    1    2    0    0  0.21466448287E-01 -0.54563831176E-02 -0.57062780761E-02  0.22872300458E-01  0.00000000000E+00 0. -1.
     999901    1    3    3    0    0 -0.20680063568E-01  0.82246980120E-01  0.10914853551E+00  0.89078933176E+00  0.88000000000E+00 0.  1.
        -11    1    4    4    0    0 -0.12175767119E-02 -0.60051987694E-01 -0.65952150801E-01  0.89205779159E-01  0.51100000000E-03 0.  1.
         11    1    4    4    0    0  0.43119199347E-03 -0.16738609308E-01 -0.37490106635E-01  0.41062588625E-01  0.51100000000E-03 0. -1.
</event>
<event>
 8    1  0.1213322E+005  0.1043930E+01  0.7957747E-01            NaN
         13   -1    0    0    0    0  0.00000000000E+00  0.00000000000E+00  0.74505805969E-08  0.10566000000E+00  0.10566000000E+00 0.  1.
     999900   -1    0    0    0    0 -0.00000000000E+00 -0.00000000000E+00 -0.74505805969E-08  0.93827000000E+00  0.93827000000E+00 0.  1.
     999902    2    1    2    0    0 -0.23716661421E-01  0.38308178709E-03  0.34399249753E-02  0.10199621076E+01  0.10196804603E+01 0.  0.
     999903    2    3    3    0    0  0.68559100630E-01 -0.16451549445E-01 -0.10530583932E+00  0.12832100140E+00  0.20148346047E-01 0.  0.
         14    1    1    2    0    0  0.23716661421E-01 -0.38308178709E-03 -0.34399249753E-02  0.23967892366E-01  0.00000000000E+00 0.  1.
     999901    1    3    3    0    0 -0.92275762051E-01  0.16834631233E-01  0.10874576429E+00  0.89164110623E+00  0.88000000000E+00 0. -1.
        -11    1    4    4    0    0  0.24268935703E-01 -0.62853935558E-04 -0.50093805335E-01  0.55665390008E-01  0.51100000000E-03 0.  1.
         11    1    4    4    0    0  0.44290164926E-01 -0.16388695510E-01 -0.55212033982E-01  0.72655611395E-01  0.51100000000E-03 0. -1.
</event>
<event>
 8    1  0.1213322E+005  0.1043930E+01  0.7957747E-01            NaN
         13   -1    0    0    0    0  0.00000000000E+00  0.00000000000E+00  0.74505805969E-08  0.10566000000E+00  0.10566000000E+00 0. -1.
     999900   -1    0    0    0    0 -0.00000000000E+00 -0.00000000000E+00 -0.74505805969E-08  0.93827000000E+00  0.93827000000E+00 0. -1.
     999902    2    1    2    0    0  0.19608525114E-01 -0.79745178766E-02 -0.50852740578E-02  0.10221596715E+01  0.10219278090E+01 0.  0.
     999903    2    3    3    0    0 -0.94986518727E-01  0.84827773058E-01  0.13874976625E-01  0.12968906669E+00  0.20212600528E-01 0.  0.
         14    1    1    2    0    0 -0.19608525114E-01  0.79745178766E-02  0.50852740578E-02  0.21770328541E-01  0.00000000000E+00 0. -1.
     999901    1    3    3    0    0  0.11459504384E+00 -0.92802290934E-01 -0.18960250683E-01  0.89247060477E+00  0.88000000000E+00 0.  1.
        -11    1    4    4    0    0 -0.86357829103E-01  0.72742264739E-01  0.17832403067E-01  0.11431258656E+00  0.51100000000E-03 0. -1.
         11    1    4    4    0    0 -0.86286896240E-02  0.12085508319E-01 -0.39574264420E-02  0.15376480124E-01  0.51100000000E-03 0.  1.
</event>
<event>
 8    1  0.1213322E+005  0.1043930E+01  0.7957747E-01            NaN
         13   -1    0    0    0    0  0.00000000000E+00  0.00000000000E+00  0.74505805969E-08  0.10566000000E+00  0.10566000000E+00 0.  1.
     999900   -1    0    0    0    0 -0.00000000000E+00 -0.00000000000E+00 -0.74505805969E-08  0.93827000000E+00  0.93827000000E+00 0. -1.
     999902    2    1    2    0    0 -0.84885366006E-02  0.22149262793E-01  0.36191108205E-02  0.10199353535E+01  0.10196530696E+01 0.  0.
     999903    2    3    3    0    0  0.29874207384E-01  0.15051940670E-01 -0.12459014001E+00  0.12978947554E+00  0.14267998763E-01 0.  0.
         14    1    1    2    0    0  0.84885366006E-02 -0.22149262793E-01 -0.36191108205E-02  0.23994646466E-01  0.00000000000E+00 0.  1.
     999901    1    3    3    0    0 -0.38362743984E-01  0.70973221227E-02  0.12820925083E+00  0.89014587799E+00  0.88000000000E+00 0.  1.
        -11    1    4    4    0    0  0.30875877383E-01  0.12047430466E-01 -0.11453106693E+00  0.11923123247E+00  0.51100000000E-03 0.  1.
         11    1    4    4    0    0 -0.10016699991E-02  0.30045102043E-02 -0.10059073086E-01  0.10558243069E-01  0.51100000000E-03 0. -1.
</event>
<event>
 8    1  0.1213322E+005  0.1043930E+01  0.7957747E-01            NaN
         13   -1    0    0    0    0  0.00000000000E+00  0.00000000000E+00  0.74505805969E-08  0.10566000000E+00  0.10566000000E+00 0. -1.
     999900   -1    0    0    0    0 -0.00000000000E+00 -0.00000000000E+00 -0.74505805969E-08  0.93827000000E+00  0.93827000000E+00 0.  1.
     999902    2    1    2    0    0 -0.11562190268E-01 -0.20622511976E-01 -0.11614613808E-01  0.10175885593E+01  0.10172475630E+01 0.  0.
     999903    2    3    3    0    0  0.11121169220E+00 -0.12603996793E-01  0.54943964633E-01  0.12653986975E+00  0.21600883500E-01 0.  0.
         14    1    1    2    0    0  0.11562190268E-01  0.20622511976E-01  0.11614613808E-01  0.26341440695E-01  0.00000000000E+00 0. -1.
     999901    1    3    3    0    0 -0.12277388247E+00 -0.80185151828E-02 -0.66558578442E-01  0.89104868956E+00  0.88000000000E+00 0.  1.
        -11    1    4    4    0    0  0.93666229717E-01 -0.24754135421E-02  0.44191291906E-01  0.10359836709E+00  0.51100000000E-03 0.  1.
         11    1    4    4    0    0  0.17545462484E-01 -0.10128583251E-01  0.10752672727E-01  0.22941502658E-01  0.51100000000E-03 0. -1.
</event>
<event>
 8    1  0.1213322E+005  0.1043930E+01  0.7957747E-01            NaN
         13   -1    0    0    0    0  0.00000000000E+00  0.00000000000E+00  0.74505805969E-08  0.10566000000E+00  0.10566000000E+00 0. -1.
     999900   -1    0    0    0    0 -0.00000000000E+00 -0.00000000000E+00 -0.74505805969E-08  0.93827000000E+00  0.93827000000E+00 0.  1.
     999902    2    1    2    0    0  0.21686568622E-01  0.87904837202E-02 -0.35774115215E-03  0.10205268412E+01  0.10202584603E+01 0.  0.
     999903    2    3    3    0    0  0.34157964605E-01  0.68699125112E-02 -0.12521726704E+00  0.13162351378E+00  0.20770728732E-01 0.  0.
         14    1    1    2    0    0 -0.21686568622E-01 -0.87904837202E-02  0.35774115215E-03  0.23403158790E-01  0.00000000000E+00 0.  1.
     999901    1    3    3    0    0 -0.12471395983E-01  0.19205712091E-02  0.12485952588E+00  0.88890332743E+00  0.88000000000E+00 0. -1.
        -11    1    4    4    0    0  0.25409449672E-02  0.64756662597E-02 -0.10337337107E-01  0.12470457662E-01  0.51100000000E-03 0. -1.
         11    1    4    4    0    0  0.31617019638E-01  0.39424625146E-03 -0.11487992993E+00  0.11915305612E+00  0.51100000000E-03 0.  1.
</event>
<event>
 8    1  0.1213322E+005  0.1043930E+01  0.7957747E-01            NaN
         13   -1    0    0    0    0  0.00000000000E+00  0.00000000000E+00  0.74505805969E-08  0.10566000000E+00  0.10566000000E+00 0.  1.
     999900   -1    0    0    0    0 -0.00000000000E+00 -0.00000000000E+00 -0.74505805969E-08  0.93827000000E+00  0.93827000000E+00 0.  1.
     999902    2    1    2    0    0  0.12756232315E-01 -0.12552213590E-01 -0.16425045474E-01  0.10196388154E+01  0.10193494260E+01 0.  0.
     999903    2    3    3    0    0 -0.10748611855E+00  0.63584422896E-01  0.17353715835E-01  0.12756481902E+00  0.19374908607E-01 0.  0.
         14    1    1    2    0    0 -0.12756232315E-01  0.12552213590E-01  0.16425045474E-01  0.24291184568E-01  0.00000000000E+00 0.  1.
     999901    1    3    3    0    0  0.12024235086E+00 -0.76136636485E-01 -0.33778761309E-01  0.89207399641E+00  0.88000000000E+00 0.  1.
        -11    1    4    4    0    0 -0.37207022274E-01  0.27223011849E-01 -0.18328948538E-02  0.46141906172E-01  0.51100000000E-03 0. -1.
         11    1    4    4    0    0 -0.70279096274E-01  0.36361411047E-01  0.19186610689E-01  0.81422912850E-01  0.51100000000E-03 0.  1.
</event>
<event>
 8    1  0.1213322E+005  0.1043930E+01  0.7957747E-01            NaN
         13   -1    0    0    0    0  0.00000000000E+00  0.00000000000E+00  0.74505805969E-08  0.10566000000E+00  0.10566000000E+00 0. -1.
     999900   -1    0    0    0    0 -0.00000000000E+00 -0.00000000000E+00 -0.74505805969E-08  0.93827000000E+00  0.93827000000E+00 0.  1.
     999902    2    1    2    0    0  0.86238352455E-02 -0.20213832233E-01  0.81159514578E-02  0.10205027036E+01  0.10202337624E+01 0.  0.
     999903    2    3    3    0    0 -0.48455824367E-01 -0.11354146772E+00 -0.42674285583E-01  0.13227537727E+00  0.20881785739E-01 0.  0.
         14    1    1    2    0    0 -0.86238352455E-02  0.20213832233E-01 -0.81159514578E-02  0.23427296386E-01  0.00000000000E+00 0. -1.
     999901    1    3    3    0    0  0.57079659613E-01  0.93327635482E-01  0.50790237041E-01  0.88822732634E+00  0.88000000000E+00 0.  1.
        -11    1    4    4    0    0 -0.39223432073E-01 -0.96150099956E-01 -0.27534467770E-01  0.10743243170E+00  0.51100000000E-03 0. -1.
         11    1    4    4    0    0 -0.92323922948E-02 -0.17391367759E-01 -0.15139817814E-01  0.24842945567E-01  0.51100000000E-03 0.  1.
</event>
<event>
 8    1  0.1213322E+005  0.1043930E+01  0.7957747E-01            NaN
         13   -1    0    0    0    0  0.00000000000E+00  0.00000000000E+00  0.74505805969E-08  0.10566000000E+00  0.10566000000E+00 0. -1.
     999900   -1    0    0    0    0 -0.00000000000E+00 -0.00000000000E+00 -0.74505805969E-08  0.93827000000E+00  0.93827000000E+00 0.  1.
     999902    2    1    2    0    0  0.23807114016E-01  0.15062916211E-01 -0.76413917132E-02  0.10147399162E+01  0.10143199873E+01 0.  0.
     999903    2    3    3    0    0 -0.65806242716E-01  0.46561230811E-01 -0.94011913449E-01  0.12542413175E+00  0.19863613940E-01 0.  0.
         14    1    1    2    0    0 -0.23807114016E-01 -0.15062916211E-01  0.76413917132E-02  0.29190083759E-01  0.00000000000E+00 0.  1.
     999901    1    3    3    0    0  0.89613356732E-01 -0.31498314600E-01  0.86370521736E-01  0.88931578450E+00  0.88000000000E+00 0. -1.
        -11    1    4    4    0    0 -0.53649524675E-01  0.28692109319E-01 -0.75491088828E-01  0.96957074257E-01  0.51100000000E-03 0. -1.
         11    1    4    4    0    0 -0.12156718041E-01  0.17869121492E-01 -0.18520824622E-01  0.28467057489E-01  0.51100000000E-03 0.  1.
</event>
<event>
 8    1  0.1213322E+005  0.1043930E+01  0.7957747E-01            NaN
         13   -1    0    0    0    0  0.00000000000E+00  0.00000000000E+00  0.74505805969E-08  0.10566000000E+00  0.10566000000E+00 0. -1.
     999900   -1    0    0    0    0 -0.00000000000E+00 -0.00000000000E+00 -0.74505805969E-08  0.93827000000E+00  0.93827000000E+00 0. -1.
     999902    2    1    2    0    0 -0.67096112140E-02  0.13919286738E-01  0.18229565800E-01  0.10200326676E+01  0.10197526958E+01 0.  0.
     999903    2    3    3    0    0 -0.28128328830E-01 -0.10986839284E+00  0.59766734014E-01  0.13014082732E+00  0.22412180018E-01 0.  0.
         14    1    1    2    0    0  0.67096112140E-02 -0.13919286738E-01 -0.18229565800E-01  0.23897332386E-01  0.00000000000E+00 0.  1.
     999901    1    3    3    0    0  0.21418717616E-01  0.12378767958E+00 -0.41537168214E-01  0.88989184029E+00  0.88000000000E+00 0.  1.
        -11    1    4    4    0    0 -0.14469010774E-01 -0.25062360190E-01  0.87705094229E-02  0.30243298888E-01  0.51100000000E-03 0. -1.
         11    1    4    4    0    0 -0.13659318056E-01 -0.84806032648E-01  0.50996224591E-01  0.99897528432E-01  0.51100000000E-03 0.  1.
</event>
<event>
 8    1  0.1213322E+005  0.1043930E+01  0.7957747E-01            NaN
         13   -1    0    0    0    0  0.00000000000E+00  0.00000000000E+00  0.74505805969E-08  0.10566000000E+00  0.10566000000E+00 0.  1.
     999900   -1    0    0    0    0 -0.00000000000E+00 -0.00000000000E+00 -0.74505805969E-08  0.93827000000E+00  0.93827000000E+00 0.  1.
     999902    2    1    2    0    0  0.14044136709E-01 -0.18124985484E-01  0.29178296654E-02  0.10208157921E+01  0.10205540725E+01 0.  0.
     999903    2    3    3    0    0  0.29000644389E-01  0.10364255463E-01  0.12640138529E+00  0.13161192212E+00  0.19898057052E-01 0.  0.
         14    1    1    2    0    0 -0.14044136709E-01  0.18124985484E-01 -0.29178296654E-02  0.23114207852E-01  0.00000000000E+00 0.  1.
     999901    1    3    3    0    0 -0.14956507680E-01 -0.28489240947E-01 -0.12348355562E+00  0.88920387003E+00  0.88000000000E+00 0.  1.
        -11    1    4    4    0    0  0.30436359496E-01  0.11098425441E-01  0.99185664474E-01  0.10434368301E+00  0.51100000000E-03 0.  1.
         11    1    4    4    0    0 -0.14357151067E-02 -0.73416997827E-03  0.27215720811E-01  0.27268239102E-01  0.51100000000E-03 0. -1.
</event>
<event>
 8    1  0.1213322E+005  0.1043930E+01  0.7957747E-01            NaN
         13   -1    0    0    0    0  0.00000000000E+00  0.00000000000E+00  0.74505805969E-08  0.10566000000E+00  0.10566000000E+00 0. -1.
     999900   -1    0    0    0    0 -0.00000000000E+00 -0.00000000000E+00 -0.74505805969E-08  0.93827000000E+00  0.93827000000E+00 0.  1.
     999902    2    1    2    0    0  0.16292503341E-01  0.17886296805E-01 -0.79764207555E-02  0.10184547460E+01  0.10181360818E+01 0.  0.
     999903    2    3    3    0    0  0.75280345756E-01 -0.10216485243E+00  0.86575815911E-03  0.12830305774E+00  0.18871607202E-01 0.  0.
         14    1    1    2    0    0 -0.16292503341E-01 -0.17886296805E-01  0.79764207555E-02  0.25475254004E-01  0.00000000000E+00 0. -1.
     999901    1    3    3    0    0 -0.58987842414E-01  0.12005114923E+00 -0.88421789146E-02  0.89015168826E+00  0.88000000000E+00 0. -1.
        -11    1    4    4    0    0  0.65944916241E-01 -0.86634206786E-01 -0.56887918341E-02  0.10902679137E+00  0.51100000000E-03 0.  1.
         11    1    4    4    0    0  0.93354295145E-02 -0.15530645641E-01  0.65545499932E-02  0.19276266362E-01  0.51100000000E-03 0. -1.
</event>
<event>
 8    1  0.1213322E+005  0.1043930E+01  0.7957747E-01            NaN
         13   -1    0    0    0    0  0.00000000000E+00  0.00000000000E+00  0.74505805969E-08  0.10566000000E+00  0.10566000000E+00 0. -1.
     999900   -1    0    0    0    0 -0.00000000000E+00 -0.00000000000E+00 -0.74505805969E-08  0.93827000000E+00  0.93827000000E+00 0.  1.
     999902    2    1    2    0    0 -0.77397504447E-02 -0.18479475921E-01  0.12983716387E-01  0.10200559208E+01  0.10197765000E+01 0.  0.
     999903    2    3    3    0    0 -0.92984253672E-01  0.87879940206E-01  0.57274504089E-02  0.12953270148E+00  0.19415502619E-01 0.  0.
         14    1    1    2    0    0  0.77397504447E-02  0.18479475921E-01 -0.12983716387E-01  0.23874079217E-01  0.00000000000E+00 0. -1.
     999901    1    3    3    0    0  0.85244503227E-01 -0.10635941613E+00  0.72562659784E-02  0.89052321931E+00  0.88000000000E+00 0. -1.
        -11    1    4    4    0    0 -0.67466722066E-01  0.56256558228E-01 -0.32871212744E-02  0.87906912227E-01  0.51100000000E-03 0.  1.
         11    1    4    4    0    0 -0.25517531606E-01  0.31623381977E-01  0.90145716832E-02  0.41625789249E-01  0.51100000000E-03 0. -1.
</event>
<event>
 8    1  0.1213322E+005  0.1043930E+01  0.7957747E-01            NaN
         13   -1    0    0    0    0  0.00000000000E+00  0.00000000000E+00  0.74505805969E-08  0.10566000000E+00  0.10566000000E+00 0. -1.
     999900   -1    0    0    0    0 -0.00000000000E+00 -0.00000000000E+00 -0.74505805969E-08  0.93827000000E+00  0.93827000000E+00 0. -1.
     999902    2    1    2    0    0 -0.16676438316E-01 -0.10854166568E-01 -0.15650750921E-01  0.10186147372E+01  0.10183001131E+01 0.  0.
     999903    2    3    3    0    0  0.53514960618E-02 -0.11841563980E+00  0.47817881144E-01  0.12952364643E+00  0.20950488459E-01 0.  0.
         14    1    1    2    0    0  0.16676438316E-01  0.10854166568E-01  0.15650750921E-01  0.25315262811E-01  0.00000000000E+00 0. -1.
     999901    1    3    3    0    0 -0.22027934378E-01  0.10756147323E+00 -0.63468632065E-01  0.88909109076E+00  0.88000000000E+00 0.  1.
        -11    1    4    4    0    0  0.10028765946E-01 -0.10507353841E+00  0.37509327379E-01  0.11201890636E+00  0.51100000000E-03 0.  1.
         11    1    4    4    0    0 -0.46772698843E-02 -0.13342101395E-01  0.10308553765E-01  0.17504740070E-01  0.51100000000E-03 0. -1.
</event>
<event>
 8    1  0.1213322E+005  0.1043930E+01  0.7957747E-01            NaN
         13   -1    0    0    0    0  0.00000000000E+00  0.00000000000E+00  0.74505805969E-08  0.10566000000E+00  0.10566000000E+00 0.  1.
     999900   -1    0    0    0    0 -0.00000000000E+00 -0.00000000000E+00 -0.74505805969E-08  0.93827000000E+00  0.93827000000E+00 0. -1.
     999902    2    1    2    0    0 -0.22628979521E-01 -0.55200898488E-02  0.11772102718E-02  0.10206077375E+01  0.10203412301E+01 0.  0.
     999903    2    3    3    0    0 -0.25536321315E-01 -0.63378486869E-01 -0.11077561636E+00  0.13162546422E+00  0.19623693512E-01 0.  0.
         14    1    1    2    0    0  0.22628979521E-01  0.55200898488E-02 -0.11772102718E-02  0.23322262543E-01  0.00000000000E+00 0. -1.
     999901    1    3    3    0    0  0.29073417943E-02  0.57858397020E-01  0.11195282663E+00  0.88898227324E+00  0.88000000000E+00 0.  1.
        -11    1    4    4    0    0 -0.16445681986E-01 -0.52521624080E-01 -0.98699598192E-01  0.11300819995E+00  0.51100000000E-03 0.  1.
         11    1    4    4    0    0 -0.90906393295E-02 -0.10856862789E-01 -0.12076018166E-01  0.18617264267E-01  0.51100000000E-03 0. -1.
</event>
<event>
 8    1  0.1213322E+005  0.1043930E+01  0.7957747E-01            NaN
         13   -1    0    0    0    0  0.00000000000E+00  0.00000000000E+00  0.74505805969E-08  0.10566000000E+00  0.10566000000E+00 0. -1.
     999900   -1    0    0    0    0 -0.00000000000E+00 -0.00000000000E+00 -0.74505805969E-08  0.93827000000E+00  0.93827000000E+00 0.  1.
     999902    2    1    2    0    0 -0.12753638490E-01 -0.16991718634E-01  0.47607635865E-02  0.10221575709E+01  0.10219256632E+01 0.  0.
     999903    2    3    3    0    0  0.74848107369E-01 -0.57980978874E-02  0.10660713487E+00  0.13189241586E+00  0.19866329334E-01 0.  0.
         14    1    1    2    0    0  0.12753638490E-01  0.16991718634E-01 -0.47607635865E-02  0.21772429051E-01  0.00000000000E+00 0.  1.
     999901    1    3    3    0    0 -0.87601745859E-01 -0.11193620747E-01 -0.10184637128E+00  0.89026515509E+00  0.88000000000E+00 0.  1.
        -11    1    4    4    0    0  0.57631855131E-01 -0.34728491534E-02  0.65815009864E-01  0.87552087647E-01  0.51100000000E-03 0. -1.
         11    1    4    4    0    0  0.17216252238E-01 -0.23252487340E-02  0.40792125002E-01  0.44340328212E-01  0.51100000000E-03 0.  1.
</event>
<event>
 8    1  0.1213322E+005  0.1043930E+01  0.7957747E-01            NaN
         13   -1    0    0    0    0  0.00000000000E+00  0.00000000000E+00  0.74505805969E-08  0.10566000000E+00  0.10566000000E+00 0. -1.
     999900   -1    0    0    0    0 -0.00000000000E+00 -0.00000000000E+00 -0.74505805969E-08  0.93827000000E+00  0.93827000000E+00 0. -1.
     999902    2    1    2    0    0 -0.17556557096E-01  0.15566591386E-01  0.12542035428E-02  0.10204326706E+01  0.10201621002E+01 0.  0.
     999903    2    3    3    0    0 -0.40189251949E-01  0.99742529003E-01  0.75633944470E-01  0.13300370258E+00  0.20143070244E-01 0.  0.
         14    1    1    2    0    0  0.17556557096E-01 -0.15566591386E-01 -0.12542035428E-02  0.23497329443E-01  0.00000000000E+00 0.  1.
     999901    1    3    3    0    0  0.22632694853E-01 -0.84175937617E-01 -0.74379740927E-01  0.88742896798E+00  0.88000000000E+00 0. -1.
        -11    1    4    4    0    0 -0.28293483768E-01  0.76181187454E-01  0.46263943087E-01  0.93513143978E-01  0.51100000000E-03 0. -1.
         11    1    4    4    0    0 -0.11895768181E-01  0.23561341548E-01  0.29370001383E-01  0.39490558598E-01  0.51100000000E-03 0.  1.
</event>
<event>
 8    1  0.1213322E+005  0.1043930E+01  0.7957747E-01            NaN
         13   -1    0    0    0    0  0.00000000000E+00  0.00000000000E+00  0.74505805969E-08  0.10566000000E+00  0.10566000000E+00 0. -1.
     999900   -1    0    0    0    0 -0.00000000000E+00 -0.00000000000E+00 -0.74505805969E-08  0.93827000000E+00  0.93827000000E+00 0.  1.
     999902    2    1    2    0    0  0.12691983115E-02 -0.17895023896E-01 -0.25685645391E-02  0.10258070789E+01  0.10256469777E+01 0.  0.
     999903    2    3    3    0    0 -0.13311309337E-01 -0.69454020745E-01  0.11482026150E+00  0.13639656749E+00  0.20476308728E-01 0.  0.
         14    1    1    2    0    0 -0.12691983115E-02  0.17895023896E-01  0.25685645391E-02  0.18122921077E-01  0.00000000000E+00 0. -1.
     999901    1    3    3    0    0  0.14580507648E-01  0.51558996849E-01 -0.11738882604E+00  0.88941051143E+00  0.88000000000E+00 0.  1.
        -11    1    4    4    0    0 -0.25872723633E-02 -0.23922612772E-01  0.58010437403E-01  0.62804915005E-01  0.51100000000E-03 0. -1.
         11    1    4    4    0    0 -0.10724036973E-01 -0.45531407973E-01  0.56809824099E-01  0.73591652490E-01  0.51100000000E-03 0.  1.
</event>
<event>
 8    1  0.1213322E+005  0.1043930E+01  0.7957747E-01            NaN
         13   -1    0    0    0    0  0.00000000000E+00  0.00000000000E+00  0.74505805969E-08  0.10566000000E+00  0.10566000000E+00 0.  1.
     999900   -1    0    0    0    0 -0.00000000000E+00 -0.00000000000E+00 -0.74505805969E-08  0.93827000000E+00  0.93827000000E+00 0. -1.
     999902    2    1    2    0    0 -0.13368161380E-01 -0.15197337430E-01 -0.11662235168E-01  0.10205703225E+01  0.10203029494E+01 0.  0.
     999903    2    3    3    0    0  0.18788253871E-01 -0.11306732710E+00  0.61181446858E-01  0.13157157564E+00  0.20753099373E-01 0.  0.
         14    1    1    2    0    0  0.13368161380E-01  0.15197337430E-01  0.11662235168E-01  0.23359677497E-01  0.00000000000E+00 0. -1.
     999901    1    3    3    0    0 -0.32156415251E-01  0.97869989675E-01 -0.72843682026E-01  0.88899874687E+00  0.88000000000E+00 0. -1.
        -11    1    4    4    0    0 -0.10196842928E-02 -0.56372910701E-01  0.31342669272E-01  0.64510222873E-01  0.51100000000E-03 0.  1.
         11    1    4    4    0    0  0.19807938163E-01 -0.56694416403E-01  0.29838777586E-01  0.67061352763E-01  0.51100000000E-03 0. -1.
</event>
<event>
 8    1  0.1213322E+005  0.1043930E+01  0.7957747E-01            NaN
         13   -1    0    0    0    0  0.00000000000E+00  0.00000000000E+00  0.74505805969E-08  0.10566000000E+00  0.10566000000E+00 0.  1.
     999900   -1    0    0    0    0 -0.00000000000E+00 -0.00000000000E+00 -0.74505805969E-08  0.93827000000E+00  0.93827000000E+00 0.  1.
     999902    2    1    2    0    0 -0.20950040479E-01 -0.24951075887E-02  0.97895131911E-02  0.10206713602E+01  0.10204063216E+01 0.  0.
     999903    2    3    3    0    0 -0.59027547473E-01 -0.55451508135E-01 -0.10136348365E+00  0.13128434340E+00  0.20047490848E-01 0.  0.
         14    1    1    2    0    0  0.20950040479E-01  0.24951075887E-02 -0.97895131911E-02  0.23258639824E-01  0.00000000000E+00 0. -1.
     999901    1    3    3    0    0  0.38077506994E-01  0.52956400547E-01  0.11115299684E+00  0.88938701677E+00  0.88000000000E+00 0. -1.
        -11    1    4    4    0    0 -0.50565989443E-01 -0.40488611797E-01 -0.69056449850E-01  0.94685275310E-01  0.51100000000E-03 0. -1.
         11    1    4    4    0    0 -0.84615580294E-02 -0.14962896338E-01 -0.32307033803E-01  0.36599068092E-01  0.51100000000E-03 0.  1.
</event>
<event>
 8    1  0.1213322E+005  0.1043930E+01  0.7957747E-01            NaN
         13   -1    0    0    0    0  0.00000000000E+00  0.00000000000E+00  0.74505805969E-08  0.10566000000E+00  0.10566000000E+00 0. -1.
     999900   -1    0    0    0    0 -0.00000000000E+00 -0.00000000000E+00 -0.74505805969E-08  0.93827000000E+00  0.93827000000E+00 0.  1.
     999902    2    1    2    0    0  0.21350010629E-01  0.38499749881E-02 -0.82256982868E-02  0.10207285480E+01  0.10204648261E+01 0.  0.
     999903    2    3    3    0    0  0.50727439082E-01 -0.50913501168E-01 -0.10971291342E+00  0.13271856697E+00  0.20293766802E-01 0.  0.
         14    1    1    2    0    0 -0.21350010629E-01 -0.38499749881E-02  0.82256982868E-02  0.23201451971E-01  0.00000000000E+00 0. -1.
     999901    1    3    3    0    0 -0.29377428453E-01  0.54763476156E-01  0.10148721513E+00  0.88800998106E+00  0.88000000000E+00 0. -1.
        -11    1    4    4    0    0  0.41124414200E-01 -0.46217026278E-01 -0.79960188151E-01  0.10109957355E+00  0.51100000000E-03 0.  1.
         11    1    4    4    0    0  0.96030248817E-02 -0.46964748899E-02 -0.29752725267E-01  0.31618993423E-01  0.51100000000E-03 0. -1.
</event>
<event>
 8    1  0.1213322E+005  0.1043930E+01  0.7957747E-01            NaN
         13   -1    0    0    0    0  0.00000000000E+00  0.00000000000E+00  0.74505805969E-08  0.10566000000E+00  0.10566000000E+00 0.  1.
     999900   -1    0    0    0    0 -0.00000000000E+00 -0.00000000000E+00 -0.74505805969E-08  0.93827000000E+00  0.93827000000E+00 0.  1.
     999902    2    1    2    0    0 -0.16861923344E-01 -0.15218697881E-01  0.22861112004E-02  0.10211010813E+01  0.10208458545E+01 0.  0.
     999903    2    3    3    0    0  0.12275755698E+00  0.15110710461E-01  0.31310029936E-01  0.12910564402E+00  0.19753429497E-01 0.  0.
         14    1    1    2    0    0  0.16861923344E-01  0.15218697881E-01 -0.22861112004E-02  0.22828918688E-01  0.00000000000E+00 0.  1.
     999901    1    3    3    0    0 -0.13961948032E+00 -0.30329408341E-01 -0.29023918736E-01  0.89199543729E+00  0.88000000000E+00 0. -1.
        -11    1    4    4    0    0  0.65608548147E-01  0.17075083880E-01  0.21203179901E-01  0.71034329999E-01  0.51100000000E-03 0. -1.
         11    1    4    4    0    0  0.57149008831E-01 -0.19643734191E-02  0.10106850035E-01  0.58071314019E-01  0.51100000000E-03 0.  1.
</event>
<event>
 8    1  0.1213322E+005  0.1043930E+01  0.7957747E-01            NaN
         13   -1    0    0    0    0  0.00000000000E+00  0.00000000000E+00  0.74505805969E-08  0.10566000000E+00  0.10566000000E+00 0.  1.
     999900   -1    0    0    0    0 -0.00000000000E+00 -0.00000000000E+00 -0.74505805969E-08  0.93827000000E+00  0.93827000000E+00 0. -1.
     999902    2    1    2    0    0 -0.10461154654E-01 -0.19777852489E-01 -0.31595167819E-02  0.10213339439E+01  0.10210839550E+01 0.  0.
     999903    2    3    3    0    0 -0.35573223245E-01  0.39556588516E-01 -0.11860496750E+00  0.13145819752E+00  0.19594424492E-01 0.  0.
         14    1    1    2    0    0  0.10461154654E-01  0.19777852489E-01  0.31595167819E-02  0.22596056118E-01  0.00000000000E+00 0. -1.
     999901    1    3    3    0    0  0.25112068590E-01 -0.59334441005E-01  0.11544545072E+00  0.88987574637E+00  0.88000000000E+00 0.  1.
        -11    1    4    4    0    0 -0.20643239811E-01  0.11940556762E-01 -0.66212234297E-01  0.70377846921E-01  0.51100000000E-03 0.  1.
         11    1    4    4    0    0 -0.14929983434E-01  0.27616031754E-01 -0.52392733205E-01  0.61080350595E-01  0.51100000000E-03 0. -1.
</event>
<event>
 8    1  0.1213322E+005  0.1043930E+01  0.7957747E-01            NaN
         13   -1    0    0    0    0  0.00000000000E+00  0.00000000000E+00  0.74505805969E-08  0.10566000000E+00  0.10566000000E+00 0. -1.
     999900   -1    0    0    0    0 -0.00000000000E+00 -0.00000000000E+00 -0.74505805969E-08  0.93827000000E+00  0.93827000000E+00 0. -1.
     999902    2    1    2    0    0 -0.77414492242E-02 -0.46148954215E-02 -0.22028144642E-01  0.10201294443E+01  0.10198517621E+01 0.  0.
     999903    2    3    3    0    0  0.46444850649E-01 -0.11317369722E+00 -0.44315478854E-01  0.13152498008E+00  0.19223652725E-01 0.  0.
         14    1    1    2    0    0  0.77414492242E-02  0.46148954215E-02  0.22028144642E-01  0.23800555712E-01  0.00000000000E+00 0. -1.
     999901    1    3    3    0    0 -0.54186299873E-01  0.10855880180E+00  0.22287334213E-01  0.88860446421E+00  0.88000000000E+00 0.  1.
        -11    1    4    4    0    0  0.43252615200E-01 -0.84212698124E-01 -0.32846277273E-01  0.10020831452E+00  0.51100000000E-03 0.  1.
         11    1    4    4    0    0  0.31922354484E-02 -0.28960999100E-01 -0.11469201581E-01  0.31316665562E-01  0.51100000000E-03 0. -1.
</event>
<event>
 8    1  0.1213322E+005  0.1043930E+01  0.7957747E-01            NaN
         13   -1    0    0    0    0  0.00000000000E+00  0.00000000000E+00  0.74505805969E-08  0.10566000000E+00  0.10566000000E+00 0.  1.
     999900   -1    0    0    0    0 -0.00000000000E+00 -0.00000000000E+00 -0.74505805969E-08  0.93827000000E+00  0.93827000000E+00 0.  1.
     999902    2    1    2    0    0 -0.14274309888E-01 -0.16613796922E-01  0.91636180700E-02  0.10201866627E+01  0.10199103297E+01 0.  0.
     999903    2    3    3    0    0  0.19017388013E-01  0.12107203449E+00 -0.30644954412E-01  0.12797007027E+00  0.20423688975E-01 0.  0.
         14    1    1    2    0    0  0.14274309888E-01  0.16613796922E-01 -0.91636180700E-02  0.23743337320E-01  0.00000000000E+00 0.  1.
     999901    1    3    3    0    0 -0.33291697901E-01 -0.13768583142E+00  0.39808572482E-01  0.89221659241E+00  0.88000000000E+00 0. -1.
        -11    1    4    4    0    0 -0.55667154649E-03  0.59044823414E-01 -0.17749917927E-01  0.61659725612E-01  0.51100000000E-03 0.  1.
         11    1    4    4    0    0  0.19574059559E-01  0.62027211081E-01 -0.12895036485E-01  0.66310344661E-01  0.51100000000E-03 0. -1.
</event>
<event>
 8    1  0.1213322E+005  0.1043930E+01  0.7957747E-01            NaN
         13   -1    0    0    0    0  0.00000000000E+00  0.00000000000E+00  0.74505805969E-08  0.10566000000E+00  0.10566000000E+00 0.  1.
     999900   -1    0    0    0    0 -0.00000000000E+00 -0.00000000000E+00 -0.74505805969E-08  0.93827000000E+00  0.93827000000E+00 0.  1.
     999902    2    1    2    0    0 -0.89019136378E-02 -0.21305847743E-01  0.78657963942E-02  0.10195362720E+01  0.10192444044E+01 0.  0.
     999903    2    3    3    0    0  0.47701028988E-01 -0.10784848952E+00  0.55012912166E-01  0.13222777292E+00  0.23475062693E-01 0.  0.
         14    1    1    2    0    0  0.89019136378E-02  0.21305847743E-01 -0.78657963942E-02  0.24393728034E-01  0.00000000000E+00 0.  1.
     999901    1    3    3    0    0 -0.56602942626E-01  0.86542641772E-01 -0.47147115771E-01  0.88730849905E+00  0.88000000000E+00 0.  1.
        -11    1    4    4    0    0  0.20767355078E-01 -0.24712051139E-01  0.20648331852E-01  0.38322098555E-01  0.51100000000E-03 0. -1.
         11    1    4    4    0    0  0.26933673911E-01 -0.83136438376E-01  0.34364580313E-01  0.93905674362E-01  0.51100000000E-03 0.  1.
</event>
<event>
 8    1  0.1213322E+005  0.1043930E+01  0.7957747E-01            NaN
         13   -1    0    0    0    0  0.00000000000E+00  0.00000000000E+00  0.74505805969E-08  0.10566000000E+00  0.10566000000E+00 0.  1.
     999900   -1    0    0    0    0 -0.00000000000E+00 -0.00000000000E+00 -0.74505805969E-08  0.93827000000E+00  0.93827000000E+00 0.  1.
     999902    2    1    2    0    0 -0.53400872500E-02 -0.14806317181E-01  0.17317926558E-01  0.10205279885E+01  0.10202596342E+01 0.  0.
     999903    2    3    3    0    0  0.20382594026E-01 -0.12174354054E+00 -0.43031141288E-01  0.13163022385E+00  0.15423907064E-01 0.  0.
         14    1    1    2    0    0  0.53400872500E-02  0.14806317181E-01 -0.17317926558E-01  0.23402011464E-01  0.00000000000E+00 0.  1.
     999901    1    3    3    0    0 -0.25722681276E-01  0.10693722336E+00  0.60349067846E-01  0.88889776468E+00  0.88000000000E+00 0. -1.
        -11    1    4    4    0    0  0.18854688933E-01 -0.66689436242E-01 -0.24984737359E-01  0.73671422023E-01  0.51100000000E-03 0.  1.
         11    1    4    4    0    0  0.15279050937E-02 -0.55054104294E-01 -0.18046403929E-01  0.57958801828E-01  0.51100000000E-03 0. -1.
</event>
<event>
 8    1  0.1213322E+005  0.1043930E+01  0.7957747E-01            NaN
         13   -1    0    0    0    0  0.00000000000E+00  0.00000000000E+00  0.74505805969E-08  0.10566000000E+00  0.10566000000E+00 0. -1.
     999900   -1    0    0    0    0 -0.00000000000E+00 -0.00000000000E+00 -0.74505805969E-08  0.93827000000E+00  0.93827000000E+00 0.  1.
     999902    2    1    2    0    0  0.45394102581E-02 -0.21262546777E-01  0.88435785961E-02  0.10204585062E+01  0.10201885374E+01 0.  0.
     999903    2    3    3    0    0 -0.95150907272E-02  0.60348710401E-01  0.11350074962E+00  0.13039612085E+00  0.19703410076E-01 0.  0.
         14    1    1    2    0    0 -0.45394102581E-02  0.21262546777E-01 -0.88435785961E-02  0.23471493845E-01  0.00000000000E+00 0.  1.
     999901    1    3    3    0    0  0.14054500985E-01 -0.81611257178E-01 -0.10465717102E+00  0.89006238531E+00  0.88000000000E+00 0.  1.
        -11    1    4    4    0    0 -0.10797990858E-01  0.33736538024E-01  0.47798206068E-01  0.59495211814E-01  0.51100000000E-03 0. -1.
         11    1    4    4    0    0  0.12829001308E-02  0.26612172377E-01  0.65702543551E-01  0.70900909031E-01  0.51100000000E-03 0.  1.
</event>
<event>
 8    1  0.1213322E+005  0.1043930E+01  0.7957747E-01            NaN
         13   -1    0    0    0    0  0.00000000000E+00  0.00000000000E+00  0.74505805969E-08  0.10566000000E+00  0.10566000000E+00 0.  1.
     999900   -1    0    0    0    0 -0.00000000000E+00 -0.00000000000E+00 -0.74505805969E-08  0.93827000000E+00  0.93827000000E+00 0. -1.
     999902    2    1    2    0    0 -0.23514625959E-01 -0.46821342347E-03  0.57450226908E-02  0.10197192143E+01  0.10194317603E+01 0.  0.
     999903    2    3    3    0    0  0.18434709995E-01 -0.12324893052E+00 -0.29210927272E-01  0.12951880445E+00  0.19791539279E-01 0.  0.
         14    1    1    2    0    0  0.23514625959E-01  0.46821342347E-03 -0.57450226908E-02  0.24210785685E-01  0.00000000000E+00 0.  1.
     999901    1    3    3    0    0 -0.41949335953E-01  0.12278071710E+00  0.34955949963E-01  0.89020040986E+00  0.88000000000E+00 0. -1.
        -11    1    4    4    0    0  0.13421223839E-01 -0.95279867298E-01 -0.30865913248E-01  0.10105121515E+00  0.51100000000E-03 0.  1.
         11    1    4    4    0    0  0.50134861561E-02 -0.27969063226E-01  0.16549859755E-02  0.28467589303E-01  0.51100000000E-03 0. -1.
</event>
<event>
 8    1  0.1213322E+005  0.1043930E+01  0.7957747E-01            NaN
         13   -1    0    0    0    0  0.00000000000E+00  0.00000000000E+00  0.74505805969E-08  0.10566000000E+00  0.10566000000E+00 0. -1.
     999900   -1    0    0    0    0 -0.00000000000E+00 -0.00000000000E+00 -0.74505805969E-08  0.93827000000E+00  0.93827000000E+00 0.  1.
     999902    2    1    2    0    0 -0.10043632990E-01 -0.14218854488E-01  0.17191978246E-01  0.10194634003E+01  0.10191697650E+01 0.  0.
     999903    2    3    3    0    0  0.12799169493E+00 -0.94796945774E-02  0.90175389921E-03  0.12854164006E+00  0.70994005647E-02 0.  0.
         14    1    1    2    0    0  0.10043632990E-01  0.14218854488E-01 -0.17191978246E-01  0.24466599735E-01  0.00000000000E+00 0.  1.
     999901    1    3    3    0    0 -0.13803532792E+00 -0.47391599106E-02  0.16290224347E-01  0.89092176020E+00  0.88000000000E+00 0.  1.
        -11    1    4    4    0    0  0.11080497521E+00 -0.59065238141E-02  0.14148018383E-02  0.11097248461E+00  0.51100000000E-03 0.  1.
         11    1    4    4    0    0  0.17186719723E-01 -0.35731707633E-02 -0.51304793910E-03  0.17569155453E-01  0.51100000000E-03 0. -1.
</event>
<event>
 8    1  0.1213322E+005  0.1043930E+01  0.7957747E-01            NaN
         13   -1    0    0    0    0  0.00000000000E+00  0.00000000000E+00  0.74505805969E-08  0.10566000000E+00  0.10566000000E+00 0. -1.
     999900   -1    0    0    0    0 -0.00000000000E+00 -0.00000000000E+00 -0.74505805969E-08  0.93827000000E+00  0.93827000000E+00 0. -1.
     999902    2    1    2    0    0 -0.16720662618E-01 -0.61782470231E-02  0.15176465858E-01  0.10205189682E+01  0.10202504046E+01 0.  0.
     999903    2    3    3    0    0  0.44834733236E-01  0.61993607059E-01 -0.10083833890E+00  0.12816483256E+00  0.20112013650E-01 0.  0.
         14    1    1    2    0    0  0.16720662618E-01  0.61782470231E-02 -0.15176465858E-01  0.23411031814E-01  0.00000000000E+00 0.  1.
     999901    1    3    3    0    0 -0.61555395854E-01 -0.68171854082E-01  0.11601480475E+00  0.89235413563E+00  0.88000000000E+00 0.  1.
        -11    1    4    4    0    0  0.27419292665E-01  0.44453570743E-01 -0.81393732115E-01  0.96711624486E-01  0.51100000000E-03 0. -1.
         11    1    4    4    0    0  0.17415440571E-01  0.17540036316E-01 -0.19444606781E-01  0.31453208074E-01  0.51100000000E-03 0.  1.
</event>
<event>
 8    1  0.1213322E+005  0.1043930E+01  0.7957747E-01            NaN
         13   -1    0    0    0    0  0.00000000000E+00  0.00000000000E+00  0.74505805969E-08  0.10566000000E+00  0.10566000000E+00 0.  1.
     999900   -1    0    0    0    0 -0.00000000000E+00 -0.00000000000E+00 -0.74505805969E-08  0.93827000000E+00  0.93827000000E+00 0.  1.
     999902    2    1    2    0    0 -0.18739335141E-01 -0.70746325600E-02 -0.12354410009E-01  0.10203960978E+01  0.10201246746E+01 0.  0.
     999903    2    3    3    0    0 -0.41802540011E-01  0.11860328300E+00 -0.30616519102E-01  0.13098036005E+00  0.20107023302E-01 0.  0.
         14    1    1    2    0    0  0.18739335141E-01  0.70746325600E-02  0.12354410009E-01  0.23533902228E-01  0.00000000000E+00 0.  1.
     999901    1    3    3    0    0  0.23063204870E-01 -0.12567791556E+00  0.18262109093E-01  0.88941573772E+00  0.88000000000E+00 0. -1.
        -11    1    4    4    0    0 -0.92166188562E-02  0.51976496003E-01 -0.76863569703E-02  0.53346446970E-01  0.51100000000E-03 0.  1.
         11    1    4    4    0    0 -0.32585921155E-01  0.66626787002E-01 -0.22930162132E-01  0.77633913080E-01  0.51100000000E-03 0. -1.
</event>
<event>
 7    1  0.1213322E+005  0.1043930E+01  0.7957747E-01            NaN
         13   -1    0    0    0    0  0.00000000000E+00  0.00000000000E+00  0.74505805969E-08  0.10566000000E+00  0.10566000000E+00 0. -1.
     999900   -1    0    0    0    0 -0.00000000000E+00 -0.00000000000E+00 -0.74505805969E-08  0.93827000000E+00  0.93827000000E+00 0. -1.
     999902    2    1    2    0    0  0.18817736738E-01  0.10002412032E-01  0.80193444139E-02  0.10211601658E+01  0.10209062734E+01 0.  0.
         14    1    1    2    0    0 -0.18817736738E-01 -0.10002412032E-01 -0.80193444139E-02  0.22769834151E-01  0.00000000000E+00 0.  1.
     999901    1    3    3    0    0  0.55740797274E-01  0.76713429956E-01  0.97612166706E-01  0.89046062344E+00  0.88000000000E+00 0.  1.
        -11    1    3    3    0    0 -0.41390895695E-01 -0.75035639046E-01 -0.80387416152E-01  0.11749872838E+00  0.51100000000E-03 0.  1.
         11    1    3    3    0    0  0.44678351589E-02  0.83246211216E-02 -0.92054061401E-02  0.13200814029E-01  0.51100000000E-03 0. -1.
</event>
<event>
 7    1  0.1213322E+005  0.1043930E+01  0.7957747E-01            NaN
         13   -1    0    0    0    0  0.00000000000E+00  0.00000000000E+00  0.74505805969E-08  0.10566000000E+00  0.10566000000E+00 0.  1.
     999900   -1    0    0    0    0 -0.00000000000E+00 -0.00000000000E+00 -0.74505805969E-08  0.93827000000E+00  0.93827000000E+00 0.  1.
     999903    2    1    2    0    0  0.25086911955E-01 -0.86490012918E-01  0.60905994274E-01  0.11065893859E+00  0.20639405625E-01 0.  0.
         14    1    1    2    0    0 -0.10295550166E-01  0.33263317826E-01 -0.37577749174E-01  0.51230204948E-01  0.00000000000E+00 0. -1.
     999901    1    1    2    0    0 -0.14791361789E-01  0.53226695092E-01 -0.23328245100E-01  0.88204085646E+00  0.88000000000E+00 0.  1.
        -11    1    3    3    0    0  0.35431579941E-02 -0.33097334295E-01  0.32228751013E-01  0.46335094895E-01  0.51100000000E-03 0.  1.
         11    1    3    3    0    0  0.21543753961E-01 -0.53392678623E-01  0.28677243261E-01  0.64323843692E-01  0.51100000000E-03 0. -1.
</event>
<event>
 8    1  0.1213322E+005  0.1043930E+01  0.7957747E-01            NaN
         13   -1    0    0    0    0  0.00000000000E+00  0.00000000000E+00  0.74505805969E-08  0.10566000000E+00  0.10566000000E+00 0.  1.
     999900   -1    0    0    0    0 -0.00000000000E+00 -0.00000000000E+00 -0.74505805969E-08  0.93827000000E+00  0.93827000000E+00 0. -1.
     999902    2    1    2    0    0  0.11054224105E-01  0.18003021608E-01 -0.10204814057E-01  0.10204684807E+01  0.10201987440E+01 0.  0.
     999903    2    3    3    0    0 -0.16611847708E-01  0.12823781445E+00 -0.25889867395E-01  0.13302093748E+00  0.17418209879E-01 0.  0.
         14    1    1    2    0    0 -0.11054224105E-01 -0.18003021608E-01  0.10204814057E-01  0.23461519293E-01  0.00000000000E+00 0.  1.
     999901    1    3    3    0    0  0.27666071814E-01 -0.11023479284E+00  0.15685053338E-01  0.88744754323E+00  0.88000000000E+00 0. -1.
        -11    1    4    4    0    0 -0.15105936944E-01  0.10413693992E+00 -0.27660532478E-01  0.10880283895E+00  0.51100000000E-03 0. -1.
         11    1    4    4    0    0 -0.15059107645E-02  0.24100874531E-01  0.17706650829E-02  0.24218098526E-01  0.51100000000E-03 0.  1.
</event>
<event>
 8    1  0.1213322E+005  0.1043930E+01  0.7957747E-01            NaN
         13   -1    0    0    0    0  0.00000000000E+00  0.00000000000E+00  0.74505805969E-08  0.10566000000E+00  0.10566000000E+00 0.  1.
     999900   -1    0    0    0    0 -0.00000000000E+00 -0.00000000000E+00 -0.74505805969E-08  0.93827000000E+00  0.93827000000E+00 0. -1.
     999902    2    1    2    0    0 -0.16242330241E-01  0.16906535133E-01  0.29914841908E-01  0.10059228692E+01  0.10052045945E+01 0.  0.
     999903    2    3    3    0    0 -0.21037083417E-02  0.11091756865E+00  0.43322085592E-01  0.12070101613E+00  0.19616308771E-01 0.  0.
         14    1    1    2    0    0  0.16242330241E-01 -0.16906535133E-01 -0.29914841908E-01  0.38007130755E-01  0.00000000000E+00 0. -1.
     999901    1    3    3    0    0 -0.14138621900E-01 -0.94011033519E-01 -0.13407243684E-01  0.88522185312E+00  0.88000000000E+00 0.  1.
        -11    1    4    4    0    0 -0.23967871387E-02  0.28602266409E-01  0.20510301502E-01  0.35281267282E-01  0.51100000000E-03 0.  1.
         11    1    4    4    0    0  0.29307879698E-03  0.82315302243E-01  0.22811784090E-01  0.85419748846E-01  0.51100000000E-03 0. -1.
</event>
<event>
 8    1  0.1213322E+005  0.1043930E+01  0.7957747E-01            NaN
         13   -1    0    0    0    0  0.00000000000E+00  0.00000000000E+00  0.74505805969E-08  0.10566000000E+00  0.10566000000E+00 0. -1.
     999900   -1    0    0    0    0 -0.00000000000E+00 -0.00000000000E+00 -0.74505805969E-08  0.93827000000E+00  0.93827000000E+00 0. -1.
     999902    2    1    2    0    0  0.71112614455E-02 -0.13426752298E-01 -0.25248345531E-01  0.10144626169E+01  0.10140345528E+01 0.  0.
     999903    2    3    3    0    0 -0.38127321559E-01 -0.11247754984E+00 -0.42163433324E-01  0.12758962141E+00  0.19911416663E-01 0.  0.
         14    1    1    2    0    0 -0.71112614455E-02  0.13426752298E-01  0.25248345531E-01  0.29467383132E-01  0.00000000000E+00 0. -1.
     999901    1    3    3    0    0  0.45238583005E-01  0.99050797541E-01  0.16915087793E-01  0.88687299546E+00  0.88000000000E+00 0. -1.
        -11    1    4    4    0    0 -0.12041896709E-01 -0.50495494502E-01 -0.93022903379E-02  0.52740837763E-01  0.51100000000E-03 0. -1.
         11    1    4    4    0    0 -0.26085424851E-01 -0.61982055337E-01 -0.32861142986E-01  0.74848783643E-01  0.51100000000E-03 0.  1.
</event>
<event>
 8    1  0.1213322E+005  0.1043930E+01  0.7957747E-01            NaN
         13   -1    0    0    0    0  0.00000000000E+00  0.00000000000E+00  0.74505805969E-08  0.10566000000E+00  0.10566000000E+00 0.  1.
     999900   -1    0    0    0    0 -0.00000000000E+00 -0.00000000000E+00 -0.74505805969E-08  0.93827000000E+00  0.93827000000E+00 0. -1.
     999902    2    1    2    0    0 -0.23045341855E-01  0.55351305306E-02 -0.10811186113E-02  0.10202046071E+01  0.10199286966E+01 0.  0.
     999903    2    3    3    0    0  0.41728002834E-01 -0.11465139871E+00  0.36241143591E-01  0.12889470630E+00  0.20353264537E-01 0.  0.
         14    1    1    2    0    0  0.23045341855E-01 -0.55351305306E-02  0.10811186113E-02  0.23725392908E-01  0.00000000000E+00 0.  1.
     999901    1    3    3    0    0 -0.64773344689E-01  0.12018652924E+00 -0.37322262203E-01  0.89130990079E+00  0.88000000000E+00 0. -1.
        -11    1    4    4    0    0  0.35613831876E-01 -0.69243040042E-01  0.22137980837E-01  0.80952423877E-01  0.51100000000E-03 0.  1.
         11    1    4    4    0    0  0.61141709585E-02 -0.45408358666E-01  0.14103162755E-01  0.47942282423E-01  0.51100000000E-03 0. -1.
</event>
<event>
 8    1  0.1213322E+005  0.1043930E+01  0.7957747E-01            NaN
         13   -1    0    0    0    0  0.00000000000E+00  0.00000000000E+00  0.74505805969E-08  0.10566000000E+00  0.10566000000E+00 0. -1.
     999900   -1    0    0    0    0 -0.00000000000E+00 -0.00000000000E+00 -0.74505805969E-08  0.93827000000E+00  0.93827000000E+00 0.  1.
     999902    2    1    2    0    0 -0.27803877731E-02  0.19619838374E-01 -0.12595838855E-01  0.10204497153E+01  0.10201795419E+01 0.  0.
     999903    2    3    3    0    0 -0.20217721911E-01 -0.12022164270E+00 -0.36838015844E-01  0.12890757741E+00  0.19953056196E-01 0.  0.
         14    1    1    2    0    0  0.27803877731E-02 -0.19619838374E-01  0.12595838855E-01  0.23480284718E-01  0.00000000000E+00 0. -1.
     999901    1    3    3    0    0  0.17437334138E-01  0.13984148107E+00  0.24242176989E-01  0.89154213787E+00  0.88000000000E+00 0.  1.
        -11    1    4    4    0    0 -0.18833461205E-01 -0.10616982570E+00 -0.38896088397E-01  0.11462939398E+00  0.51100000000E-03 0.  1.
         11    1    4    4    0    0 -0.13842607065E-02 -0.14051816998E-01  0.20580725533E-02  0.14278183438E-01  0.51100000000E-03 0. -1.
</event>
<event>
 8    1  0.1213322E+005  0.1043930E+01  0.7957747E-01            NaN
         13   -1    0    0    0    0  0.00000000000E+00  0.00000000000E+00  0.74505805969E-08  0.10566000000E+00  0.10566000000E+00 0.  1.
     999900   -1    0    0    0    0 -0.00000000000E+00 -0.00000000000E+00 -0.74505805969E-08  0.93827000000E+00  0.93827000000E+00 0.  1.
     999902    2    1    2    0    0 -0.58929953041E-02 -0.19317732326E-01 -0.12599081315E-01  0.10201258192E+01  0.10198480514E+01 0.  0.
     999903    2    3    3    0    0 -0.63768925405E-01  0.11007086751E+00 -0.61060362348E-02  0.12875990513E+00  0.18967281533E-01 0.  0.
         14    1    1    2    0    0  0.58929953041E-02  0.19317732326E-01  0.12599081315E-01  0.23804180849E-01  0.00000000000E+00 0.  1.
     999901    1    3    3    0    0  0.57875930101E-01 -0.12938859983E+00 -0.64930450807E-02  0.89136591403E+00  0.88000000000E+00 0.  1.
        -11    1    4    4    0    0 -0.39130991380E-01  0.48704093510E-01 -0.23230571779E-02  0.62521843596E-01  0.51100000000E-03 0. -1.
         11    1    4    4    0    0 -0.24637934025E-01  0.61366773996E-01 -0.37829790569E-02  0.66238061530E-01  0.51100000000E-03 0.  1.
</event>
<event>
 8    1  0.1213322E+005  0.1043930E+01  0.7957747E-01            NaN
         13   -1    0    0    0    0  0.00000000000E+00  0.00000000000E+00  0.74505805969E-08  0.10566000000E+00  0.10566000000E+00 0.  1.
     999900   -1    0    0    0    0 -0.00000000000E+00 -0.00000000000E+00 -0.74505805969E-08  0.93827000000E+00  0.93827000000E+00 0. -1.
     999902    2    1    2    0    0  0.11749997213E-02  0.25152750968E-02 -0.22596577114E-01  0.10211635218E+01  0.10209097050E+01 0.  0.
     999903    2    3    3    0    0  0.71330152856E-01 -0.35732020073E-01 -0.10541422732E+00  0.13367078137E+00  0.19772468386E-01 0.  0.
         14    1    1    2    0    0 -0.11749997213E-02 -0.25152750968E-02  0.22596577114E-01  0.22766478217E-01  0.00000000000E+00 0.  1.
     999901    1    3    3    0    0 -0.70155153134E-01  0.38247295169E-01  0.82817650205E-01  0.88749274041E+00  0.88000000000E+00 0.  1.
        -11    1    4    4    0    0  0.30371541393E-01 -0.21443045319E-01 -0.35608152293E-01  0.51482388735E-01  0.51100000000E-03 0. -1.
         11    1    4    4    0    0  0.40958611462E-01 -0.14288974753E-01 -0.69806075026E-01  0.82188392635E-01  0.51100000000E-03 0.  1.
</event>
<event>
 8    1  0.1213322E+005  0.1043930E+01  0.7957747E-01            NaN
         13   -1    0    0    0    0  0.00000000000E+00  0.00000000000E+00  0.74505805969E-08  0.10566000000E+00  0.10566000000E+00 0.  1.
     999900   -1    0    0    0    0 -0.00000000000E+00 -0.00000000000E+00 -0.74505805969E-08  0.93827000000E+00  0.93827000000E+00 0.  1.
     999902    2    1    2    0    0  0.22633153478E-01 -0.53433035498E-02  0.39440656982E-02  0.10203425842E+01  0.10200699108E+01 0.  0.
     999903    2    3    3    0    0 -0.61923650227E-01 -0.89861555687E-01 -0.66593068811E-01  0.12946174182E+00  0.20397748261E-01 0.  0.
         14    1    1    2    0    0 -0.22633153478E-01  0.53433035498E-02 -0.39440656982E-02  0.23587415785E-01  0.00000000000E+00 0.  1.
     999901    1    3    3    0    0  0.84556803705E-01  0.84518252137E-01  0.70537134510E-01  0.89088084239E+00  0.88000000000E+00 0. -1.
        -11    1    4    4    0    0 -0.38893865851E-01 -0.69803056010E-01 -0.53880549997E-01  0.96377249484E-01  0.51100000000E-03 0.  1.
         11    1    4    4    0    0 -0.23029784376E-01 -0.20058499677E-01 -0.12712518815E-01  0.33084492339E-01  0.51100000000E-03 0. -1.
</event>
<event>
 8    1  0.1213322E+005  0.1043930E+01  0.7957747E-01            NaN
         13   -1    0    0    0    0  0.00000000000E+00  0.00000000000E+00  0.74505805969E-08  0.10566000000E+00  0.10566000000E+00 0.  1.
     999900   -1    0    0    0    0 -0.00000000000E+00 -0.00000000000E+00 -0.74505805969E-08  0.93827000000E+00  0.93827000000E+00 0. -1.
     999902    2    1    2    0    0 -0.16384435090E-01  0.16594914663E-01 -0.23552032075E-02  0.10204909751E+01  0.10202217614E+01 0.  0.
     999903    2    3    3    0    0 -0.32611751158E-01 -0.11024974612E+00 -0.56593830482E-01  0.12959551410E+00  0.19328807300E-01 0.  0.
         14    1    1    2    0    0  0.16384435090E-01 -0.16594914663E-01  0.23552032075E-02  0.23439024895E-01  0.00000000000E+00 0. -1.
     999901    1    3    3    0    0  0.16227316068E-01  0.12684466079E+00  0.54238627274E-01  0.89089546101E+00  0.88000000000E+00 0.  1.
        -11    1    4    4    0    0 -0.15270022592E-01 -0.31898709116E-01 -0.98057344615E-02  0.36703062305E-01  0.51100000000E-03 0.  1.
         11    1    4    4    0    0 -0.17341728566E-01 -0.78351037007E-01 -0.46788096020E-01  0.92892451792E-01  0.51100000000E-03 0. -1.
</event>
<event>
 8    1  0.1213322E+005  0.1043930E+01  0.7957747E-01            NaN
         13   -1    0    0    0    0  0.00000000000E+00  0.00000000000E+00  0.74505805969E-08  0.10566000000E+00  0.10566000000E+00 0.  1.
     999900   -1    0    0    0    0 -0.00000000000E+00 -0.00000000000E+00 -0.74505805969E-08  0.93827000000E+00  0.93827000000E+00 0. -1.
     999902    2    1    2    0    0 -0.48789097573E-02 -0.23880006115E-01 -0.24495206981E-02  0.10194339063E+01  0.10191395541E+01 0.  0.
     999903    2    3    3    0    0 -0.67040664498E-01  0.10656772730E+00 -0.98644346940E-02  0.12761796354E+00  0.18382229109E-01 0.  0.
         14    1    1    2    0    0  0.48789097573E-02  0.23880006115E-01  0.24495206981E-02  0.24496093650E-01  0.00000000000E+00 0. -1.
     999901    1    3    3    0    0  0.62161754740E-01 -0.13044773342E+00  0.74149139959E-02  0.89181594281E+00  0.88000000000E+00 0.  1.
        -11    1    4    4    0    0 -0.25841197798E-01  0.58076559442E-01 -0.64433893808E-02  0.63893917143E-01  0.51100000000E-03 0.  1.
         11    1    4    4    0    0 -0.41199466700E-01  0.48491167860E-01 -0.34210453132E-02  0.63724046393E-01  0.51100000000E-03 0. -1.
</event>
<event>
 8    1  0.1213322E+005  0.1043930E+01  0.7957747E-01            NaN
         13   -1    0    0    0    0  0.00000000000E+00  0.00000000000E+00  0.74505805969E-08  0.10566000000E+00  0.10566000000E+00 0.  1.
     999900   -1    0    0    0    0 -0.00000000000E+00 -0.00000000000E+00 -0.74505805969E-08  0.93827000000E+00  0.93827000000E+00 0. -1.
     999902    2    1    2    0    0  0.46686082051E-02  0.14733471468E-01 -0.17191269752E-01  0.10208126723E+01  0.10205508812E+01 0.  0.
     999903    2    3    3    0    0 -0.45866654356E-01  0.58811017562E-01 -0.10886469612E+00  0.13351302735E+00  0.20290900517E-01 0.  0.
         14    1    1    2    0    0 -0.46686082051E-02 -0.14733471468E-01  0.17191269752E-01  0.23117327695E-01  0.00000000000E+00 0.  1.
     999901    1    3    3    0    0  0.50535262561E-01 -0.44077546094E-01  0.91673426365E-01  0.88729964495E+00  0.88000000000E+00 0.  1.
        -11    1    4    4    0    0 -0.39431369812E-01  0.56514867945E-01 -0.89400905232E-01  0.11287845765E+00  0.51100000000E-03 0.  1.
         11    1    4    4    0    0 -0.64352845439E-02  0.22961496170E-02 -0.19463790884E-01  0.20634569702E-01  0.51100000000E-03 0. -1.
</event>
<event>
 8    1  0.1231165E+005  0.1043930E+01  0.7957747E-01            NaN
         13   -1    0    0    0    0  0.00000000000E+00  0.00000000000E+00  0.74505805969E-08  0.10566000000E+00  0.10566000000E+00 0. -1.
     999900   -1    0    0    0    0 -0.00000000000E+00 -0.00000000000E+00 -0.74505805969E-08  0.93827000000E+00  0.93827000000E+00 0. -1.
     999902    2    1    2    0    0  0.18409780604E-01 -0.16425555581E-01  0.66332799159E-02  0.10183816282E+01  0.10180611089E+01 0.  0.
     999903    2    3    3    0    0 -0.52100316501E-01  0.82782099859E-01  0.79046314567E-01  0.12705818509E+00  0.18114731989E-01 0.  0.
         14    1    1    2    0    0 -0.18409780604E-01  0.16425555581E-01 -0.66332799159E-02  0.25548371777E-01  0.00000000000E+00 0.  1.
     999901    1    3    3    0    0  0.70510097104E-01 -0.99207655440E-01 -0.72413034651E-01  0.89132344313E+00  0.88000000000E+00 0.  1.
        -11    1    4    4    0    0 -0.36619466505E-01  0.42899069165E-01  0.49681629417E-01  0.75165423467E-01  0.51100000000E-03 0. -1.
         11    1    4    4    0    0 -0.15480849995E-01  0.39883030693E-01  0.29364685150E-01  0.51892761623E-01  0.51100000000E-03 0.  1.
</event>
<event>
 8    1  0.1213322E+005  0.1043930E+01  0.7957747E-01            NaN
         13   -1    0    0    0    0  0.00000000000E+00  0.00000000000E+00  0.74505805969E-08  0.10566000000E+00  0.10566000000E+00 0. -1.
     999900   -1    0    0    0    0 -0.00000000000E+00 -0.00000000000E+00 -0.74505805969E-08  0.93827000000E+00  0.93827000000E+00 0.  1.
     999902    2    1    2    0    0 -0.65166201161E-02 -0.13864636772E-01 -0.19963168977E-01  0.10187660852E+01  0.10184552586E+01 0.  0.
     999903    2    3    3    0    0 -0.96173567080E-01  0.81722645218E-01 -0.18155772460E-01  0.12905907543E+00  0.19966650473E-01 0.  0.
         14    1    1    2    0    0  0.65166201161E-02  0.13864636772E-01  0.19963168977E-01  0.25163914762E-01  0.00000000000E+00 0.  1.
     999901    1    3    3    0    0  0.89656946964E-01 -0.95587281990E-01 -0.18073965174E-02  0.88970700981E+00  0.88000000000E+00 0. -1.
        -11    1    4    4    0    0 -0.22893897303E-01  0.10926746474E-01 -0.82734454908E-02  0.26687737699E-01  0.51100000000E-03 0. -1.
         11    1    4    4    0    0 -0.73279669777E-01  0.70795898744E-01 -0.98823269690E-02  0.10237133773E+00  0.51100000000E-03 0.  1.
</event>
<event>
 8    1  0.1213322E+005  0.1043930E+01  0.7957747E-01            NaN
         13   -1    0    0    0    0  0.00000000000E+00  0.00000000000E+00  0.74505805969E-08  0.10566000000E+00  0.10566000000E+00 0. -1.
     999900   -1    0    0    0    0 -0.00000000000E+00 -0.00000000000E+00 -0.74505805969E-08  0.93827000000E+00  0.93827000000E+00 0. -1.
     999902    2    1    2    0    0 -0.13084802209E-01  0.41603759192E-02 -0.19596478168E-01  0.10200021348E+01  0.10197214386E+01 0.  0.
     999903    2    3    3    0    0  0.42902469812E-01 -0.26457591889E-01 -0.12018017089E+00  0.13197673323E+00  0.20831671940E-01 0.  0.
         14    1    1    2    0    0  0.13084802209E-01 -0.41603759192E-02  0.19596478168E-01  0.23927865204E-01  0.00000000000E+00 0. -1.
     999901    1    3    3    0    0 -0.55987272021E-01  0.30617967808E-01  0.10058369272E+00  0.88802540156E+00  0.88000000000E+00 0.  1.
        -11    1    4    4    0    0  0.27179806127E-01 -0.25362918753E-01 -0.68435089246E-01  0.77882232055E-01  0.51100000000E-03 0. -1.
         11    1    4    4    0    0  0.15722663686E-01 -0.10946731358E-02 -0.51745081640E-01  0.54094501177E-01  0.51100000000E-03 0.  1.
</event>
<event>
 8    1  0.1213322E+005  0.1043930E+01  0.7957747E-01            NaN
         13   -1    0    0    0    0  0.00000000000E+00  0.00000000000E+00  0.74505805969E-08  0.10566000000E+00  0.10566000000E+00 0. -1.
     999900   -1    0    0    0    0 -0.00000000000E+00 -0.00000000000E+00 -0.74505805969E-08  0.93827000000E+00  0.93827000000E+00 0.  1.
     999902    2    1    2    0    0  0.20891029998E-01 -0.71695126205E-02  0.80875046159E-02  0.10204088441E+01  0.10201377183E+01 0.  0.
     999903    2    3    3    0    0  0.12727812428E+00 -0.28717278046E-01  0.20461389520E-01  0.13365316573E+00  0.20496274584E-01 0.  0.
         14    1    1    2    0    0 -0.20891029998E-01  0.71695126205E-02 -0.80875046159E-02  0.23521155935E-01  0.00000000000E+00 0.  1.
     999901    1    3    3    0    0 -0.10638709428E+00  0.21547765425E-01 -0.12373884904E-01  0.88675567833E+00  0.88000000000E+00 0. -1.
        -11    1    4    4    0    0  0.31467035545E-01 -0.97351135050E-02  0.13910415670E-01  0.35759020485E-01  0.51100000000E-03 0. -1.
         11    1    4    4    0    0  0.95811088733E-01 -0.18982164541E-01  0.65509738508E-02  0.97894145250E-01  0.51100000000E-03 0.  1.
</event>
<event>
 8    1  0.1213322E+005  0.1043930E+01  0.7957747E-01            NaN
         13   -1    0    0    0    0  0.00000000000E+00  0.00000000000E+00  0.74505805969E-08  0.10566000000E+00  0.10566000000E+00 0.  1.
     999900   -1    0    0    0    0 -0.00000000000E+00 -0.00000000000E+00 -0.74505805969E-08  0.93827000000E+00  0.93827000000E+00 0. -1.
     999902    2    1    2    0    0  0.65571247448E-02  0.56660736018E-02 -0.22697908202E-01  0.10196340063E+01  0.10193445008E+01 0.  0.
     999903    2    3    3    0    0 -0.55449136342E-01  0.83522962725E-01 -0.83299721067E-01  0.13195216499E+00  0.20538702313E-01 0.  0.
         14    1    1    2    0    0 -0.65571247448E-02 -0.56660736018E-02  0.22697908202E-01  0.24295993739E-01  0.00000000000E+00 0.  1.
     999901    1    3    3    0    0  0.62006261087E-01 -0.77856889123E-01  0.60601812865E-01  0.88768184127E+00  0.88000000000E+00 0.  1.
        -11    1    4    4    0    0 -0.21074357499E-01  0.16108301424E-01 -0.24594974165E-01  0.36177061709E-01  0.51100000000E-03 0.  1.
         11    1    4    4    0    0 -0.34374778843E-01  0.67414661301E-01 -0.58704746902E-01  0.95775103282E-01  0.51100000000E-03 0. -1.
</event>
<event>
 8    1  0.1213322E+005  0.1043930E+01  0.7957747E-01            NaN
         13   -1    0    0    0    0  0.00000000000E+00  0.00000000000E+00  0.74505805969E-08  0.10566000000E+00  0.10566000000E+00 0.  1.
     999900   -1    0    0    0    0 -0.00000000000E+00 -0.00000000000E+00 -0.74505805969E-08  0.93827000000E+00  0.93827000000E+00 0.  1.
     999902    2    1    2    0    0 -0.14940988849E-01 -0.97704375014E-02 -0.15438536523E-01  0.10203282414E+01  0.10200552325E+01 0.  0.
     999903    2    3    3    0    0 -0.11881201604E+00 -0.21315898793E-01 -0.53083533721E-01  0.13334479528E+00  0.19806821520E-01 0.  0.
         14    1    1    2    0    0  0.14940988849E-01  0.97704375014E-02  0.15438536523E-01  0.23601758551E-01  0.00000000000E+00 0.  1.
     999901    1    3    3    0    0  0.10387102719E+00  0.11545461292E-01  0.37644997198E-01  0.88698344617E+00  0.88000000000E+00 0.  1.
        -11    1    4    4    0    0 -0.21104586657E-01 -0.45750433606E-02 -0.16501449244E-02  0.21663764654E-01  0.51100000000E-03 0.  1.
         11    1    4    4    0    0 -0.97707429383E-01 -0.16740855432E-01 -0.51433388796E-01  0.11168103062E+00  0.51100000000E-03 0. -1.
</event>
<event>
 8    1  0.1213322E+005  0.1043930E+01  0.7957747E-01            NaN
         13   -1    0    0    0    0  0.00000000000E+00  0.00000000000E+00  0.74505805969E-08  0.10566000000E+00  0.10566000000E+00 0.  1.
     999900   -1    0    0    0    0 -0.00000000000E+00 -0.00000000000E+00 -0.74505805969E-08  0.93827000000E+00  0.93827000000E+00 0.  1.
     999902    2    1    2    0    0 -0.18452777540E-01 -0.53316584986E-02  0.14187403852E-01  0.10200508457E+01  0.10197713047E+01 0.  0.
     999903    2    3    3    0    0 -0.25032996144E-01  0.10339752521E+00  0.74264407167E-01  0.13130196049E+00  0.20181762555E-01 0.  0.
         14    1    1    2    0    0  0.18452777540E-01  0.53316584986E-02 -0.14187403852E-01  0.23879154285E-01  0.00000000000E+00 0. -1.
     999901    1    3    3    0    0  0.65802186036E-02 -0.10872918371E+00 -0.60077003316E-01  0.88874888523E+00  0.88000000000E+00 0.  1.
        -11    1    4    4    0    0 -0.14144349194E-01  0.72976124045E-01  0.61786018098E-01  0.96661007899E-01  0.51100000000E-03 0.  1.
         11    1    4    4    0    0 -0.10888646950E-01  0.30421401168E-01  0.12478389069E-01  0.34640952588E-01  0.51100000000E-03 0. -1.
</event>
<event>
 8    1  0.1276980E+005  0.1043930E+01  0.7957747E-01            NaN
         13   -1    0    0    0    0  0.00000000000E+00  0.00000000000E+00  0.74505805969E-08  0.10566000000E+00  0.10566000000E+00 0. -1.
     999900   -1    0    0    0    0 -0.00000000000E+00 -0.00000000000E+00 -0.74505805969E-08  0.93827000000E+00  0.93827000000E+00 0.  1.
     999902    2    1    2    0    0 -0.12464094192E-01  0.28523513996E-02  0.19227033925E-01  0.10208395607E+01  0.10205783852E+01 0.  0.
     999903    2    3    3    0    0  0.11743176253E+00  0.23596652472E-01  0.48201546978E-01  0.13059084153E+00  0.19584634306E-01 0.  0.
         14    1    1    2    0    0  0.12464094192E-01 -0.28523513996E-02 -0.19227033925E-01  0.23090439279E-01  0.00000000000E+00 0.  1.
     999901    1    3    3    0    0 -0.12989585672E+00 -0.20744301072E-01 -0.28974513053E-01  0.89024871919E+00  0.88000000000E+00 0. -1.
        -11    1    4    4    0    0  0.54862420318E-01  0.76871907798E-02  0.32186256187E-01  0.64071789998E-01  0.51100000000E-03 0. -1.
         11    1    4    4    0    0  0.62569342212E-01  0.15909461692E-01  0.16015290791E-01  0.66519051529E-01  0.51100000000E-03 0.  1.
</event>
<event>
 8    1  0.1213322E+005  0.1043930E+01  0.7957747E-01            NaN
         13   -1    0    0    0    0  0.00000000000E+00  0.00000000000E+00  0.74505805969E-08  0.10566000000E+00  0.10566000000E+00 0. -1.
     999900   -1    0    0    0    0 -0.00000000000E+00 -0.00000000000E+00 -0.74505805969E-08  0.93827000000E+00  0.93827000000E+00 0. -1.
     999902    2    1    2    0    0 -0.17698598733E-01  0.89149509818E-02 -0.11493866637E-01  0.10210209250E+01  0.10207638824E+01 0.  0.
     999903    2    3    3    0    0 -0.74820862789E-01 -0.49425048885E-01  0.93465384918E-01  0.13103050193E+00  0.19804476554E-01 0.  0.
         14    1    1    2    0    0  0.17698598733E-01 -0.89149509818E-02  0.11493866637E-01  0.22909075023E-01  0.00000000000E+00 0. -1.
     999901    1    3    3    0    0  0.57122264055E-01  0.58339999867E-01 -0.10495925155E+00  0.88999042305E+00  0.88000000000E+00 0. -1.
        -11    1    4    4    0    0 -0.52225000239E-01 -0.43422523890E-01  0.63139060185E-01  0.92734935558E-01  0.51100000000E-03 0.  1.
         11    1    4    4    0    0 -0.22595862550E-01 -0.60025249951E-02  0.30326324733E-01  0.38295566368E-01  0.51100000000E-03 0. -1.
</event>
<event>
 8    1  0.1213322E+005  0.1043930E+01  0.7957747E-01            NaN
         13   -1    0    0    0    0  0.00000000000E+00  0.00000000000E+00  0.74505805969E-08  0.10566000000E+00  0.10566000000E+00 0.  1.
     999900   -1    0    0    0    0 -0.00000000000E+00 -0.00000000000E+00 -0.74505805969E-08  0.93827000000E+00  0.93827000000E+00 0. -1.
     999902    2    1    2    0    0 -0.10175764754E-01  0.18080269681E-01 -0.11036760873E-01  0.10204299483E+01  0.10201593145E+01 0.  0.
     999903    2    3    3    0    0 -0.43188467975E-01 -0.86057263028E-01 -0.85872301974E-01  0.13052274947E+00  0.19774721153E-01 0.  0.
         14    1    1    2    0    0  0.10175764754E-01 -0.18080269681E-01  0.11036760873E-01  0.23500051715E-01  0.00000000000E+00 0.  1.
     999901    1    3    3    0    0  0.33012703221E-01  0.10413753271E+00  0.74835541102E-01  0.88990719882E+00  0.88000000000E+00 0.  1.
        -11    1    4    4    0    0 -0.23889841883E-01 -0.30205604195E-01 -0.26474611807E-01  0.46736166524E-01  0.51100000000E-03 0. -1.
         11    1    4    4    0    0 -0.19298626091E-01 -0.55851658833E-01 -0.59397690167E-01  0.83786582945E-01  0.51100000000E-03 0.  1.
</event>
<event>
 8    1  0.1213322E+005  0.1043930E+01  0.7957747E-01            NaN
         13   -1    0    0    0    0  0.00000000000E+00  0.00000000000E+00  0.74505805969E-08  0.10566000000E+00  0.10566000000E+00 0.  1.
     999900   -1    0    0    0    0 -0.00000000000E+00 -0.00000000000E+00 -0.74505805969E-08  0.93827000000E+00  0.93827000000E+00 0.  1.
     999902    2    1    2    0    0 -0.12808345817E-01  0.15499645254E-01  0.13632082428E-01  0.10196374827E+01  0.10193480611E+01 0.  0.
     999903    2    3    3    0    0  0.90678907836E-01 -0.83141614859E-01 -0.25418471222E-01  0.12724482495E+00  0.20247329429E-01 0.  0.
         14    1    1    2    0    0  0.12808345817E-01 -0.15499645254E-01 -0.13632082428E-01  0.24292517302E-01  0.00000000000E+00 0. -1.
     999901    1    3    3    0    0 -0.10348725365E+00  0.98641260113E-01  0.39050553650E-01  0.89239265775E+00  0.88000000000E+00 0.  1.
        -11    1    4    4    0    0  0.33763789983E-01 -0.30851558287E-01 -0.19517275435E-01  0.49729240132E-01  0.51100000000E-03 0. -1.
         11    1    4    4    0    0  0.56915117853E-01 -0.52290056572E-01 -0.59011957873E-02  0.77515584816E-01  0.51100000000E-03 0.  1.
</event>
<event>
 8    1  0.1213322E+005  0.1043930E+01  0.7957747E-01            NaN
         13   -1    0    0    0    0  0.00000000000E+00  0.00000000000E+00  0.74505805969E-08  0.10566000000E+00  0.10566000000E+00 0.  1.
     999900   -1    0    0    0    0 -0.00000000000E+00 -0.00000000000E+00 -0.74505805969E-08  0.93827000000E+00  0.93827000000E+00 0.  1.
     999902    2    1    2    0    0  0.18825928571E-02  0.20911703104E-01 -0.11250873466E-01  0.10201093024E+01  0.10198311444E+01 0.  0.
     999903    2    3    3    0    0 -0.16660673741E-01  0.11819976778E+00 -0.55265185841E-01  0.13346051058E+00  0.22554466645E-01 0.  0.
         14    1    1    2    0    0 -0.18825928571E-02 -0.20911703104E-01  0.11250873466E-01  0.23820697646E-01  0.00000000000E+00 0.  1.
     999901    1    3    3    0    0  0.18543266598E-01 -0.97288064673E-01  0.44014312374E-01  0.88664879178E+00  0.88000000000E+00 0. -1.
        -11    1    4    4    0    0  0.26375311794E-02  0.37788264516E-01 -0.25051914170E-01  0.45417717142E-01  0.51100000000E-03 0. -1.
         11    1    4    4    0    0 -0.19298204920E-01  0.80411503262E-01 -0.30213271671E-01  0.88042793436E-01  0.51100000000E-03 0.  1.
</event>
<event>
 8    1  0.1213322E+005  0.1043930E+01  0.7957747E-01            NaN
         13   -1    0    0    0    0  0.00000000000E+00  0.00000000000E+00  0.74505805969E-08  0.10566000000E+00  0.10566000000E+00 0. -1.
     999900   -1    0    0    0    0 -0.00000000000E+00 -0.00000000000E+00 -0.74505805969E-08  0.93827000000E+00  0.93827000000E+00 0. -1.
     999902    2    1    2    0    0 -0.23716249858E-01  0.19746030898E-02  0.44543811688E-03  0.10201275216E+01  0.10198497940E+01 0.  0.
     999903    2    3    3    0    0  0.11223403487E+00  0.74145258777E-02 -0.57291399265E-01  0.12780156370E+00  0.19987032762E-01 0.  0.
         14    1    1    2    0    0  0.23716249858E-01 -0.19746030898E-02 -0.44543811688E-03  0.23802478438E-01  0.00000000000E+00 0.  1.
     999901    1    3    3    0    0 -0.13595028473E+00 -0.54399227879E-02  0.57736837382E-01  0.89232595786E+00  0.88000000000E+00 0. -1.
        -11    1    4    4    0    0  0.45707677574E-01  0.26257357935E-02 -0.34449066365E-01  0.57298216133E-01  0.51100000000E-03 0.  1.
         11    1    4    4    0    0  0.66526357294E-01  0.47887900842E-02 -0.22842332900E-01  0.70503347570E-01  0.51100000000E-03 0. -1.
</event>
<event>
 7    1  0.1213322E+005  0.1043930E+01  0.7957747E-01            NaN
         13   -1    0    0    0    0  0.00000000000E+00  0.00000000000E+00  0.74505805969E-08  0.10566000000E+00  0.10566000000E+00 0.  1.
     999900   -1    0    0    0    0 -0.00000000000E+00 -0.00000000000E+00 -0.74505805969E-08  0.93827000000E+00  0.93827000000E+00 0.  1.
     999903    2    1    2    0    0  0.14029784812E-01 -0.10959688726E+00  0.42597083943E-02  0.11238566903E+00  0.20101764315E-01 0.  0.
         14    1    1    2    0    0 -0.34983757026E-01 -0.21325024708E-01 -0.72469624868E-02  0.41606951339E-01  0.00000000000E+00 0. -1.
     999901    1    1    2    0    0  0.20953972214E-01  0.13092191196E+00  0.29872540924E-02  0.88993737963E+00  0.88000000000E+00 0.  1.
        -11    1    3    3    0    0  0.14392821175E-01 -0.58210231409E-01  0.95597809650E-02  0.60722605965E-01  0.51100000000E-03 0. -1.
         11    1    3    3    0    0 -0.36303636239E-03 -0.51386655848E-01 -0.53000725707E-02  0.51663063061E-01  0.51100000000E-03 0.  1.
</event>
<event>
 8    1  0.1213322E+005  0.1043930E+01  0.7957747E-01            NaN
         13   -1    0    0    0    0  0.00000000000E+00  0.00000000000E+00  0.74505805969E-08  0.10566000000E+00  0.10566000000E+00 0.  1.
     999900   -1    0    0    0    0 -0.00000000000E+00 -0.00000000000E+00 -0.74505805969E-08  0.93827000000E+00  0.93827000000E+00 0.  1.
     999902    2    1    2    0    0  0.21406432577E-01 -0.79088666648E-02 -0.65829092571E-02  0.10201787848E+01  0.10199022663E+01 0.  0.
     999903    2    3    3    0    0  0.12903425776E+00  0.11349655145E-01 -0.24704107804E-01  0.13322725445E+00  0.18988260507E-01 0.  0.
         14    1    1    2    0    0 -0.21406432577E-01  0.79088666648E-02  0.65829092571E-02  0.23751215167E-01  0.00000000000E+00 0.  1.
     999901    1    3    3    0    0 -0.10762782518E+00 -0.19258521810E-01  0.18121198547E-01  0.88695153039E+00  0.88000000000E+00 0. -1.
        -11    1    4    4    0    0  0.83365205723E-01  0.10437084124E-01 -0.24604298207E-01  0.87546118483E-01  0.51100000000E-03 0.  1.
         11    1    4    4    0    0  0.45669052040E-01  0.91257102088E-03 -0.99809597789E-04  0.45681135965E-01  0.51100000000E-03 0. -1.
</event>
<event>
 8    1  0.1213322E+005  0.1043930E+01  0.7957747E-01            NaN
         13   -1    0    0    0    0  0.00000000000E+00  0.00000000000E+00  0.74505805969E-08  0.10566000000E+00  0.10566000000E+00 0.  1.
     999900   -1    0    0    0    0 -0.00000000000E+00 -0.00000000000E+00 -0.74505805969E-08  0.93827000000E+00  0.93827000000E+00 0. -1.
     999902    2    1    2    0    0 -0.13075861132E-01 -0.10957964976E-01 -0.15354267596E-01  0.10209776870E+01  0.10207196621E+01 0.  0.
     999903    2    3    3    0    0 -0.11477340721E+00  0.39344277267E-01 -0.51216986215E-01  0.13296933055E+00  0.18350913705E-01 0.  0.
         14    1    1    2    0    0  0.13075861132E-01  0.10957964976E-01  0.15354267596E-01  0.22952313046E-01  0.00000000000E+00 0.  1.
     999901    1    3    3    0    0  0.10169754608E+00 -0.50302242244E-01  0.35862718619E-01  0.88800835640E+00  0.88000000000E+00 0. -1.
        -11    1    4    4    0    0 -0.47498062450E-01  0.11213682560E-01 -0.28844813128E-01  0.56693006433E-01  0.51100000000E-03 0.  1.
         11    1    4    4    0    0 -0.67275344762E-01  0.28130594708E-01 -0.22372173086E-01  0.76276324118E-01  0.51100000000E-03 0. -1.
</event>
<event>
 7    1  0.1448609E+005  0.1043930E+01  0.7957747E-01            NaN
         13   -1    0    0    0    0  0.00000000000E+00  0.00000000000E+00  0.74505805969E-08  0.10566000000E+00  0.10566000000E+00 0.  1.
     999900   -1    0    0    0    0 -0.00000000000E+00 -0.00000000000E+00 -0.74505805969E-08  0.93827000000E+00  0.93827000000E+00 0. -1.
     999903    2    1    2    0    0  0.23800803933E-01 -0.10379349586E+00 -0.41465461264E-01  0.11620101741E+00  0.21064755366E-01 0.  0.
         14    1    1    2    0    0  0.18877656081E-01 -0.31724830481E-02  0.35354414322E-01  0.40204044073E-01  0.00000000000E+00 0.  1.
     999901    1    1    2    0    0 -0.42678460014E-01  0.10696597891E+00  0.61110469415E-02  0.88752493852E+00  0.88000000000E+00 0. -1.
        -11    1    3    3    0    0 -0.66373205676E-03 -0.39237860938E-01 -0.11145220148E-01  0.40798619148E-01  0.51100000000E-03 0.  1.
         11    1    3    3    0    0  0.24464535990E-01 -0.64555634923E-01 -0.30320241115E-01  0.75402398263E-01  0.51100000000E-03 0. -1.
</event>
<event>
 8    1  0.1213322E+005  0.1043930E+01  0.7957747E-01            NaN
         13   -1    0    0    0    0  0.00000000000E+00  0.00000000000E+00  0.74505805969E-08  0.10566000000E+00  0.10566000000E+00 0. -1.
     999900   -1    0    0    0    0 -0.00000000000E+00 -0.00000000000E+00 -0.74505805969E-08  0.93827000000E+00  0.93827000000E+00 0. -1.
     999902    2    1    2    0    0 -0.15258750742E-01  0.15317270940E-01  0.10622196900E-01  0.10198410123E+01  0.10195564776E+01 0.  0.
     999903    2    3    3    0    0 -0.45160281665E-01  0.95664854898E-01 -0.75480733959E-01  0.13149223475E+00  0.20041234955E-01 0.  0.
         14    1    1    2    0    0  0.15258750742E-01 -0.15317270940E-01 -0.10622196900E-01  0.24088987738E-01  0.00000000000E+00 0. -1.
     999901    1    3    3    0    0  0.29901530923E-01 -0.80347583958E-01  0.86102930859E-01  0.88834877751E+00  0.88000000000E+00 0.  1.
        -11    1    4    4    0    0 -0.12223187326E-01  0.10524505447E-01 -0.83051423243E-02  0.18149601465E-01  0.51100000000E-03 0.  1.
         11    1    4    4    0    0 -0.32937094339E-01  0.85140349451E-01 -0.67175591635E-01  0.11334263329E+00  0.51100000000E-03 0. -1.
</event>
<event>
 8    1  0.1213322E+005  0.1043930E+01  0.7957747E-01            NaN
         13   -1    0    0    0    0  0.00000000000E+00  0.00000000000E+00  0.74505805969E-08  0.10566000000E+00  0.10566000000E+00 0. -1.
     999900   -1    0    0    0    0 -0.00000000000E+00 -0.00000000000E+00 -0.74505805969E-08  0.93827000000E+00  0.93827000000E+00 0.  1.
     999902    2    1    2    0    0 -0.13973945938E-01 -0.16420639969E-01  0.89956260576E-02  0.10205669978E+01  0.10202995478E+01 0.  0.
     999903    2    3    3    0    0 -0.97101422452E-01 -0.22719487589E-02  0.87903008099E-01  0.13302165378E+00  0.23107867649E-01 0.  0.
         14    1    1    2    0    0  0.13973945938E-01  0.16420639969E-01 -0.89956260576E-02  0.23363002167E-01  0.00000000000E+00 0. -1.
     999901    1    3    3    0    0  0.83127476514E-01 -0.14148691210E-01 -0.78907382042E-01  0.88754534406E+00  0.88000000000E+00 0.  1.
        -11    1    4    4    0    0 -0.75665924551E-02 -0.12113194886E-02  0.17517296503E-01  0.19126876746E-01  0.51100000000E-03 0.  1.
         11    1    4    4    0    0 -0.89534829997E-01 -0.10606292702E-02  0.70385711597E-01  0.11389477703E+00  0.51100000000E-03 0. -1.
</event>
<event>
 8    1  0.1213322E+005  0.1043930E+01  0.7957747E-01            NaN
         13   -1    0    0    0    0  0.00000000000E+00  0.00000000000E+00  0.74505805969E-08  0.10566000000E+00  0.10566000000E+00 0.  1.
     999900   -1    0    0    0    0 -0.00000000000E+00 -0.00000000000E+00 -0.74505805969E-08  0.93827000000E+00  0.93827000000E+00 0.  1.
     999902    2    1    2    0    0  0.69024242538E-02 -0.20179150235E-01 -0.11231159316E-02  0.10225734330E+01  0.10223503915E+01 0.  0.
     999903    2    3    3    0    0  0.42186588538E-01 -0.85680013061E-01 -0.92406401711E-01  0.13472886690E+00  0.22184490278E-01 0.  0.
         14    1    1    2    0    0 -0.69024242538E-02  0.20179150235E-01  0.11231159316E-02  0.21356567004E-01  0.00000000000E+00 0. -1.
     999901    1    3    3    0    0 -0.35284164284E-01  0.65500862826E-01  0.91283285779E-01  0.88784456609E+00  0.88000000000E+00 0. -1.
        -11    1    4    4    0    0  0.21894797232E-01 -0.56304959966E-01 -0.44762734746E-01  0.75190386391E-01  0.51100000000E-03 0. -1.
         11    1    4    4    0    0  0.20291791306E-01 -0.29375053095E-01 -0.47643666965E-01  0.59538480511E-01  0.51100000000E-03 0.  1.
</event>
<event>
 8    1  0.1213322E+005  0.1043930E+01  0.7957747E-01            NaN
         13   -1    0    0    0    0  0.00000000000E+00  0.00000000000E+00  0.74505805969E-08  0.10566000000E+00  0.10566000000E+00 0.  1.
     999900   -1    0    0    0    0 -0.00000000000E+00 -0.00000000000E+00 -0.74505805969E-08  0.93827000000E+00  0.93827000000E+00 0. -1.
     999902    2    1    2    0    0 -0.17539377782E-01 -0.15082981124E-01  0.38001723273E-02  0.10204871460E+01  0.10202178433E+01 0.  0.
     999903    2    3    3    0    0  0.40742962566E-01 -0.50838076004E-02  0.12109172563E+00  0.13073767391E+00  0.27263515232E-01 0.  0.
         14    1    1    2    0    0  0.17539377782E-01  0.15082981124E-01 -0.38001723273E-02  0.23442853971E-01  0.00000000000E+00 0. -1.
     999901    1    3    3    0    0 -0.58282340348E-01 -0.99991735239E-02 -0.11729155331E+00  0.88974947212E+00  0.88000000000E+00 0. -1.
        -11    1    4    4    0    0  0.21802655869E-02 -0.99945022375E-02  0.29856821813E-01  0.31564767745E-01  0.51100000000E-03 0. -1.
         11    1    4    4    0    0  0.38562696979E-01  0.49106946372E-02  0.91234903820E-01  0.99172906160E-01  0.51100000000E-03 0.  1.
</event>
<event>
 8    1  0.1399510E+005  0.1043930E+01  0.7957747E-01            NaN
         13   -1    0    0    0    0  0.00000000000E+00  0.00000000000E+00  0.74505805969E-08  0.10566000000E+00  0.10566000000E+00 0. -1.
     999900   -1    0    0    0    0 -0.00000000000E+00 -0.00000000000E+00 -0.74505805969E-08  0.93827000000E+00  0.93827000000E+00 0.  1.
     999902    2    1    2    0    0  0.82941567563E-02 -0.34246565882E-01  0.20605915511E-02  0.10086331680E+01  0.10080153775E+01 0.  0.
     999903    2    3    3    0    0 -0.14617150657E-01 -0.12065766638E+00 -0.12231296719E-01  0.12398857024E+00  0.21251526530E-01 0.  0.
         14    1    1    2    0    0 -0.82941567563E-02  0.34246565882E-01 -0.20605915511E-02  0.35296831991E-01  0.00000000000E+00 0.  1.
     999901    1    3    3    0    0  0.22911307414E-01  0.86411100500E-01  0.14291888270E-01  0.88464459777E+00  0.88000000000E+00 0. -1.
        -11    1    4    4    0    0 -0.18413580743E-01 -0.66801649876E-01 -0.44369273743E-02  0.69436790158E-01  0.51100000000E-03 0.  1.
         11    1    4    4    0    0  0.37964300855E-02 -0.53856016506E-01 -0.77943693448E-02  0.54551780079E-01  0.51100000000E-03 0. -1.
</event>
<event>
 8    1  0.1213322E+005  0.1043930E+01  0.7957747E-01            NaN
         13   -1    0    0    0    0  0.00000000000E+00  0.00000000000E+00  0.74505805969E-08  0.10566000000E+00  0.10566000000E+00 0.  1.
     999900   -1    0    0    0    0 -0.00000000000E+00 -0.00000000000E+00 -0.74505805969E-08  0.93827000000E+00  0.93827000000E+00 0.  1.
     999902    2    1    2    0    0  0.97880178543E-02  0.15132175448E-01 -0.15596343816E-01  0.10200965368E+01  0.10198180771E+01 0.  0.
     999903    2    3    3    0    0 -0.11633451076E+00  0.40866684394E-01  0.33609628303E-01  0.12937189649E+00  0.20091694824E-01 0.  0.
         14    1    1    2    0    0 -0.97880178543E-02 -0.15132175448E-01  0.15596343816E-01  0.23833463192E-01  0.00000000000E+00 0. -1.
     999901    1    3    3    0    0  0.12612252861E+00 -0.25734508946E-01 -0.49205972119E-01  0.89072464032E+00  0.88000000000E+00 0. -1.
        -11    1    4    4    0    0 -0.10078693333E+00  0.40741527504E-01  0.24837145397E-01  0.11151243386E+00  0.51100000000E-03 0.  1.
         11    1    4    4    0    0 -0.15547577431E-01  0.12515688982E-03  0.87724829059E-02  0.17859462633E-01  0.51100000000E-03 0. -1.
</event>
<event>
 8    1  0.1213322E+005  0.1043930E+01  0.7957747E-01            NaN
         13   -1    0    0    0    0  0.00000000000E+00  0.00000000000E+00  0.74505805969E-08  0.10566000000E+00  0.10566000000E+00 0.  1.
     999900   -1    0    0    0    0 -0.00000000000E+00 -0.00000000000E+00 -0.74505805969E-08  0.93827000000E+00  0.93827000000E+00 0.  1.
     999902    2    1    2    0    0 -0.65727170231E-02  0.23537432920E-02  0.22704110364E-01  0.10201767404E+01  0.10199001736E+01 0.  0.
     999903    2    3    3    0    0  0.33482322354E-01 -0.34523661870E-01 -0.11644573444E+00  0.12758107125E+00  0.20108991312E-01 0.  0.
         14    1    1    2    0    0  0.65727170231E-02 -0.23537432920E-02 -0.22704110364E-01  0.23753259649E-01  0.00000000000E+00 0. -1.
     999901    1    3    3    0    0 -0.40055039377E-01  0.36877405162E-01  0.13914984481E+00  0.89259566910E+00  0.88000000000E+00 0. -1.
        -11    1    4    4    0    0  0.14437658177E-01 -0.34402839973E-02 -0.44725395803E-01  0.47126464734E-01  0.51100000000E-03 0.  1.
         11    1    4    4    0    0  0.19044664177E-01 -0.31083377873E-01 -0.71720338641E-01  0.80454606514E-01  0.51100000000E-03 0. -1.
</event>
<event>
 8    1  0.1213322E+005  0.1043930E+01  0.7957747E-01            NaN
         13   -1    0    0    0    0  0.00000000000E+00  0.00000000000E+00  0.74505805969E-08  0.10566000000E+00  0.10566000000E+00 0.  1.
     999900   -1    0    0    0    0 -0.00000000000E+00 -0.00000000000E+00 -0.74505805969E-08  0.93827000000E+00  0.93827000000E+00 0. -1.
     999902    2    1    2    0    0 -0.22193540911E-01 -0.42442225154E-02 -0.62683880023E-02  0.10204809196E+01  0.10202114722E+01 0.  0.
     999903    2    3    3    0    0 -0.33757336741E-01 -0.12429557950E-01  0.12446766833E+00  0.13070980437E+00  0.17285855660E-01 0.  0.
         14    1    1    2    0    0  0.22193540911E-01  0.42442225154E-02  0.62683880023E-02  0.23449080389E-01  0.00000000000E+00 0.  1.
     999901    1    3    3    0    0  0.11563795830E-01  0.81853354344E-02 -0.13073605633E+00  0.88977111524E+00  0.88000000000E+00 0. -1.
        -11    1    4    4    0    0 -0.29234584104E-01 -0.15180419244E-01  0.90123443626E-01  0.95956251741E-01  0.51100000000E-03 0. -1.
         11    1    4    4    0    0 -0.45227526374E-02  0.27508612940E-02  0.34344224699E-01  0.34753552631E-01  0.51100000000E-03 0.  1.
</event>
<event>
 8    1  0.1213322E+005  0.1043930E+01  0.7957747E-01            NaN
         13   -1    0    0    0    0  0.00000000000E+00  0.00000000000E+00  0.74505805969E-08  0.10566000000E+00  0.10566000000E+00 0. -1.
     999900   -1    0    0    0    0 -0.00000000000E+00 -0.00000000000E+00 -0.74505805969E-08  0.93827000000E+00  0.93827000000E+00 0. -1.
     999902    2    1    2    0    0  0.20790634696E-01 -0.21085590494E-02 -0.79818861956E-02  0.10215602208E+01  0.10213152686E+01 0.  0.
     999903    2    3    3    0    0  0.10947648488E+00  0.87306639191E-02  0.72770512551E-01  0.13335775593E+00  0.20674098139E-01 0.  0.
         14    1    1    2    0    0 -0.20790634696E-01  0.21085590494E-02  0.79818861956E-02  0.22369779158E-01  0.00000000000E+00 0. -1.
     999901    1    3    3    0    0 -0.88685850188E-01 -0.10839222968E-01 -0.80752398747E-01  0.88820246492E+00  0.88000000000E+00 0. -1.
        -11    1    4    4    0    0  0.80735771174E-01  0.13624772268E-01  0.60081220856E-01  0.10155743886E+00  0.51100000000E-03 0. -1.
         11    1    4    4    0    0  0.28740713710E-01 -0.48941083494E-02  0.12689291696E-01  0.31800317071E-01  0.51100000000E-03 0.  1.
</event>
<event>
 8    1  0.1213322E+005  0.1043930E+01  0.7957747E-01            NaN
         13   -1    0    0    0    0  0.00000000000E+00  0.00000000000E+00  0.74505805969E-08  0.10566000000E+00  0.10566000000E+00 0.  1.
     999900   -1    0    0    0    0 -0.00000000000E+00 -0.00000000000E+00 -0.74505805969E-08  0.93827000000E+00  0.93827000000E+00 0. -1.
     999902    2    1    2    0    0 -0.67092345732E-02  0.10057261746E-01  0.12274165041E-01  0.10267016086E+01  0.10265570494E+01 0.  0.
     999903    2    3    3    0    0 -0.52780669994E-01 -0.17554570517E-01 -0.12134046757E+00  0.13499657863E+00  0.20164451426E-01 0.  0.
         14    1    1    2    0    0  0.67092345732E-02 -0.10057261746E-01 -0.12274165041E-01  0.17228391389E-01  0.00000000000E+00 0. -1.
     999901    1    3    3    0    0  0.46071435421E-01  0.27611832263E-01  0.13361463261E+00  0.89170502998E+00  0.88000000000E+00 0.  1.
        -11    1    4    4    0    0 -0.30513630842E-01 -0.20283237658E-01 -0.71754584040E-01  0.80569676981E-01  0.51100000000E-03 0. -1.
         11    1    4    4    0    0 -0.22267039152E-01  0.27286671404E-02 -0.49585883529E-01  0.54426901651E-01  0.51100000000E-03 0.  1.
</event>
<event>
 8    1  0.1213322E+005  0.1043930E+01  0.7957747E-01            NaN
         13   -1    0    0    0    0  0.00000000000E+00  0.00000000000E+00  0.74505805969E-08  0.10566000000E+00  0.10566000000E+00 0.  1.
     999900   -1    0    0    0    0 -0.00000000000E+00 -0.00000000000E+00 -0.74505805969E-08  0.93827000000E+00  0.93827000000E+00 0.  1.
     999902    2    1    2    0    0 -0.14890025698E-01  0.11857534361E-02 -0.21910463720E-01  0.10174123210E+01  0.10170666860E+01 0.  0.
     999903    2    3    3    0    0 -0.79783651773E-01 -0.97869737465E-01 -0.20590059344E-01  0.12947937513E+00  0.19925898686E-01 0.  0.
         14    1    1    2    0    0  0.14890025698E-01 -0.11857534361E-02  0.21910463720E-01  0.26517678951E-01  0.00000000000E+00 0.  1.
     999901    1    3    3    0    0  0.64893626074E-01  0.99055490901E-01 -0.13204043763E-02  0.88793294592E+00  0.88000000000E+00 0. -1.
        -11    1    4    4    0    0 -0.46535806171E-01 -0.54456624983E-01 -0.21490020458E-01  0.74787615023E-01  0.51100000000E-03 0. -1.
         11    1    4    4    0    0 -0.33247845601E-01 -0.43413112482E-01  0.89996111445E-03  0.54691760106E-01  0.51100000000E-03 0.  1.
</event>
<event>
 8    1  0.1213322E+005  0.1043930E+01  0.7957747E-01            NaN
         13   -1    0    0    0    0  0.00000000000E+00  0.00000000000E+00  0.74505805969E-08  0.10566000000E+00  0.10566000000E+00 0. -1.
     999900   -1    0    0    0    0 -0.00000000000E+00 -0.00000000000E+00 -0.74505805969E-08  0.93827000000E+00  0.93827000000E+00 0. -1.
     999902    2    1    2    0    0  0.30066972562E-04  0.23208435869E-01  0.76741129650E-02  0.10194856876E+01  0.10191925936E+01 0.  0.
     999903    2    3    3    0    0  0.85349027178E-01 -0.73946281041E-01  0.58346925186E-01  0.12859506698E+00  0.19488936676E-01 0.  0.
         14    1    1    2    0    0 -0.30066972562E-04 -0.23208435869E-01 -0.76741129650E-02  0.24444312413E-01  0.00000000000E+00 0.  1.
     999901    1    3    3    0    0 -0.85318960206E-01  0.97154716910E-01 -0.50672812221E-01  0.89089062061E+00  0.88000000000E+00 0. -1.
        -11    1    4    4    0    0  0.41472316268E-01 -0.38060195303E-01  0.39844167276E-01  0.68966298074E-01  0.51100000000E-03 0.  1.
         11    1    4    4    0    0  0.43876710911E-01 -0.35886085738E-01  0.18502757910E-01  0.59628768906E-01  0.51100000000E-03 0. -1.
</event>
<event>
 8    1  0.1213322E+005  0.1043930E+01  0.7957747E-01            NaN
         13   -1    0    0    0    0  0.00000000000E+00  0.00000000000E+00  0.74505805969E-08  0.10566000000E+00  0.10566000000E+00 0. -1.
     999900   -1    0    0    0    0 -0.00000000000E+00 -0.00000000000E+00 -0.74505805969E-08  0.93827000000E+00  0.93827000000E+00 0. -1.
     999902    2    1    2    0    0  0.19141388539E-01 -0.21255711856E-01  0.46943092148E-03  0.10153219870E+01  0.10149188731E+01 0.  0.
     999903    2    3    3    0    0 -0.14426040591E-01  0.10108757417E+00  0.66954804455E-01  0.12374195312E+00  0.20057836961E-01 0.  0.
         14    1    1    2    0    0 -0.19141388539E-01  0.21255711856E-01 -0.46943092148E-03  0.28608012988E-01  0.00000000000E+00 0.  1.
     999901    1    3    3    0    0  0.33567429130E-01 -0.12234328603E+00 -0.66485373533E-01  0.89158003389E+00  0.88000000000E+00 0. -1.
        -11    1    4    4    0    0 -0.14786342761E-01  0.94296241949E-01  0.55505506731E-01  0.11041530499E+00  0.51100000000E-03 0.  1.
         11    1    4    4    0    0  0.36030216982E-03  0.67913322254E-02  0.11449297724E-01  0.13326648131E-01  0.51100000000E-03 0. -1.
</event>
<event>
 8    1  0.1213322E+005  0.1043930E+01  0.7957747E-01            NaN
         13   -1    0    0    0    0  0.00000000000E+00  0.00000000000E+00  0.74505805969E-08  0.10566000000E+00  0.10566000000E+00 0. -1.
     999900   -1    0    0    0    0 -0.00000000000E+00 -0.00000000000E+00 -0.74505805969E-08  0.93827000000E+00  0.93827000000E+00 0. -1.
     999902    2    1    2    0    0  0.28832973488E-02  0.18556480463E-01 -0.13690603827E-01  0.10206901849E+01  0.10204255802E+01 0.  0.
     999903    2    3    3    0    0  0.11579294247E+00  0.44283729175E-01 -0.46212995957E-01  0.13250766694E+00  0.73202874937E-02 0.  0.
         14    1    1    2    0    0 -0.28832973488E-02 -0.18556480463E-01  0.13690603827E-01  0.23239815058E-01  0.00000000000E+00 0. -1.
     999901    1    3    3    0    0 -0.11290964512E+00 -0.25727248712E-01  0.32522392130E-01  0.88818251800E+00  0.88000000000E+00 0. -1.
        -11    1    4    4    0    0  0.89885077135E-01  0.36975531067E-01 -0.34344678150E-01  0.10308411627E+00  0.51100000000E-03 0. -1.
         11    1    4    4    0    0  0.25907865332E-01  0.73081981074E-02 -0.11868317807E-01  0.29423550673E-01  0.51100000000E-03 0.  1.
</event>
<event>
 8    1  0.1213322E+005  0.1043930E+01  0.7957747E-01            NaN
         13   -1    0    0    0    0  0.00000000000E+00  0.00000000000E+00  0.74505805969E-08  0.10566000000E+00  0.10566000000E+00 0. -1.
     999900   -1    0    0    0    0 -0.00000000000E+00 -0.00000000000E+00 -0.74505805969E-08  0.93827000000E+00  0.93827000000E+00 0. -1.
     999902    2    1    2    0    0  0.24926740132E-02  0.11428226024E-01  0.21084382313E-01  0.10198184063E+01  0.10195333309E+01 0.  0.
     999903    2    3    3    0    0 -0.89877177170E-01 -0.63304635347E-01  0.68991378677E-01  0.13054214422E+00  0.14002044624E-01 0.  0.
         14    1    1    2    0    0 -0.24926740132E-02 -0.11428226024E-01 -0.21084382313E-01  0.24111593711E-01  0.00000000000E+00 0.  1.
     999901    1    3    3    0    0  0.92369851183E-01  0.74732861372E-01 -0.47906996364E-01  0.88927626207E+00  0.88000000000E+00 0. -1.
        -11    1    4    4    0    0 -0.51799014774E-01 -0.41555541003E-01  0.47881444068E-01  0.81871208166E-01  0.51100000000E-03 0. -1.
         11    1    4    4    0    0 -0.38078162396E-01 -0.21749094345E-01  0.21109934609E-01  0.48670936055E-01  0.51100000000E-03 0.  1.
</event>
<event>
 8    1  0.1213322E+005  0.1043930E+01  0.7957747E-01            NaN
         13   -1    0    0    0    0  0.00000000000E+00  0.00000000000E+00  0.74505805969E-08  0.10566000000E+00  0.10566000000E+00 0. -1.
     999900   -1    0    0    0    0 -0.00000000000E+00 -0.00000000000E+00 -0.74505805969E-08  0.93827000000E+00  0.93827000000E+00 0. -1.
     999902    2    1    2    0    0  0.39371023788E-02 -0.18367275355E-01  0.19943651969E-01  0.10165327952E+01  0.10161635286E+01 0.  0.
     999903    2    3    3    0    0 -0.54194875992E-01  0.33103931979E-01 -0.10493646051E+00  0.12433121783E+00  0.20338045298E-01 0.  0.
         14    1    1    2    0    0 -0.39371023788E-02  0.18367275355E-01 -0.19943651969E-01  0.27397204838E-01  0.00000000000E+00 0.  1.
     999901    1    3    3    0    0  0.58131978371E-01 -0.51471207334E-01  0.12488011248E+00  0.89220157733E+00  0.88000000000E+00 0.  1.
        -11    1    4    4    0    0 -0.31660094177E-01  0.27688954457E-01 -0.54689907891E-01  0.68994832476E-01  0.51100000000E-03 0.  1.
         11    1    4    4    0    0 -0.22534781815E-01  0.54149775223E-02 -0.50246552622E-01  0.55336385358E-01  0.51100000000E-03 0. -1.
</event>
<event>
 8    1  0.1213322E+005  0.1043930E+01  0.7957747E-01            NaN
         13   -1    0    0    0    0  0.00000000000E+00  0.00000000000E+00  0.74505805969E-08  0.10566000000E+00  0.10566000000E+00 0.  1.
     999900   -1    0    0    0    0 -0.00000000000E+00 -0.00000000000E+00 -0.74505805969E-08  0.93827000000E+00  0.93827000000E+00 0.  1.
     999902    2    1    2    0    0 -0.23489215955E-01 -0.32391328493E-02  0.19515542543E-02  0.10201383247E+01  0.10198608522E+01 0.  0.
     999903    2    3    3    0    0  0.11975367338E+00  0.37934922001E-01 -0.92372688587E-02  0.12753593963E+00  0.20002204043E-01 0.  0.
         14    1    1    2    0    0  0.23489215955E-01  0.32391328493E-02 -0.19515542543E-02  0.23791675263E-01  0.00000000000E+00 0. -1.
     999901    1    3    3    0    0 -0.14324288933E+00 -0.41174054850E-01  0.11188823113E-01  0.89260238511E+00  0.88000000000E+00 0.  1.
        -11    1    4    4    0    0  0.60630403236E-01  0.23254716795E-01 -0.13994025840E-01  0.66429824100E-01  0.51100000000E-03 0. -1.
         11    1    4    4    0    0  0.59123270141E-01  0.14680205206E-01  0.47567569811E-02  0.61106115529E-01  0.51100000000E-03 0.  1.
</event>
<event>
 8    1  0.1213322E+005  0.1043930E+01  0.7957747E-01            NaN
         13   -1    0    0    0    0  0.00000000000E+00  0.00000000000E+00  0.74505805969E-08  0.10566000000E+00  0.10566000000E+00 0. -1.
     999900   -1    0    0    0    0 -0.00000000000E+00 -0.00000000000E+00 -0.74505805969E-08  0.93827000000E+00  0.93827000000E+00 0. -1.
     999902    2    1    2    0    0 -0.12704094252E-01 -0.19200419930E-01 -0.21569269241E-01  0.10123818858E+01  0.10118902110E+01 0.  0.
     999903    2    3    3    0    0 -0.10003180312E+00  0.14339797483E-01  0.67119018427E-01  0.12299069664E+00  0.20242465246E-01 0.  0.
         14    1    1    2    0    0  0.12704094252E-01  0.19200419930E-01  0.21569269241E-01  0.31548114236E-01  0.00000000000E+00 0.  1.
     999901    1    3    3    0    0  0.87327708864E-01 -0.33540217413E-01 -0.88688287668E-01  0.88939118912E+00  0.88000000000E+00 0. -1.
        -11    1    4    4    0    0 -0.62256535835E-01  0.16350902764E-01  0.34469624861E-01  0.73018110318E-01  0.51100000000E-03 0.  1.
         11    1    4    4    0    0 -0.37775267281E-01 -0.20111052806E-02  0.32649393566E-01  0.49972586323E-01  0.51100000000E-03 0. -1.
</event>
<event>
 8    1  0.1213322E+005  0.1043930E+01  0.7957747E-01            NaN
         13   -1    0    0    0    0  0.00000000000E+00  0.00000000000E+00  0.74505805969E-08  0.10566000000E+00  0.10566000000E+00 0. -1.
     999900   -1    0    0    0    0 -0.00000000000E+00 -0.00000000000E+00 -0.74505805969E-08  0.93827000000E+00  0.93827000000E+00 0.  1.
     999902    2    1    2    0    0 -0.21907424395E-01  0.46356346551E-03  0.89499787454E-02  0.10202603516E+01  0.10199857513E+01 0.  0.
     999903    2    3    3    0    0  0.11294382307E+00 -0.50907484857E-01  0.26157862824E-01  0.12834109809E+00  0.20960068863E-01 0.  0.
         14    1    1    2    0    0  0.21907424395E-01 -0.46356346551E-03 -0.89499787454E-02  0.23669648376E-01  0.00000000000E+00 0.  1.
     999901    1    3    3    0    0 -0.13485124747E+00  0.51371048322E-01 -0.17207884079E-01  0.89191925353E+00  0.88000000000E+00 0. -1.
        -11    1    4    4    0    0  0.68686344320E-01 -0.41811948720E-01  0.18454234462E-01  0.82503774716E-01  0.51100000000E-03 0. -1.
         11    1    4    4    0    0  0.44257478753E-01 -0.90955361366E-02  0.77036283617E-02  0.45837323374E-01  0.51100000000E-03 0.  1.
</event>
<event>
 8    1  0.1213322E+005  0.1043930E+01  0.7957747E-01            NaN
         13   -1    0    0    0    0  0.00000000000E+00  0.00000000000E+00  0.74505805969E-08  0.10566000000E+00  0.10566000000E+00 0.  1.
     999900   -1    0    0    0    0 -0.00000000000E+00 -0.00000000000E+00 -0.74505805969E-08  0.93827000000E+00  0.93827000000E+00 0.  1.
     999902    2    1    2    0    0  0.25846375102E-02 -0.67310944348E-02  0.24607164371E-01  0.10182882270E+01  0.10179653298E+01 0.  0.
     999903    2    3    3    0    0 -0.37247596782E-01  0.95972933166E-01 -0.69267548905E-01  0.12646583104E+00  0.24442293723E-01 0.  0.
         14    1    1    2    0    0 -0.25846375102E-02  0.67310944348E-02 -0.24607164371E-01  0.25641772984E-01  0.00000000000E+00 0. -1.
     999901    1    3    3    0    0  0.39832234292E-01 -0.10270402760E+00  0.93874713276E-01  0.89182239598E+00  0.88000000000E+00 0. -1.
        -11    1    4    4    0    0 -0.72819826043E-02  0.29611465723E-01 -0.33623654075E-01  0.45394684791E-01  0.51100000000E-03 0.  1.
         11    1    4    4    0    0 -0.29965614178E-01  0.66361467443E-01 -0.35643894830E-01  0.81071146248E-01  0.51100000000E-03 0. -1.
</event>
<event>
 8    1  0.1213322E+005  0.1043930E+01  0.7957747E-01            NaN
         13   -1    0    0    0    0  0.00000000000E+00  0.00000000000E+00  0.74505805969E-08  0.10566000000E+00  0.10566000000E+00 0.  1.
     999900   -1    0    0    0    0 -0.00000000000E+00 -0.00000000000E+00 -0.74505805969E-08  0.93827000000E+00  0.93827000000E+00 0.  1.
     999902    2    1    2    0    0  0.65746631290E-02  0.15162566523E-01 -0.16209803468E-01  0.10207807593E+01  0.10205182365E+01 0.  0.
     999903    2    3    3    0    0 -0.43204028028E-02  0.33008110870E-01  0.12121512407E+00  0.12986955345E+00  0.32631171399E-01 0.  0.
         14    1    1    2    0    0 -0.65746631290E-02 -0.15162566523E-01  0.16209803468E-01  0.23149240750E-01  0.00000000000E+00 0.  1.
     999901    1    3    3    0    0  0.10895065932E-01 -0.17845544347E-01 -0.13742492753E+00  0.89091120580E+00  0.88000000000E+00 0.  1.
        -11    1    4    4    0    0 -0.11697753679E-01  0.84622910512E-02  0.15916197822E-01  0.21494982789E-01  0.51100000000E-03 0.  1.
         11    1    4    4    0    0  0.73773508760E-02  0.24545819819E-01  0.10529892624E+00  0.10837457066E+00  0.51100000000E-03 0. -1.
</event>
<event>
 8    1  0.1213322E+005  0.1043930E+01  0.7957747E-01            NaN
         13   -1    0    0    0    0  0.00000000000E+00  0.00000000000E+00  0.74505805969E-08  0.10566000000E+00  0.10566000000E+00 0.  1.
     999900   -1    0    0    0    0 -0.00000000000E+00 -0.00000000000E+00 -0.74505805969E-08  0.93827000000E+00  0.93827000000E+00 0.  1.
     999902    2    1    2    0    0 -0.15193753797E-01 -0.16174489169E-01 -0.91367651323E-02  0.10199311515E+01  0.10196487675E+01 0.  0.
     999903    2    3    3    0    0  0.11676472835E+00  0.35825559878E-01  0.32530857991E-01  0.12760092283E+00  0.17500464464E-01 0.  0.
         14    1    1    2    0    0  0.15193753797E-01  0.16174489169E-01  0.91367651323E-02  0.23998848544E-01  0.00000000000E+00 0. -1.
     999901    1    3    3    0    0 -0.13195848215E+00 -0.52000049047E-01 -0.41667623123E-01  0.89233022863E+00  0.88000000000E+00 0.  1.
        -11    1    4    4    0    0  0.43216826021E-01  0.14114006088E-01  0.20888476181E-01  0.50034875611E-01  0.51100000000E-03 0. -1.
         11    1    4    4    0    0  0.73547902331E-01  0.21711553790E-01  0.11642381810E-01  0.77566047215E-01  0.51100000000E-03 0.  1.
</event>
<event>
 8    1  0.1213322E+005  0.1043930E+01  0.7957747E-01            NaN
         13   -1    0    0    0    0  0.00000000000E+00  0.00000000000E+00  0.74505805969E-08  0.10566000000E+00  0.10566000000E+00 0.  1.
     999900   -1    0    0    0    0 -0.00000000000E+00 -0.00000000000E+00 -0.74505805969E-08  0.93827000000E+00  0.93827000000E+00 0. -1.
     999902    2    1    2    0    0 -0.23361370821E-02 -0.20176419077E-02 -0.23203059004E-01  0.10205225148E+01  0.10202540335E+01 0.  0.
     999903    2    3    3    0    0 -0.12816227595E+00  0.18031508873E-01 -0.68443790320E-02  0.13119592010E+00  0.20367121475E-01 0.  0.
         14    1    1    2    0    0  0.23361370821E-02  0.20176419077E-02  0.23203059004E-01  0.23407485180E-01  0.00000000000E+00 0.  1.
     999901    1    3    3    0    0  0.12582613887E+00 -0.20049150781E-01 -0.16358679972E-01  0.88932659472E+00  0.88000000000E+00 0.  1.
        -11    1    4    4    0    0 -0.11335189683E+00  0.20663386356E-01 -0.15207640812E-02  0.11523108042E+00  0.51100000000E-03 0. -1.
         11    1    4    4    0    0 -0.14810379117E-01 -0.26318774831E-02 -0.53236149508E-02  0.15964839674E-01  0.51100000000E-03 0.  1.
</event>
<event>
 8    1  0.1213322E+005  0.1043930E+01  0.7957747E-01            NaN
         13   -1    0    0    0    0  0.00000000000E+00  0.00000000000E+00  0.74505805969E-08  0.10566000000E+00  0.10566000000E+00 0. -1.
     999900   -1    0    0    0    0 -0.00000000000E+00 -0.00000000000E+00 -0.74505805969E-08  0.93827000000E+00  0.93827000000E+00 0. -1.
     999902    2    1    2    0    0 -0.82321227657E-02 -0.21964687653E-01  0.14946357554E-02  0.10204257603E+01  0.10201550289E+01 0.  0.
     999903    2    3    3    0    0 -0.12193092244E+00 -0.22461890285E-01  0.41888661993E-01  0.13219192754E+00  0.18664386991E-01 0.  0.
         14    1    1    2    0    0  0.82321227657E-02  0.21964687653E-01 -0.14946357554E-02  0.23504239723E-01  0.00000000000E+00 0. -1.
     999901    1    3    3    0    0  0.11369879967E+00  0.49720263160E-03 -0.40394026238E-01  0.88823383273E+00  0.88000000000E+00 0. -1.
        -11    1    4    4    0    0 -0.28388943622E-01  0.90751929754E-03  0.14844101937E-01  0.32052522437E-01  0.51100000000E-03 0.  1.
         11    1    4    4    0    0 -0.93541978817E-01 -0.23369409582E-01  0.27044560057E-01  0.10013940511E+00  0.51100000000E-03 0. -1.
</event>
<event>
 8    1  0.1213322E+005  0.1043930E+01  0.7957747E-01            NaN
         13   -1    0    0    0    0  0.00000000000E+00  0.00000000000E+00  0.74505805969E-08  0.10566000000E+00  0.10566000000E+00 0. -1.
     999900   -1    0    0    0    0 -0.00000000000E+00 -0.00000000000E+00 -0.74505805969E-08  0.93827000000E+00  0.93827000000E+00 0.  1.
     999902    2    1    2    0    0 -0.28556709323E-02  0.14564031894E-01 -0.18128306740E-01  0.10205013554E+01  0.10202323829E+01 0.  0.
     999903    2    3    3    0    0  0.11239570638E+00  0.54739315004E-01  0.31866320570E-01  0.13067193575E+00  0.20748614096E-01 0.  0.
         14    1    1    2    0    0  0.28556709323E-02 -0.14564031894E-01  0.18128306740E-01  0.23428644578E-01  0.00000000000E+00 0. -1.
     999901    1    3    3    0    0 -0.11525137731E+00 -0.40175283110E-01 -0.49994627310E-01  0.88982941967E+00  0.88000000000E+00 0.  1.
        -11    1    4    4    0    0  0.71524227559E-01  0.24620055187E-01  0.23523835019E-01  0.79218016766E-01  0.51100000000E-03 0.  1.
         11    1    4    4    0    0  0.40871478823E-01  0.30119259817E-01  0.83424855512E-02  0.51453918989E-01  0.51100000000E-03 0. -1.
</event>
<event>
 8    1  0.1213322E+005  0.1043930E+01  0.7957747E-01            NaN
         13   -1    0    0    0    0  0.00000000000E+00  0.00000000000E+00  0.74505805969E-08  0.10566000000E+00  0.10566000000E+00 0.  1.
     999900   -1    0    0    0    0 -0.00000000000E+00 -0.00000000000E+00 -0.74505805969E-08  0.93827000000E+00  0.93827000000E+00 0. -1.
     999902    2    1    2    0    0  0.10019345302E-01 -0.21888161755E-01  0.14505440553E-02  0.10198139683E+01  0.10195287868E+01 0.  0.
     999903    2    3    3    0    0  0.54716166884E-01 -0.10151920480E+00 -0.62592707642E-01  0.13277369475E+00  0.20273112885E-01 0.  0.
         14    1    1    2    0    0 -0.10019345302E-01  0.21888161755E-01 -0.14505440553E-02  0.24116031666E-01  0.00000000000E+00 0. -1.
     999901    1    3    3    0    0 -0.44696821582E-01  0.79631043042E-01  0.64043251697E-01  0.88704027359E+00  0.88000000000E+00 0. -1.
        -11    1    4    4    0    0  0.34630205524E-01 -0.43273141048E-01 -0.27639863227E-01  0.61935765363E-01  0.51100000000E-03 0. -1.
         11    1    4    4    0    0  0.20085961359E-01 -0.58246063748E-01 -0.34952844415E-01  0.70837929385E-01  0.51100000000E-03 0.  1.
</event>
<event>
 8    1  0.1213322E+005  0.1043930E+01  0.7957747E-01            NaN
         13   -1    0    0    0    0  0.00000000000E+00  0.00000000000E+00  0.74505805969E-08  0.10566000000E+00  0.10566000000E+00 0. -1.
     999900   -1    0    0    0    0 -0.00000000000E+00 -0.00000000000E+00 -0.74505805969E-08  0.93827000000E+00  0.93827000000E+00 0. -1.
     999902    2    1    2    0    0  0.10544894293E-01 -0.19470552632E-01 -0.93508144886E-02  0.10198938824E+01  0.10196106102E+01 0.  0.
     999903    2    3    3    0    0 -0.18540351208E-01  0.37017844966E-01  0.11967174951E+00  0.12821921499E+00  0.20118995780E-01 0.  0.
         14    1    1    2    0    0 -0.10544894293E-01  0.19470552632E-01  0.93508144886E-02  0.24036117554E-01  0.00000000000E+00 0. -1.
     999901    1    3    3    0    0  0.29085245501E-01 -0.56488397597E-01 -0.12902256400E+00  0.89167466746E+00  0.88000000000E+00 0. -1.
        -11    1    4    4    0    0 -0.28787337179E-02  0.27314171412E-01  0.76263988551E-01  0.81060521454E-01  0.51100000000E-03 0.  1.
         11    1    4    4    0    0 -0.15661617490E-01  0.97036735537E-02  0.43407760962E-01  0.47158693531E-01  0.51100000000E-03 0. -1.
</event>
<event>
 8    1  0.1213322E+005  0.1043930E+01  0.7957747E-01            NaN
         13   -1    0    0    0    0  0.00000000000E+00  0.00000000000E+00  0.74505805969E-08  0.10566000000E+00  0.10566000000E+00 0.  1.
     999900   -1    0    0    0    0 -0.00000000000E+00 -0.00000000000E+00 -0.74505805969E-08  0.93827000000E+00  0.93827000000E+00 0.  1.
     999902    2    1    2    0    0 -0.14951867896E-01  0.16634831835E-01  0.15373320322E-01  0.10167893485E+01  0.10164270581E+01 0.  0.
     999903    2    3    3    0    0 -0.90029689324E-01 -0.66674918533E-01  0.59259125363E-01  0.12858714315E+00  0.21728316182E-01 0.  0.
         14    1    1    2    0    0  0.14951867896E-01 -0.16634831835E-01 -0.15373320322E-01  0.27140651457E-01  0.00000000000E+00 0. -1.
     999901    1    3    3    0    0  0.75077821428E-01  0.83309750368E-01 -0.43885805041E-01  0.88820220539E+00  0.88000000000E+00 0. -1.
        -11    1    4    4    0    0 -0.18446321933E-01 -0.11236415430E-01  0.21521898118E-01  0.30495524985E-01  0.51100000000E-03 0. -1.
         11    1    4    4    0    0 -0.71583367392E-01 -0.55438503104E-01  0.37737227246E-01  0.98091618167E-01  0.51100000000E-03 0.  1.
</event>
<event>
 8    1  0.1213322E+005  0.1043930E+01  0.7957747E-01            NaN
         13   -1    0    0    0    0  0.00000000000E+00  0.00000000000E+00  0.74505805969E-08  0.10566000000E+00  0.10566000000E+00 0. -1.
     999900   -1    0    0    0    0 -0.00000000000E+00 -0.00000000000E+00 -0.74505805969E-08  0.93827000000E+00  0.93827000000E+00 0.  1.
     999902    2    1    2    0    0  0.46047210574E-02 -0.10672462484E-01  0.23137386898E-01  0.10180370746E+01  0.10177077389E+01 0.  0.
     999903    2    3    3    0    0 -0.82020165380E-01 -0.89877055981E-02  0.99051458995E-01  0.13052952216E+00  0.20461628618E-01 0.  0.
         14    1    1    2    0    0 -0.46047210574E-02  0.10672462484E-01 -0.23137386898E-01  0.25892925365E-01  0.00000000000E+00 0.  1.
     999901    1    3    3    0    0  0.86624886437E-01 -0.16847568858E-02 -0.75914072097E-01  0.88750755247E+00  0.88000000000E+00 0.  1.
        -11    1    4    4    0    0 -0.47477980561E-01 -0.69910518468E-02  0.72354702167E-01  0.86824521253E-01  0.51100000000E-03 0.  1.
         11    1    4    4    0    0 -0.34542184819E-01 -0.19966537513E-02  0.26696756828E-01  0.43705000908E-01  0.51100000000E-03 0. -1.
</event>
<event>
 8    1  0.1213322E+005  0.1043930E+01  0.7957747E-01            NaN
         13   -1    0    0    0    0  0.00000000000E+00  0.00000000000E+00  0.74505805969E-08  0.10566000000E+00  0.10566000000E+00 0. -1.
     999900   -1    0    0    0    0 -0.00000000000E+00 -0.00000000000E+00 -0.74505805969E-08  0.93827000000E+00  0.93827000000E+00 0. -1.
     999902    2    1    2    0    0 -0.13084113597E-01  0.41438936555E-02  0.18193114803E-01  0.10211406317E+01  0.10208862984E+01 0.  0.
     999903    2    3    3    0    0 -0.12900403841E+00  0.23616512316E-01 -0.80474658872E-02  0.13293728787E+00  0.20193543963E-01 0.  0.
         14    1    1    2    0    0  0.13084113597E-01 -0.41438936555E-02 -0.18193114803E-01  0.22789368343E-01  0.00000000000E+00 0.  1.
     999901    1    3    3    0    0  0.11591992481E+00 -0.19472618660E-01  0.26240580690E-01  0.88820334379E+00  0.88000000000E+00 0.  1.
        -11    1    4    4    0    0 -0.11978226038E+00  0.21316446935E-01 -0.12730643167E-01  0.12232951896E+00  0.51100000000E-03 0. -1.
         11    1    4    4    0    0 -0.92217780306E-02  0.23000653814E-02  0.46831772801E-02  0.10607768910E-01  0.51100000000E-03 0.  1.
</event>
<event>
 8    1  0.1213322E+005  0.1043930E+01  0.7957747E-01            NaN
         13   -1    0    0    0    0  0.00000000000E+00  0.00000000000E+00  0.74505805969E-08  0.10566000000E+00  0.10566000000E+00 0. -1.
     999900   -1    0    0    0    0 -0.00000000000E+00 -0.00000000000E+00 -0.74505805969E-08  0.93827000000E+00  0.93827000000E+00 0.  1.
     999902    2    1    2    0    0  0.15635789629E-01  0.27760500385E-02  0.17306463173E-01  0.10204417468E+01  0.10201713878E+01 0.  0.
     999903    2    3    3    0    0  0.41649479686E-01 -0.44505432504E-01  0.11665102760E+00  0.13320919941E+00  0.20538156802E-01 0.  0.
         14    1    1    2    0    0 -0.15635789629E-01 -0.27760500385E-02 -0.17306463173E-01  0.23488253206E-01  0.00000000000E+00 0. -1.
     999901    1    3    3    0    0 -0.26013690058E-01  0.47281482543E-01 -0.99344564431E-01  0.88723254739E+00  0.88000000000E+00 0. -1.
        -11    1    4    4    0    0  0.25510623949E-01 -0.36840186557E-01  0.68588382328E-01  0.81930571774E-01  0.51100000000E-03 0. -1.
         11    1    4    4    0    0  0.16138855737E-01 -0.76652459474E-02  0.48062645275E-01  0.51278627632E-01  0.51100000000E-03 0.  1.
</event>
<event>
 8    1  0.1213322E+005  0.1043930E+01  0.7957747E-01            NaN
         13   -1    0    0    0    0  0.00000000000E+00  0.00000000000E+00  0.74505805969E-08  0.10566000000E+00  0.10566000000E+00 0. -1.
     999900   -1    0    0    0    0 -0.00000000000E+00 -0.00000000000E+00 -0.74505805969E-08  0.93827000000E+00  0.93827000000E+00 0. -1.
     999902    2    1    2    0    0  0.13389461704E-01 -0.19435818222E-01 -0.16603419879E-02  0.10202702145E+01  0.10199958456E+01 0.  0.
     999903    2    3    3    0    0  0.37230650231E-01 -0.12224286824E-01 -0.12373188565E+00  0.13149472528E+00  0.21112288983E-01 0.  0.
         14    1    1    2    0    0 -0.13389461704E-01  0.19435818222E-01  0.16603419879E-02  0.23659785506E-01  0.00000000000E+00 0.  1.
     999901    1    3    3    0    0 -0.23841188527E-01 -0.72115313983E-02  0.12207154366E+00  0.88877548921E+00  0.88000000000E+00 0.  1.
        -11    1    4    4    0    0  0.19557174296E-01 -0.55030100051E-02 -0.32565286822E-01  0.38386523838E-01  0.51100000000E-03 0.  1.
         11    1    4    4    0    0  0.17673475935E-01 -0.67212768185E-02 -0.91166598824E-01  0.93108201443E-01  0.51100000000E-03 0. -1.
</event>
<event>
 8    1  0.1213322E+005  0.1043930E+01  0.7957747E-01            NaN
         13   -1    0    0    0    0  0.00000000000E+00  0.00000000000E+00  0.74505805969E-08  0.10566000000E+00  0.10566000000E+00 0. -1.
     999900   -1    0    0    0    0 -0.00000000000E+00 -0.00000000000E+00 -0.74505805969E-08  0.93827000000E+00  0.93827000000E+00 0. -1.
     999902    2    1    2    0    0  0.16068464992E-01 -0.13198154921E-01  0.11038633180E-01  0.10203877341E+01  0.10201161158E+01 0.  0.
     999903    2    3    3    0    0 -0.66539791952E-02 -0.33039089425E-01  0.12621355565E+00  0.13237014706E+00  0.21357371908E-01 0.  0.
         14    1    1    2    0    0 -0.16068464992E-01  0.13198154921E-01 -0.11038633180E-01  0.23542265885E-01  0.00000000000E+00 0.  1.
     999901    1    3    3    0    0  0.22722444187E-01  0.19840934504E-01 -0.11517492247E+00  0.88801758705E+00  0.88000000000E+00 0. -1.
        -11    1    4    4    0    0  0.87540881449E-03 -0.31847780527E-01  0.93651095031E-01  0.98923385438E-01  0.51100000000E-03 0. -1.
         11    1    4    4    0    0 -0.75293880097E-02 -0.11913088980E-02  0.32562460616E-01  0.33446761623E-01  0.51100000000E-03 0.  1.
</event>
<event>
 8    1  0.1213322E+005  0.1043930E+01  0.7957747E-01            NaN
         13   -1    0    0    0    0  0.00000000000E+00  0.00000000000E+00  0.74505805969E-08  0.10566000000E+00  0.10566000000E+00 0.  1.
     999900   -1    0    0    0    0 -0.00000000000E+00 -0.00000000000E+00 -0.74505805969E-08  0.93827000000E+00  0.93827000000E+00 0. -1.
     999902    2    1    2    0    0  0.17568595041E-02 -0.48369103406E-04 -0.24625467630E-01  0.10192418945E+01  0.10189428527E+01 0.  0.
     999903    2    3    3    0    0 -0.66299206271E-01  0.52308459602E-01 -0.98552204095E-01  0.13197754388E+00  0.23953610544E-01 0.  0.
         14    1    1    2    0    0 -0.17568595041E-02  0.48369103406E-04  0.24625467630E-01  0.24688105454E-01  0.00000000000E+00 0.  1.
     999901    1    3    3    0    0  0.68056065775E-01 -0.52356828706E-01  0.73926736465E-01  0.88726435067E+00  0.88000000000E+00 0. -1.
        -11    1    4    4    0    0 -0.23395236275E-01  0.30255431428E-01 -0.54944754995E-01  0.66947109226E-01  0.51100000000E-03 0.  1.
         11    1    4    4    0    0 -0.42903969996E-01  0.22053028174E-01 -0.43607449101E-01  0.65030434653E-01  0.51100000000E-03 0. -1.
</event>
<event>
 8    1  0.1213322E+005  0.1043930E+01  0.7957747E-01            NaN
         13   -1    0    0    0    0  0.00000000000E+00  0.00000000000E+00  0.74505805969E-08  0.10566000000E+00  0.10566000000E+00 0.  1.
     999900   -1    0    0    0    0 -0.00000000000E+00 -0.00000000000E+00 -0.74505805969E-08  0.93827000000E+00  0.93827000000E+00 0.  1.
     999902    2    1    2    0    0  0.14460885944E-01 -0.34193737960E-02 -0.19547857282E-01  0.10193754065E+01  0.10190796295E+01 0.  0.
     999903    2    3    3    0    0 -0.12361645399E+00 -0.22568483101E-01  0.14391163793E-01  0.12775671142E+00  0.18008542162E-01 0.  0.
         14    1    1    2    0    0 -0.14460885944E-01  0.34193737960E-02  0.19547857282E-01  0.24554593537E-01  0.00000000000E+00 0.  1.
     999901    1    3    3    0    0  0.13807733994E+00  0.19149109305E-01 -0.33939021075E-01  0.89161869504E+00  0.88000000000E+00 0.  1.
        -11    1    4    4    0    0 -0.82814905740E-01 -0.18293490453E-01  0.17703567533E-02  0.84831336720E-01  0.51100000000E-03 0. -1.
         11    1    4    4    0    0 -0.40801548255E-01 -0.42749926484E-02  0.12620807040E-01  0.42925374704E-01  0.51100000000E-03 0.  1.
</event>
<event>
 8    1  0.1213322E+005  0.1043930E+01  0.7957747E-01            NaN
         13   -1    0    0    0    0  0.00000000000E+00  0.00000000000E+00  0.74505805969E-08  0.10566000000E+00  0.10566000000E+00 0.  1.
     999900   -1    0    0    0    0 -0.00000000000E+00 -0.00000000000E+00 -0.74505805969E-08  0.93827000000E+00  0.93827000000E+00 0.  1.
     999902    2    1    2    0    0  0.45918008731E-02  0.17874060811E-01  0.15218516138E-01  0.10200099265E+01  0.10197294152E+01 0.  0.
     999903    2    3    3    0    0 -0.75163909941E-01 -0.10201011690E+00  0.30698623965E-02  0.12822476215E+00  0.19403305541E-01 0.  0.
         14    1    1    2    0    0 -0.45918008731E-02 -0.17874060811E-01 -0.15218516138E-01  0.23920073549E-01  0.00000000000E+00 0.  1.
     999901    1    3    3    0    0  0.79755710814E-01  0.11988417771E+00  0.12148653742E-01  0.89178516430E+00  0.88000000000E+00 0. -1.
        -11    1    4    4    0    0 -0.59160253990E-01 -0.73758960214E-01  0.98012255072E-02  0.95061269750E-01  0.51100000000E-03 0. -1.
         11    1    4    4    0    0 -0.16003655951E-01 -0.28251156688E-01 -0.67313631106E-02  0.33163492403E-01  0.51100000000E-03 0.  1.
</event>
<event>
 8    1  0.1213322E+005  0.1043930E+01  0.7957747E-01            NaN
         13   -1    0    0    0    0  0.00000000000E+00  0.00000000000E+00  0.74505805969E-08  0.10566000000E+00  0.10566000000E+00 0.  1.
     999900   -1    0    0    0    0 -0.00000000000E+00 -0.00000000000E+00 -0.74505805969E-08  0.93827000000E+00  0.93827000000E+00 0.  1.
     999902    2    1    2    0    0 -0.25207908052E-02  0.41172828938E-02 -0.23848479961E-01  0.10195977909E+01  0.10193074113E+01 0.  0.
     999903    2    3    3    0    0 -0.10042755735E+00 -0.73641967560E-01  0.28461693474E-01  0.12922225762E+00  0.19480508414E-01 0.  0.
         14    1    1    2    0    0  0.25207908052E-02 -0.41172828938E-02  0.23848479961E-01  0.24332209131E-01  0.00000000000E+00 0.  1.
     999901    1    3    3    0    0  0.97906766541E-01  0.77759250454E-01 -0.52310173435E-01  0.89037553325E+00  0.88000000000E+00 0.  1.
        -11    1    4    4    0    0 -0.37590962898E-01 -0.33463883293E-01  0.30355576665E-02  0.50422095434E-01  0.51100000000E-03 0.  1.
         11    1    4    4    0    0 -0.62836594448E-01 -0.40178084268E-01  0.25426135807E-01  0.78800162185E-01  0.51100000000E-03 0. -1.
</event>
<event>
 8    1  0.1213322E+005  0.1043930E+01  0.7957747E-01            NaN
         13   -1    0    0    0    0  0.00000000000E+00  0.00000000000E+00  0.74505805969E-08  0.10566000000E+00  0.10566000000E+00 0.  1.
     999900   -1    0    0    0    0 -0.00000000000E+00 -0.00000000000E+00 -0.74505805969E-08  0.93827000000E+00  0.93827000000E+00 0. -1.
     999902    2    1    2    0    0 -0.24471666840E-01  0.10215189039E-01  0.16105812244E-02  0.10173629803E+01  0.10170160407E+01 0.  0.
     999903    2    3    3    0    0 -0.18828705368E-01 -0.12291302177E+00  0.22316860347E-01  0.12709127258E+00  0.13857064787E-01 0.  0.
         14    1    1    2    0    0  0.24471666840E-01 -0.10215189039E-01 -0.16105812244E-02  0.26567019723E-01  0.00000000000E+00 0.  1.
     999901    1    3    3    0    0 -0.56429614723E-02  0.13312821081E+00 -0.20706279123E-01  0.89027170770E+00  0.88000000000E+00 0.  1.
        -11    1    4    4    0    0 -0.71614378117E-02 -0.77282771077E-01  0.18794871944E-01  0.79858757999E-01  0.51100000000E-03 0.  1.
         11    1    4    4    0    0 -0.11667267556E-01 -0.45630250693E-01  0.35219884031E-02  0.47232514583E-01  0.51100000000E-03 0. -1.
</event>
