<event>
 8    1  0.1052028E+005  0.1043930E+01  0.7957747E-01            NaN
         13   -1    0    0    0    0  0.00000000000E+00  0.00000000000E+00  0.74505805969E-08  0.10566000000E+00  0.10566000000E+00 0.  1.
     999900   -1    0    0    0    0 -0.00000000000E+00 -0.00000000000E+00 -0.74505805969E-08  0.93827000000E+00  0.93827000000E+00 0.  1.
     999902    2    1    2    0    0 -0.92246298873E-02 -0.19856633788E-01  0.86234798548E-02  0.10203982320E+01  0.10201268586E+01 0.  0.
     999903    2    3    3    0    0  0.37367966275E-01 -0.12583144018E+00 -0.51782640429E-02  0.13270908720E+00  0.18840678449E-01 0.  0.
         14    1    1    2    0    0  0.92246298873E-02  0.19856633788E-01 -0.86234798548E-02  0.23531768033E-01  0.00000000000E+00 0. -1.
     999901    1    3    3    0    0 -0.46592596162E-01  0.10597480639E+00  0.13801743898E-01  0.88768914477E+00  0.88000000000E+00 0. -1.
        -11    1    4    4    0    0  0.26134267605E-01 -0.58903141449E-01  0.19297469904E-02  0.64471428247E-01  0.51100000000E-03 0. -1.
         11    1    4    4    0    0  0.11233698670E-01 -0.66928298733E-01 -0.71080110333E-02  0.68237658950E-01  0.51100000000E-03 0.  1.
</event>
<event>
 8    1  0.1052028E+005  0.1043930E+01  0.7957747E-01            NaN
         13   -1    0    0    0    0  0.00000000000E+00  0.00000000000E+00  0.74505805969E-08  0.10566000000E+00  0.10566000000E+00 0. -1.
     999900   -1    0    0    0    0 -0.00000000000E+00 -0.00000000000E+00 -0.74505805969E-08  0.93827000000E+00  0.93827000000E+00 0.  1.
     999902    2    1    2    0    0 -0.17578079607E-01 -0.21923524390E-01  0.58137758071E-02  0.10152345336E+01  0.10148289158E+01 0.  0.
     999903    2    3    3    0    0  0.99605350543E-01 -0.67545825235E-01  0.30761909733E-01  0.12594506438E+00  0.20789415261E-01 0.  0.
         14    1    1    2    0    0  0.17578079607E-01  0.21923524390E-01 -0.58137758071E-02  0.28695466427E-01  0.00000000000E+00 0.  1.
     999901    1    3    3    0    0 -0.11718343015E+00  0.45622300846E-01 -0.24948133926E-01  0.88928946920E+00  0.88000000000E+00 0.  1.
        -11    1    4    4    0    0  0.32664579112E-01 -0.13358698089E-01  0.15185458284E-01  0.38422503920E-01  0.51100000000E-03 0. -1.
         11    1    4    4    0    0  0.66940771431E-01 -0.54187127146E-01  0.15576451450E-01  0.87522560457E-01  0.51100000000E-03 0.  1.
</event>
<event>
 8    1  0.1052028E+005  0.1043930E+01  0.7957747E-01            NaN
         13   -1    0    0    0    0  0.00000000000E+00  0.00000000000E+00  0.74505805969E-08  0.10566000000E+00  0.10566000000E+00 0. -1.
     999900   -1    0    0    0    0 -0.00000000000E+00 -0.00000000000E+00 -0.74505805969E-08  0.93827000000E+00  0.93827000000E+00 0. -1.
     999902    2    1    2    0    0  0.86184461428E-02  0.18234038880E-01 -0.12181446570E-01  0.10203684757E+01  0.10200964076E+01 0.  0.
     999903    2    3    3    0    0 -0.82898177299E-01 -0.73030569480E-01  0.61232698851E-01  0.12790326187E+00  0.20105449789E-01 0.  0.
         14    1    1    2    0    0 -0.86184461428E-02 -0.18234038880E-01  0.12181446570E-01  0.23561524321E-01  0.00000000000E+00 0. -1.
     999901    1    3    3    0    0  0.91516623442E-01  0.91264608360E-01 -0.73414145421E-01  0.89246521381E+00  0.88000000000E+00 0. -1.
        -11    1    4    4    0    0 -0.24368635158E-01 -0.26729878836E-01  0.30021057705E-01  0.47008954772E-01  0.51100000000E-03 0.  1.
         11    1    4    4    0    0 -0.58529542141E-01 -0.46300690644E-01  0.31211641145E-01  0.80894307101E-01  0.51100000000E-03 0. -1.
</event>
<event>
 8    1  0.1052028E+005  0.1043930E+01  0.7957747E-01            NaN
         13   -1    0    0    0    0  0.00000000000E+00  0.00000000000E+00  0.74505805969E-08  0.10566000000E+00  0.10566000000E+00 0.  1.
     999900   -1    0    0    0    0 -0.00000000000E+00 -0.00000000000E+00 -0.74505805969E-08  0.93827000000E+00  0.93827000000E+00 0.  1.
     999902    2    1    2    0    0  0.11409564721E-01  0.96390570778E-03  0.16214885012E-01  0.10240798167E+01  0.10238874163E+01 0.  0.
     999903    2    3    3    0    0 -0.24628854127E-01 -0.49381526584E-02  0.13220223254E+00  0.13571802851E+00  0.17634828240E-01 0.  0.
         14    1    1    2    0    0 -0.11409564721E-01 -0.96390570778E-03 -0.16214885012E-01  0.19850183307E-01  0.00000000000E+00 0. -1.
     999901    1    3    3    0    0  0.36038418848E-01  0.59020583662E-02 -0.11598734752E+00  0.88836178819E+00  0.88000000000E+00 0.  1.
        -11    1    4    4    0    0 -0.11332304834E-01  0.64191094170E-02  0.63456089402E-01  0.64780880681E-01  0.51100000000E-03 0. -1.
         11    1    4    4    0    0 -0.13296549293E-01 -0.11357262075E-01  0.68746143133E-01  0.70937147825E-01  0.51100000000E-03 0.  1.
</event>
<event>
 8    1  0.1052028E+005  0.1043930E+01  0.7957747E-01            NaN
         13   -1    0    0    0    0  0.00000000000E+00  0.00000000000E+00  0.74505805969E-08  0.10566000000E+00  0.10566000000E+00 0. -1.
     999900   -1    0    0    0    0 -0.00000000000E+00 -0.00000000000E+00 -0.74505805969E-08  0.93827000000E+00  0.93827000000E+00 0. -1.
     999902    2    1    2    0    0 -0.17384732755E-01  0.15962322931E-01 -0.39921494797E-03  0.10203252535E+01  0.10200521745E+01 0.  0.
     999903    2    3    3    0    0  0.92643984400E-01 -0.46765797088E-01  0.72684071077E-01  0.12825894296E+00  0.19935762811E-01 0.  0.
         14    1    1    2    0    0  0.17384732755E-01 -0.15962322931E-01  0.39921494797E-03  0.23604746533E-01  0.00000000000E+00 0. -1.
     999901    1    3    3    0    0 -0.11002871715E+00  0.62728120020E-01 -0.73083286025E-01  0.89206631050E+00  0.88000000000E+00 0.  1.
        -11    1    4    4    0    0  0.49222719935E-01 -0.29583769714E-01  0.50846866740E-01  0.76705544562E-01  0.51100000000E-03 0.  1.
         11    1    4    4    0    0  0.43421264465E-01 -0.17182027374E-01  0.21837204337E-01  0.51553398401E-01  0.51100000000E-03 0. -1.
</event>
<event>
 8    1  0.1052028E+005  0.1043930E+01  0.7957747E-01            NaN
         13   -1    0    0    0    0  0.00000000000E+00  0.00000000000E+00  0.74505805969E-08  0.10566000000E+00  0.10566000000E+00 0.  1.
     999900   -1    0    0    0    0 -0.00000000000E+00 -0.00000000000E+00 -0.74505805969E-08  0.93827000000E+00  0.93827000000E+00 0.  1.
     999902    2    1    2    0    0 -0.12670218848E-01  0.82010884200E-02 -0.18424539322E-01  0.10201128644E+01  0.10198347907E+01 0.  0.
     999903    2    3    3    0    0  0.60133061450E-01  0.91050807340E-01  0.66254100924E-01  0.12919487402E+00  0.19886552913E-01 0.  0.
         14    1    1    2    0    0  0.12670218848E-01 -0.82010884200E-02  0.18424539322E-01  0.23817135557E-01  0.00000000000E+00 0.  1.
     999901    1    3    3    0    0 -0.72803280298E-01 -0.82849718920E-01 -0.84678640246E-01  0.89091799042E+00  0.88000000000E+00 0.  1.
        -11    1    4    4    0    0  0.20933545009E-01  0.38221447219E-01  0.37116003036E-01  0.57244660332E-01  0.51100000000E-03 0.  1.
         11    1    4    4    0    0  0.39199516441E-01  0.52829360120E-01  0.29138097889E-01  0.71950213687E-01  0.51100000000E-03 0. -1.
</event>
<event>
 8    1  0.1052028E+005  0.1043930E+01  0.7957747E-01            NaN
         13   -1    0    0    0    0  0.00000000000E+00  0.00000000000E+00  0.74505805969E-08  0.10566000000E+00  0.10566000000E+00 0.  1.
     999900   -1    0    0    0    0 -0.00000000000E+00 -0.00000000000E+00 -0.74505805969E-08  0.93827000000E+00  0.93827000000E+00 0. -1.
     999902    2    1    2    0    0  0.10991658526E-01 -0.20790352771E-01 -0.56634399786E-02  0.10197405420E+01  0.10194536003E+01 0.  0.
     999903    2    3    3    0    0  0.12464773939E+00  0.28784734995E-01 -0.19270175569E-01  0.13094330006E+00  0.20228402343E-01 0.  0.
         14    1    1    2    0    0 -0.10991658526E-01  0.20790352771E-01  0.56634399786E-02  0.24189457990E-01  0.00000000000E+00 0.  1.
     999901    1    3    3    0    0 -0.11365608086E+00 -0.49575087766E-01  0.13606735591E-01  0.88879724195E+00  0.88000000000E+00 0. -1.
        -11    1    4    4    0    0  0.10140460548E-01  0.67160004079E-02  0.21915455488E-02  0.12369219640E-01  0.51100000000E-03 0. -1.
         11    1    4    4    0    0  0.11450727884E+00  0.22068734587E-01 -0.21461721118E-01  0.11857408042E+00  0.51100000000E-03 0.  1.
</event>
<event>
 8    1  0.1052028E+005  0.1043930E+01  0.7957747E-01            NaN
         13   -1    0    0    0    0  0.00000000000E+00  0.00000000000E+00  0.74505805969E-08  0.10566000000E+00  0.10566000000E+00 0. -1.
     999900   -1    0    0    0    0 -0.00000000000E+00 -0.00000000000E+00 -0.74505805969E-08  0.93827000000E+00  0.93827000000E+00 0.  1.
     999902    2    1    2    0    0 -0.87142851307E-02  0.20194608010E-01  0.38088675768E-02  0.10216080729E+01  0.10213641790E+01 0.  0.
     999903    2    3    3    0    0  0.38621233838E-01  0.82700346754E-01  0.95396280843E-01  0.13338745108E+00  0.18995121733E-01 0.  0.
         14    1    1    2    0    0  0.87142851307E-02 -0.20194608010E-01 -0.38088675768E-02  0.22321927117E-01  0.00000000000E+00 0.  1.
     999901    1    3    3    0    0 -0.47335518969E-01 -0.62505738744E-01 -0.91587413267E-01  0.88822062181E+00  0.88000000000E+00 0.  1.
        -11    1    4    4    0    0  0.31014239354E-01  0.49583888951E-01  0.68332757749E-01  0.89944827471E-01  0.51100000000E-03 0. -1.
         11    1    4    4    0    0  0.76069944845E-02  0.33116457803E-01  0.27063523094E-01  0.43442623606E-01  0.51100000000E-03 0.  1.
</event>
<event>
 8    1  0.1052028E+005  0.1043930E+01  0.7957747E-01            NaN
         13   -1    0    0    0    0  0.00000000000E+00  0.00000000000E+00  0.74505805969E-08  0.10566000000E+00  0.10566000000E+00 0.  1.
     999900   -1    0    0    0    0 -0.00000000000E+00 -0.00000000000E+00 -0.74505805969E-08  0.93827000000E+00  0.93827000000E+00 0. -1.
     999902    2    1    2    0    0  0.16496984232E-01  0.20739562703E-01  0.27905169210E-02  0.10172829188E+01  0.10169338573E+01 0.  0.
     999903    2    3    3    0    0  0.35630161869E-01  0.97123988125E-01 -0.75545511494E-01  0.13030084896E+00  0.23845532681E-01 0.  0.
         14    1    1    2    0    0 -0.16496984232E-01 -0.20739562703E-01 -0.27905169210E-02  0.26647081163E-01  0.00000000000E+00 0. -1.
     999901    1    3    3    0    0 -0.19133177637E-01 -0.76384425423E-01  0.78336028415E-01  0.88698206988E+00  0.88000000000E+00 0.  1.
        -11    1    4    4    0    0  0.39187439540E-02  0.42565382296E-01 -0.25665975441E-01  0.49861525654E-01  0.51100000000E-03 0.  1.
         11    1    4    4    0    0  0.31711417915E-01  0.54558605829E-01 -0.49879536053E-01  0.80439323306E-01  0.51100000000E-03 0. -1.
</event>
<event>
 8    1  0.1052028E+005  0.1043930E+01  0.7957747E-01            NaN
         13   -1    0    0    0    0  0.00000000000E+00  0.00000000000E+00  0.74505805969E-08  0.10566000000E+00  0.10566000000E+00 0. -1.
     999900   -1    0    0    0    0 -0.00000000000E+00 -0.00000000000E+00 -0.74505805969E-08  0.93827000000E+00  0.93827000000E+00 0.  1.
     999902    2    1    2    0    0 -0.12685760271E-01  0.16510478874E-01  0.11447899126E-01  0.10201691326E+01  0.10198923866E+01 0.  0.
     999903    2    3    3    0    0 -0.20204629499E-01 -0.63342053945E-01 -0.10810909823E+00  0.12847028430E+00  0.19914667406E-01 0.  0.
         14    1    1    2    0    0  0.12685760271E-01 -0.16510478874E-01 -0.11447899126E-01  0.23760867424E-01  0.00000000000E+00 0.  1.
     999901    1    3    3    0    0  0.75188692280E-02  0.79852532820E-01  0.11955699736E+00  0.89169884827E+00  0.88000000000E+00 0. -1.
        -11    1    4    4    0    0 -0.15738984284E-01 -0.18326697000E-01 -0.37090858368E-01  0.44267102285E-01  0.51100000000E-03 0. -1.
         11    1    4    4    0    0 -0.44656452153E-02 -0.45015356945E-01 -0.71018239862E-01  0.84203182020E-01  0.51100000000E-03 0.  1.
</event>
<event>
 8    1  0.1052028E+005  0.1043930E+01  0.7957747E-01            NaN
         13   -1    0    0    0    0  0.00000000000E+00  0.00000000000E+00  0.74505805969E-08  0.10566000000E+00  0.10566000000E+00 0. -1.
     999900   -1    0    0    0    0 -0.00000000000E+00 -0.00000000000E+00 -0.74505805969E-08  0.93827000000E+00  0.93827000000E+00 0. -1.
     999902    2    1    2    0    0  0.32855802644E-02  0.22117262575E-01 -0.59469498090E-02  0.10207927021E+01  0.10205304533E+01 0.  0.
     999903    2    3    3    0    0 -0.67697752398E-01  0.72966623458E-01 -0.86104741566E-01  0.13284587792E+00  0.18080014968E-01 0.  0.
         14    1    1    2    0    0 -0.32855802644E-02 -0.22117262575E-01  0.59469498090E-02  0.23137297887E-01  0.00000000000E+00 0. -1.
     999901    1    3    3    0    0  0.70983332662E-01 -0.50849360884E-01  0.80157791757E-01  0.88794682419E+00  0.88000000000E+00 0.  1.
        -11    1    4    4    0    0 -0.26672321327E-01  0.19825411239E-01 -0.20936297871E-01  0.39281666783E-01  0.51100000000E-03 0.  1.
         11    1    4    4    0    0 -0.41025431071E-01  0.53141212220E-01 -0.65168443695E-01  0.93564211135E-01  0.51100000000E-03 0. -1.
</event>
<event>
 8    1  0.1052028E+005  0.1043930E+01  0.7957747E-01            NaN
         13   -1    0    0    0    0  0.00000000000E+00  0.00000000000E+00  0.74505805969E-08  0.10566000000E+00  0.10566000000E+00 0.  1.
     999900   -1    0    0    0    0 -0.00000000000E+00 -0.00000000000E+00 -0.74505805969E-08  0.93827000000E+00  0.93827000000E+00 0. -1.
     999902    2    1    2    0    0 -0.17383963572E-01  0.14093472075E-01  0.51150752058E-02  0.10209736907E+01  0.10207155749E+01 0.  0.
     999903    2    3    3    0    0 -0.11898398149E+00 -0.53163004017E-01  0.12410250398E-01  0.13254855773E+00  0.20775297683E-01 0.  0.
         14    1    1    2    0    0  0.17383963572E-01 -0.14093472075E-01 -0.51150752058E-02  0.22956309350E-01  0.00000000000E+00 0. -1.
     999901    1    3    3    0    0  0.10160001792E+00  0.67256476091E-01 -0.72951751917E-02  0.88842513292E+00  0.88000000000E+00 0. -1.
        -11    1    4    4    0    0 -0.44261129143E-01 -0.15167166663E-01 -0.45804147935E-02  0.47014166144E-01  0.51100000000E-03 0. -1.
         11    1    4    4    0    0 -0.74722852352E-01 -0.37995837354E-01  0.16990665191E-01  0.85534391589E-01  0.51100000000E-03 0.  1.
</event>
<event>
 8    1  0.1052028E+005  0.1043930E+01  0.7957747E-01            NaN
         13   -1    0    0    0    0  0.00000000000E+00  0.00000000000E+00  0.74505805969E-08  0.10566000000E+00  0.10566000000E+00 0. -1.
     999900   -1    0    0    0    0 -0.00000000000E+00 -0.00000000000E+00 -0.74505805969E-08  0.93827000000E+00  0.93827000000E+00 0. -1.
     999902    2    1    2    0    0 -0.57752316009E-02  0.14884340062E-01  0.17080898559E-01  0.10205493675E+01  0.10202815090E+01 0.  0.
     999903    2    3    3    0    0 -0.82473575199E-01  0.38889674229E-01  0.95199656477E-01  0.13344090048E+00  0.20717189938E-01 0.  0.
         14    1    1    2    0    0  0.57752316009E-02 -0.14884340062E-01 -0.17080898559E-01  0.23380632470E-01  0.00000000000E+00 0. -1.
     999901    1    3    3    0    0  0.76698343598E-01 -0.24005334168E-01 -0.78118757918E-01  0.88710846705E+00  0.88000000000E+00 0.  1.
        -11    1    4    4    0    0 -0.63449142071E-01  0.21420812743E-01  0.75721773896E-01  0.10108755122E+00  0.51100000000E-03 0.  1.
         11    1    4    4    0    0 -0.19024433128E-01  0.17468861486E-01  0.19477882581E-01  0.32353349259E-01  0.51100000000E-03 0. -1.
</event>
<event>
 8    1  0.1052028E+005  0.1043930E+01  0.7957747E-01            NaN
         13   -1    0    0    0    0  0.00000000000E+00  0.00000000000E+00  0.74505805969E-08  0.10566000000E+00  0.10566000000E+00 0.  1.
     999900   -1    0    0    0    0 -0.00000000000E+00 -0.00000000000E+00 -0.74505805969E-08  0.93827000000E+00  0.93827000000E+00 0. -1.
     999902    2    1    2    0    0  0.14842656751E-01 -0.88280992107E-02 -0.15160935419E-01  0.10209497094E+01  0.10206910479E+01 0.  0.
     999903    2    3    3    0    0 -0.71715996905E-01 -0.10048079098E+00 -0.40897958898E-01  0.13159319434E+00  0.20113482722E-01 0.  0.
         14    1    1    2    0    0 -0.14842656751E-01  0.88280992107E-02  0.15160935419E-01  0.22980290640E-01  0.00000000000E+00 0.  1.
     999901    1    3    3    0    0  0.86558653657E-01  0.91652691766E-01  0.25737023478E-01  0.88935651502E+00  0.88000000000E+00 0.  1.
        -11    1    4    4    0    0 -0.23866049293E-01 -0.19789609090E-01 -0.65672621518E-02  0.31695535805E-01  0.51100000000E-03 0. -1.
         11    1    4    4    0    0 -0.47849947613E-01 -0.80691181887E-01 -0.34330696746E-01  0.99897658535E-01  0.51100000000E-03 0.  1.
</event>
<event>
 8    1  0.1052028E+005  0.1043930E+01  0.7957747E-01            NaN
         13   -1    0    0    0    0  0.00000000000E+00  0.00000000000E+00  0.74505805969E-08  0.10566000000E+00  0.10566000000E+00 0. -1.
     999900   -1    0    0    0    0 -0.00000000000E+00 -0.00000000000E+00 -0.74505805969E-08  0.93827000000E+00  0.93827000000E+00 0. -1.
     999902    2    1    2    0    0  0.10663185211E-01  0.36064720509E-02  0.19771922092E-01  0.10211783174E+01  0.10209248341E+01 0.  0.
     999903    2    3    3    0    0 -0.71887707890E-01  0.86250863620E-01  0.66801103811E-01  0.13221460082E+00  0.20279526069E-01 0.  0.
         14    1    1    2    0    0 -0.10663185211E-01 -0.36064720509E-02 -0.19771922092E-01  0.22751682634E-01  0.00000000000E+00 0. -1.
     999901    1    3    3    0    0  0.82550893101E-01 -0.82644391569E-01 -0.47029181719E-01  0.88896371655E+00  0.88000000000E+00 0.  1.
        -11    1    4    4    0    0 -0.40299302068E-01  0.32602430186E-01  0.30367516533E-01  0.60078277127E-01  0.51100000000E-03 0.  1.
         11    1    4    4    0    0 -0.31588405822E-01  0.53648433435E-01  0.36433587278E-01  0.72136323688E-01  0.51100000000E-03 0. -1.
</event>
<event>
 8    1  0.1052028E+005  0.1043930E+01  0.7957747E-01            NaN
         13   -1    0    0    0    0  0.00000000000E+00  0.00000000000E+00  0.74505805969E-08  0.10566000000E+00  0.10566000000E+00 0. -1.
     999900   -1    0    0    0    0 -0.00000000000E+00 -0.00000000000E+00 -0.74505805969E-08  0.93827000000E+00  0.93827000000E+00 0.  1.
     999902    2    1    2    0    0 -0.18316090748E-01 -0.18902603277E-01 -0.88900421063E-02  0.10161483435E+01  0.10157684950E+01 0.  0.
     999903    2    3    3    0    0  0.94935865436E-01  0.39951536675E-01  0.65863746265E-01  0.12380427068E+00  0.19506935626E-01 0.  0.
         14    1    1    2    0    0  0.18316090748E-01  0.18902603277E-01  0.88900421063E-02  0.27781656530E-01  0.00000000000E+00 0. -1.
     999901    1    3    3    0    0 -0.11325195618E+00 -0.58854139952E-01 -0.74753788372E-01  0.89234407279E+00  0.88000000000E+00 0.  1.
        -11    1    4    4    0    0  0.58988325484E-01  0.17199759665E-01  0.46506262907E-01  0.77061974322E-01  0.51100000000E-03 0.  1.
         11    1    4    4    0    0  0.35947539952E-01  0.22751777010E-01  0.19357483359E-01  0.46742296356E-01  0.51100000000E-03 0. -1.
</event>
<event>
 8    1  0.1052028E+005  0.1043930E+01  0.7957747E-01            NaN
         13   -1    0    0    0    0  0.00000000000E+00  0.00000000000E+00  0.74505805969E-08  0.10566000000E+00  0.10566000000E+00 0. -1.
     999900   -1    0    0    0    0 -0.00000000000E+00 -0.00000000000E+00 -0.74505805969E-08  0.93827000000E+00  0.93827000000E+00 0.  1.
     999902    2    1    2    0    0 -0.28024381632E-02  0.94874860951E-02 -0.20502112768E-01  0.10211659345E+01  0.10209121720E+01 0.  0.
     999903    2    3    3    0    0 -0.10938301680E+00 -0.57550986927E-01  0.36397439550E-01  0.13038474041E+00  0.19966133005E-01 0.  0.
         14    1    1    2    0    0  0.28024381632E-02 -0.94874860951E-02  0.20502112768E-01  0.22764065543E-01  0.00000000000E+00 0. -1.
     999901    1    3    3    0    0  0.10658057863E+00  0.67038473022E-01 -0.56899552318E-01  0.89078119404E+00  0.88000000000E+00 0.  1.
        -11    1    4    4    0    0 -0.70355400771E-01 -0.40141181360E-01  0.33150549339E-01  0.87523807624E-01  0.51100000000E-03 0. -1.
         11    1    4    4    0    0 -0.39027616027E-01 -0.17409805567E-01  0.32468902113E-02  0.42860932790E-01  0.51100000000E-03 0.  1.
</event>
<event>
 8    1  0.1052028E+005  0.1043930E+01  0.7957747E-01            NaN
         13   -1    0    0    0    0  0.00000000000E+00  0.00000000000E+00  0.74505805969E-08  0.10566000000E+00  0.10566000000E+00 0.  1.
     999900   -1    0    0    0    0 -0.00000000000E+00 -0.00000000000E+00 -0.74505805969E-08  0.93827000000E+00  0.93827000000E+00 0.  1.
     999902    2    1    2    0    0  0.66403099422E-02 -0.19946128647E-01  0.12907645173E-01  0.10192612127E+01  0.10189626444E+01 0.  0.
     999903    2    3    3    0    0 -0.48298426204E-01 -0.12102441665E+00  0.19262433719E-03  0.13168205745E+00  0.18986304326E-01 0.  0.
         14    1    1    2    0    0 -0.66403099422E-02  0.19946128647E-01 -0.12907645173E-01  0.24668787324E-01  0.00000000000E+00 0. -1.
     999901    1    3    3    0    0  0.54938736146E-01  0.10107828800E+00  0.12715020835E-01  0.88757915522E+00  0.88000000000E+00 0. -1.
        -11    1    4    4    0    0 -0.29601254906E-01 -0.73959960199E-01  0.93626089230E-02  0.80213649534E-01  0.51100000000E-03 0. -1.
         11    1    4    4    0    0 -0.18697171298E-01 -0.47064456447E-01 -0.91699845858E-02  0.51468407917E-01  0.51100000000E-03 0.  1.
</event>
<event>
 8    1  0.1052028E+005  0.1043930E+01  0.7957747E-01            NaN
         13   -1    0    0    0    0  0.00000000000E+00  0.00000000000E+00  0.74505805969E-08  0.10566000000E+00  0.10566000000E+00 0. -1.
     999900   -1    0    0    0    0 -0.00000000000E+00 -0.00000000000E+00 -0.74505805969E-08  0.93827000000E+00  0.93827000000E+00 0.  1.
     999902    2    1    2    0    0 -0.17948457630E-01 -0.16989522699E-01  0.64435585802E-03  0.10192074150E+01  0.10189075270E+01 0.  0.
     999903    2    3    3    0    0 -0.28145333638E-01 -0.80666341285E-01  0.98031894650E-01  0.13148952842E+00  0.19494237443E-01 0.  0.
         14    1    1    2    0    0  0.17948457630E-01  0.16989522699E-01 -0.64435585802E-03  0.24722584965E-01  0.00000000000E+00 0. -1.
     999901    1    3    3    0    0  0.10196876008E-01  0.63676818586E-01 -0.97387538792E-01  0.88771788662E+00  0.88000000000E+00 0.  1.
        -11    1    4    4    0    0 -0.19140388678E-01 -0.59010171117E-01  0.83015191899E-01  0.10363560190E+00  0.51100000000E-03 0.  1.
         11    1    4    4    0    0 -0.90049449607E-02 -0.21656170168E-01  0.15016702751E-01  0.27853926521E-01  0.51100000000E-03 0. -1.
</event>
<event>
 8    1  0.1052028E+005  0.1043930E+01  0.7957747E-01            NaN
         13   -1    0    0    0    0  0.00000000000E+00  0.00000000000E+00  0.74505805969E-08  0.10566000000E+00  0.10566000000E+00 0. -1.
     999900   -1    0    0    0    0 -0.00000000000E+00 -0.00000000000E+00 -0.74505805969E-08  0.93827000000E+00  0.93827000000E+00 0.  1.
     999902    2    1    2    0    0  0.14641194549E-01 -0.66769251498E-02 -0.17820149530E-01  0.10199195099E+01  0.10196368486E+01 0.  0.
     999903    2    3    3    0    0  0.46016906683E-01  0.68419960194E-01 -0.10157191055E+00  0.13220427682E+00  0.19033421769E-01 0.  0.
         14    1    1    2    0    0 -0.14641194549E-01  0.66769251498E-02  0.17820149530E-01  0.24010490135E-01  0.00000000000E+00 0. -1.
     999901    1    3    3    0    0 -0.31375712134E-01 -0.75096885344E-01  0.83751761019E-01  0.88771523304E+00  0.88000000000E+00 0. -1.
        -11    1    4    4    0    0  0.15155751588E-01  0.26570461388E-01 -0.24324366432E-01  0.39084807123E-01  0.51100000000E-03 0.  1.
         11    1    4    4    0    0  0.30861155095E-01  0.41849498806E-01 -0.77247544117E-01  0.93119469700E-01  0.51100000000E-03 0. -1.
</event>
<event>
 8    1  0.1052028E+005  0.1043930E+01  0.7957747E-01            NaN
         13   -1    0    0    0    0  0.00000000000E+00  0.00000000000E+00  0.74505805969E-08  0.10566000000E+00  0.10566000000E+00 0. -1.
     999900   -1    0    0    0    0 -0.00000000000E+00 -0.00000000000E+00 -0.74505805969E-08  0.93827000000E+00  0.93827000000E+00 0.  1.
     999902    2    1    2    0    0 -0.17585538749E-01 -0.13133114085E-01  0.10317443518E-01  0.10196775878E+01  0.10193891325E+01 0.  0.
     999903    2    3    3    0    0 -0.79698193361E-01 -0.10368985263E+00  0.12260914906E-01  0.13285050099E+00  0.19888137545E-01 0.  0.
         14    1    1    2    0    0  0.17585538749E-01  0.13133114085E-01 -0.10317443518E-01  0.24252412239E-01  0.00000000000E+00 0.  1.
     999901    1    3    3    0    0  0.62112654612E-01  0.90556738541E-01 -0.19434713879E-02  0.88682708678E+00  0.88000000000E+00 0.  1.
        -11    1    4    4    0    0 -0.14873041220E-01 -0.25901246775E-01  0.10212513158E-01  0.31569581651E-01  0.51100000000E-03 0.  1.
         11    1    4    4    0    0 -0.64825152142E-01 -0.77788605851E-01  0.20484017477E-02  0.10128091933E+00  0.51100000000E-03 0. -1.
</event>
<event>
 8    1  0.1052028E+005  0.1043930E+01  0.7957747E-01            NaN
         13   -1    0    0    0    0  0.00000000000E+00  0.00000000000E+00  0.74505805969E-08  0.10566000000E+00  0.10566000000E+00 0. -1.
     999900   -1    0    0    0    0 -0.00000000000E+00 -0.00000000000E+00 -0.74505805969E-08  0.93827000000E+00  0.93827000000E+00 0.  1.
     999902    2    1    2    0    0  0.27299599203E-03  0.18070866270E-01 -0.16412177009E-01  0.10195170877E+01  0.10192247553E+01 0.  0.
     999903    2    3    3    0    0 -0.12496450704E+00 -0.19025543958E-01 -0.20384851516E-01  0.12986751735E+00  0.21723962574E-01 0.  0.
         14    1    1    2    0    0 -0.27299599203E-03 -0.18070866270E-01  0.16412177009E-01  0.24412912336E-01  0.00000000000E+00 0. -1.
     999901    1    3    3    0    0  0.12523750303E+00  0.37096410228E-01  0.39726745069E-02  0.88964957031E+00  0.88000000000E+00 0.  1.
        -11    1    4    4    0    0 -0.77384628555E-01 -0.17706793969E-01 -0.38605289522E-02  0.79480035821E-01  0.51100000000E-03 0.  1.
         11    1    4    4    0    0 -0.47579878480E-01 -0.13187499898E-02 -0.16524322563E-01  0.50387481530E-01  0.51100000000E-03 0. -1.
</event>
<event>
 8    1  0.1052028E+005  0.1043930E+01  0.7957747E-01            NaN
         13   -1    0    0    0    0  0.00000000000E+00  0.00000000000E+00  0.74505805969E-08  0.10566000000E+00  0.10566000000E+00 0. -1.
     999900   -1    0    0    0    0 -0.00000000000E+00 -0.00000000000E+00 -0.74505805969E-08  0.93827000000E+00  0.93827000000E+00 0. -1.
     999902    2    1    2    0    0 -0.23257314900E-01 -0.47125110835E-02 -0.22690818009E-02  0.10200918124E+01  0.10198132410E+01 0.  0.
     999903    2    3    3    0    0  0.71456402877E-02 -0.12022243448E+00  0.46843470137E-01  0.13066563509E+00  0.19357261480E-01 0.  0.
         14    1    1    2    0    0  0.23257314900E-01  0.47125110835E-02  0.22690818009E-02  0.23838187626E-01  0.00000000000E+00 0.  1.
     999901    1    3    3    0    0 -0.30402955187E-01  0.11550992339E+00 -0.49112551938E-01  0.88942617729E+00  0.88000000000E+00 0.  1.
        -11    1    4    4    0    0  0.34225713459E-02 -0.10723230507E+00  0.35480786510E-01  0.11300278128E+00  0.51100000000E-03 0.  1.
         11    1    4    4    0    0  0.37230689419E-02 -0.12990129404E-01  0.11362683626E-01  0.17662853803E-01  0.51100000000E-03 0. -1.
</event>
<event>
 8    1  0.1052028E+005  0.1043930E+01  0.7957747E-01            NaN
         13   -1    0    0    0    0  0.00000000000E+00  0.00000000000E+00  0.74505805969E-08  0.10566000000E+00  0.10566000000E+00 0.  1.
     999900   -1    0    0    0    0 -0.00000000000E+00 -0.00000000000E+00 -0.74505805969E-08  0.93827000000E+00  0.93827000000E+00 0. -1.
     999902    2    1    2    0    0 -0.10775875755E-01 -0.15334710553E-02  0.21379020523E-01  0.10199397197E+01  0.10196575397E+01 0.  0.
     999903    2    3    3    0    0 -0.11058051022E+00  0.62955195625E-01  0.28213768755E-01  0.13192706944E+00  0.20428632034E-01 0.  0.
         14    1    1    2    0    0  0.10775875755E-01  0.15334710553E-02 -0.21379020523E-01  0.23990280329E-01  0.00000000000E+00 0. -1.
     999901    1    3    3    0    0  0.99804634464E-01 -0.64488666680E-01 -0.68347482322E-02  0.88801265023E+00  0.88000000000E+00 0. -1.
        -11    1    4    4    0    0 -0.78646660758E-01  0.33798073298E-01  0.17480228478E-01  0.87369482748E-01  0.51100000000E-03 0. -1.
         11    1    4    4    0    0 -0.31933849460E-01  0.29157122326E-01  0.10733540277E-01  0.44557586689E-01  0.51100000000E-03 0.  1.
</event>
<event>
 8    1  0.1052028E+005  0.1043930E+01  0.7957747E-01            NaN
         13   -1    0    0    0    0  0.00000000000E+00  0.00000000000E+00  0.74505805969E-08  0.10566000000E+00  0.10566000000E+00 0. -1.
     999900   -1    0    0    0    0 -0.00000000000E+00 -0.00000000000E+00 -0.74505805969E-08  0.93827000000E+00  0.93827000000E+00 0. -1.
     999902    2    1    2    0    0 -0.76418510701E-02  0.23261773569E-01 -0.13830514078E-01  0.10158089915E+01  0.10154196749E+01 0.  0.
     999903    2    3    3    0    0 -0.37873700114E-02 -0.10633167869E+00 -0.62185614379E-01  0.12499614047E+00  0.20885747122E-01 0.  0.
         14    1    1    2    0    0  0.76418510701E-02 -0.23261773569E-01  0.13830514078E-01  0.28121008464E-01  0.00000000000E+00 0. -1.
     999901    1    3    3    0    0 -0.38544810586E-02  0.12959345226E+00  0.48355100301E-01  0.89081285106E+00  0.88000000000E+00 0. -1.
        -11    1    4    4    0    0  0.40935547198E-02 -0.69562271829E-01 -0.48818128032E-01  0.85083121698E-01  0.51100000000E-03 0.  1.
         11    1    4    4    0    0 -0.78809247312E-02 -0.36769406862E-01 -0.13367486347E-01  0.39913018776E-01  0.51100000000E-03 0. -1.
</event>
<event>
 8    1  0.1052028E+005  0.1043930E+01  0.7957747E-01            NaN
         13   -1    0    0    0    0  0.00000000000E+00  0.00000000000E+00  0.74505805969E-08  0.10566000000E+00  0.10566000000E+00 0.  1.
     999900   -1    0    0    0    0 -0.00000000000E+00 -0.00000000000E+00 -0.74505805969E-08  0.93827000000E+00  0.93827000000E+00 0. -1.
     999902    2    1    2    0    0 -0.10899649568E-01 -0.19503543748E-01 -0.13561143740E-02  0.10215463089E+01  0.10213010485E+01 0.  0.
     999903    2    3    3    0    0 -0.10207123328E+00 -0.54888447009E-01 -0.64010661447E-01  0.13391466162E+00  0.20112024720E-01 0.  0.
         14    1    1    2    0    0  0.10899649568E-01  0.19503543748E-01  0.13561143740E-02  0.22383691063E-01  0.00000000000E+00 0.  1.
     999901    1    3    3    0    0  0.91171583713E-01  0.35384903262E-01  0.62654547073E-01  0.88763164732E+00  0.88000000000E+00 0.  1.
        -11    1    4    4    0    0 -0.70893936729E-01 -0.31009769582E-01 -0.50407723719E-01  0.92351263153E-01  0.51100000000E-03 0. -1.
         11    1    4    4    0    0 -0.31177296552E-01 -0.23878677428E-01 -0.13602937728E-01  0.41563398463E-01  0.51100000000E-03 0.  1.
</event>
<event>
 8    1  0.1052028E+005  0.1043930E+01  0.7957747E-01            NaN
         13   -1    0    0    0    0  0.00000000000E+00  0.00000000000E+00  0.74505805969E-08  0.10566000000E+00  0.10566000000E+00 0.  1.
     999900   -1    0    0    0    0 -0.00000000000E+00 -0.00000000000E+00 -0.74505805969E-08  0.93827000000E+00  0.93827000000E+00 0. -1.
     999902    2    1    2    0    0 -0.50292663118E-02 -0.19874990177E-01  0.10809430535E-01  0.10207534484E+01  0.10204902988E+01 0.  0.
     999903    2    3    3    0    0  0.82489339343E-01  0.83377233531E-01  0.51211803561E-01  0.12948868430E+00  0.19708281534E-01 0.  0.
         14    1    1    2    0    0  0.50292663118E-02  0.19874990177E-01 -0.10809430535E-01  0.23176551569E-01  0.00000000000E+00 0. -1.
     999901    1    3    3    0    0 -0.87518605655E-01 -0.10325222371E+00 -0.40402373026E-01  0.89126476413E+00  0.88000000000E+00 0. -1.
        -11    1    4    4    0    0  0.27771656385E-01  0.38452670824E-01  0.27466881312E-01  0.54813898619E-01  0.51100000000E-03 0. -1.
         11    1    4    4    0    0  0.54717682958E-01  0.44924562708E-01  0.23744922249E-01  0.74674785680E-01  0.51100000000E-03 0.  1.
</event>
<event>
 8    1  0.1052028E+005  0.1043930E+01  0.7957747E-01            NaN
         13   -1    0    0    0    0  0.00000000000E+00  0.00000000000E+00  0.74505805969E-08  0.10566000000E+00  0.10566000000E+00 0. -1.
     999900   -1    0    0    0    0 -0.00000000000E+00 -0.00000000000E+00 -0.74505805969E-08  0.93827000000E+00  0.93827000000E+00 0. -1.
     999902    2    1    2    0    0  0.20661765147E-01  0.10201502002E-01 -0.69480765186E-02  0.10198622841E+01  0.10195782577E+01 0.  0.
     999903    2    3    3    0    0 -0.74237593138E-01  0.81460861985E-01  0.60835406775E-01  0.12931279911E+00  0.29559448992E-01 0.  0.
         14    1    1    2    0    0 -0.20661765147E-01 -0.10201502002E-01  0.69480765186E-02  0.24067715916E-01  0.00000000000E+00 0.  1.
     999901    1    3    3    0    0  0.94899358285E-01 -0.71259359984E-01 -0.67783483294E-01  0.89054948498E+00  0.88000000000E+00 0. -1.
        -11    1    4    4    0    0 -0.42803857960E-01  0.43437605152E-01  0.16988274931E-01  0.63307648856E-01  0.51100000000E-03 0. -1.
         11    1    4    4    0    0 -0.31433735179E-01  0.38023256834E-01  0.43847131845E-01  0.66005150250E-01  0.51100000000E-03 0.  1.
</event>
<event>
 8    1  0.1052028E+005  0.1043930E+01  0.7957747E-01            NaN
         13   -1    0    0    0    0  0.00000000000E+00  0.00000000000E+00  0.74505805969E-08  0.10566000000E+00  0.10566000000E+00 0. -1.
     999900   -1    0    0    0    0 -0.00000000000E+00 -0.00000000000E+00 -0.74505805969E-08  0.93827000000E+00  0.93827000000E+00 0.  1.
     999902    2    1    2    0    0 -0.12528036262E-01  0.31801726880E-02 -0.19608659264E-01  0.10204445852E+01  0.10201742923E+01 0.  0.
     999903    2    3    3    0    0  0.85482637400E-02 -0.11902999676E+00  0.45171560578E-01  0.12939126870E+00  0.21457343486E-01 0.  0.
         14    1    1    2    0    0  0.12528036262E-01 -0.31801726880E-02  0.19608659264E-01  0.23485414815E-01  0.00000000000E+00 0. -1.
     999901    1    3    3    0    0 -0.21076300002E-01  0.12221016945E+00 -0.64780219842E-01  0.89105331649E+00  0.88000000000E+00 0.  1.
        -11    1    4    4    0    0  0.12375723047E-01 -0.40720252842E-01  0.11704770130E-01  0.44142499671E-01  0.51100000000E-03 0.  1.
         11    1    4    4    0    0 -0.38274593071E-02 -0.78309743916E-01  0.33466790448E-01  0.85248769028E-01  0.51100000000E-03 0. -1.
</event>
<event>
 8    1  0.1052028E+005  0.1043930E+01  0.7957747E-01            NaN
         13   -1    0    0    0    0  0.00000000000E+00  0.00000000000E+00  0.74505805969E-08  0.10566000000E+00  0.10566000000E+00 0. -1.
     999900   -1    0    0    0    0 -0.00000000000E+00 -0.00000000000E+00 -0.74505805969E-08  0.93827000000E+00  0.93827000000E+00 0. -1.
     999902    2    1    2    0    0 -0.20991644258E-01  0.83042746528E-02  0.76054370197E-02  0.10201087326E+01  0.10198305612E+01 0.  0.
     999903    2    3    3    0    0  0.47614935775E-01 -0.82454768649E-01  0.85126699545E-01  0.12940473416E+00  0.20810076088E-01 0.  0.
         14    1    1    2    0    0  0.20991644258E-01 -0.83042746528E-02 -0.76054370197E-02  0.23821267356E-01  0.00000000000E+00 0.  1.
     999901    1    3    3    0    0 -0.68606580033E-01  0.90759043302E-01 -0.77521262526E-01  0.89070399848E+00  0.88000000000E+00 0. -1.
        -11    1    4    4    0    0  0.26062405748E-01 -0.25116650929E-01  0.32371551434E-01  0.48562059373E-01  0.51100000000E-03 0.  1.
         11    1    4    4    0    0  0.21552530027E-01 -0.57338117719E-01  0.52755148112E-01  0.80842674792E-01  0.51100000000E-03 0. -1.
</event>
<event>
 8    1  0.1052028E+005  0.1043930E+01  0.7957747E-01            NaN
         13   -1    0    0    0    0  0.00000000000E+00  0.00000000000E+00  0.74505805969E-08  0.10566000000E+00  0.10566000000E+00 0.  1.
     999900   -1    0    0    0    0 -0.00000000000E+00 -0.00000000000E+00 -0.74505805969E-08  0.93827000000E+00  0.93827000000E+00 0. -1.
     999902    2    1    2    0    0  0.22039953647E-01  0.36590047228E-02 -0.61216307575E-02  0.10207648919E+01  0.10205020050E+01 0.  0.
     999903    2    3    3    0    0 -0.11029467250E+00  0.59816452024E-01  0.19317182762E-01  0.12873728836E+00  0.21382543084E-01 0.  0.
         14    1    1    2    0    0 -0.22039953647E-01 -0.36590047228E-02  0.61216307575E-02  0.23165108147E-01  0.00000000000E+00 0.  1.
     999901    1    3    3    0    0  0.13233462615E+00 -0.56157447301E-01 -0.25438813519E-01  0.89202760350E+00  0.88000000000E+00 0. -1.
        -11    1    4    4    0    0 -0.32169009728E-01  0.26139659584E-01  0.12921935132E-01  0.43420784408E-01  0.51100000000E-03 0. -1.
         11    1    4    4    0    0 -0.78125662774E-01  0.33676792439E-01  0.63952476302E-02  0.85316503950E-01  0.51100000000E-03 0.  1.
</event>
<event>
 8    1  0.1052028E+005  0.1043930E+01  0.7957747E-01            NaN
         13   -1    0    0    0    0  0.00000000000E+00  0.00000000000E+00  0.74505805969E-08  0.10566000000E+00  0.10566000000E+00 0.  1.
     999900   -1    0    0    0    0 -0.00000000000E+00 -0.00000000000E+00 -0.74505805969E-08  0.93827000000E+00  0.93827000000E+00 0.  1.
     999902    2    1    2    0    0 -0.15095743925E-02 -0.18975440192E-01 -0.12148284958E-01  0.10213484373E+01  0.10210987726E+01 0.  0.
     999903    2    3    3    0    0 -0.11777254566E+00 -0.39451361680E-01 -0.42953414806E-01  0.13293113793E+00  0.19972709846E-01 0.  0.
         14    1    1    2    0    0  0.15095743925E-02  0.18975440192E-01  0.12148284958E-01  0.22581562672E-01  0.00000000000E+00 0. -1.
     999901    1    3    3    0    0  0.11626297126E+00  0.20475921489E-01  0.30805129848E-01  0.88841729940E+00  0.88000000000E+00 0.  1.
        -11    1    4    4    0    0 -0.57888779156E-01 -0.17110276957E-01 -0.10594386140E-01  0.61289268787E-01  0.51100000000E-03 0. -1.
         11    1    4    4    0    0 -0.59883766500E-01 -0.22341084724E-01 -0.32359028666E-01  0.71641869141E-01  0.51100000000E-03 0.  1.
</event>
<event>
 8    1  0.1052028E+005  0.1043930E+01  0.7957747E-01            NaN
         13   -1    0    0    0    0  0.00000000000E+00  0.00000000000E+00  0.74505805969E-08  0.10566000000E+00  0.10566000000E+00 0.  1.
     999900   -1    0    0    0    0 -0.00000000000E+00 -0.00000000000E+00 -0.74505805969E-08  0.93827000000E+00  0.93827000000E+00 0.  1.
     999902    2    1    2    0    0  0.31438750336E-02  0.11388139716E-01 -0.20816264171E-01  0.10199948683E+01  0.10197139995E+01 0.  0.
     999903    2    3    3    0    0 -0.58299648148E-01 -0.87394511867E-01  0.70077063178E-01  0.12769731939E+00  0.18951541300E-01 0.  0.
         14    1    1    2    0    0 -0.31438750336E-02 -0.11388139716E-01  0.20816264171E-01  0.23935131720E-01  0.00000000000E+00 0.  1.
     999901    1    3    3    0    0  0.61443523182E-01  0.98782651583E-01 -0.90893327349E-01  0.89229754889E+00  0.88000000000E+00 0.  1.
        -11    1    4    4    0    0 -0.46367047795E-01 -0.55525028988E-01  0.52567508313E-01  0.89423352747E-01  0.51100000000E-03 0. -1.
         11    1    4    4    0    0 -0.11932600353E-01 -0.31869482879E-01  0.17509554866E-01  0.38273966645E-01  0.51100000000E-03 0.  1.
</event>
<event>
 8    1  0.1052028E+005  0.1043930E+01  0.7957747E-01            NaN
         13   -1    0    0    0    0  0.00000000000E+00  0.00000000000E+00  0.74505805969E-08  0.10566000000E+00  0.10566000000E+00 0. -1.
     999900   -1    0    0    0    0 -0.00000000000E+00 -0.00000000000E+00 -0.74505805969E-08  0.93827000000E+00  0.93827000000E+00 0.  1.
     999902    2    1    2    0    0 -0.44044315066E-02 -0.22424665938E-01  0.65193277500E-02  0.10201651879E+01  0.10198883490E+01 0.  0.
     999903    2    3    3    0    0 -0.52771346068E-01 -0.11480002431E+00 -0.36435839035E-01  0.13296864170E+00  0.19728881428E-01 0.  0.
         14    1    1    2    0    0  0.44044315066E-02  0.22424665938E-01 -0.65193277500E-02  0.23764812089E-01  0.00000000000E+00 0. -1.
     999901    1    3    3    0    0  0.48366914561E-01  0.92375358369E-01  0.42955166785E-01  0.88719654621E+00  0.88000000000E+00 0. -1.
        -11    1    4    4    0    0 -0.31400074280E-02 -0.20855513656E-01 -0.16165491770E-02  0.21158602240E-01  0.51100000000E-03 0.  1.
         11    1    4    4    0    0 -0.49631338640E-01 -0.93944510651E-01 -0.34819289858E-01  0.11181003946E+00  0.51100000000E-03 0. -1.
</event>
<event>
 8    1  0.1052028E+005  0.1043930E+01  0.7957747E-01            NaN
         13   -1    0    0    0    0  0.00000000000E+00  0.00000000000E+00  0.74505805969E-08  0.10566000000E+00  0.10566000000E+00 0.  1.
     999900   -1    0    0    0    0 -0.00000000000E+00 -0.00000000000E+00 -0.74505805969E-08  0.93827000000E+00  0.93827000000E+00 0. -1.
     999902    2    1    2    0    0  0.16611047808E-01 -0.10792138050E-01 -0.83425887150E-02  0.10224359092E+01  0.10222099552E+01 0.  0.
     999903    2    3    3    0    0 -0.89825368103E-03 -0.12318829826E+00 -0.49668544636E-01  0.13415256077E+00  0.18809081446E-01 0.  0.
         14    1    1    2    0    0 -0.16611047808E-01  0.10792138050E-01  0.83425887150E-02  0.21494090802E-01  0.00000000000E+00 0.  1.
     999901    1    3    3    0    0  0.17509301489E-01  0.11239616021E+00  0.41325955921E-01  0.88828334843E+00  0.88000000000E+00 0. -1.
        -11    1    4    4    0    0  0.34647337787E-02 -0.36441638801E-01 -0.65869500274E-02  0.37197398435E-01  0.51100000000E-03 0.  1.
         11    1    4    4    0    0 -0.43629874597E-02 -0.86746659462E-01 -0.43081594608E-01  0.96955162330E-01  0.51100000000E-03 0. -1.
</event>
<event>
 8    1  0.1052028E+005  0.1043930E+01  0.7957747E-01            NaN
         13   -1    0    0    0    0  0.00000000000E+00  0.00000000000E+00  0.74505805969E-08  0.10566000000E+00  0.10566000000E+00 0. -1.
     999900   -1    0    0    0    0 -0.00000000000E+00 -0.00000000000E+00 -0.74505805969E-08  0.93827000000E+00  0.93827000000E+00 0.  1.
     999902    2    1    2    0    0 -0.67863918935E-02 -0.85274067284E-02  0.22023501727E-01  0.10193575274E+01  0.10190613143E+01 0.  0.
     999903    2    3    3    0    0 -0.63983775000E-01  0.63696675940E-01  0.93836201629E-01  0.13163858394E+00  0.19294923042E-01 0.  0.
         14    1    1    2    0    0  0.67863918935E-02  0.85274067284E-02 -0.22023501727E-01  0.24572472582E-01  0.00000000000E+00 0.  1.
     999901    1    3    3    0    0  0.57197383106E-01 -0.72224082669E-01 -0.71812699902E-01  0.88771894348E+00  0.88000000000E+00 0.  1.
        -11    1    4    4    0    0 -0.19969735876E-01  0.11772950961E-01  0.33083205479E-01  0.40399905087E-01  0.51100000000E-03 0.  1.
         11    1    4    4    0    0 -0.44014039124E-01  0.51923724979E-01  0.60752996151E-01  0.91238678849E-01  0.51100000000E-03 0. -1.
</event>
<event>
 8    1  0.1052028E+005  0.1043930E+01  0.7957747E-01            NaN
         13   -1    0    0    0    0  0.00000000000E+00  0.00000000000E+00  0.74505805969E-08  0.10566000000E+00  0.10566000000E+00 0. -1.
     999900   -1    0    0    0    0 -0.00000000000E+00 -0.00000000000E+00 -0.74505805969E-08  0.93827000000E+00  0.93827000000E+00 0.  1.
     999902    2    1    2    0    0 -0.20176735444E-01  0.42179961940E-02  0.11365457233E-01  0.10203913984E+01  0.10201198656E+01 0.  0.
     999903    2    3    3    0    0  0.56856275527E-01 -0.80781635174E-01  0.82237765059E-01  0.13012070583E+00  0.20249430500E-01 0.  0.
         14    1    1    2    0    0  0.20176735444E-01 -0.42179961940E-02 -0.11365457233E-01  0.23538601556E-01  0.00000000000E+00 0. -1.
     999901    1    3    3    0    0 -0.77033010972E-01  0.84999631368E-01 -0.70872307826E-01  0.89027069261E+00  0.88000000000E+00 0. -1.
        -11    1    4    4    0    0  0.28304171491E-01 -0.30931727659E-01  0.45773693188E-01  0.62075679689E-01  0.51100000000E-03 0. -1.
         11    1    4    4    0    0  0.28552104037E-01 -0.49849907514E-01  0.36464071871E-01  0.68045026141E-01  0.51100000000E-03 0.  1.
</event>
<event>
 8    1  0.1052028E+005  0.1043930E+01  0.7957747E-01            NaN
         13   -1    0    0    0    0  0.00000000000E+00  0.00000000000E+00  0.74505805969E-08  0.10566000000E+00  0.10566000000E+00 0.  1.
     999900   -1    0    0    0    0 -0.00000000000E+00 -0.00000000000E+00 -0.74505805969E-08  0.93827000000E+00  0.93827000000E+00 0. -1.
     999902    2    1    2    0    0  0.94908323329E-02  0.94111746915E-02  0.18548019002E-01  0.10210679109E+01  0.10208119335E+01 0.  0.
     999903    2    3    3    0    0  0.10278742833E+00  0.77191449435E-01  0.29475820368E-01  0.13347688050E+00  0.20578589692E-01 0.  0.
         14    1    1    2    0    0 -0.94908323329E-02 -0.94111746915E-02 -0.18548019002E-01  0.22862089063E-01  0.00000000000E+00 0. -1.
     999901    1    3    3    0    0 -0.93296595995E-01 -0.67780274743E-01 -0.10927801367E-01  0.88759103044E+00  0.88000000000E+00 0. -1.
        -11    1    4    4    0    0  0.31581557813E-01  0.33279518716E-01  0.41543872431E-02  0.46069959998E-01  0.51100000000E-03 0.  1.
         11    1    4    4    0    0  0.71205870514E-01  0.43911930719E-01  0.25321433125E-01  0.87406920502E-01  0.51100000000E-03 0. -1.
</event>
<event>
 8    1  0.1052028E+005  0.1043930E+01  0.7957747E-01            NaN
         13   -1    0    0    0    0  0.00000000000E+00  0.00000000000E+00  0.74505805969E-08  0.10566000000E+00  0.10566000000E+00 0. -1.
     999900   -1    0    0    0    0 -0.00000000000E+00 -0.00000000000E+00 -0.74505805969E-08  0.93827000000E+00  0.93827000000E+00 0.  1.
     999902    2    1    2    0    0  0.65255201227E-02 -0.80097811967E-03  0.22502739512E-01  0.10204865091E+01  0.10202171916E+01 0.  0.
     999903    2    3    3    0    0 -0.44538562225E-01 -0.12088135460E+00 -0.15138131868E-01  0.13006881359E+00  0.96305668344E-02 0.  0.
         14    1    1    2    0    0 -0.65255201227E-02  0.80097811967E-03 -0.22502739512E-01  0.23443490874E-01  0.00000000000E+00 0.  1.
     999901    1    3    3    0    0  0.51064082348E-01  0.12008037648E+00  0.37640871380E-01  0.89041769553E+00  0.88000000000E+00 0. -1.
        -11    1    4    4    0    0 -0.34350383424E-02 -0.17131307349E-01 -0.38836126198E-02  0.17905997540E-01  0.51100000000E-03 0. -1.
         11    1    4    4    0    0 -0.41103523883E-01 -0.10375004725E+00 -0.11254519249E-01  0.11216281605E+00  0.51100000000E-03 0.  1.
</event>
<event>
 8    1  0.1052028E+005  0.1043930E+01  0.7957747E-01            NaN
         13   -1    0    0    0    0  0.00000000000E+00  0.00000000000E+00  0.74505805969E-08  0.10566000000E+00  0.10566000000E+00 0.  1.
     999900   -1    0    0    0    0 -0.00000000000E+00 -0.00000000000E+00 -0.74505805969E-08  0.93827000000E+00  0.93827000000E+00 0. -1.
     999902    2    1    2    0    0  0.14209222126E-01 -0.10633078287E-01  0.16887155418E-01  0.10194322375E+01  0.10191378447E+01 0.  0.
     999903    2    3    3    0    0  0.51216785696E-01  0.11476689255E+00  0.23421171064E-01  0.12974835784E+00  0.22169491284E-01 0.  0.
         14    1    1    2    0    0 -0.14209222126E-01  0.10633078287E-01 -0.16887155418E-01  0.24497762457E-01  0.00000000000E+00 0. -1.
     999901    1    3    3    0    0 -0.37007563570E-01 -0.12539997084E+00 -0.65340156466E-02  0.88968387971E+00  0.88000000000E+00 0.  1.
        -11    1    4    4    0    0  0.13080868216E-01  0.12061936982E-01  0.43909115837E-03  0.17805992224E-01  0.51100000000E-03 0.  1.
         11    1    4    4    0    0  0.38135917479E-01  0.10270495557E+00  0.22982079906E-01  0.11194236561E+00  0.51100000000E-03 0. -1.
</event>
<event>
 8    1  0.1052028E+005  0.1043930E+01  0.7957747E-01            NaN
         13   -1    0    0    0    0  0.00000000000E+00  0.00000000000E+00  0.74505805969E-08  0.10566000000E+00  0.10566000000E+00 0.  1.
     999900   -1    0    0    0    0 -0.00000000000E+00 -0.00000000000E+00 -0.74505805969E-08  0.93827000000E+00  0.93827000000E+00 0.  1.
     999902    2    1    2    0    0  0.19346128012E-01  0.14420037466E-01  0.89667063036E-02  0.10181887496E+01  0.10178633100E+01 0.  0.
     999903    2    3    3    0    0 -0.84370866623E-01  0.55996821737E-01 -0.74472875645E-01  0.12720726394E+00  0.19529250217E-01 0.  0.
         14    1    1    2    0    0 -0.19346128012E-01 -0.14420037466E-01 -0.89667063036E-02  0.25741250388E-01  0.00000000000E+00 0. -1.
     999901    1    3    3    0    0  0.10371699464E+00 -0.41576784271E-01  0.83439581949E-01  0.89098148567E+00  0.88000000000E+00 0. -1.
        -11    1    4    4    0    0 -0.29385775205E-01  0.88499833863E-02 -0.22558201852E-01  0.38091725901E-01  0.51100000000E-03 0. -1.
         11    1    4    4    0    0 -0.54985091418E-01  0.47146838351E-01 -0.51914673793E-01  0.89115538044E-01  0.51100000000E-03 0.  1.
</event>
<event>
 8    1  0.1052028E+005  0.1043930E+01  0.7957747E-01            NaN
         13   -1    0    0    0    0  0.00000000000E+00  0.00000000000E+00  0.74505805969E-08  0.10566000000E+00  0.10566000000E+00 0.  1.
     999900   -1    0    0    0    0 -0.00000000000E+00 -0.00000000000E+00 -0.74505805969E-08  0.93827000000E+00  0.93827000000E+00 0.  1.
     999902    2    1    2    0    0  0.21391690386E-01  0.32735055467E-02 -0.79370221880E-02  0.10208796946E+01  0.10206194366E+01 0.  0.
     999903    2    3    3    0    0 -0.43272598528E-01  0.10964547800E+00  0.51517384333E-01  0.13013209108E+00  0.19638523685E-01 0.  0.
         14    1    1    2    0    0 -0.21391690386E-01 -0.32735055467E-02  0.79370221880E-02  0.23050305363E-01  0.00000000000E+00 0. -1.
     999901    1    3    3    0    0  0.64664288913E-01 -0.10637197245E+00 -0.59454406521E-01  0.89074760355E+00  0.88000000000E+00 0. -1.
        -11    1    4    4    0    0 -0.21788550593E-01  0.61735209365E-01  0.38806181072E-01  0.76106227226E-01  0.51100000000E-03 0. -1.
         11    1    4    4    0    0 -0.21484047934E-01  0.47910268632E-01  0.12711203261E-01  0.54025863856E-01  0.51100000000E-03 0.  1.
</event>
<event>
 8    1  0.1052028E+005  0.1043930E+01  0.7957747E-01            NaN
         13   -1    0    0    0    0  0.00000000000E+00  0.00000000000E+00  0.74505805969E-08  0.10566000000E+00  0.10566000000E+00 0.  1.
     999900   -1    0    0    0    0 -0.00000000000E+00 -0.00000000000E+00 -0.74505805969E-08  0.93827000000E+00  0.93827000000E+00 0. -1.
     999902    2    1    2    0    0  0.58936643000E-03 -0.45985202525E-02 -0.23951028070E-01  0.10195343962E+01  0.10192424831E+01 0.  0.
     999903    2    3    3    0    0  0.10996776745E+00 -0.59744049764E-01  0.27283170715E-01  0.12957394357E+00  0.19564613196E-01 0.  0.
         14    1    1    2    0    0 -0.58936643000E-03  0.45985202525E-02  0.23951028070E-01  0.24395603844E-01  0.00000000000E+00 0.  1.
     999901    1    3    3    0    0 -0.10937840102E+00  0.55145529511E-01 -0.51234198785E-01  0.88996045258E+00  0.88000000000E+00 0. -1.
        -11    1    4    4    0    0  0.62622560635E-01 -0.43815377074E-01  0.20718528543E-01  0.79188957024E-01  0.51100000000E-03 0. -1.
         11    1    4    4    0    0  0.47345206813E-01 -0.15928672690E-01  0.65646421720E-02  0.50384986550E-01  0.51100000000E-03 0.  1.
</event>
<event>
 8    1  0.1052028E+005  0.1043930E+01  0.7957747E-01            NaN
         13   -1    0    0    0    0  0.00000000000E+00  0.00000000000E+00  0.74505805969E-08  0.10566000000E+00  0.10566000000E+00 0.  1.
     999900   -1    0    0    0    0 -0.00000000000E+00 -0.00000000000E+00 -0.74505805969E-08  0.93827000000E+00  0.93827000000E+00 0.  1.
     999902    2    1    2    0    0 -0.86958506908E-02 -0.19583014455E-01 -0.88338202902E-02  0.10207535323E+01  0.10204903846E+01 0.  0.
     999903    2    3    3    0    0 -0.81240858448E-01  0.63245466515E-01  0.76631505583E-01  0.12978346695E+00  0.19269004386E-01 0.  0.
         14    1    1    2    0    0  0.86958506908E-02  0.19583014455E-01  0.88338202902E-02  0.23176467706E-01  0.00000000000E+00 0.  1.
     999901    1    3    3    0    0  0.72545007757E-01 -0.82828480970E-01 -0.85465325873E-01  0.89097006534E+00  0.88000000000E+00 0.  1.
        -11    1    4    4    0    0 -0.31197470815E-01  0.28029550453E-01  0.42511907419E-01  0.59719856641E-01  0.51100000000E-03 0. -1.
         11    1    4    4    0    0 -0.50043387633E-01  0.35215916062E-01  0.34119598164E-01  0.70063610310E-01  0.51100000000E-03 0.  1.
</event>
<event>
 8    1  0.1052028E+005  0.1043930E+01  0.7957747E-01            NaN
         13   -1    0    0    0    0  0.00000000000E+00  0.00000000000E+00  0.74505805969E-08  0.10566000000E+00  0.10566000000E+00 0. -1.
     999900   -1    0    0    0    0 -0.00000000000E+00 -0.00000000000E+00 -0.74505805969E-08  0.93827000000E+00  0.93827000000E+00 0.  1.
     999902    2    1    2    0    0  0.49578591676E-02 -0.39208648955E-02 -0.23450696550E-01  0.10196423752E+01  0.10193530716E+01 0.  0.
     999903    2    3    3    0    0  0.90921697167E-01 -0.88843357777E-01  0.20499352510E-01  0.13029811226E+00  0.19936834448E-01 0.  0.
         14    1    1    2    0    0 -0.49578591676E-02  0.39208648955E-02  0.23450696550E-01  0.24287624786E-01  0.00000000000E+00 0. -1.
     999901    1    3    3    0    0 -0.85963837999E-01  0.84922492881E-01 -0.43950049060E-01  0.88934426296E+00  0.88000000000E+00 0.  1.
        -11    1    4    4    0    0  0.31864701106E-01 -0.18909787904E-01  0.37865717151E-02  0.37249677872E-01  0.51100000000E-03 0.  1.
         11    1    4    4    0    0  0.59056996060E-01 -0.69933569872E-01  0.16712780795E-01  0.93048434386E-01  0.51100000000E-03 0. -1.
</event>
<event>
 8    1  0.1052028E+005  0.1043930E+01  0.7957747E-01            NaN
         13   -1    0    0    0    0  0.00000000000E+00  0.00000000000E+00  0.74505805969E-08  0.10566000000E+00  0.10566000000E+00 0. -1.
     999900   -1    0    0    0    0 -0.00000000000E+00 -0.00000000000E+00 -0.74505805969E-08  0.93827000000E+00  0.93827000000E+00 0. -1.
     999902    2    1    2    0    0 -0.25099366105E-01  0.94024493192E-03 -0.92247402699E-02  0.10171726071E+01  0.10168206109E+01 0.  0.
     999903    2    3    3    0    0 -0.15472163355E-01 -0.11579181530E+00 -0.50165135854E-01  0.12846839712E+00  0.18451446415E-01 0.  0.
         14    1    1    2    0    0  0.25099366105E-01 -0.94024493192E-03  0.92247402699E-02  0.26757392856E-01  0.00000000000E+00 0. -1.
     999901    1    3    3    0    0 -0.96272027507E-02  0.11673206023E+00  0.40940395584E-01  0.88870421002E+00  0.88000000000E+00 0.  1.
        -11    1    4    4    0    0  0.22361122814E-03 -0.54627631402E-01 -0.17454128054E-01  0.57350987975E-01  0.51100000000E-03 0. -1.
         11    1    4    4    0    0 -0.15695774583E-01 -0.61164183897E-01 -0.32711007800E-01  0.71117409147E-01  0.51100000000E-03 0.  1.
</event>
<event>
 8    1  0.1052028E+005  0.1043930E+01  0.7957747E-01            NaN
         13   -1    0    0    0    0  0.00000000000E+00  0.00000000000E+00  0.74505805969E-08  0.10566000000E+00  0.10566000000E+00 0.  1.
     999900   -1    0    0    0    0 -0.00000000000E+00 -0.00000000000E+00 -0.74505805969E-08  0.93827000000E+00  0.93827000000E+00 0.  1.
     999902    2    1    2    0    0  0.19217108824E-01 -0.11481041698E-01  0.85685228505E-02  0.10199606201E+01  0.10196789374E+01 0.  0.
     999903    2    3    3    0    0 -0.14593963307E-01  0.84299332408E-01 -0.93572599234E-01  0.12824885191E+00  0.19302214387E-01 0.  0.
         14    1    1    2    0    0 -0.19217108824E-01  0.11481041698E-01 -0.85685228505E-02  0.23969379922E-01  0.00000000000E+00 0.  1.
     999901    1    3    3    0    0  0.33811072131E-01 -0.95780374106E-01  0.10214112208E+00  0.89171176816E+00  0.88000000000E+00 0. -1.
        -11    1    4    4    0    0 -0.47552883530E-02  0.44297601016E-01 -0.61980080424E-01  0.76332704089E-01  0.51100000000E-03 0. -1.
         11    1    4    4    0    0 -0.98386749541E-02  0.40001731392E-01 -0.31592518810E-01  0.51916147825E-01  0.51100000000E-03 0.  1.
</event>
<event>
 8    1  0.1052028E+005  0.1043930E+01  0.7957747E-01            NaN
         13   -1    0    0    0    0  0.00000000000E+00  0.00000000000E+00  0.74505805969E-08  0.10566000000E+00  0.10566000000E+00 0. -1.
     999900   -1    0    0    0    0 -0.00000000000E+00 -0.00000000000E+00 -0.74505805969E-08  0.93827000000E+00  0.93827000000E+00 0. -1.
     999902    2    1    2    0    0 -0.39050071397E-02  0.59442916662E-03 -0.22672349961E-01  0.10209161372E+01  0.10206567108E+01 0.  0.
     999903    2    3    3    0    0  0.12178140516E+00 -0.22744525833E-01  0.33389980774E-01  0.12991402389E+00  0.20365134120E-01 0.  0.
         14    1    1    2    0    0  0.39050071397E-02 -0.59442916662E-03  0.22672349961E-01  0.23013862769E-01  0.00000000000E+00 0. -1.
     999901    1    3    3    0    0 -0.12568641230E+00  0.23338954999E-01 -0.56062330735E-01  0.89100211334E+00  0.88000000000E+00 0.  1.
        -11    1    4    4    0    0  0.79480466342E-01 -0.10627187075E-01  0.12340246215E-01  0.81133374346E-01  0.51100000000E-03 0. -1.
         11    1    4    4    0    0  0.42300938819E-01 -0.12117338758E-01  0.21049734559E-01  0.48780649540E-01  0.51100000000E-03 0.  1.
</event>
<event>
 8    1  0.1052028E+005  0.1043930E+01  0.7957747E-01            NaN
         13   -1    0    0    0    0  0.00000000000E+00  0.00000000000E+00  0.74505805969E-08  0.10566000000E+00  0.10566000000E+00 0.  1.
     999900   -1    0    0    0    0 -0.00000000000E+00 -0.00000000000E+00 -0.74505805969E-08  0.93827000000E+00  0.93827000000E+00 0. -1.
     999902    2    1    2    0    0  0.75987828484E-02  0.48701633595E-02 -0.21802838854E-01  0.10203328863E+01  0.10200599860E+01 0.  0.
     999903    2    3    3    0    0 -0.52365870253E-01  0.77513552528E-01 -0.91949444160E-01  0.13253033629E+00  0.18948735098E-01 0.  0.
         14    1    1    2    0    0 -0.75987828484E-02 -0.48701633595E-02  0.21802838854E-01  0.23597113680E-01  0.00000000000E+00 0.  1.
     999901    1    3    3    0    0  0.59964653101E-01 -0.72643389169E-01  0.70146605305E-01  0.88780255003E+00  0.88000000000E+00 0.  1.
        -11    1    4    4    0    0 -0.29719136133E-01  0.36865564769E-01 -0.34452855007E-01  0.58562421888E-01  0.51100000000E-03 0. -1.
         11    1    4    4    0    0 -0.22646734120E-01  0.40647987759E-01 -0.57496589152E-01  0.73967914397E-01  0.51100000000E-03 0.  1.
</event>
<event>
 8    1  0.1052028E+005  0.1043930E+01  0.7957747E-01            NaN
         13   -1    0    0    0    0  0.00000000000E+00  0.00000000000E+00  0.74505805969E-08  0.10566000000E+00  0.10566000000E+00 0.  1.
     999900   -1    0    0    0    0 -0.00000000000E+00 -0.00000000000E+00 -0.74505805969E-08  0.93827000000E+00  0.93827000000E+00 0. -1.
     999902    2    1    2    0    0  0.50245672566E-02  0.22413422935E-01  0.61421155236E-02  0.10201532595E+01  0.10198761393E+01 0.  0.
     999903    2    3    3    0    0  0.12686556095E+00  0.26505760904E-01  0.12830979061E-01  0.13172390620E+00  0.19726315542E-01 0.  0.
         14    1    1    2    0    0 -0.50245672566E-02 -0.22413422935E-01 -0.61421155236E-02  0.23776740459E-01  0.00000000000E+00 0. -1.
     999901    1    3    3    0    0 -0.12184099370E+00 -0.40923379695E-02 -0.66888635378E-02  0.88842935334E+00  0.88000000000E+00 0. -1.
        -11    1    4    4    0    0  0.71663706022E-01  0.24708944875E-01  0.54787583406E-02  0.76003267243E-01  0.51100000000E-03 0. -1.
         11    1    4    4    0    0  0.55201854931E-01  0.17968160287E-02  0.73522207208E-02  0.55720638961E-01  0.51100000000E-03 0.  1.
</event>
<event>
 8    1  0.1052028E+005  0.1043930E+01  0.7957747E-01            NaN
         13   -1    0    0    0    0  0.00000000000E+00  0.00000000000E+00  0.74505805969E-08  0.10566000000E+00  0.10566000000E+00 0. -1.
     999900   -1    0    0    0    0 -0.00000000000E+00 -0.00000000000E+00 -0.74505805969E-08  0.93827000000E+00  0.93827000000E+00 0.  1.
     999902    2    1    2    0    0  0.14161850740E-01 -0.86037482058E-02  0.16582175326E-01  0.10204874951E+01  0.10202182004E+01 0.  0.
     999903    2    3    3    0    0  0.37748173638E-01  0.80432205562E-01  0.95607591302E-01  0.13215831504E+00  0.20754383045E-01 0.  0.
         14    1    1    2    0    0 -0.14161850740E-01  0.86037482058E-02 -0.16582175326E-01  0.23442504945E-01  0.00000000000E+00 0.  1.
     999901    1    3    3    0    0 -0.23586322899E-01 -0.89035953768E-01 -0.79025415976E-01  0.88832918001E+00  0.88000000000E+00 0.  1.
        -11    1    4    4    0    0  0.18439388866E-01  0.54686671132E-01  0.71821661472E-01  0.92137154497E-01  0.51100000000E-03 0. -1.
         11    1    4    4    0    0  0.19308784772E-01  0.25745534430E-01  0.23785929830E-01  0.40021160545E-01  0.51100000000E-03 0.  1.
</event>
<event>
 8    1  0.1052028E+005  0.1043930E+01  0.7957747E-01            NaN
         13   -1    0    0    0    0  0.00000000000E+00  0.00000000000E+00  0.74505805969E-08  0.10566000000E+00  0.10566000000E+00 0.  1.
     999900   -1    0    0    0    0 -0.00000000000E+00 -0.00000000000E+00 -0.74505805969E-08  0.93827000000E+00  0.93827000000E+00 0.  1.
     999902    2    1    2    0    0 -0.14785182113E-01  0.22109083221E-01  0.50469931833E-02  0.10168581454E+01  0.10164977140E+01 0.  0.
     999903    2    3    3    0    0 -0.56416414803E-01 -0.10486862353E+00  0.36922228134E-01  0.12619966532E+00  0.19566924518E-01 0.  0.
         14    1    1    2    0    0  0.14785182113E-01 -0.22109083221E-01 -0.50469931833E-02  0.27071854594E-01  0.00000000000E+00 0.  1.
     999901    1    3    3    0    0  0.41631232690E-01  0.12697770675E+00 -0.31875234950E-01  0.89065848009E+00  0.88000000000E+00 0.  1.
        -11    1    4    4    0    0 -0.44007673315E-01 -0.72228845365E-01  0.17981369461E-01  0.86471221699E-01  0.51100000000E-03 0. -1.
         11    1    4    4    0    0 -0.12408741489E-01 -0.32639778169E-01  0.18940858673E-01  0.39728443620E-01  0.51100000000E-03 0.  1.
</event>
<event>
 8    1  0.1052028E+005  0.1043930E+01  0.7957747E-01            NaN
         13   -1    0    0    0    0  0.00000000000E+00  0.00000000000E+00  0.74505805969E-08  0.10566000000E+00  0.10566000000E+00 0.  1.
     999900   -1    0    0    0    0 -0.00000000000E+00 -0.00000000000E+00 -0.74505805969E-08  0.93827000000E+00  0.93827000000E+00 0.  1.
     999902    2    1    2    0    0 -0.65497884038E-02  0.68593946623E-02 -0.22447687219E-01  0.10195609687E+01  0.10192696990E+01 0.  0.
     999903    2    3    3    0    0 -0.99554627412E-01 -0.74562365920E-01  0.29587106620E-01  0.12939973449E+00  0.19955554576E-01 0.  0.
         14    1    1    2    0    0  0.65497884038E-02 -0.68593946623E-02  0.22447687219E-01  0.24369031264E-01  0.00000000000E+00 0.  1.
     999901    1    3    3    0    0  0.93004839008E-01  0.81421760582E-01 -0.52034793840E-01  0.89016123424E+00  0.88000000000E+00 0. -1.
        -11    1    4    4    0    0 -0.55612276682E-01 -0.46756871653E-01  0.26376253331E-01  0.77297465840E-01  0.51100000000E-03 0. -1.
         11    1    4    4    0    0 -0.43942350730E-01 -0.27805494267E-01  0.32108532890E-02  0.52102268655E-01  0.51100000000E-03 0.  1.
</event>
<event>
 8    1  0.1052028E+005  0.1043930E+01  0.7957747E-01            NaN
         13   -1    0    0    0    0  0.00000000000E+00  0.00000000000E+00  0.74505805969E-08  0.10566000000E+00  0.10566000000E+00 0. -1.
     999900   -1    0    0    0    0 -0.00000000000E+00 -0.00000000000E+00 -0.74505805969E-08  0.93827000000E+00  0.93827000000E+00 0.  1.
     999902    2    1    2    0    0  0.74004832998E-02  0.13044283280E-01 -0.18188509697E-01  0.10203558115E+01  0.10200834474E+01 0.  0.
     999903    2    3    3    0    0  0.10249520347E+00  0.33771632313E-01  0.70661842735E-01  0.13054290197E+00  0.20063981486E-01 0.  0.
         14    1    1    2    0    0 -0.74004832998E-02 -0.13044283280E-01  0.18188509697E-01  0.23574188520E-01  0.00000000000E+00 0. -1.
     999901    1    3    3    0    0 -0.95094720169E-01 -0.20727349033E-01 -0.88850352433E-01  0.88981290951E+00  0.88000000000E+00 0.  1.
        -11    1    4    4    0    0  0.32641831861E-01  0.12771476980E-01  0.12386119570E-01  0.37178984527E-01  0.51100000000E-03 0.  1.
         11    1    4    4    0    0  0.69853371608E-01  0.21000155333E-01  0.58275723165E-01  0.93363917444E-01  0.51100000000E-03 0. -1.
</event>
<event>
 8    1  0.1052028E+005  0.1043930E+01  0.7957747E-01            NaN
         13   -1    0    0    0    0  0.00000000000E+00  0.00000000000E+00  0.74505805969E-08  0.10566000000E+00  0.10566000000E+00 0.  1.
     999900   -1    0    0    0    0 -0.00000000000E+00 -0.00000000000E+00 -0.74505805969E-08  0.93827000000E+00  0.93827000000E+00 0. -1.
     999902    2    1    2    0    0  0.20927185939E-01  0.10997458408E-01 -0.51549910915E-02  0.10197336132E+01  0.10194465051E+01 0.  0.
     999903    2    3    3    0    0  0.46113019065E-01 -0.42058690500E-01 -0.11468126483E+00  0.13100120925E+00  0.10685520461E-01 0.  0.
         14    1    1    2    0    0 -0.20927185939E-01 -0.10997458408E-01  0.51549910915E-02  0.24196386836E-01  0.00000000000E+00 0. -1.
     999901    1    3    3    0    0 -0.25185833126E-01  0.53056148908E-01  0.10952627374E+00  0.88873240391E+00  0.88000000000E+00 0.  1.
        -11    1    4    4    0    0  0.16343675484E-01 -0.11256617770E-01 -0.28146642166E-01  0.34443021908E-01  0.51100000000E-03 0.  1.
         11    1    4    4    0    0  0.29769343582E-01 -0.30802072730E-01 -0.86534622667E-01  0.96558187342E-01  0.51100000000E-03 0. -1.
</event>
<event>
 8    1  0.1052028E+005  0.1043930E+01  0.7957747E-01            NaN
         13   -1    0    0    0    0  0.00000000000E+00  0.00000000000E+00  0.74505805969E-08  0.10566000000E+00  0.10566000000E+00 0.  1.
     999900   -1    0    0    0    0 -0.00000000000E+00 -0.00000000000E+00 -0.74505805969E-08  0.93827000000E+00  0.93827000000E+00 0. -1.
     999902    2    1    2    0    0  0.83324480451E-02  0.13218323107E-01 -0.71540895664E-02  0.10267446937E+01  0.10266008627E+01 0.  0.
     999903    2    3    3    0    0 -0.84577429029E-01  0.52710891811E-01  0.89837477494E-01  0.13567832559E+00  0.20150832625E-01 0.  0.
         14    1    1    2    0    0 -0.83324480451E-02 -0.13218323107E-01  0.71540895664E-02  0.17185306332E-01  0.00000000000E+00 0. -1.
     999901    1    3    3    0    0  0.92909877074E-01 -0.39492568703E-01 -0.96991567060E-01  0.89106636808E+00  0.88000000000E+00 0. -1.
        -11    1    4    4    0    0 -0.19472973837E-01  0.29732711467E-02  0.18922823584E-01  0.27319799134E-01  0.51100000000E-03 0.  1.
         11    1    4    4    0    0 -0.65104455192E-01  0.49737620664E-01  0.70914653910E-01  0.10835852645E+00  0.51100000000E-03 0. -1.
</event>
<event>
 8    1  0.1052028E+005  0.1043930E+01  0.7957747E-01            NaN
         13   -1    0    0    0    0  0.00000000000E+00  0.00000000000E+00  0.74505805969E-08  0.10566000000E+00  0.10566000000E+00 0. -1.
     999900   -1    0    0    0    0 -0.00000000000E+00 -0.00000000000E+00 -0.74505805969E-08  0.93827000000E+00  0.93827000000E+00 0.  1.
     999902    2    1    2    0    0 -0.11588417017E-01 -0.16662514551E-01 -0.11471786529E-01  0.10206162125E+01  0.10203499011E+01 0.  0.
     999903    2    3    3    0    0 -0.11764823574E+00  0.25415151470E-01  0.48550761078E-01  0.13122208091E+00  0.19365454299E-01 0.  0.
         14    1    1    2    0    0  0.11588417017E-01  0.16662514551E-01  0.11471786529E-01  0.23313787472E-01  0.00000000000E+00 0. -1.
     999901    1    3    3    0    0  0.10605981873E+00 -0.42077666022E-01 -0.60022547607E-01  0.88939413161E+00  0.88000000000E+00 0. -1.
        -11    1    4    4    0    0 -0.43092720800E-01  0.45575034719E-02  0.26200421787E-01  0.50640661989E-01  0.51100000000E-03 0. -1.
         11    1    4    4    0    0 -0.74555514944E-01  0.20857647998E-01  0.22350339291E-01  0.80581418926E-01  0.51100000000E-03 0.  1.
</event>
<event>
 8    1  0.1052028E+005  0.1043930E+01  0.7957747E-01            NaN
         13   -1    0    0    0    0  0.00000000000E+00  0.00000000000E+00  0.74505805969E-08  0.10566000000E+00  0.10566000000E+00 0. -1.
     999900   -1    0    0    0    0 -0.00000000000E+00 -0.00000000000E+00 -0.74505805969E-08  0.93827000000E+00  0.93827000000E+00 0. -1.
     999902    2    1    2    0    0 -0.10761096760E-01 -0.18887826387E-01 -0.10003004470E-01  0.10200007023E+01  0.10197199721E+01 0.  0.
     999903    2    3    3    0    0  0.12562220995E+00 -0.21461460814E-01 -0.10994580418E-01  0.12949072867E+00  0.20135393697E-01 0.  0.
         14    1    1    2    0    0  0.10761096760E-01  0.18887826387E-01  0.10003004470E-01  0.23929297681E-01  0.00000000000E+00 0. -1.
     999901    1    3    3    0    0 -0.13638330671E+00  0.25736344278E-02  0.99157594744E-03  0.89050997365E+00  0.88000000000E+00 0. -1.
        -11    1    4    4    0    0  0.80724957858E-01 -0.72684670545E-02 -0.14217351541E-01  0.82290604812E-01  0.51100000000E-03 0.  1.
         11    1    4    4    0    0  0.44897252095E-01 -0.14192993760E-01  0.32227711234E-02  0.47200123858E-01  0.51100000000E-03 0. -1.
</event>
<event>
 8    1  0.1052028E+005  0.1043930E+01  0.7957747E-01            NaN
         13   -1    0    0    0    0  0.00000000000E+00  0.00000000000E+00  0.74505805969E-08  0.10566000000E+00  0.10566000000E+00 0.  1.
     999900   -1    0    0    0    0 -0.00000000000E+00 -0.00000000000E+00 -0.74505805969E-08  0.93827000000E+00  0.93827000000E+00 0.  1.
     999902    2    1    2    0    0 -0.13896994106E-01  0.15567328560E-01  0.85248773717E-02  0.10213880015E+01  0.10211392206E+01 0.  0.
     999903    2    3    3    0    0 -0.13346041616E-01  0.12927203127E+00 -0.23349229664E-01  0.13350004589E+00  0.19690120119E-01 0.  0.
         14    1    1    2    0    0  0.13896994106E-01 -0.15567328560E-01 -0.85248773717E-02  0.22541998534E-01  0.00000000000E+00 0. -1.
     999901    1    3    3    0    0 -0.55095248989E-03 -0.11370470271E+00  0.31874107036E-01  0.88788795558E+00  0.88000000000E+00 0. -1.
        -11    1    4    4    0    0 -0.11631904739E-02  0.33197768015E-01 -0.14510000768E-01  0.36252531726E-01  0.51100000000E-03 0. -1.
         11    1    4    4    0    0 -0.12182851142E-01  0.96074263253E-01 -0.88392288965E-02  0.97247514159E-01  0.51100000000E-03 0.  1.
</event>
<event>
 8    1  0.1052028E+005  0.1043930E+01  0.7957747E-01            NaN
         13   -1    0    0    0    0  0.00000000000E+00  0.00000000000E+00  0.74505805969E-08  0.10566000000E+00  0.10566000000E+00 0.  1.
     999900   -1    0    0    0    0 -0.00000000000E+00 -0.00000000000E+00 -0.74505805969E-08  0.93827000000E+00  0.93827000000E+00 0.  1.
     999902    2    1    2    0    0 -0.42908285564E-02  0.11745667542E-01 -0.11130384052E-01  0.10271891110E+01  0.10270526824E+01 0.  0.
     999903    2    3    3    0    0 -0.84425677125E-01  0.98004382183E-01  0.42806224578E-01  0.13771099571E+00  0.19984784021E-01 0.  0.
         14    1    1    2    0    0  0.42908285564E-02 -0.11745667542E-01  0.11130384052E-01  0.16740889010E-01  0.00000000000E+00 0.  1.
     999901    1    3    3    0    0  0.80134848569E-01 -0.86258714641E-01 -0.53936608629E-01  0.88947811528E+00  0.88000000000E+00 0.  1.
        -11    1    4    4    0    0 -0.64398783987E-01  0.60914189105E-01  0.26627380156E-01  0.92558199574E-01  0.51100000000E-03 0. -1.
         11    1    4    4    0    0 -0.20026893139E-01  0.37090193078E-01  0.16178844421E-01  0.45152796139E-01  0.51100000000E-03 0.  1.
</event>
<event>
 8    1  0.1052028E+005  0.1043930E+01  0.7957747E-01            NaN
         13   -1    0    0    0    0  0.00000000000E+00  0.00000000000E+00  0.74505805969E-08  0.10566000000E+00  0.10566000000E+00 0.  1.
     999900   -1    0    0    0    0 -0.00000000000E+00 -0.00000000000E+00 -0.74505805969E-08  0.93827000000E+00  0.93827000000E+00 0. -1.
     999902    2    1    2    0    0  0.14454005684E-01  0.20539879823E-01  0.51522604171E-02  0.10182911480E+01  0.10179683253E+01 0.  0.
     999903    2    3    3    0    0  0.30176936578E-01  0.12501659115E+00  0.20734581489E-01  0.13183449229E+00  0.20263635445E-01 0.  0.
         14    1    1    2    0    0 -0.14454005684E-01 -0.20539879823E-01 -0.51522604171E-02  0.25638851980E-01  0.00000000000E+00 0. -1.
     999901    1    3    3    0    0 -0.15722930894E-01 -0.10447671133E+00 -0.15582321072E-01  0.88645665573E+00  0.88000000000E+00 0. -1.
        -11    1    4    4    0    0  0.12547832261E-01  0.40701106267E-01 -0.23353111412E-02  0.42658445177E-01  0.51100000000E-03 0. -1.
         11    1    4    4    0    0  0.17629104317E-01  0.84315484887E-01  0.23069892630E-01  0.89176047108E-01  0.51100000000E-03 0.  1.
</event>
<event>
 8    1  0.1052028E+005  0.1043930E+01  0.7957747E-01            NaN
         13   -1    0    0    0    0  0.00000000000E+00  0.00000000000E+00  0.74505805969E-08  0.10566000000E+00  0.10566000000E+00 0. -1.
     999900   -1    0    0    0    0 -0.00000000000E+00 -0.00000000000E+00 -0.74505805969E-08  0.93827000000E+00  0.93827000000E+00 0.  1.
     999902    2    1    2    0    0  0.12243785017E-01  0.11266285358E-01 -0.16703639784E-01  0.10203535066E+01  0.10200810887E+01 0.  0.
     999903    2    3    3    0    0  0.28676815409E-01  0.12271889027E+00  0.32568238923E-01  0.13180443896E+00  0.20722793587E-01 0.  0.
         14    1    1    2    0    0 -0.12243785017E-01 -0.11266285358E-01  0.16703639784E-01  0.23576493365E-01  0.00000000000E+00 0. -1.
     999901    1    3    3    0    0 -0.16433030391E-01 -0.11145260491E+00 -0.49271878708E-01  0.88854906767E+00  0.88000000000E+00 0.  1.
        -11    1    4    4    0    0  0.10346380457E-01  0.20776850353E-01 -0.35152896203E-04  0.23216103374E-01  0.51100000000E-03 0. -1.
         11    1    4    4    0    0  0.18330434952E-01  0.10194203991E+00  0.32603391819E-01  0.10858833559E+00  0.51100000000E-03 0.  1.
</event>
<event>
 7    1  0.1543865E+005  0.1043930E+01  0.7957747E-01            NaN
         13   -1    0    0    0    0  0.00000000000E+00  0.00000000000E+00  0.74505805969E-08  0.10566000000E+00  0.10566000000E+00 0. -1.
     999900   -1    0    0    0    0 -0.00000000000E+00 -0.00000000000E+00 -0.74505805969E-08  0.93827000000E+00  0.93827000000E+00 0. -1.
     999903    2    1    2    0    0  0.33040893519E-01  0.78546040920E-01 -0.33211802164E-01  0.93934044877E-01  0.21433613676E-01 0.  0.
         14    1    1    2    0    0  0.56117016926E-01  0.19464364492E-01  0.54179523817E-02  0.59643400991E-01  0.00000000000E+00 0. -1.
     999901    1    1    2    0    0 -0.89157910445E-01 -0.98010405412E-01  0.27793849783E-01  0.89035255413E+00  0.88000000000E+00 0.  1.
        -11    1    3    3    0    0  0.22730446132E-01  0.44229179489E-01 -0.86215149661E-02  0.50472617734E-01  0.51100000000E-03 0. -1.
         11    1    3    3    0    0  0.10310447387E-01  0.34316861431E-01 -0.24590287198E-01  0.43461427143E-01  0.51100000000E-03 0.  1.
</event>
<event>
 8    1  0.1052028E+005  0.1043930E+01  0.7957747E-01            NaN
         13   -1    0    0    0    0  0.00000000000E+00  0.00000000000E+00  0.74505805969E-08  0.10566000000E+00  0.10566000000E+00 0. -1.
     999900   -1    0    0    0    0 -0.00000000000E+00 -0.00000000000E+00 -0.74505805969E-08  0.93827000000E+00  0.93827000000E+00 0. -1.
     999902    2    1    2    0    0 -0.18152358365E-01  0.14942074230E-01 -0.70830657438E-02  0.10193750918E+01  0.10190793071E+01 0.  0.
     999903    2    3    3    0    0 -0.40976568431E-01  0.72080113225E-01 -0.10100844352E+00  0.13224056048E+00  0.20254340056E-01 0.  0.
         14    1    1    2    0    0  0.18152358365E-01 -0.14942074230E-01  0.70830657438E-02  0.24554908203E-01  0.00000000000E+00 0.  1.
     999901    1    3    3    0    0  0.22824210066E-01 -0.57138038996E-01  0.93925377774E-01  0.88713453132E+00  0.88000000000E+00 0.  1.
        -11    1    4    4    0    0 -0.76455859383E-02  0.14220578961E-01 -0.33993561795E-01  0.37636461243E-01  0.51100000000E-03 0.  1.
         11    1    4    4    0    0 -0.33330982493E-01  0.57859534264E-01 -0.67014881723E-01  0.94604099238E-01  0.51100000000E-03 0. -1.
</event>
<event>
 8    1  0.1052028E+005  0.1043930E+01  0.7957747E-01            NaN
         13   -1    0    0    0    0  0.00000000000E+00  0.00000000000E+00  0.74505805969E-08  0.10566000000E+00  0.10566000000E+00 0.  1.
     999900   -1    0    0    0    0 -0.00000000000E+00 -0.00000000000E+00 -0.74505805969E-08  0.93827000000E+00  0.93827000000E+00 0. -1.
     999902    2    1    2    0    0  0.22070063088E-01 -0.72310700212E-02  0.50009232067E-02  0.10201732054E+01  0.10198965554E+01 0.  0.
     999903    2    3    3    0    0 -0.38915324521E-02 -0.12555162357E+00  0.32834764205E-01  0.13143900408E+00  0.20487455867E-01 0.  0.
         14    1    1    2    0    0 -0.22070063088E-01  0.72310700212E-02 -0.50009232067E-02  0.23756794634E-01  0.00000000000E+00 0.  1.
     999901    1    3    3    0    0  0.25961595540E-01  0.11832055354E+00 -0.27833840998E-01  0.88873420129E+00  0.88000000000E+00 0. -1.
        -11    1    4    4    0    0 -0.11187392744E-02 -0.92738992306E-01  0.14892794214E-01  0.93935236797E-01  0.51100000000E-03 0. -1.
         11    1    4    4    0    0 -0.27727931777E-02 -0.32812631260E-01  0.17941969991E-01  0.37503767282E-01  0.51100000000E-03 0.  1.
</event>
<event>
 8    1  0.1052028E+005  0.1043930E+01  0.7957747E-01            NaN
         13   -1    0    0    0    0  0.00000000000E+00  0.00000000000E+00  0.74505805969E-08  0.10566000000E+00  0.10566000000E+00 0.  1.
     999900   -1    0    0    0    0 -0.00000000000E+00 -0.00000000000E+00 -0.74505805969E-08  0.93827000000E+00  0.93827000000E+00 0.  1.
     999902    2    1    2    0    0  0.95263096684E-02  0.18625300581E-01  0.11447504305E-01  0.10200826154E+01  0.10198038265E+01 0.  0.
     999903    2    3    3    0    0 -0.67646008819E-01  0.43542807349E-01 -0.99378965135E-01  0.12943175495E+00  0.20110740842E-01 0.  0.
         14    1    1    2    0    0 -0.95263096684E-02 -0.18625300581E-01 -0.11447504305E-01  0.23847384603E-01  0.00000000000E+00 0.  1.
     999901    1    3    3    0    0  0.77172318488E-01 -0.24917506769E-01  0.11082646944E+00  0.89065086045E+00  0.88000000000E+00 0. -1.
        -11    1    4    4    0    0 -0.15393522936E-01  0.15835207728E-01 -0.39556945992E-01  0.45307035319E-01  0.51100000000E-03 0.  1.
         11    1    4    4    0    0 -0.52252485883E-01  0.27707599622E-01 -0.59822019143E-01  0.84124719632E-01  0.51100000000E-03 0. -1.
</event>
<event>
 8    1  0.1052028E+005  0.1043930E+01  0.7957747E-01            NaN
         13   -1    0    0    0    0  0.00000000000E+00  0.00000000000E+00  0.74505805969E-08  0.10566000000E+00  0.10566000000E+00 0.  1.
     999900   -1    0    0    0    0 -0.00000000000E+00 -0.00000000000E+00 -0.74505805969E-08  0.93827000000E+00  0.93827000000E+00 0. -1.
     999902    2    1    2    0    0 -0.17094577800E-01  0.13474317751E-01 -0.97212933133E-02  0.10200912632E+01  0.10198126788E+01 0.  0.
     999903    2    3    3    0    0 -0.13272240841E-01 -0.12319251259E+00  0.28704472804E-01  0.12870527930E+00  0.19711789025E-01 0.  0.
         14    1    1    2    0    0  0.17094577800E-01 -0.13474317751E-01  0.97212933133E-02  0.23838736810E-01  0.00000000000E+00 0.  1.
     999901    1    3    3    0    0 -0.38223369584E-02  0.13666683034E+00 -0.38425766118E-01  0.89138598389E+00  0.88000000000E+00 0.  1.
        -11    1    4    4    0    0 -0.75174910133E-02 -0.29364992357E-01 -0.33099975581E-03  0.30318082543E-01  0.51100000000E-03 0.  1.
         11    1    4    4    0    0 -0.57547498279E-02 -0.93827520229E-01  0.29035472560E-01  0.98387196757E-01  0.51100000000E-03 0. -1.
</event>
<event>
 8    1  0.1052028E+005  0.1043930E+01  0.7957747E-01            NaN
         13   -1    0    0    0    0  0.00000000000E+00  0.00000000000E+00  0.74505805969E-08  0.10566000000E+00  0.10566000000E+00 0. -1.
     999900   -1    0    0    0    0 -0.00000000000E+00 -0.00000000000E+00 -0.74505805969E-08  0.93827000000E+00  0.93827000000E+00 0.  1.
     999902    2    1    2    0    0  0.11727272728E-01  0.98798885568E-02 -0.20182622970E-01  0.10185828228E+01  0.10182673949E+01 0.  0.
     999903    2    3    3    0    0 -0.72209405025E-01 -0.10189502221E+00 -0.15613416029E-01  0.12753856225E+00  0.20627951321E-01 0.  0.
         14    1    1    2    0    0 -0.11727272728E-01 -0.98798885568E-02  0.20182622970E-01  0.25347177229E-01  0.00000000000E+00 0. -1.
     999901    1    3    3    0    0  0.83936677752E-01  0.11177491077E+00 -0.45692069416E-02  0.89104426052E+00  0.88000000000E+00 0. -1.
        -11    1    4    4    0    0 -0.62036282410E-01 -0.72466633389E-01 -0.13201233455E-01  0.96303930220E-01  0.51100000000E-03 0. -1.
         11    1    4    4    0    0 -0.10173122614E-01 -0.29428388824E-01 -0.24121825736E-02  0.31234632033E-01  0.51100000000E-03 0.  1.
</event>
<event>
 8    1  0.1052028E+005  0.1043930E+01  0.7957747E-01            NaN
         13   -1    0    0    0    0  0.00000000000E+00  0.00000000000E+00  0.74505805969E-08  0.10566000000E+00  0.10566000000E+00 0. -1.
     999900   -1    0    0    0    0 -0.00000000000E+00 -0.00000000000E+00 -0.74505805969E-08  0.93827000000E+00  0.93827000000E+00 0.  1.
     999902    2    1    2    0    0 -0.21167024478E-01 -0.13610601028E-01  0.10437888507E-01  0.10166859015E+01  0.10163208064E+01 0.  0.
     999903    2    3    3    0    0  0.21117124227E-01  0.12019750566E+00 -0.18404606271E-01  0.12510054489E+00  0.20446112025E-01 0.  0.
         14    1    1    2    0    0  0.21167024478E-01  0.13610601028E-01 -0.10437888507E-01  0.27244098481E-01  0.00000000000E+00 0.  1.
     999901    1    3    3    0    0 -0.42284148704E-01 -0.13380810669E+00  0.28842494778E-01  0.89158535663E+00  0.88000000000E+00 0.  1.
        -11    1    4    4    0    0  0.69308130830E-03  0.38025815694E-01  0.16982450159E-02  0.38073457658E-01  0.51100000000E-03 0. -1.
         11    1    4    4    0    0  0.20424042918E-01  0.82171689969E-01 -0.20102851287E-01  0.87027087233E-01  0.51100000000E-03 0.  1.
</event>
<event>
 8    1  0.1052028E+005  0.1043930E+01  0.7957747E-01            NaN
         13   -1    0    0    0    0  0.00000000000E+00  0.00000000000E+00  0.74505805969E-08  0.10566000000E+00  0.10566000000E+00 0.  1.
     999900   -1    0    0    0    0 -0.00000000000E+00 -0.00000000000E+00 -0.74505805969E-08  0.93827000000E+00  0.93827000000E+00 0. -1.
     999902    2    1    2    0    0  0.29007424923E-01  0.33940493215E-02 -0.99586777625E-02  0.10130734685E+01  0.10126034402E+01 0.  0.
     999903    2    3    3    0    0  0.60386368188E-01 -0.10776132590E+00 -0.87162363680E-02  0.12552532945E+00  0.20533356638E-01 0.  0.
         14    1    1    2    0    0 -0.29007424923E-01 -0.33940493215E-02  0.99586777625E-02  0.30856531468E-01  0.00000000000E+00 0.  1.
     999901    1    3    3    0    0 -0.31378943265E-01  0.11115537522E+00 -0.12424413945E-02  0.88754813908E+00  0.88000000000E+00 0.  1.
        -11    1    4    4    0    0  0.19681252751E-01 -0.46548157549E-01 -0.11974723345E-01  0.51939751648E-01  0.51100000000E-03 0.  1.
         11    1    4    4    0    0  0.40705115437E-01 -0.61213168353E-01  0.32584869771E-02  0.73585577805E-01  0.51100000000E-03 0. -1.
</event>
<event>
 8    1  0.1052028E+005  0.1043930E+01  0.7957747E-01            NaN
         13   -1    0    0    0    0  0.00000000000E+00  0.00000000000E+00  0.74505805969E-08  0.10566000000E+00  0.10566000000E+00 0.  1.
     999900   -1    0    0    0    0 -0.00000000000E+00 -0.00000000000E+00 -0.74505805969E-08  0.93827000000E+00  0.93827000000E+00 0.  1.
     999902    2    1    2    0    0  0.17157893254E-01 -0.10666108021E-01 -0.11592558008E-01  0.10206373711E+01  0.10203715483E+01 0.  0.
     999903    2    3    3    0    0  0.64397813354E-01 -0.11471148043E+00 -0.57508219712E-02  0.13323037569E+00  0.20284450855E-01 0.  0.
         14    1    1    2    0    0 -0.17157893254E-01  0.10666108021E-01  0.11592558008E-01  0.23292628928E-01  0.00000000000E+00 0.  1.
     999901    1    3    3    0    0 -0.47239920100E-01  0.10404537241E+00 -0.58417360366E-02  0.88740699538E+00  0.88000000000E+00 0.  1.
        -11    1    4    4    0    0  0.12093490182E-01 -0.36704520033E-01 -0.71225952661E-02  0.39299704579E-01  0.51100000000E-03 0.  1.
         11    1    4    4    0    0  0.52304323172E-01 -0.78006960395E-01  0.13717732949E-02  0.93930671112E-01  0.51100000000E-03 0. -1.
</event>
<event>
 8    1  0.1052028E+005  0.1043930E+01  0.7957747E-01            NaN
         13   -1    0    0    0    0  0.00000000000E+00  0.00000000000E+00  0.74505805969E-08  0.10566000000E+00  0.10566000000E+00 0.  1.
     999900   -1    0    0    0    0 -0.00000000000E+00 -0.00000000000E+00 -0.74505805969E-08  0.93827000000E+00  0.93827000000E+00 0. -1.
     999902    2    1    2    0    0  0.12144914565E-01  0.14741472224E-01 -0.13955240737E-01  0.10202750069E+01  0.10200007505E+01 0.  0.
     999903    2    3    3    0    0  0.36307402612E-01 -0.37439351347E-01  0.11617156193E+00  0.12884937966E+00  0.19657017211E-01 0.  0.
         14    1    1    2    0    0 -0.12144914565E-01 -0.14741472224E-01  0.13955240737E-01  0.23654993070E-01  0.00000000000E+00 0.  1.
     999901    1    3    3    0    0 -0.24162488047E-01  0.52180823571E-01 -0.13012680266E+00  0.89142562727E+00  0.88000000000E+00 0. -1.
        -11    1    4    4    0    0  0.23322473290E-01 -0.27723512176E-01  0.98024087920E-01  0.10450604682E+00  0.51100000000E-03 0.  1.
         11    1    4    4    0    0  0.12984929321E-01 -0.97158391702E-02  0.18147474005E-01  0.24343332846E-01  0.51100000000E-03 0. -1.
</event>
<event>
 8    1  0.1052028E+005  0.1043930E+01  0.7957747E-01            NaN
         13   -1    0    0    0    0  0.00000000000E+00  0.00000000000E+00  0.74505805969E-08  0.10566000000E+00  0.10566000000E+00 0.  1.
     999900   -1    0    0    0    0 -0.00000000000E+00 -0.00000000000E+00 -0.74505805969E-08  0.93827000000E+00  0.93827000000E+00 0. -1.
     999902    2    1    2    0    0  0.20654136890E-01  0.52697772488E-02 -0.41406995042E-02  0.10222157348E+01  0.10219850777E+01 0.  0.
     999903    2    3    3    0    0  0.82024455856E-01  0.10422625980E+00 -0.10880486398E-01  0.13451976979E+00  0.19648381312E-01 0.  0.
         14    1    1    2    0    0 -0.20654136890E-01 -0.52697772488E-02  0.41406995042E-02  0.21714265249E-01  0.00000000000E+00 0. -1.
     999901    1    3    3    0    0 -0.61370318966E-01 -0.98956482553E-01  0.67397868934E-02  0.88769596497E+00  0.88000000000E+00 0. -1.
        -11    1    4    4    0    0  0.76894304421E-01  0.88129980850E-01 -0.69521568020E-02  0.11716749200E+00  0.51100000000E-03 0. -1.
         11    1    4    4    0    0  0.51301514348E-02  0.16096278952E-01 -0.39283295956E-02  0.17352277783E-01  0.51100000000E-03 0.  1.
</event>
<event>
 8    1  0.1052028E+005  0.1043930E+01  0.7957747E-01            NaN
         13   -1    0    0    0    0  0.00000000000E+00  0.00000000000E+00  0.74505805969E-08  0.10566000000E+00  0.10566000000E+00 0. -1.
     999900   -1    0    0    0    0 -0.00000000000E+00 -0.00000000000E+00 -0.74505805969E-08  0.93827000000E+00  0.93827000000E+00 0.  1.
     999902    2    1    2    0    0 -0.13120214981E-01 -0.16859578103E-01  0.99185352528E-02  0.10203765978E+01  0.10201047194E+01 0.  0.
     999903    2    3    3    0    0  0.11465753892E+00  0.24048444651E-01  0.51034795311E-01  0.12925866643E+00  0.19456967763E-01 0.  0.
         14    1    1    2    0    0  0.13120214981E-01  0.16859578103E-01 -0.99185352528E-02  0.23553402228E-01  0.00000000000E+00 0. -1.
     999901    1    3    3    0    0 -0.12777775390E+00 -0.40908022754E-01 -0.41116260058E-01  0.89111793134E+00  0.88000000000E+00 0.  1.
        -11    1    4    4    0    0  0.86109946186E-01  0.94168837287E-02  0.38888400855E-01  0.94953511643E-01  0.51100000000E-03 0. -1.
         11    1    4    4    0    0  0.28547592730E-01  0.14631560922E-01  0.12146394455E-01  0.34305154787E-01  0.51100000000E-03 0.  1.
</event>
<event>
 8    1  0.1052028E+005  0.1043930E+01  0.7957747E-01            NaN
         13   -1    0    0    0    0  0.00000000000E+00  0.00000000000E+00  0.74505805969E-08  0.10566000000E+00  0.10566000000E+00 0. -1.
     999900   -1    0    0    0    0 -0.00000000000E+00 -0.00000000000E+00 -0.74505805969E-08  0.93827000000E+00  0.93827000000E+00 0. -1.
     999902    2    1    2    0    0  0.21787531958E-01  0.95024002901E-02 -0.74671933306E-03  0.10201487101E+01  0.10198714826E+01 0.  0.
     999903    2    3    3    0    0  0.15957826144E-01 -0.90504417854E-02 -0.12792466562E+00  0.13079364970E+00  0.20141897049E-01 0.  0.
         14    1    1    2    0    0 -0.21787531958E-01 -0.95024002901E-02  0.74671933306E-03  0.23781289912E-01  0.00000000000E+00 0. -1.
     999901    1    3    3    0    0  0.58297058144E-02  0.18552842075E-01  0.12717794628E+00  0.88935506039E+00  0.88000000000E+00 0.  1.
        -11    1    4    4    0    0 -0.29299850786E-02  0.34652219938E-02 -0.23060230101E-01  0.23508039249E-01  0.51100000000E-03 0. -1.
         11    1    4    4    0    0  0.18887811222E-01 -0.12515663779E-01 -0.10486443552E+00  0.10728561045E+00  0.51100000000E-03 0.  1.
</event>
<event>
 8    1  0.1052028E+005  0.1043930E+01  0.7957747E-01            NaN
         13   -1    0    0    0    0  0.00000000000E+00  0.00000000000E+00  0.74505805969E-08  0.10566000000E+00  0.10566000000E+00 0.  1.
     999900   -1    0    0    0    0 -0.00000000000E+00 -0.00000000000E+00 -0.74505805969E-08  0.93827000000E+00  0.93827000000E+00 0.  1.
     999902    2    1    2    0    0  0.18835286695E-01  0.10006289891E-01 -0.12703638669E-01  0.10191050872E+01  0.10188026808E+01 0.  0.
     999903    2    3    3    0    0  0.93242125617E-01  0.70703965888E-01  0.55975574134E-01  0.13122141244E+00  0.19815382965E-01 0.  0.
         14    1    1    2    0    0 -0.18835286695E-01 -0.10006289891E-01  0.12703638669E-01  0.24824912844E-01  0.00000000000E+00 0. -1.
     999901    1    3    3    0    0 -0.74406838922E-01 -0.60697675998E-01 -0.68679212803E-01  0.88788367471E+00  0.88000000000E+00 0.  1.
        -11    1    4    4    0    0  0.17795139590E-01  0.17445449003E-01  0.20561366793E-01  0.32311632725E-01  0.51100000000E-03 0.  1.
         11    1    4    4    0    0  0.75446986028E-01  0.53258516885E-01  0.35414207342E-01  0.98909779719E-01  0.51100000000E-03 0. -1.
</event>
<event>
 8    1  0.1052028E+005  0.1043930E+01  0.7957747E-01            NaN
         13   -1    0    0    0    0  0.00000000000E+00  0.00000000000E+00  0.74505805969E-08  0.10566000000E+00  0.10566000000E+00 0.  1.
     999900   -1    0    0    0    0 -0.00000000000E+00 -0.00000000000E+00 -0.74505805969E-08  0.93827000000E+00  0.93827000000E+00 0. -1.
     999902    2    1    2    0    0 -0.11710621211E-01 -0.14217949827E-01 -0.13963393550E-01  0.10208158246E+01  0.10205541057E+01 0.  0.
     999903    2    3    3    0    0  0.10076036818E+00  0.36432454959E-01 -0.71244891784E-01  0.13036854539E+00  0.20979691418E-01 0.  0.
         14    1    1    2    0    0  0.11710621211E-01  0.14217949827E-01  0.13963393550E-01  0.23114175430E-01  0.00000000000E+00 0.  1.
     999901    1    3    3    0    0 -0.11247098939E+00 -0.50650404785E-01  0.57281498234E-01  0.89044727918E+00  0.88000000000E+00 0.  1.
        -11    1    4    4    0    0  0.29899240503E-01  0.17183482298E-01 -0.13840397197E-01  0.37162539770E-01  0.51100000000E-03 0. -1.
         11    1    4    4    0    0  0.70861127675E-01  0.19248972661E-01 -0.57404494586E-01  0.93206005620E-01  0.51100000000E-03 0.  1.
</event>
<event>
 8    1  0.1052028E+005  0.1043930E+01  0.7957747E-01            NaN
         13   -1    0    0    0    0  0.00000000000E+00  0.00000000000E+00  0.74505805969E-08  0.10566000000E+00  0.10566000000E+00 0. -1.
     999900   -1    0    0    0    0 -0.00000000000E+00 -0.00000000000E+00 -0.74505805969E-08  0.93827000000E+00  0.93827000000E+00 0.  1.
     999902    2    1    2    0    0  0.12119663689E-01 -0.20305644130E-01  0.13588034283E-02  0.10202434684E+01  0.10199684716E+01 0.  0.
     999903    2    3    3    0    0  0.62613046125E-01 -0.78577551158E-01  0.84752398813E-01  0.13294437084E+00  0.19910086441E-01 0.  0.
         14    1    1    2    0    0 -0.12119663689E-01  0.20305644130E-01 -0.13588034283E-02  0.23686531579E-01  0.00000000000E+00 0.  1.
     999901    1    3    3    0    0 -0.50493382436E-01  0.58271907028E-01 -0.83393595385E-01  0.88729909758E+00  0.88000000000E+00 0.  1.
        -11    1    4    4    0    0  0.14111162909E-01 -0.32423302453E-01  0.26423050902E-01  0.44145602279E-01  0.51100000000E-03 0. -1.
         11    1    4    4    0    0  0.48501883216E-01 -0.46154248706E-01  0.58329347911E-01  0.88798768560E-01  0.51100000000E-03 0.  1.
</event>
<event>
 8    1  0.1052028E+005  0.1043930E+01  0.7957747E-01            NaN
         13   -1    0    0    0    0  0.00000000000E+00  0.00000000000E+00  0.74505805969E-08  0.10566000000E+00  0.10566000000E+00 0. -1.
     999900   -1    0    0    0    0 -0.00000000000E+00 -0.00000000000E+00 -0.74505805969E-08  0.93827000000E+00  0.93827000000E+00 0.  1.
     999902    2    1    2    0    0 -0.16158606325E-01  0.50272738114E-02 -0.17345561606E-01  0.10196969121E+01  0.10194089219E+01 0.  0.
     999903    2    3    3    0    0 -0.10533097256E+00 -0.97512104287E-02  0.73396627515E-01  0.13042515424E+00  0.20831611589E-01 0.  0.
         14    1    1    2    0    0  0.16158606325E-01 -0.50272738114E-02  0.17345561606E-01  0.24233087871E-01  0.00000000000E+00 0. -1.
     999901    1    3    3    0    0  0.89172366238E-01  0.14778484240E-01 -0.90742189121E-01  0.88927175789E+00  0.88000000000E+00 0.  1.
        -11    1    4    4    0    0 -0.57608936236E-01 -0.77329881666E-02  0.52350741163E-01  0.78226912642E-01  0.51100000000E-03 0.  1.
         11    1    4    4    0    0 -0.47722036327E-01 -0.20182222621E-02  0.21045886352E-01  0.52198241596E-01  0.51100000000E-03 0. -1.
</event>
<event>
 8    1  0.1052028E+005  0.1043930E+01  0.7957747E-01            NaN
         13   -1    0    0    0    0  0.00000000000E+00  0.00000000000E+00  0.74505805969E-08  0.10566000000E+00  0.10566000000E+00 0. -1.
     999900   -1    0    0    0    0 -0.00000000000E+00 -0.00000000000E+00 -0.74505805969E-08  0.93827000000E+00  0.93827000000E+00 0.  1.
     999902    2    1    2    0    0 -0.22324283923E-01 -0.42759435019E-02  0.12481327290E-01  0.10179985350E+01  0.10176682055E+01 0.  0.
     999903    2    3    3    0    0  0.67157098053E-01  0.21895099910E-01 -0.10197175853E+00  0.12570298415E+00  0.20335423977E-01 0.  0.
         14    1    1    2    0    0  0.22324283923E-01  0.42759435019E-02 -0.12481327290E-01  0.25931464988E-01  0.00000000000E+00 0.  1.
     999901    1    3    3    0    0 -0.89481381976E-01 -0.26171043411E-01  0.11445308582E+00  0.89229555086E+00  0.88000000000E+00 0. -1.
        -11    1    4    4    0    0  0.56085567589E-01  0.10325967875E-01 -0.85039370044E-01  0.10239224620E+00  0.51100000000E-03 0.  1.
         11    1    4    4    0    0  0.11071530464E-01  0.11569132034E-01 -0.16932388483E-01  0.23310737946E-01  0.51100000000E-03 0. -1.
</event>
<event>
 8    1  0.1052028E+005  0.1043930E+01  0.7957747E-01            NaN
         13   -1    0    0    0    0  0.00000000000E+00  0.00000000000E+00  0.74505805969E-08  0.10566000000E+00  0.10566000000E+00 0.  1.
     999900   -1    0    0    0    0 -0.00000000000E+00 -0.00000000000E+00 -0.74505805969E-08  0.93827000000E+00  0.93827000000E+00 0. -1.
     999902    2    1    2    0    0  0.17637926997E-01 -0.41834154759E-02  0.16199616735E-01  0.10196189939E+01  0.10193291263E+01 0.  0.
     999903    2    3    3    0    0  0.61461390401E-01  0.26989502276E-01  0.11296073274E+00  0.13268328018E+00  0.18406247783E-01 0.  0.
         14    1    1    2    0    0 -0.17637926997E-01  0.41834154759E-02 -0.16199616735E-01  0.24311006071E-01  0.00000000000E+00 0. -1.
     999901    1    3    3    0    0 -0.43823463403E-01 -0.31172917752E-01 -0.96761116000E-01  0.88693571374E+00  0.88000000000E+00 0. -1.
        -11    1    4    4    0    0  0.19004578337E-01  0.85271972323E-02  0.20255402750E-01  0.29059070047E-01  0.51100000000E-03 0.  1.
         11    1    4    4    0    0  0.42456812064E-01  0.18462305044E-01  0.92705329985E-01  0.10362421014E+00  0.51100000000E-03 0. -1.
</event>
<event>
 8    1  0.1052028E+005  0.1043930E+01  0.7957747E-01            NaN
         13   -1    0    0    0    0  0.00000000000E+00  0.00000000000E+00  0.74505805969E-08  0.10566000000E+00  0.10566000000E+00 0.  1.
     999900   -1    0    0    0    0 -0.00000000000E+00 -0.00000000000E+00 -0.74505805969E-08  0.93827000000E+00  0.93827000000E+00 0. -1.
     999902    2    1    2    0    0  0.32866863988E-02 -0.15510031831E-01 -0.16744904541E-01  0.10208701816E+01  0.10206097063E+01 0.  0.
     999903    2    3    3    0    0 -0.52755981131E-01 -0.11830771947E+00 -0.22780496717E-01  0.13309511241E+00  0.20382538717E-01 0.  0.
         14    1    1    2    0    0 -0.32866863988E-02  0.15510031831E-01  0.16744904541E-01  0.23059818363E-01  0.00000000000E+00 0.  1.
     999901    1    3    3    0    0  0.56042667529E-01  0.10279768764E+00  0.60355921765E-02  0.88777506923E+00  0.88000000000E+00 0. -1.
        -11    1    4    4    0    0 -0.10608742594E-01 -0.24600137751E-01  0.35366788441E-02  0.27027419689E-01  0.51100000000E-03 0. -1.
         11    1    4    4    0    0 -0.42147238536E-01 -0.93707581722E-01 -0.26317175561E-01  0.10606769272E+00  0.51100000000E-03 0.  1.
</event>
<event>
 8    1  0.1052028E+005  0.1043930E+01  0.7957747E-01            NaN
         13   -1    0    0    0    0  0.00000000000E+00  0.00000000000E+00  0.74505805969E-08  0.10566000000E+00  0.10566000000E+00 0.  1.
     999900   -1    0    0    0    0 -0.00000000000E+00 -0.00000000000E+00 -0.74505805969E-08  0.93827000000E+00  0.93827000000E+00 0. -1.
     999902    2    1    2    0    0  0.20419477302E-02  0.21957815770E-01  0.91708965150E-02  0.10200465210E+01  0.10197668775E+01 0.  0.
     999903    2    3    3    0    0 -0.57501256753E-01 -0.10737155756E+00  0.34894079862E-01  0.12823198755E+00  0.19768660053E-01 0.  0.
         14    1    1    2    0    0 -0.20419477302E-02 -0.21957815770E-01 -0.91708965150E-02  0.23883478951E-01  0.00000000000E+00 0. -1.
     999901    1    3    3    0    0  0.59543204483E-01  0.12932937333E+00 -0.25723183347E-01  0.89181453350E+00  0.88000000000E+00 0. -1.
        -11    1    4    4    0    0 -0.23625615488E-01 -0.56432849413E-01  0.91581978813E-02  0.61862508108E-01  0.51100000000E-03 0.  1.
         11    1    4    4    0    0 -0.33875641265E-01 -0.50938708144E-01  0.25735881981E-01  0.66369479438E-01  0.51100000000E-03 0. -1.
</event>
<event>
 8    1  0.1052028E+005  0.1043930E+01  0.7957747E-01            NaN
         13   -1    0    0    0    0  0.00000000000E+00  0.00000000000E+00  0.74505805969E-08  0.10566000000E+00  0.10566000000E+00 0. -1.
     999900   -1    0    0    0    0 -0.00000000000E+00 -0.00000000000E+00 -0.74505805969E-08  0.93827000000E+00  0.93827000000E+00 0. -1.
     999902    2    1    2    0    0 -0.18774421589E-02 -0.70923611994E-02 -0.22329986619E-01  0.10204256455E+01  0.10201549115E+01 0.  0.
     999903    2    3    3    0    0 -0.10195365848E+00 -0.37820565472E-01 -0.72431025440E-01  0.13280546454E+00  0.23792736634E-01 0.  0.
         14    1    1    2    0    0  0.18774421589E-02  0.70923611994E-02  0.22329986619E-01  0.23504354465E-01  0.00000000000E+00 0. -1.
     999901    1    3    3    0    0  0.10007621632E+00  0.30728204272E-01  0.50101038821E-01  0.88762018099E+00  0.88000000000E+00 0.  1.
        -11    1    4    4    0    0 -0.59728316840E-01 -0.12353601796E-01 -0.31118915899E-01  0.68474311662E-01  0.51100000000E-03 0.  1.
         11    1    4    4    0    0 -0.42225341640E-01 -0.25466963676E-01 -0.41312109540E-01  0.64331152882E-01  0.51100000000E-03 0. -1.
</event>
<event>
 8    1  0.1052028E+005  0.1043930E+01  0.7957747E-01            NaN
         13   -1    0    0    0    0  0.00000000000E+00  0.00000000000E+00  0.74505805969E-08  0.10566000000E+00  0.10566000000E+00 0. -1.
     999900   -1    0    0    0    0 -0.00000000000E+00 -0.00000000000E+00 -0.74505805969E-08  0.93827000000E+00  0.93827000000E+00 0. -1.
     999902    2    1    2    0    0 -0.80329075120E-02  0.21167404686E-01  0.80715301771E-02  0.10198938559E+01  0.10196105830E+01 0.  0.
     999903    2    3    3    0    0 -0.94666119388E-01 -0.84837946042E-01 -0.10310147842E-01  0.12911872497E+00  0.20154273500E-01 0.  0.
         14    1    1    2    0    0  0.80329075120E-02 -0.21167404686E-01 -0.80715301771E-02  0.24036144110E-01  0.00000000000E+00 0. -1.
     999901    1    3    3    0    0  0.86633211876E-01  0.10600535073E+00  0.18381678019E-01  0.89077513092E+00  0.88000000000E+00 0. -1.
        -11    1    4    4    0    0 -0.16539901711E-01 -0.58300469331E-02 -0.26211030013E-02  0.17739478510E-01  0.51100000000E-03 0. -1.
         11    1    4    4    0    0 -0.78126217676E-01 -0.79007899109E-01 -0.76890448402E-02  0.11137924646E+00  0.51100000000E-03 0.  1.
</event>
<event>
 7    1  0.1052028E+005  0.1043930E+01  0.7957747E-01            NaN
         13   -1    0    0    0    0  0.00000000000E+00  0.00000000000E+00  0.74505805969E-08  0.10566000000E+00  0.10566000000E+00 0.  1.
     999900   -1    0    0    0    0 -0.00000000000E+00 -0.00000000000E+00 -0.74505805969E-08  0.93827000000E+00  0.93827000000E+00 0. -1.
     999903    2    1    2    0    0  0.98649268851E-01 -0.10063286941E-01 -0.63056453396E-01  0.11874477815E+00  0.17066283553E-01 0.  0.
         14    1    1    2    0    0 -0.37642027234E-01  0.15173686517E-01 -0.22232966009E-02  0.40646107127E-01  0.00000000000E+00 0.  1.
     999901    1    1    2    0    0 -0.61007241616E-01 -0.51103995756E-02  0.65279749997E-01  0.88453911472E+00  0.88000000000E+00 0.  1.
        -11    1    3    3    0    0  0.55607745210E-01  0.19275672441E-03 -0.42294245369E-01  0.69866464021E-01  0.51100000000E-03 0.  1.
         11    1    3    3    0    0  0.43041523641E-01 -0.10256043665E-01 -0.20762208027E-01  0.48878314129E-01  0.51100000000E-03 0. -1.
</event>
<event>
 8    1  0.1052028E+005  0.1043930E+01  0.7957747E-01            NaN
         13   -1    0    0    0    0  0.00000000000E+00  0.00000000000E+00  0.74505805969E-08  0.10566000000E+00  0.10566000000E+00 0.  1.
     999900   -1    0    0    0    0 -0.00000000000E+00 -0.00000000000E+00 -0.74505805969E-08  0.93827000000E+00  0.93827000000E+00 0. -1.
     999902    2    1    2    0    0  0.68339188807E-03 -0.15679082859E-02  0.23055903134E-01  0.10208107433E+01  0.10205489080E+01 0.  0.
     999903    2    3    3    0    0  0.31747779092E-01  0.11057656543E+00 -0.56409203126E-01  0.12960028429E+00  0.19471445522E-01 0.  0.
         14    1    1    2    0    0 -0.68339188807E-03  0.15679082859E-02 -0.23055903134E-01  0.23119256696E-01  0.00000000000E+00 0. -1.
     999901    1    3    3    0    0 -0.31064387204E-01 -0.11214447372E+00  0.79465106260E-01  0.89121045901E+00  0.88000000000E+00 0. -1.
        -11    1    4    4    0    0  0.28361633685E-01  0.78694334200E-01 -0.33116107969E-01  0.89967317557E-01  0.51100000000E-03 0.  1.
         11    1    4    4    0    0  0.33861454072E-02  0.31882231235E-01 -0.23293095157E-01  0.39632966735E-01  0.51100000000E-03 0. -1.
</event>
<event>
 8    1  0.1052028E+005  0.1043930E+01  0.7957747E-01            NaN
         13   -1    0    0    0    0  0.00000000000E+00  0.00000000000E+00  0.74505805969E-08  0.10566000000E+00  0.10566000000E+00 0.  1.
     999900   -1    0    0    0    0 -0.00000000000E+00 -0.00000000000E+00 -0.74505805969E-08  0.93827000000E+00  0.93827000000E+00 0. -1.
     999902    2    1    2    0    0 -0.25141244276E-01  0.25448235598E-02 -0.27729619363E-02  0.10185085994E+01  0.10181912981E+01 0.  0.
     999903    2    3    3    0    0  0.11633140678E+00 -0.28461519962E-01  0.33591078495E-01  0.12592905237E+00  0.19664977874E-01 0.  0.
         14    1    1    2    0    0  0.25141244276E-01 -0.25448235598E-02  0.27729619363E-02  0.25421400603E-01  0.00000000000E+00 0.  1.
     999901    1    3    3    0    0 -0.14147265105E+00  0.31006343521E-01 -0.36364040431E-01  0.89257954703E+00  0.88000000000E+00 0.  1.
        -11    1    4    4    0    0  0.39433726878E-01 -0.12890872400E-01  0.20873174793E-01  0.46445063824E-01  0.51100000000E-03 0.  1.
         11    1    4    4    0    0  0.76897679900E-01 -0.15570647562E-01  0.12717903702E-01  0.79483988546E-01  0.51100000000E-03 0. -1.
</event>
<event>
 8    1  0.1052028E+005  0.1043930E+01  0.7957747E-01            NaN
         13   -1    0    0    0    0  0.00000000000E+00  0.00000000000E+00  0.74505805969E-08  0.10566000000E+00  0.10566000000E+00 0. -1.
     999900   -1    0    0    0    0 -0.00000000000E+00 -0.00000000000E+00 -0.74505805969E-08  0.93827000000E+00  0.93827000000E+00 0. -1.
     999902    2    1    2    0    0  0.16958671907E-01  0.13412663049E-01 -0.88640891026E-02  0.10205618987E+01  0.10202943305E+01 0.  0.
     999903    2    3    3    0    0 -0.84565833724E-01  0.70081141329E-01 -0.68406990122E-01  0.13091933073E+00  0.19940116803E-01 0.  0.
         14    1    1    2    0    0 -0.16958671907E-01 -0.13412663049E-01  0.88640891026E-02  0.23368101303E-01  0.00000000000E+00 0.  1.
     999901    1    3    3    0    0  0.10152450563E+00 -0.56668478280E-01  0.59542901020E-01  0.88964256797E+00  0.88000000000E+00 0.  1.
        -11    1    4    4    0    0 -0.40090961928E-01  0.42881315532E-01 -0.28467149068E-01  0.65243636832E-01  0.51100000000E-03 0.  1.
         11    1    4    4    0    0 -0.44474871796E-01  0.27199825797E-01 -0.39939841054E-01  0.65675693899E-01  0.51100000000E-03 0. -1.
</event>
<event>
 8    1  0.1052028E+005  0.1043930E+01  0.7957747E-01            NaN
         13   -1    0    0    0    0  0.00000000000E+00  0.00000000000E+00  0.74505805969E-08  0.10566000000E+00  0.10566000000E+00 0.  1.
     999900   -1    0    0    0    0 -0.00000000000E+00 -0.00000000000E+00 -0.74505805969E-08  0.93827000000E+00  0.93827000000E+00 0.  1.
     999902    2    1    2    0    0  0.15446520488E-01 -0.14928964985E-02 -0.17384519577E-01  0.10206266686E+01  0.10203605987E+01 0.  0.
     999903    2    3    3    0    0  0.57524859914E-01  0.11231037216E+00  0.30148143781E-01  0.13103062277E+00  0.18368024588E-01 0.  0.
         14    1    1    2    0    0 -0.15446520488E-01  0.14928964985E-02  0.17384519577E-01  0.23303331437E-01  0.00000000000E+00 0.  1.
     999901    1    3    3    0    0 -0.42078339426E-01 -0.11380326866E+00 -0.47532663358E-01  0.88959604579E+00  0.88000000000E+00 0. -1.
        -11    1    4    4    0    0  0.15635808486E-01  0.19007426083E-01  0.81397016731E-03  0.24630964694E-01  0.51100000000E-03 0.  1.
         11    1    4    4    0    0  0.41889051428E-01  0.93302946076E-01  0.29334173613E-01  0.10639965808E+00  0.51100000000E-03 0. -1.
</event>
<event>
 8    1  0.1052028E+005  0.1043930E+01  0.7957747E-01            NaN
         13   -1    0    0    0    0  0.00000000000E+00  0.00000000000E+00  0.74505805969E-08  0.10566000000E+00  0.10566000000E+00 0. -1.
     999900   -1    0    0    0    0 -0.00000000000E+00 -0.00000000000E+00 -0.74505805969E-08  0.93827000000E+00  0.93827000000E+00 0.  1.
     999902    2    1    2    0    0  0.68513809235E-02  0.60063714538E-02  0.22820130998E-01  0.10193581401E+01  0.10190619420E+01 0.  0.
     999903    2    3    3    0    0  0.34275213344E-01  0.10421169981E+00  0.70903116184E-01  0.13216688309E+00  0.20148560136E-01 0.  0.
         14    1    1    2    0    0 -0.68513809235E-02 -0.60063714538E-02 -0.22820130998E-01  0.24571859868E-01  0.00000000000E+00 0.  1.
     999901    1    3    3    0    0 -0.27423832421E-01 -0.98205328353E-01 -0.48082985186E-01  0.88719125704E+00  0.88000000000E+00 0.  1.
        -11    1    4    4    0    0  0.25474398149E-02  0.23339363846E-01  0.23404671685E-01  0.33155016695E-01  0.51100000000E-03 0.  1.
         11    1    4    4    0    0  0.31727773529E-01  0.80872335961E-01  0.47498444499E-01  0.99011866399E-01  0.51100000000E-03 0. -1.
</event>
<event>
 8    1  0.1052028E+005  0.1043930E+01  0.7957747E-01            NaN
         13   -1    0    0    0    0  0.00000000000E+00  0.00000000000E+00  0.74505805969E-08  0.10566000000E+00  0.10566000000E+00 0. -1.
     999900   -1    0    0    0    0 -0.00000000000E+00 -0.00000000000E+00 -0.74505805969E-08  0.93827000000E+00  0.93827000000E+00 0. -1.
     999902    2    1    2    0    0  0.19792860953E-01  0.87425902144E-02  0.99226411261E-02  0.10201256089E+01  0.10198478362E+01 0.  0.
     999903    2    3    3    0    0  0.70894113552E-01  0.52970627471E-01 -0.95044073016E-01  0.13131434189E+00  0.19447824044E-01 0.  0.
         14    1    1    2    0    0 -0.19792860953E-01 -0.87425902144E-02 -0.99226411261E-02  0.23804391092E-01  0.00000000000E+00 0.  1.
     999901    1    3    3    0    0 -0.51101252599E-01 -0.44228037256E-01  0.10496671414E+00  0.88881126702E+00  0.88000000000E+00 0.  1.
        -11    1    4    4    0    0  0.50595003449E-01  0.44064699233E-01 -0.60959680085E-01  0.90652610605E-01  0.51100000000E-03 0. -1.
         11    1    4    4    0    0  0.20299110103E-01  0.89059282378E-02 -0.34084392931E-01  0.40661731286E-01  0.51100000000E-03 0.  1.
</event>
<event>
 8    1  0.1052028E+005  0.1043930E+01  0.7957747E-01            NaN
         13   -1    0    0    0    0  0.00000000000E+00  0.00000000000E+00  0.74505805969E-08  0.10566000000E+00  0.10566000000E+00 0.  1.
     999900   -1    0    0    0    0 -0.00000000000E+00 -0.00000000000E+00 -0.74505805969E-08  0.93827000000E+00  0.93827000000E+00 0.  1.
     999902    2    1    2    0    0 -0.53999783512E-02  0.32005033396E-02  0.22127814107E-01  0.10209290621E+01  0.10206699303E+01 0.  0.
     999903    2    3    3    0    0  0.45037423073E-01 -0.83128260750E-01  0.90789430227E-01  0.13260986016E+00  0.20099183062E-01 0.  0.
         14    1    1    2    0    0  0.53999783512E-02 -0.32005033396E-02 -0.22127814107E-01  0.23000937915E-01  0.00000000000E+00 0. -1.
     999901    1    3    3    0    0 -0.50437401424E-01  0.86328764089E-01 -0.68661616119E-01  0.88831920192E+00  0.88000000000E+00 0.  1.
        -11    1    4    4    0    0  0.26672897939E-01 -0.46905736990E-01  0.37975438814E-01  0.65984746124E-01  0.51100000000E-03 0.  1.
         11    1    4    4    0    0  0.18364525134E-01 -0.36222523760E-01  0.52813991413E-01  0.66625114040E-01  0.51100000000E-03 0. -1.
</event>
<event>
 8    1  0.1052028E+005  0.1043930E+01  0.7957747E-01            NaN
         13   -1    0    0    0    0  0.00000000000E+00  0.00000000000E+00  0.74505805969E-08  0.10566000000E+00  0.10566000000E+00 0. -1.
     999900   -1    0    0    0    0 -0.00000000000E+00 -0.00000000000E+00 -0.74505805969E-08  0.93827000000E+00  0.93827000000E+00 0.  1.
     999902    2    1    2    0    0  0.13768083862E-01  0.93138635368E-02  0.17622004672E-01  0.10197051525E+01  0.10194173605E+01 0.  0.
     999903    2    3    3    0    0 -0.45443067297E-01 -0.11362840386E+00  0.35927062445E-01  0.12899990571E+00  0.19332235503E-01 0.  0.
         14    1    1    2    0    0 -0.13768083862E-01 -0.93138635368E-02 -0.17622004672E-01  0.24224847489E-01  0.00000000000E+00 0.  1.
     999901    1    3    3    0    0  0.59211151158E-01  0.12294226739E+00 -0.18305057774E-01  0.89070524680E+00  0.88000000000E+00 0.  1.
        -11    1    4    4    0    0 -0.21938149537E-01 -0.70844235597E-01  0.29260751155E-01  0.79728544460E-01  0.51100000000E-03 0.  1.
         11    1    4    4    0    0 -0.23504917759E-01 -0.42784168260E-01  0.66663112908E-02  0.49271361254E-01  0.51100000000E-03 0. -1.
</event>
<event>
 8    1  0.1052028E+005  0.1043930E+01  0.7957747E-01            NaN
         13   -1    0    0    0    0  0.00000000000E+00  0.00000000000E+00  0.74505805969E-08  0.10566000000E+00  0.10566000000E+00 0. -1.
     999900   -1    0    0    0    0 -0.00000000000E+00 -0.00000000000E+00 -0.74505805969E-08  0.93827000000E+00  0.93827000000E+00 0.  1.
     999902    2    1    2    0    0 -0.12687999953E-01 -0.14162415413E-01 -0.12294299897E-01  0.10212869180E+01  0.10210358758E+01 0.  0.
     999903    2    3    3    0    0  0.12486896387E+00  0.45677911005E-02 -0.30698306315E-01  0.13021371876E+00  0.20002592021E-01 0.  0.
         14    1    1    2    0    0  0.12687999953E-01  0.14162415413E-01  0.12294299897E-01  0.22643082014E-01  0.00000000000E+00 0. -1.
     999901    1    3    3    0    0 -0.13755696383E+00 -0.18730206514E-01  0.18404006419E-01  0.89107319923E+00  0.88000000000E+00 0.  1.
        -11    1    4    4    0    0  0.78819081632E-01 -0.66046780605E-02 -0.21098904971E-01  0.81862655183E-01  0.51100000000E-03 0.  1.
         11    1    4    4    0    0  0.46049882241E-01  0.11172469161E-01 -0.95994013440E-02  0.48351063574E-01  0.51100000000E-03 0. -1.
</event>
<event>
 8    1  0.1052028E+005  0.1043930E+01  0.7957747E-01            NaN
         13   -1    0    0    0    0  0.00000000000E+00  0.00000000000E+00  0.74505805969E-08  0.10566000000E+00  0.10566000000E+00 0.  1.
     999900   -1    0    0    0    0 -0.00000000000E+00 -0.00000000000E+00 -0.74505805969E-08  0.93827000000E+00  0.93827000000E+00 0.  1.
     999902    2    1    2    0    0 -0.20735555422E-01  0.11967748207E-02 -0.11639769120E-01  0.10201207633E+01  0.10198428761E+01 0.  0.
     999903    2    3    3    0    0  0.15377921795E-01 -0.70372675702E-01  0.10490432553E+00  0.12882457485E+00  0.20051424046E-01 0.  0.
         14    1    1    2    0    0  0.20735555422E-01 -0.11967748207E-02  0.11639769120E-01  0.23809236733E-01  0.00000000000E+00 0. -1.
     999901    1    3    3    0    0 -0.36113477217E-01  0.71569450523E-01 -0.11654409465E+00  0.89129618842E+00  0.88000000000E+00 0.  1.
        -11    1    4    4    0    0  0.80082095250E-02 -0.24089405794E-01  0.53749623268E-01  0.59445050372E-01  0.51100000000E-03 0. -1.
         11    1    4    4    0    0  0.73697122702E-02 -0.46283269908E-01  0.51154702265E-01  0.69379524480E-01  0.51100000000E-03 0.  1.
</event>
<event>
 8    1  0.1052028E+005  0.1043930E+01  0.7957747E-01            NaN
         13   -1    0    0    0    0  0.00000000000E+00  0.00000000000E+00  0.74505805969E-08  0.10566000000E+00  0.10566000000E+00 0.  1.
     999900   -1    0    0    0    0 -0.00000000000E+00 -0.00000000000E+00 -0.74505805969E-08  0.93827000000E+00  0.93827000000E+00 0. -1.
     999902    2    1    2    0    0  0.19598501197E-02  0.16250788113E-01  0.16575285312E-01  0.10206347385E+01  0.10203688550E+01 0.  0.
     999903    2    3    3    0    0  0.11965514572E+00 -0.42047221927E-01 -0.20765469487E-01  0.13010390096E+00  0.20260739218E-01 0.  0.
         14    1    1    2    0    0 -0.19598501197E-02 -0.16250788113E-01 -0.16575285312E-01  0.23295261535E-01  0.00000000000E+00 0.  1.
     999901    1    3    3    0    0 -0.11769529560E+00  0.58298010040E-01  0.37340754799E-01  0.89053083751E+00  0.88000000000E+00 0.  1.
        -11    1    4    4    0    0  0.58694269436E-01 -0.10121465985E-01 -0.77096892266E-02  0.60059651742E-01  0.51100000000E-03 0.  1.
         11    1    4    4    0    0  0.60960876280E-01 -0.31925755942E-01 -0.13055780260E-01  0.70044249217E-01  0.51100000000E-03 0. -1.
</event>
<event>
 8    1  0.1052028E+005  0.1043930E+01  0.7957747E-01            NaN
         13   -1    0    0    0    0  0.00000000000E+00  0.00000000000E+00  0.74505805969E-08  0.10566000000E+00  0.10566000000E+00 0.  1.
     999900   -1    0    0    0    0 -0.00000000000E+00 -0.00000000000E+00 -0.74505805969E-08  0.93827000000E+00  0.93827000000E+00 0.  1.
     999902    2    1    2    0    0  0.15571696930E-01 -0.90602583257E-02  0.15859490348E-01  0.10199281363E+01  0.10196456805E+01 0.  0.
     999903    2    3    3    0    0  0.69621437400E-01 -0.38055906015E-01  0.10505284891E+00  0.13329541797E+00  0.20884703950E-01 0.  0.
         14    1    1    2    0    0 -0.15571696930E-01  0.90602583257E-02 -0.15859490348E-01  0.24001863684E-01  0.00000000000E+00 0. -1.
     999901    1    3    3    0    0 -0.54049740470E-01  0.28995647690E-01 -0.89193358563E-01  0.88663271835E+00  0.88000000000E+00 0.  1.
        -11    1    4    4    0    0 -0.10950507803E-03 -0.30291904829E-02  0.10013407053E-02  0.32329229115E-02  0.51100000000E-03 0. -1.
         11    1    4    4    0    0  0.69730942478E-01 -0.35026715532E-01  0.10405150821E+00  0.13006249506E+00  0.51100000000E-03 0.  1.
</event>
<event>
 8    1  0.1052028E+005  0.1043930E+01  0.7957747E-01            NaN
         13   -1    0    0    0    0  0.00000000000E+00  0.00000000000E+00  0.74505805969E-08  0.10566000000E+00  0.10566000000E+00 0.  1.
     999900   -1    0    0    0    0 -0.00000000000E+00 -0.00000000000E+00 -0.74505805969E-08  0.93827000000E+00  0.93827000000E+00 0. -1.
     999902    2    1    2    0    0  0.23887827510E-02  0.17749855981E-01  0.13024858513E-01  0.10217847836E+01  0.10215447780E+01 0.  0.
     999903    2    3    3    0    0  0.18776270755E-01 -0.63944059554E-01 -0.10910761497E+00  0.12945144527E+00  0.20293199460E-01 0.  0.
         14    1    1    2    0    0 -0.23887827510E-02 -0.17749855981E-01 -0.13024858513E-01  0.22145216406E-01  0.00000000000E+00 0.  1.
     999901    1    3    3    0    0 -0.16387488004E-01  0.81693915535E-01  0.12213247348E+00  0.89233333832E+00  0.88000000000E+00 0.  1.
        -11    1    4    4    0    0  0.18361819516E-01 -0.48694266492E-01 -0.96559518709E-01  0.10969179449E+00  0.51100000000E-03 0.  1.
         11    1    4    4    0    0  0.41445123931E-03 -0.15249793062E-01 -0.12548096258E-01  0.19759650781E-01  0.51100000000E-03 0. -1.
</event>
<event>
 8    1  0.1052028E+005  0.1043930E+01  0.7957747E-01            NaN
         13   -1    0    0    0    0  0.00000000000E+00  0.00000000000E+00  0.74505805969E-08  0.10566000000E+00  0.10566000000E+00 0.  1.
     999900   -1    0    0    0    0 -0.00000000000E+00 -0.00000000000E+00 -0.74505805969E-08  0.93827000000E+00  0.93827000000E+00 0. -1.
     999902    2    1    2    0    0 -0.19450781475E-02  0.23173571586E-01 -0.35406313895E-02  0.10204069513E+01  0.10201357814E+01 0.  0.
     999903    2    3    3    0    0  0.44611905394E-01  0.12333924386E+00 -0.88294780190E-02  0.13348604925E+00  0.23189965126E-01 0.  0.
         14    1    1    2    0    0  0.19450781475E-02 -0.23173571586E-01  0.35406313895E-02  0.23523048691E-01  0.00000000000E+00 0. -1.
     999901    1    3    3    0    0 -0.46556983542E-01 -0.10016567227E+00  0.52888466296E-02  0.88692090206E+00  0.88000000000E+00 0.  1.
        -11    1    4    4    0    0  0.34202758900E-01  0.60818287023E-01 -0.31603713095E-02  0.69849422478E-01  0.51100000000E-03 0.  1.
         11    1    4    4    0    0  0.10409146495E-01  0.62520956837E-01 -0.56691067096E-02  0.63636626768E-01  0.51100000000E-03 0. -1.
</event>
<event>
 8    1  0.1052028E+005  0.1043930E+01  0.7957747E-01            NaN
         13   -1    0    0    0    0  0.00000000000E+00  0.00000000000E+00  0.74505805969E-08  0.10566000000E+00  0.10566000000E+00 0. -1.
     999900   -1    0    0    0    0 -0.00000000000E+00 -0.00000000000E+00 -0.74505805969E-08  0.93827000000E+00  0.93827000000E+00 0.  1.
     999902    2    1    2    0    0 -0.22450772275E-01  0.67341621976E-02  0.57338184949E-02  0.10197998779E+01  0.10195143590E+01 0.  0.
     999903    2    3    3    0    0  0.86654927432E-01  0.31234970004E-01 -0.86569280546E-01  0.12793430209E+00  0.19703946744E-01 0.  0.
         14    1    1    2    0    0  0.22450772275E-01 -0.67341621976E-02 -0.57338184949E-02  0.24130122063E-01  0.00000000000E+00 0. -1.
     999901    1    3    3    0    0 -0.10910569971E+00 -0.24500807807E-01  0.92303099041E-01  0.89186557585E+00  0.88000000000E+00 0.  1.
        -11    1    4    4    0    0  0.54177493462E-01  0.14992790767E-01 -0.40566517458E-01  0.69324512494E-01  0.51100000000E-03 0.  1.
         11    1    4    4    0    0  0.32477433969E-01  0.16242179237E-01 -0.46002763088E-01  0.58609789595E-01  0.51100000000E-03 0. -1.
</event>
<event>
 8    1  0.1052028E+005  0.1043930E+01  0.7957747E-01            NaN
         13   -1    0    0    0    0  0.00000000000E+00  0.00000000000E+00  0.74505805969E-08  0.10566000000E+00  0.10566000000E+00 0.  1.
     999900   -1    0    0    0    0 -0.00000000000E+00 -0.00000000000E+00 -0.74505805969E-08  0.93827000000E+00  0.93827000000E+00 0. -1.
     999902    2    1    2    0    0  0.15027783841E-01  0.76715124396E-03  0.18598114733E-01  0.10200069425E+01  0.10197263604E+01 0.  0.
     999903    2    3    3    0    0 -0.29202732435E-01 -0.10700442911E+00 -0.62334816507E-01  0.12864776044E+00  0.19022867406E-01 0.  0.
         14    1    1    2    0    0 -0.15027783841E-01 -0.76715124396E-03 -0.18598114733E-01  0.23923057493E-01  0.00000000000E+00 0. -1.
     999901    1    3    3    0    0  0.44230516276E-01  0.10777158036E+00  0.80932931240E-01  0.89135918207E+00  0.88000000000E+00 0. -1.
        -11    1    4    4    0    0 -0.62295352249E-02 -0.56114073906E-01 -0.27156030423E-01  0.62652274570E-01  0.51100000000E-03 0.  1.
         11    1    4    4    0    0 -0.22973197210E-01 -0.50890355209E-01 -0.35178786084E-01  0.65995485866E-01  0.51100000000E-03 0. -1.
</event>
<event>
 8    1  0.1052028E+005  0.1043930E+01  0.7957747E-01            NaN
         13   -1    0    0    0    0  0.00000000000E+00  0.00000000000E+00  0.74505805969E-08  0.10566000000E+00  0.10566000000E+00 0. -1.
     999900   -1    0    0    0    0 -0.00000000000E+00 -0.00000000000E+00 -0.74505805969E-08  0.93827000000E+00  0.93827000000E+00 0.  1.
     999902    2    1    2    0    0  0.23667106227E-01 -0.18597158530E-04  0.23878718298E-02  0.10201427304E+01  0.10198653618E+01 0.  0.
     999903    2    3    3    0    0 -0.31188993254E-01 -0.57945628784E-01 -0.10970613655E+00  0.12945209985E+00  0.19797993940E-01 0.  0.
         14    1    1    2    0    0 -0.23667106227E-01  0.18597158530E-04 -0.23878718298E-02  0.23787269597E-01  0.00000000000E+00 0.  1.
     999901    1    3    3    0    0  0.54856099480E-01  0.57927031625E-01  0.11209400838E+00  0.89069063055E+00  0.88000000000E+00 0. -1.
        -11    1    4    4    0    0 -0.24618644801E-01 -0.55920139087E-01 -0.91907419805E-01  0.11036473424E+00  0.51100000000E-03 0. -1.
         11    1    4    4    0    0 -0.65703484530E-02 -0.20254896966E-02 -0.17798716741E-01  0.19087365610E-01  0.51100000000E-03 0.  1.
</event>
<event>
 8    1  0.1052028E+005  0.1043930E+01  0.7957747E-01            NaN
         13   -1    0    0    0    0  0.00000000000E+00  0.00000000000E+00  0.74505805969E-08  0.10566000000E+00  0.10566000000E+00 0.  1.
     999900   -1    0    0    0    0 -0.00000000000E+00 -0.00000000000E+00 -0.74505805969E-08  0.93827000000E+00  0.93827000000E+00 0.  1.
     999902    2    1    2    0    0 -0.10225951448E-02  0.11625233768E-02  0.23482893458E-01  0.10203961213E+01  0.10201246987E+01 0.  0.
     999903    2    3    3    0    0  0.11814294086E+00  0.69640257307E-02  0.54528695678E-01  0.13180289365E+00  0.19808381828E-01 0.  0.
         14    1    1    2    0    0  0.10225951448E-02 -0.11625233768E-02 -0.23482893458E-01  0.23533878698E-01  0.00000000000E+00 0. -1.
     999901    1    3    3    0    0 -0.11916553601E+00 -0.58015023539E-02 -0.31045802220E-01  0.88859322766E+00  0.88000000000E+00 0. -1.
        -11    1    4    4    0    0  0.10927416849E+00  0.51590969380E-02  0.55528262659E-01  0.12268296237E+00  0.51100000000E-03 0. -1.
         11    1    4    4    0    0  0.88687723721E-02  0.18049287927E-02 -0.99956698095E-03  0.91199312763E-02  0.51100000000E-03 0.  1.
</event>
<event>
 8    1  0.1052028E+005  0.1043930E+01  0.7957747E-01            NaN
         13   -1    0    0    0    0  0.00000000000E+00  0.00000000000E+00  0.74505805969E-08  0.10566000000E+00  0.10566000000E+00 0.  1.
     999900   -1    0    0    0    0 -0.00000000000E+00 -0.00000000000E+00 -0.74505805969E-08  0.93827000000E+00  0.93827000000E+00 0.  1.
     999902    2    1    2    0    0  0.20683121854E-01 -0.18192864868E-02 -0.11646345980E-01  0.10201237255E+01  0.10198459082E+01 0.  0.
     999903    2    3    3    0    0  0.29861238751E-01  0.73146536113E-01 -0.10392616565E+00  0.13208111527E+00  0.20066483972E-01 0.  0.
         14    1    1    2    0    0 -0.20683121854E-01  0.18192864868E-02  0.11646345980E-01  0.23806274544E-01  0.00000000000E+00 0.  1.
     999901    1    3    3    0    0 -0.91781168968E-02 -0.74965822600E-01  0.92279819671E-01  0.88804261019E+00  0.88000000000E+00 0. -1.
        -11    1    4    4    0    0  0.48088750748E-02  0.22799042367E-02 -0.13333009199E-01  0.14365009506E-01  0.51100000000E-03 0.  1.
         11    1    4    4    0    0  0.25052363676E-01  0.70866631876E-01 -0.90593156452E-01  0.11771610576E+00  0.51100000000E-03 0. -1.
</event>
<event>
 8    1  0.1052028E+005  0.1043930E+01  0.7957747E-01            NaN
         13   -1    0    0    0    0  0.00000000000E+00  0.00000000000E+00  0.74505805969E-08  0.10566000000E+00  0.10566000000E+00 0.  1.
     999900   -1    0    0    0    0 -0.00000000000E+00 -0.00000000000E+00 -0.74505805969E-08  0.93827000000E+00  0.93827000000E+00 0. -1.
     999902    2    1    2    0    0  0.20038443680E-01 -0.77388323109E-02  0.94828640428E-02  0.10204490830E+01  0.10201788949E+01 0.  0.
     999903    2    3    3    0    0 -0.21392022625E-01 -0.95647783793E-01  0.85598902460E-01  0.13183323883E+00  0.21135599842E-01 0.  0.
         14    1    1    2    0    0 -0.20038443680E-01  0.77388323109E-02 -0.94828640428E-02  0.23480916956E-01  0.00000000000E+00 0.  1.
     999901    1    3    3    0    0  0.41430466305E-01  0.87908951482E-01 -0.76116038417E-01  0.88861584422E+00  0.88000000000E+00 0. -1.
        -11    1    4    4    0    0 -0.20552485316E-03 -0.18892339788E-01  0.76076819021E-02  0.20374019929E-01  0.51100000000E-03 0. -1.
         11    1    4    4    0    0 -0.21186497772E-01 -0.76755444005E-01  0.77991220558E-01  0.11145921890E+00  0.51100000000E-03 0.  1.
</event>
<event>
 8    1  0.1052028E+005  0.1043930E+01  0.7957747E-01            NaN
         13   -1    0    0    0    0  0.00000000000E+00  0.00000000000E+00  0.74505805969E-08  0.10566000000E+00  0.10566000000E+00 0.  1.
     999900   -1    0    0    0    0 -0.00000000000E+00 -0.00000000000E+00 -0.74505805969E-08  0.93827000000E+00  0.93827000000E+00 0. -1.
     999902    2    1    2    0    0 -0.18145679899E-01  0.14665906640E-01 -0.62628964049E-02  0.10197726328E+01  0.10194864611E+01 0.  0.
     999903    2    3    3    0    0  0.46278704780E-01  0.14981160035E-01 -0.11906313095E+00  0.13023652136E+00  0.20478492875E-01 0.  0.
         14    1    1    2    0    0  0.18145679899E-01 -0.14665906640E-01  0.62628964049E-02  0.24157367157E-01  0.00000000000E+00 0. -1.
     999901    1    3    3    0    0 -0.64424384679E-01 -0.31525339589E-03  0.11280023455E+00  0.88953611149E+00  0.88000000000E+00 0.  1.
        -11    1    4    4    0    0  0.27175443699E-01 -0.10808636963E-02 -0.71911002477E-01  0.76883850091E-01  0.51100000000E-03 0.  1.
         11    1    4    4    0    0  0.19103261081E-01  0.16062023732E-01 -0.47152128476E-01  0.53352671265E-01  0.51100000000E-03 0. -1.
</event>
<event>
 8    1  0.1052028E+005  0.1043930E+01  0.7957747E-01            NaN
         13   -1    0    0    0    0  0.00000000000E+00  0.00000000000E+00  0.74505805969E-08  0.10566000000E+00  0.10566000000E+00 0. -1.
     999900   -1    0    0    0    0 -0.00000000000E+00 -0.00000000000E+00 -0.74505805969E-08  0.93827000000E+00  0.93827000000E+00 0. -1.
     999902    2    1    2    0    0 -0.13894237708E-01 -0.16917721936E-01  0.11648694507E-01  0.10191317896E+01  0.10188300414E+01 0.  0.
     999903    2    3    3    0    0  0.41818538559E-01  0.10160555657E+00  0.62720999471E-01  0.12797520326E+00  0.19267838005E-01 0.  0.
         14    1    1    2    0    0  0.13894237708E-01  0.16917721936E-01 -0.11648694507E-01  0.24798210434E-01  0.00000000000E+00 0. -1.
     999901    1    3    3    0    0 -0.55712776268E-01 -0.11852327850E+00 -0.51072304964E-01  0.89115658631E+00  0.88000000000E+00 0.  1.
        -11    1    4    4    0    0  0.34655204949E-01  0.59810224089E-01  0.39951654441E-01  0.79841354881E-01  0.51100000000E-03 0. -1.
         11    1    4    4    0    0  0.71633336104E-02  0.41795332479E-01  0.22769345030E-01  0.48133848377E-01  0.51100000000E-03 0.  1.
</event>
<event>
 8    1  0.1052028E+005  0.1043930E+01  0.7957747E-01            NaN
         13   -1    0    0    0    0  0.00000000000E+00  0.00000000000E+00  0.74505805969E-08  0.10566000000E+00  0.10566000000E+00 0.  1.
     999900   -1    0    0    0    0 -0.00000000000E+00 -0.00000000000E+00 -0.74505805969E-08  0.93827000000E+00  0.93827000000E+00 0.  1.
     999902    2    1    2    0    0  0.72389936565E-02 -0.15329631430E-01 -0.16348190064E-01  0.10203786954E+01  0.10201068660E+01 0.  0.
     999903    2    3    3    0    0  0.10522842757E+00  0.61956914526E-01  0.39587144654E-01  0.12981488467E+00  0.19315305737E-01 0.  0.
         14    1    1    2    0    0 -0.72389936565E-02  0.15329631430E-01  0.16348190064E-01  0.23551304578E-01  0.00000000000E+00 0.  1.
     999901    1    3    3    0    0 -0.97989433909E-01 -0.77286545956E-01 -0.55935334718E-01  0.89056381075E+00  0.88000000000E+00 0.  1.
        -11    1    4    4    0    0  0.33627204267E-01  0.11024524376E-01  0.15959054840E-01  0.38823724150E-01  0.51100000000E-03 0. -1.
         11    1    4    4    0    0  0.71601223298E-01  0.50932390151E-01  0.23628089814E-01  0.90991160524E-01  0.51100000000E-03 0.  1.
</event>
<event>
 8    1  0.1052028E+005  0.1043930E+01  0.7957747E-01            NaN
         13   -1    0    0    0    0  0.00000000000E+00  0.00000000000E+00  0.74505805969E-08  0.10566000000E+00  0.10566000000E+00 0. -1.
     999900   -1    0    0    0    0 -0.00000000000E+00 -0.00000000000E+00 -0.74505805969E-08  0.93827000000E+00  0.93827000000E+00 0. -1.
     999902    2    1    2    0    0 -0.40526661552E-02  0.92510366201E-02 -0.21379867754E-01  0.10202846088E+01  0.10200105776E+01 0.  0.
     999903    2    3    3    0    0 -0.16050713212E-01  0.12859913007E+00 -0.15266184357E-01  0.13212623456E+00  0.20710476188E-01 0.  0.
         14    1    1    2    0    0  0.40526661552E-02 -0.92510366201E-02  0.21379867754E-01  0.23645391236E-01  0.00000000000E+00 0. -1.
     999901    1    3    3    0    0  0.11998047056E-01 -0.11934809345E+00 -0.61136833966E-02  0.88815837420E+00  0.88000000000E+00 0. -1.
        -11    1    4    4    0    0 -0.50645432185E-03  0.41078901617E-01 -0.13400260371E-01  0.43215283790E-01  0.51100000000E-03 0. -1.
         11    1    4    4    0    0 -0.15544258890E-01  0.87520228457E-01 -0.18659239863E-02  0.88910950771E-01  0.51100000000E-03 0.  1.
</event>
<event>
 8    1  0.1052028E+005  0.1043930E+01  0.7957747E-01            NaN
         13   -1    0    0    0    0  0.00000000000E+00  0.00000000000E+00  0.74505805969E-08  0.10566000000E+00  0.10566000000E+00 0. -1.
     999900   -1    0    0    0    0 -0.00000000000E+00 -0.00000000000E+00 -0.74505805969E-08  0.93827000000E+00  0.93827000000E+00 0. -1.
     999902    2    1    2    0    0 -0.10086122124E-01  0.20987571576E-01  0.54024476465E-02  0.10200261413E+01  0.10197460147E+01 0.  0.
     999903    2    3    3    0    0  0.95569492215E-01 -0.58079665975E-01  0.59568264667E-01  0.12853936483E+00  0.21615150064E-01 0.  0.
         14    1    1    2    0    0  0.10086122124E-01 -0.20987571576E-01 -0.54024476465E-02  0.23903858700E-01  0.00000000000E+00 0.  1.
     999901    1    3    3    0    0 -0.10565561434E+00  0.79067237552E-01 -0.54165817021E-01  0.89148677647E+00  0.88000000000E+00 0.  1.
        -11    1    4    4    0    0  0.26366216883E-01 -0.92477095584E-02  0.68463258391E-02  0.28772049342E-01  0.51100000000E-03 0.  1.
         11    1    4    4    0    0  0.69203275331E-01 -0.48831956417E-01  0.52721938828E-01  0.99767315484E-01  0.51100000000E-03 0. -1.
</event>
<event>
 7    1  0.1052028E+005  0.1043930E+01  0.7957747E-01            NaN
         13   -1    0    0    0    0  0.00000000000E+00  0.00000000000E+00  0.74505805969E-08  0.10566000000E+00  0.10566000000E+00 0.  1.
     999900   -1    0    0    0    0 -0.00000000000E+00 -0.00000000000E+00 -0.74505805969E-08  0.93827000000E+00  0.93827000000E+00 0.  1.
     999902    2    1    2    0    0  0.22706601432E-02  0.23025155861E-01 -0.22435219432E-02  0.10206846329E+01  0.10204199002E+01 0.  0.
         14    1    1    2    0    0 -0.22706601432E-02 -0.23025155861E-01  0.22435219432E-02  0.23245367079E-01  0.00000000000E+00 0.  1.
     999901    1    3    3    0    0  0.20806215865E-01  0.97818061936E-02 -0.10854133404E+00  0.88696663046E+00  0.88000000000E+00 0.  1.
        -11    1    3    3    0    0 -0.50748426161E-02 -0.32727916461E-01  0.40247395840E-01  0.52124701787E-01  0.51100000000E-03 0. -1.
         11    1    3    3    0    0 -0.13460713105E-01  0.45971266129E-01  0.66050416255E-01  0.81593300676E-01  0.51100000000E-03 0.  1.
</event>
<event>
 8    1  0.1052028E+005  0.1043930E+01  0.7957747E-01            NaN
         13   -1    0    0    0    0  0.00000000000E+00  0.00000000000E+00  0.74505805969E-08  0.10566000000E+00  0.10566000000E+00 0.  1.
     999900   -1    0    0    0    0 -0.00000000000E+00 -0.00000000000E+00 -0.74505805969E-08  0.93827000000E+00  0.93827000000E+00 0.  1.
     999902    2    1    2    0    0 -0.17090154506E-01 -0.14532154981E-01  0.96562632061E-02  0.10195066438E+01  0.10192140582E+01 0.  0.
     999903    2    3    3    0    0 -0.19774423406E-01 -0.77260334622E-01 -0.10127127377E+00  0.13032333970E+00  0.19186319385E-01 0.  0.
         14    1    1    2    0    0  0.17090154506E-01  0.14532154981E-01 -0.96562632061E-02  0.24423356210E-01  0.00000000000E+00 0.  1.
     999901    1    3    3    0    0  0.26842688997E-02  0.62728179641E-01  0.11092753698E+00  0.88918330409E+00  0.88000000000E+00 0. -1.
        -11    1    4    4    0    0 -0.79350106832E-02 -0.37393879289E-01 -0.63614199247E-01  0.74217882411E-01  0.51100000000E-03 0.  1.
         11    1    4    4    0    0 -0.11839412723E-01 -0.39866455333E-01 -0.37657074523E-01  0.56105457284E-01  0.51100000000E-03 0. -1.
</event>
<event>
 8    1  0.1052028E+005  0.1043930E+01  0.7957747E-01            NaN
         13   -1    0    0    0    0  0.00000000000E+00  0.00000000000E+00  0.74505805969E-08  0.10566000000E+00  0.10566000000E+00 0.  1.
     999900   -1    0    0    0    0 -0.00000000000E+00 -0.00000000000E+00 -0.74505805969E-08  0.93827000000E+00  0.93827000000E+00 0.  1.
     999902    2    1    2    0    0 -0.40052289267E-02 -0.51514273122E-02 -0.23239305095E-01  0.10197919727E+01  0.10195062644E+01 0.  0.
     999903    2    3    3    0    0  0.40316345659E-01  0.29635224402E-01 -0.12126237124E+00  0.13255861294E+00  0.19067483675E-01 0.  0.
         14    1    1    2    0    0  0.40052289267E-02  0.51514273122E-02  0.23239305095E-01  0.24138027331E-01  0.00000000000E+00 0.  1.
     999901    1    3    3    0    0 -0.44321574586E-01 -0.34786651714E-01  0.98023066148E-01  0.88723335972E+00  0.88000000000E+00 0. -1.
        -11    1    4    4    0    0  0.10606215573E-01 -0.71256850406E-03 -0.18129069046E-01  0.21021984401E-01  0.51100000000E-03 0.  1.
         11    1    4    4    0    0  0.29710130086E-01  0.30347792906E-01 -0.10313330220E+00  0.11153662854E+00  0.51100000000E-03 0. -1.
</event>
<event>
 8    1  0.1052028E+005  0.1043930E+01  0.7957747E-01            NaN
         13   -1    0    0    0    0  0.00000000000E+00  0.00000000000E+00  0.74505805969E-08  0.10566000000E+00  0.10566000000E+00 0. -1.
     999900   -1    0    0    0    0 -0.00000000000E+00 -0.00000000000E+00 -0.74505805969E-08  0.93827000000E+00  0.93827000000E+00 0.  1.
     999902    2    1    2    0    0 -0.64555661920E-02  0.84464024954E-02 -0.21119510669E-01  0.10202857664E+01  0.10200117624E+01 0.  0.
     999903    2    3    3    0    0  0.78324524668E-01  0.59768255534E-01 -0.86139854539E-01  0.13233912304E+00  0.19661978843E-01 0.  0.
         14    1    1    2    0    0  0.64555661920E-02 -0.84464024954E-02  0.21119510669E-01  0.23644233565E-01  0.00000000000E+00 0. -1.
     999901    1    3    3    0    0 -0.84780090860E-01 -0.51321853039E-01  0.65020343871E-01  0.88794664340E+00  0.88000000000E+00 0. -1.
        -11    1    4    4    0    0  0.32155288623E-01  0.21894958539E-01 -0.46655314661E-01  0.60748097114E-01  0.51100000000E-03 0. -1.
         11    1    4    4    0    0  0.46169236045E-01  0.37873296995E-01 -0.39484539878E-01  0.71591025923E-01  0.51100000000E-03 0.  1.
</event>
<event>
 8    1  0.1052028E+005  0.1043930E+01  0.7957747E-01            NaN
         13   -1    0    0    0    0  0.00000000000E+00  0.00000000000E+00  0.74505805969E-08  0.10566000000E+00  0.10566000000E+00 0. -1.
     999900   -1    0    0    0    0 -0.00000000000E+00 -0.00000000000E+00 -0.74505805969E-08  0.93827000000E+00  0.93827000000E+00 0. -1.
     999902    2    1    2    0    0  0.34212980005E-03  0.20210253279E-01 -0.12564938013E-01  0.10201298097E+01  0.10198521361E+01 0.  0.
     999903    2    3    3    0    0 -0.47101148344E-01  0.12041191525E+00  0.21536600742E-01  0.13251832227E+00  0.19486740520E-01 0.  0.
         14    1    1    2    0    0 -0.34212980005E-03 -0.20210253279E-01  0.12564938013E-01  0.23800190286E-01  0.00000000000E+00 0. -1.
     999901    1    3    3    0    0  0.47443278144E-01 -0.10020166197E+00 -0.34101538755E-01  0.88761148745E+00  0.88000000000E+00 0. -1.
        -11    1    4    4    0    0 -0.11624526963E-01  0.20980182344E-01  0.11091046896E-01  0.26430477115E-01  0.51100000000E-03 0.  1.
         11    1    4    4    0    0 -0.35476621381E-01  0.99431732903E-01  0.10445553846E-01  0.10608784515E+00  0.51100000000E-03 0. -1.
</event>
<event>
 8    1  0.1052028E+005  0.1043930E+01  0.7957747E-01            NaN
         13   -1    0    0    0    0  0.00000000000E+00  0.00000000000E+00  0.74505805969E-08  0.10566000000E+00  0.10566000000E+00 0. -1.
     999900   -1    0    0    0    0 -0.00000000000E+00 -0.00000000000E+00 -0.74505805969E-08  0.93827000000E+00  0.93827000000E+00 0. -1.
     999902    2    1    2    0    0 -0.14787795841E-02 -0.22620434333E-01  0.24028385509E-02  0.10211342883E+01  0.10208798119E+01 0.  0.
     999903    2    3    3    0    0  0.83526464776E-01 -0.10138194040E+00  0.13156742132E-01  0.13347167625E+00  0.19662663605E-01 0.  0.
         14    1    1    2    0    0  0.14787795841E-02  0.22620434333E-01 -0.24028385509E-02  0.22795711693E-01  0.00000000000E+00 0.  1.
     999901    1    3    3    0    0 -0.85005244360E-01  0.78761506065E-01 -0.10753903582E-01  0.88766261206E+00  0.88000000000E+00 0. -1.
        -11    1    4    4    0    0  0.49619540282E-01 -0.55591698715E-01 -0.18817356548E-02  0.74540846479E-01  0.51100000000E-03 0. -1.
         11    1    4    4    0    0  0.33906924493E-01 -0.45790241683E-01  0.15038477787E-01  0.58930829768E-01  0.51100000000E-03 0.  1.
</event>
<event>
 8    1  0.1052028E+005  0.1043930E+01  0.7957747E-01            NaN
         13   -1    0    0    0    0  0.00000000000E+00  0.00000000000E+00  0.74505805969E-08  0.10566000000E+00  0.10566000000E+00 0.  1.
     999900   -1    0    0    0    0 -0.00000000000E+00 -0.00000000000E+00 -0.74505805969E-08  0.93827000000E+00  0.93827000000E+00 0.  1.
     999902    2    1    2    0    0 -0.21580683268E-01 -0.81115784445E-02 -0.40520031148E-02  0.10205218321E+01  0.10202533349E+01 0.  0.
     999903    2    3    3    0    0 -0.97827193795E-01 -0.88613893294E-01 -0.31526444914E-02  0.13356356819E+00  0.20166944515E-01 0.  0.
         14    1    1    2    0    0  0.21580683268E-01  0.81115784445E-02  0.40520031148E-02  0.23408167900E-01  0.00000000000E+00 0.  1.
     999901    1    3    3    0    0  0.76246510527E-01  0.80502314849E-01 -0.89935862338E-03  0.88695826391E+00  0.88000000000E+00 0.  1.
        -11    1    4    4    0    0 -0.14496916004E-01 -0.68237847290E-02  0.41889880085E-02  0.16569048047E-01  0.51100000000E-03 0.  1.
         11    1    4    4    0    0 -0.83330277792E-01 -0.81790108565E-01 -0.73416325000E-02  0.11699452015E+00  0.51100000000E-03 0. -1.
</event>
<event>
 8    1  0.1052028E+005  0.1043930E+01  0.7957747E-01            NaN
         13   -1    0    0    0    0  0.00000000000E+00  0.00000000000E+00  0.74505805969E-08  0.10566000000E+00  0.10566000000E+00 0.  1.
     999900   -1    0    0    0    0 -0.00000000000E+00 -0.00000000000E+00 -0.74505805969E-08  0.93827000000E+00  0.93827000000E+00 0.  1.
     999902    2    1    2    0    0  0.47748939056E-02 -0.22919327147E-01  0.16612162897E-02  0.10204597037E+01  0.10201897628E+01 0.  0.
     999903    2    3    3    0    0 -0.78373097714E-01 -0.97795533500E-01 -0.37846479063E-01  0.13249523776E+00  0.20404000430E-01 0.  0.
         14    1    1    2    0    0 -0.47748939056E-02  0.22919327147E-01 -0.16612162897E-02  0.23470296296E-01  0.00000000000E+00 0. -1.
     999901    1    3    3    0    0  0.83147991619E-01  0.74876206353E-01  0.39507695353E-01  0.88796446594E+00  0.88000000000E+00 0.  1.
        -11    1    4    4    0    0 -0.79075136274E-02 -0.14139179243E-01 -0.11822178537E-01  0.20061659646E-01  0.51100000000E-03 0. -1.
         11    1    4    4    0    0 -0.70465584086E-01 -0.83656354258E-01 -0.26024300526E-01  0.11243357811E+00  0.51100000000E-03 0.  1.
</event>
<event>
 8    1  0.1052028E+005  0.1043930E+01  0.7957747E-01            NaN
         13   -1    0    0    0    0  0.00000000000E+00  0.00000000000E+00  0.74505805969E-08  0.10566000000E+00  0.10566000000E+00 0. -1.
     999900   -1    0    0    0    0 -0.00000000000E+00 -0.00000000000E+00 -0.74505805969E-08  0.93827000000E+00  0.93827000000E+00 0.  1.
     999902    2    1    2    0    0  0.21694276505E-01  0.25006484769E-02 -0.77360149163E-02  0.10207623328E+01  0.10204993872E+01 0.  0.
     999903    2    3    3    0    0  0.11825550276E+00  0.58146030401E-01 -0.99578720575E-02  0.13373053204E+00  0.20478554643E-01 0.  0.
         14    1    1    2    0    0 -0.21694276505E-01 -0.25006484769E-02  0.77360149163E-02  0.23167667182E-01  0.00000000000E+00 0. -1.
     999901    1    3    3    0    0 -0.96561226251E-01 -0.55645381924E-01  0.22218571412E-02  0.88703180078E+00  0.88000000000E+00 0. -1.
        -11    1    4    4    0    0  0.10559184168E+00  0.57258733284E-01 -0.54244170250E-02  0.12024094555E+00  0.51100000000E-03 0.  1.
         11    1    4    4    0    0  0.12663661076E-01  0.88729711664E-03 -0.45334550324E-02  0.13489586485E-01  0.51100000000E-03 0. -1.
</event>
<event>
 8    1  0.1052028E+005  0.1043930E+01  0.7957747E-01            NaN
         13   -1    0    0    0    0  0.00000000000E+00  0.00000000000E+00  0.74505805969E-08  0.10566000000E+00  0.10566000000E+00 0. -1.
     999900   -1    0    0    0    0 -0.00000000000E+00 -0.00000000000E+00 -0.74505805969E-08  0.93827000000E+00  0.93827000000E+00 0.  1.
     999902    2    1    2    0    0 -0.90337017373E-02 -0.17141824037E-01  0.11862442439E-01  0.10212106814E+01  0.10209579268E+01 0.  0.
     999903    2    3    3    0    0  0.23308599062E-01 -0.21657297850E-01  0.12744603629E+00  0.13305192242E+00  0.21165834579E-01 0.  0.
         14    1    1    2    0    0  0.90337017373E-02  0.17141824037E-01 -0.11862442439E-01  0.22719318630E-01  0.00000000000E+00 0.  1.
     999901    1    3    3    0    0 -0.32342300800E-01  0.45154738129E-02 -0.11558359385E+00  0.88815875895E+00  0.88000000000E+00 0.  1.
        -11    1    4    4    0    0  0.77153887112E-03  0.31894629755E-02  0.43905388622E-02  0.55050793638E-02  0.51100000000E-03 0. -1.
         11    1    4    4    0    0  0.22537060191E-01 -0.24846760825E-01  0.12305549743E+00  0.12754684306E+00  0.51100000000E-03 0.  1.
</event>
<event>
 8    1  0.1052028E+005  0.1043930E+01  0.7957747E-01            NaN
         13   -1    0    0    0    0  0.00000000000E+00  0.00000000000E+00  0.74505805969E-08  0.10566000000E+00  0.10566000000E+00 0. -1.
     999900   -1    0    0    0    0 -0.00000000000E+00 -0.00000000000E+00 -0.74505805969E-08  0.93827000000E+00  0.93827000000E+00 0. -1.
     999902    2    1    2    0    0 -0.10970593856E-01 -0.18498583775E-01  0.95403314342E-02  0.10204019432E+01  0.10201306565E+01 0.  0.
     999903    2    3    3    0    0  0.11721574796E+00  0.27114975839E-01  0.43019054247E-01  0.12931656016E+00  0.19934397860E-01 0.  0.
         14    1    1    2    0    0  0.10970593856E-01  0.18498583775E-01 -0.95403314342E-02  0.23528056764E-01  0.00000000000E+00 0. -1.
     999901    1    3    3    0    0 -0.12818634182E+00 -0.45613559614E-01 -0.33478722813E-01  0.89108538308E+00  0.88000000000E+00 0.  1.
        -11    1    4    4    0    0  0.71573364439E-01  0.14147049439E-01  0.15935797937E-01  0.74679959037E-01  0.51100000000E-03 0. -1.
         11    1    4    4    0    0  0.45642383525E-01  0.12967926401E-01  0.27083256311E-01  0.54636601124E-01  0.51100000000E-03 0.  1.
</event>
<event>
 8    1  0.1052028E+005  0.1043930E+01  0.7957747E-01            NaN
         13   -1    0    0    0    0  0.00000000000E+00  0.00000000000E+00  0.74505805969E-08  0.10566000000E+00  0.10566000000E+00 0. -1.
     999900   -1    0    0    0    0 -0.00000000000E+00 -0.00000000000E+00 -0.74505805969E-08  0.93827000000E+00  0.93827000000E+00 0.  1.
     999902    2    1    2    0    0  0.20510555045E-02  0.94911018904E-03 -0.20005113549E-01  0.10237976329E+01  0.10235996682E+01 0.  0.
     999903    2    3    3    0    0 -0.32705997120E-01  0.54985219917E-02  0.12521694748E+00  0.13120691093E+00  0.20881895206E-01 0.  0.
         14    1    1    2    0    0 -0.20510555045E-02 -0.94911018904E-03  0.20005113549E-01  0.20132367147E-01  0.00000000000E+00 0. -1.
     999901    1    3    3    0    0  0.34757052624E-01 -0.45494118026E-02 -0.14522206103E+00  0.89259072192E+00  0.88000000000E+00 0.  1.
        -11    1    4    4    0    0 -0.14584791672E-01  0.10907560527E-01  0.82505716200E-01  0.84493463365E-01  0.51100000000E-03 0.  1.
         11    1    4    4    0    0 -0.18121205448E-01 -0.54090385354E-02  0.42711231280E-01  0.46713447563E-01  0.51100000000E-03 0. -1.
</event>
<event>
 8    1  0.1052028E+005  0.1043930E+01  0.7957747E-01            NaN
         13   -1    0    0    0    0  0.00000000000E+00  0.00000000000E+00  0.74505805969E-08  0.10566000000E+00  0.10566000000E+00 0.  1.
     999900   -1    0    0    0    0 -0.00000000000E+00 -0.00000000000E+00 -0.74505805969E-08  0.93827000000E+00  0.93827000000E+00 0. -1.
     999902    2    1    2    0    0  0.10218435413E-02  0.11146132061E-01 -0.50606547140E-02  0.10316462445E+01  0.10315731109E+01 0.  0.
     999903    2    3    3    0    0  0.12873739096E+00 -0.28663874976E-01  0.43448046368E-01  0.14021526463E+00  0.19433325521E-01 0.  0.
         14    1    1    2    0    0 -0.10218435413E-02 -0.11146132061E-01  0.50606547140E-02  0.12283755545E-01  0.00000000000E+00 0.  1.
     999901    1    3    3    0    0 -0.12771554742E+00  0.39810007037E-01 -0.48508701082E-01  0.89143097983E+00  0.88000000000E+00 0. -1.
        -11    1    4    4    0    0  0.39289920287E-01 -0.97001615489E-03  0.17666096435E-01  0.43092816707E-01  0.51100000000E-03 0.  1.
         11    1    4    4    0    0  0.89447470677E-01 -0.27693858821E-01  0.25781949932E-01  0.97122447921E-01  0.51100000000E-03 0. -1.
</event>
<event>
 8    1  0.1052028E+005  0.1043930E+01  0.7957747E-01            NaN
         13   -1    0    0    0    0  0.00000000000E+00  0.00000000000E+00  0.74505805969E-08  0.10566000000E+00  0.10566000000E+00 0. -1.
     999900   -1    0    0    0    0 -0.00000000000E+00 -0.00000000000E+00 -0.74505805969E-08  0.93827000000E+00  0.93827000000E+00 0. -1.
     999902    2    1    2    0    0 -0.16266545052E-04  0.20595352935E-01  0.99953193829E-02  0.10210373104E+01  0.10207806395E+01 0.  0.
     999903    2    3    3    0    0 -0.67608405906E-01 -0.93319800249E-01  0.56412750094E-01  0.12991445844E+00  0.20393294757E-01 0.  0.
         14    1    1    2    0    0  0.16266545052E-04 -0.20595352935E-01 -0.99953193829E-02  0.22892689590E-01  0.00000000000E+00 0.  1.
     999901    1    3    3    0    0  0.67592139361E-01  0.11391515318E+00 -0.46417430711E-01  0.89112285197E+00  0.88000000000E+00 0.  1.
        -11    1    4    4    0    0 -0.15134792580E-01 -0.37306675751E-01  0.20217074354E-01  0.45053759205E-01  0.51100000000E-03 0.  1.
         11    1    4    4    0    0 -0.52473613326E-01 -0.56013124497E-01  0.36195675740E-01  0.84860699235E-01  0.51100000000E-03 0. -1.
</event>
<event>
 8    1  0.1052028E+005  0.1043930E+01  0.7957747E-01            NaN
         13   -1    0    0    0    0  0.00000000000E+00  0.00000000000E+00  0.74505805969E-08  0.10566000000E+00  0.10566000000E+00 0. -1.
     999900   -1    0    0    0    0 -0.00000000000E+00 -0.00000000000E+00 -0.74505805969E-08  0.93827000000E+00  0.93827000000E+00 0.  1.
     999902    2    1    2    0    0  0.21748606046E-01  0.11835023899E-01  0.42813149601E-03  0.10191660554E+01  0.10188651508E+01 0.  0.
     999903    2    3    3    0    0  0.13423432409E-01  0.11319120473E+00  0.62081985814E-01  0.13116629095E+00  0.18920506124E-01 0.  0.
         14    1    1    2    0    0 -0.21748606046E-01 -0.11835023899E-01 -0.42813149601E-03  0.24763944601E-01  0.00000000000E+00 0. -1.
     999901    1    3    3    0    0  0.83251736368E-02 -0.10135618084E+00 -0.61653854318E-01  0.88799976445E+00  0.88000000000E+00 0.  1.
        -11    1    4    4    0    0 -0.33370944652E-02  0.23664838854E-01  0.78500099514E-02  0.25160377078E-01  0.51100000000E-03 0. -1.
         11    1    4    4    0    0  0.16760526874E-01  0.89526365880E-01  0.54231975863E-01  0.10600591387E+00  0.51100000000E-03 0.  1.
</event>
<event>
 8    1  0.1052028E+005  0.1043930E+01  0.7957747E-01            NaN
         13   -1    0    0    0    0  0.00000000000E+00  0.00000000000E+00  0.74505805969E-08  0.10566000000E+00  0.10566000000E+00 0. -1.
     999900   -1    0    0    0    0 -0.00000000000E+00 -0.00000000000E+00 -0.74505805969E-08  0.93827000000E+00  0.93827000000E+00 0.  1.
     999902    2    1    2    0    0  0.11169405454E-01 -0.20968720661E-03  0.20577698756E-01  0.10205154474E+01  0.10202468021E+01 0.  0.
     999903    2    3    3    0    0  0.63118988462E-01 -0.10032996247E+00 -0.50704949612E-01  0.13045699728E+00  0.19948136495E-01 0.  0.
         14    1    1    2    0    0 -0.11169405454E-01  0.20968720661E-03 -0.20577698756E-01  0.23414552591E-01  0.00000000000E+00 0. -1.
     999901    1    3    3    0    0 -0.51949583009E-01  0.10012027526E+00  0.71282648368E-01  0.89005845013E+00  0.88000000000E+00 0. -1.
        -11    1    4    4    0    0  0.10570318451E-01 -0.33560760126E-01 -0.13303460856E-01  0.37620465762E-01  0.51100000000E-03 0.  1.
         11    1    4    4    0    0  0.52548670011E-01 -0.66769202344E-01 -0.37401488756E-01  0.92836531515E-01  0.51100000000E-03 0. -1.
</event>
<event>
 8    1  0.1052028E+005  0.1043930E+01  0.7957747E-01            NaN
         13   -1    0    0    0    0  0.00000000000E+00  0.00000000000E+00  0.74505805969E-08  0.10566000000E+00  0.10566000000E+00 0.  1.
     999900   -1    0    0    0    0 -0.00000000000E+00 -0.00000000000E+00 -0.74505805969E-08  0.93827000000E+00  0.93827000000E+00 0.  1.
     999902    2    1    2    0    0  0.90518906653E-02 -0.11514760675E-01  0.18539296396E-01  0.10203030673E+01  0.10200294688E+01 0.  0.
     999903    2    3    3    0    0 -0.66258547789E-01 -0.33124583743E-02  0.11248849359E+00  0.13206582897E+00  0.19660988134E-01 0.  0.
         14    1    1    2    0    0 -0.90518906653E-02  0.11514760675E-01 -0.18539296396E-01  0.23626932702E-01  0.00000000000E+00 0. -1.
     999901    1    3    3    0    0  0.75310438454E-01 -0.82023023005E-02 -0.93949197198E-01  0.88823723833E+00  0.88000000000E+00 0.  1.
        -11    1    4    4    0    0 -0.31924398715E-01  0.70628749868E-02  0.44866396631E-01  0.55518520369E-01  0.51100000000E-03 0. -1.
         11    1    4    4    0    0 -0.34334149074E-01 -0.10375333361E-01  0.67622096963E-01  0.76547308599E-01  0.51100000000E-03 0.  1.
</event>
<event>
 8    1  0.1052028E+005  0.1043930E+01  0.7957747E-01            NaN
         13   -1    0    0    0    0  0.00000000000E+00  0.00000000000E+00  0.74505805969E-08  0.10566000000E+00  0.10566000000E+00 0.  1.
     999900   -1    0    0    0    0 -0.00000000000E+00 -0.00000000000E+00 -0.74505805969E-08  0.93827000000E+00  0.93827000000E+00 0.  1.
     999902    2    1    2    0    0  0.15505629565E-01  0.57466699414E-02 -0.16292499295E-01  0.10207159031E+01  0.10204518903E+01 0.  0.
     999903    2    3    3    0    0 -0.28426558218E-02 -0.12795937897E+00 -0.14609962912E-01  0.13042561443E+00  0.20388882413E-01 0.  0.
         14    1    1    2    0    0 -0.15505629565E-01 -0.57466699414E-02  0.16292499295E-01  0.23214096944E-01  0.00000000000E+00 0.  1.
     999901    1    3    3    0    0  0.18348285387E-01  0.13370604891E+00 -0.16825363831E-02  0.89029028862E+00  0.88000000000E+00 0.  1.
        -11    1    4    4    0    0  0.38195112967E-02 -0.87893920004E-01 -0.23989787654E-02  0.88011056466E-01  0.51100000000E-03 0.  1.
         11    1    4    4    0    0 -0.66621671185E-02 -0.40065458962E-01 -0.12210984147E-01  0.42414557966E-01  0.51100000000E-03 0. -1.
</event>
<event>
 8    1  0.1052028E+005  0.1043930E+01  0.7957747E-01            NaN
         13   -1    0    0    0    0  0.00000000000E+00  0.00000000000E+00  0.74505805969E-08  0.10566000000E+00  0.10566000000E+00 0. -1.
     999900   -1    0    0    0    0 -0.00000000000E+00 -0.00000000000E+00 -0.74505805969E-08  0.93827000000E+00  0.93827000000E+00 0. -1.
     999902    2    1    2    0    0 -0.10021184831E-01 -0.19027623479E-01  0.12738720856E-01  0.10189350083E+01  0.10186283923E+01 0.  0.
     999903    2    3    3    0    0 -0.11458434718E+00 -0.24755642578E-01  0.56599185623E-01  0.13164136723E+00  0.19584874155E-01 0.  0.
         14    1    1    2    0    0  0.10021184831E-01  0.19027623479E-01 -0.12738720856E-01  0.24994991693E-01  0.00000000000E+00 0. -1.
     999901    1    3    3    0    0  0.10456316235E+00  0.57280190982E-02 -0.43860464767E-01  0.88729364108E+00  0.88000000000E+00 0. -1.
        -11    1    4    4    0    0 -0.90576347373E-01 -0.11322493895E-01  0.41790988322E-01  0.10039432951E+00  0.51100000000E-03 0. -1.
         11    1    4    4    0    0 -0.24007999806E-01 -0.13433148683E-01  0.14808197300E-01  0.31247037723E-01  0.51100000000E-03 0.  1.
</event>
<event>
 8    1  0.1052028E+005  0.1043930E+01  0.7957747E-01            NaN
         13   -1    0    0    0    0  0.00000000000E+00  0.00000000000E+00  0.74505805969E-08  0.10566000000E+00  0.10566000000E+00 0.  1.
     999900   -1    0    0    0    0 -0.00000000000E+00 -0.00000000000E+00 -0.74505805969E-08  0.93827000000E+00  0.93827000000E+00 0. -1.
     999902    2    1    2    0    0  0.97352576515E-02 -0.23124272551E-01 -0.37567670529E-02  0.10185603228E+01  0.10182443276E+01 0.  0.
     999903    2    3    3    0    0  0.11103894552E+00  0.54260147024E-01  0.30003288038E-01  0.12873420108E+00  0.19962120599E-01 0.  0.
         14    1    1    2    0    0 -0.97352576515E-02  0.23124272551E-01  0.37567670529E-02  0.25369677200E-01  0.00000000000E+00 0.  1.
     999901    1    3    3    0    0 -0.10130368787E+00 -0.77384419575E-01 -0.33760055091E-01  0.88982612172E+00  0.88000000000E+00 0. -1.
        -11    1    4    4    0    0  0.11853951013E-01  0.97198632862E-02  0.96400458981E-02  0.18115835692E-01  0.51100000000E-03 0.  1.
         11    1    4    4    0    0  0.99184994505E-01  0.44540283737E-01  0.20363242140E-01  0.11061836539E+00  0.51100000000E-03 0. -1.
</event>
<event>
 8    1  0.1052028E+005  0.1043930E+01  0.7957747E-01            NaN
         13   -1    0    0    0    0  0.00000000000E+00  0.00000000000E+00  0.74505805969E-08  0.10566000000E+00  0.10566000000E+00 0. -1.
     999900   -1    0    0    0    0 -0.00000000000E+00 -0.00000000000E+00 -0.74505805969E-08  0.93827000000E+00  0.93827000000E+00 0. -1.
     999902    2    1    2    0    0  0.16029421573E-01  0.48805071517E-02  0.16836104307E-01  0.10201767662E+01  0.10199002001E+01 0.  0.
     999903    2    3    3    0    0 -0.58296132499E-01 -0.11186500334E+00 -0.15868344172E-01  0.12876026249E+00  0.20376035221E-01 0.  0.
         14    1    1    2    0    0 -0.16029421573E-01 -0.48805071517E-02 -0.16836104307E-01  0.23753233764E-01  0.00000000000E+00 0.  1.
     999901    1    3    3    0    0  0.74325554072E-01  0.11674551049E+00  0.32704448479E-01  0.89141650375E+00  0.88000000000E+00 0. -1.
        -11    1    4    4    0    0 -0.34324391802E-01 -0.46852376962E-01 -0.21503287737E-02  0.58122234423E-01  0.51100000000E-03 0.  1.
         11    1    4    4    0    0 -0.23971740697E-01 -0.65012626381E-01 -0.13718015399E-01  0.70638028062E-01  0.51100000000E-03 0. -1.
</event>
<event>
 8    1  0.1052028E+005  0.1043930E+01  0.7957747E-01            NaN
         13   -1    0    0    0    0  0.00000000000E+00  0.00000000000E+00  0.74505805969E-08  0.10566000000E+00  0.10566000000E+00 0.  1.
     999900   -1    0    0    0    0 -0.00000000000E+00 -0.00000000000E+00 -0.74505805969E-08  0.93827000000E+00  0.93827000000E+00 0.  1.
     999902    2    1    2    0    0  0.50945859035E-02 -0.89131934871E-02  0.21121810202E-01  0.10204453095E+01  0.10201750335E+01 0.  0.
     999903    2    3    3    0    0  0.59681193689E-01  0.62567487914E-01  0.98388691319E-01  0.13249297038E+00  0.19937833266E-01 0.  0.
         14    1    1    2    0    0 -0.50945859035E-02  0.89131934871E-02 -0.21121810202E-01  0.23484690542E-01  0.00000000000E+00 0. -1.
     999901    1    3    3    0    0 -0.54586607786E-01 -0.71480681402E-01 -0.77266881118E-01  0.88795233908E+00  0.88000000000E+00 0. -1.
        -11    1    4    4    0    0  0.43346693454E-01  0.36533664736E-01  0.52540564631E-01  0.77294350021E-01  0.51100000000E-03 0.  1.
         11    1    4    4    0    0  0.16334500235E-01  0.26033823178E-01  0.45848126689E-01  0.55198620355E-01  0.51100000000E-03 0. -1.
</event>
<event>
 8    1  0.1052028E+005  0.1043930E+01  0.7957747E-01            NaN
         13   -1    0    0    0    0  0.00000000000E+00  0.00000000000E+00  0.74505805969E-08  0.10566000000E+00  0.10566000000E+00 0.  1.
     999900   -1    0    0    0    0 -0.00000000000E+00 -0.00000000000E+00 -0.74505805969E-08  0.93827000000E+00  0.93827000000E+00 0.  1.
     999902    2    1    2    0    0  0.14942958587E-02  0.36887042570E-02  0.25002519083E-01  0.10186127051E+01  0.10182980299E+01 0.  0.
     999903    2    3    3    0    0 -0.58424356509E-01 -0.67876067032E-01  0.93148857203E-01  0.13105668729E+00  0.21876466286E-01 0.  0.
         14    1    1    2    0    0 -0.14942958587E-02 -0.36887042570E-02 -0.25002519083E-01  0.25317294874E-01  0.00000000000E+00 0. -1.
     999901    1    3    3    0    0  0.59918652368E-01  0.71564771288E-01 -0.68146338120E-01  0.88755601783E+00  0.88000000000E+00 0.  1.
        -11    1    4    4    0    0 -0.45414519308E-01 -0.44963062325E-01  0.52977073859E-01  0.83011969097E-01  0.51100000000E-03 0.  1.
         11    1    4    4    0    0 -0.13009837201E-01 -0.22913004706E-01  0.40171783343E-01  0.48044718197E-01  0.51100000000E-03 0. -1.
</event>
<event>
 8    1  0.1052028E+005  0.1043930E+01  0.7957747E-01            NaN
         13   -1    0    0    0    0  0.00000000000E+00  0.00000000000E+00  0.74505805969E-08  0.10566000000E+00  0.10566000000E+00 0.  1.
     999900   -1    0    0    0    0 -0.00000000000E+00 -0.00000000000E+00 -0.74505805969E-08  0.93827000000E+00  0.93827000000E+00 0.  1.
     999902    2    1    2    0    0  0.40938657060E-02  0.15080344065E-01  0.24391651375E-01  0.10149622736E+01  0.10145488099E+01 0.  0.
     999903    2    3    3    0    0 -0.46689973109E-01 -0.11154228724E+00 -0.15469594063E-01  0.12355820817E+00  0.20141674084E-01 0.  0.
         14    1    1    2    0    0 -0.40938657060E-02 -0.15080344065E-01 -0.24391651375E-01  0.28967726358E-01  0.00000000000E+00 0. -1.
     999901    1    3    3    0    0  0.50783838815E-01  0.12662263131E+00  0.39861245438E-01  0.89140406547E+00  0.88000000000E+00 0. -1.
        -11    1    4    4    0    0 -0.13888359976E-01 -0.56171555342E-01 -0.12059626103E-01  0.59108593919E-01  0.51100000000E-03 0.  1.
         11    1    4    4    0    0 -0.32801613133E-01 -0.55370731900E-01 -0.34099679601E-02  0.64449614256E-01  0.51100000000E-03 0. -1.
</event>
<event>
 8    1  0.1052028E+005  0.1043930E+01  0.7957747E-01            NaN
         13   -1    0    0    0    0  0.00000000000E+00  0.00000000000E+00  0.74505805969E-08  0.10566000000E+00  0.10566000000E+00 0. -1.
     999900   -1    0    0    0    0 -0.00000000000E+00 -0.00000000000E+00 -0.74505805969E-08  0.93827000000E+00  0.93827000000E+00 0. -1.
     999902    2    1    2    0    0  0.16666099784E-01  0.13793591494E-01  0.94600383423E-02  0.10203182577E+01  0.10200450150E+01 0.  0.
     999903    2    3    3    0    0  0.42028567695E-01 -0.68251046626E-01 -0.99812343801E-01  0.12941139899E+00  0.18978944792E-01 0.  0.
         14    1    1    2    0    0 -0.16666099784E-01 -0.13793591494E-01 -0.94600383423E-02  0.23611742285E-01  0.00000000000E+00 0.  1.
     999901    1    3    3    0    0 -0.25362467910E-01  0.82044638120E-01  0.10927238214E+00  0.89090685872E+00  0.88000000000E+00 0.  1.
        -11    1    4    4    0    0 -0.85332840331E-03 -0.59847056272E-02 -0.36270939442E-02  0.70683663097E-02  0.51100000000E-03 0. -1.
         11    1    4    4    0    0  0.42881896098E-01 -0.62266340999E-01 -0.96185249857E-01  0.12234303268E+00  0.51100000000E-03 0.  1.
</event>
<event>
 8    1  0.1052028E+005  0.1043930E+01  0.7957747E-01            NaN
         13   -1    0    0    0    0  0.00000000000E+00  0.00000000000E+00  0.74505805969E-08  0.10566000000E+00  0.10566000000E+00 0. -1.
     999900   -1    0    0    0    0 -0.00000000000E+00 -0.00000000000E+00 -0.74505805969E-08  0.93827000000E+00  0.93827000000E+00 0. -1.
     999902    2    1    2    0    0 -0.21589400141E-01 -0.15940258028E-01  0.54372311599E-02  0.10165482998E+01  0.10161794567E+01 0.  0.
     999903    2    3    3    0    0  0.22718424438E-01 -0.82915931274E-01 -0.91590772489E-01  0.12758072015E+00  0.22288833126E-01 0.  0.
         14    1    1    2    0    0  0.21589400141E-01  0.15940258028E-01 -0.54372311599E-02  0.27381700224E-01  0.00000000000E+00 0.  1.
     999901    1    3    3    0    0 -0.44307824579E-01  0.66975673246E-01  0.97028003649E-01  0.88896757962E+00  0.88000000000E+00 0.  1.
        -11    1    4    4    0    0  0.70108245020E-02 -0.12455203620E-01 -0.27710781983E-01  0.31183847045E-01  0.51100000000E-03 0.  1.
         11    1    4    4    0    0  0.15707599936E-01 -0.70460727654E-01 -0.63879990506E-01  0.96396873110E-01  0.51100000000E-03 0. -1.
</event>
<event>
 8    1  0.1052028E+005  0.1043930E+01  0.7957747E-01            NaN
         13   -1    0    0    0    0  0.00000000000E+00  0.00000000000E+00  0.74505805969E-08  0.10566000000E+00  0.10566000000E+00 0.  1.
     999900   -1    0    0    0    0 -0.00000000000E+00 -0.00000000000E+00 -0.74505805969E-08  0.93827000000E+00  0.93827000000E+00 0.  1.
     999902    2    1    2    0    0 -0.60946065566E-03  0.20459664298E-01 -0.11085019596E-01  0.10206523935E+01  0.10203869175E+01 0.  0.
     999903    2    3    3    0    0 -0.43848154439E-01 -0.73544080651E-01  0.93649545382E-01  0.12842169585E+00  0.19761127713E-01 0.  0.
         14    1    1    2    0    0  0.60946065566E-03 -0.20459664298E-01  0.11085019596E-01  0.23277606512E-01  0.00000000000E+00 0.  1.
     999901    1    3    3    0    0  0.43238693783E-01  0.94003744949E-01 -0.10473456498E+00  0.89223069764E+00  0.88000000000E+00 0.  1.
        -11    1    4    4    0    0 -0.36878353484E-01 -0.43530136794E-01  0.60250039679E-01  0.82977190645E-01  0.51100000000E-03 0. -1.
         11    1    4    4    0    0 -0.69698009545E-02 -0.30013943857E-01  0.33399505703E-01  0.45444505206E-01  0.51100000000E-03 0.  1.
</event>
<event>
 8    1  0.1052028E+005  0.1043930E+01  0.7957747E-01            NaN
         13   -1    0    0    0    0  0.00000000000E+00  0.00000000000E+00  0.74505805969E-08  0.10566000000E+00  0.10566000000E+00 0.  1.
     999900   -1    0    0    0    0 -0.00000000000E+00 -0.00000000000E+00 -0.74505805969E-08  0.93827000000E+00  0.93827000000E+00 0. -1.
     999902    2    1    2    0    0  0.22139482043E-01  0.81581922507E-02 -0.41617066450E-03  0.10203315686E+01  0.10200586375E+01 0.  0.
     999903    2    3    3    0    0 -0.53182522219E-01 -0.11465481288E+00 -0.10156531717E-01  0.12856292530E+00  0.21240617720E-01 0.  0.
         14    1    1    2    0    0 -0.22139482043E-01 -0.81581922507E-02  0.41617066450E-03  0.23598431388E-01  0.00000000000E+00 0.  1.
     999901    1    3    3    0    0  0.75322004262E-01  0.12281300513E+00  0.97403610523E-02  0.89176864331E+00  0.88000000000E+00 0.  1.
        -11    1    4    4    0    0 -0.98239142003E-02 -0.25339168923E-01 -0.10872035818E-01  0.29275331864E-01  0.51100000000E-03 0.  1.
         11    1    4    4    0    0 -0.43358608019E-01 -0.89315643952E-01  0.71550410116E-03  0.99287593440E-01  0.51100000000E-03 0. -1.
</event>
<event>
 8    1  0.1052028E+005  0.1043930E+01  0.7957747E-01            NaN
         13   -1    0    0    0    0  0.00000000000E+00  0.00000000000E+00  0.74505805969E-08  0.10566000000E+00  0.10566000000E+00 0. -1.
     999900   -1    0    0    0    0 -0.00000000000E+00 -0.00000000000E+00 -0.74505805969E-08  0.93827000000E+00  0.93827000000E+00 0. -1.
     999902    2    1    2    0    0  0.15541299988E-01  0.16838027071E-01  0.99652898837E-03  0.10209943459E+01  0.10207366997E+01 0.  0.
     999903    2    3    3    0    0  0.10656373998E+00  0.76463947999E-01 -0.17876547528E-01  0.13409157326E+00  0.21410582536E-01 0.  0.
         14    1    1    2    0    0 -0.15541299988E-01 -0.16838027071E-01 -0.99652898837E-03  0.22935654143E-01  0.00000000000E+00 0.  1.
     999901    1    3    3    0    0 -0.91022439993E-01 -0.59625920928E-01  0.18873076516E-01  0.88690277260E+00  0.88000000000E+00 0.  1.
        -11    1    4    4    0    0  0.51157799411E-01  0.49564329419E-01 -0.74191879255E-02  0.71617376815E-01  0.51100000000E-03 0. -1.
         11    1    4    4    0    0  0.55405940570E-01  0.26899618580E-01 -0.10457359603E-01  0.62474196442E-01  0.51100000000E-03 0.  1.
</event>
<event>
 8    1  0.1052028E+005  0.1043930E+01  0.7957747E-01            NaN
         13   -1    0    0    0    0  0.00000000000E+00  0.00000000000E+00  0.74505805969E-08  0.10566000000E+00  0.10566000000E+00 0. -1.
     999900   -1    0    0    0    0 -0.00000000000E+00 -0.00000000000E+00 -0.74505805969E-08  0.93827000000E+00  0.93827000000E+00 0.  1.
     999902    2    1    2    0    0 -0.27989801566E-01  0.26841891344E-02 -0.49037556599E-02  0.10153873883E+01  0.10149861416E+01 0.  0.
     999903    2    3    3    0    0  0.34335404960E-01  0.71898052747E-01 -0.95371242311E-01  0.12585978534E+00  0.19918877576E-01 0.  0.
         14    1    1    2    0    0  0.27989801566E-01 -0.26841891344E-02  0.49037556599E-02  0.28542611699E-01  0.00000000000E+00 0. -1.
     999901    1    3    3    0    0 -0.62325206526E-01 -0.69213863613E-01  0.90467486651E-01  0.88952760296E+00  0.88000000000E+00 0. -1.
        -11    1    4    4    0    0  0.33368817375E-01  0.57974022944E-01 -0.69519573995E-01  0.96476409546E-01  0.51100000000E-03 0.  1.
         11    1    4    4    0    0  0.96658758548E-03  0.13924029803E-01 -0.25851668316E-01  0.29383375797E-01  0.51100000000E-03 0. -1.
</event>
<event>
 8    1  0.1052028E+005  0.1043930E+01  0.7957747E-01            NaN
         13   -1    0    0    0    0  0.00000000000E+00  0.00000000000E+00  0.74505805969E-08  0.10566000000E+00  0.10566000000E+00 0. -1.
     999900   -1    0    0    0    0 -0.00000000000E+00 -0.00000000000E+00 -0.74505805969E-08  0.93827000000E+00  0.93827000000E+00 0. -1.
     999902    2    1    2    0    0 -0.11665529534E-01 -0.35644332813E-02 -0.18521846829E-01  0.10217523407E+01  0.10215116236E+01 0.  0.
     999903    2    3    3    0    0 -0.10234766171E+00 -0.68138502366E-01 -0.49739154224E-01  0.13418962187E+00  0.20370856478E-01 0.  0.
         14    1    1    2    0    0  0.11665529534E-01  0.35644332813E-02  0.18521846829E-01  0.22177659342E-01  0.00000000000E+00 0.  1.
     999901    1    3    3    0    0  0.90682132176E-01  0.64574069085E-01  0.31217307395E-01  0.88756271878E+00  0.88000000000E+00 0.  1.
        -11    1    4    4    0    0 -0.50599599091E-01 -0.45723848278E-01 -0.25650882358E-01  0.72864385102E-01  0.51100000000E-03 0.  1.
         11    1    4    4    0    0 -0.51748062619E-01 -0.22414654088E-01 -0.24088271866E-01  0.61325236773E-01  0.51100000000E-03 0. -1.
</event>
<event>
 8    1  0.1052028E+005  0.1043930E+01  0.7957747E-01            NaN
         13   -1    0    0    0    0  0.00000000000E+00  0.00000000000E+00  0.74505805969E-08  0.10566000000E+00  0.10566000000E+00 0. -1.
     999900   -1    0    0    0    0 -0.00000000000E+00 -0.00000000000E+00 -0.74505805969E-08  0.93827000000E+00  0.93827000000E+00 0. -1.
     999902    2    1    2    0    0 -0.34338273215E-02  0.94536096299E-02 -0.21507658309E-01  0.10201867637E+01  0.10199104331E+01 0.  0.
     999903    2    3    3    0    0 -0.80895943853E-01 -0.80417993615E-01 -0.61535759761E-01  0.13132258200E+00  0.21160420231E-01 0.  0.
         14    1    1    2    0    0  0.34338273215E-02 -0.94536096299E-02  0.21507658309E-01  0.23743236322E-01  0.00000000000E+00 0. -1.
     999901    1    3    3    0    0  0.77462116531E-01  0.89871603245E-01  0.40028101452E-01  0.88886418168E+00  0.88000000000E+00 0.  1.
        -11    1    4    4    0    0 -0.29941640697E-01 -0.41237567438E-01 -0.19753935635E-01  0.54658191609E-01  0.51100000000E-03 0.  1.
         11    1    4    4    0    0 -0.50954303156E-01 -0.39180426177E-01 -0.41781824126E-01  0.76664390389E-01  0.51100000000E-03 0. -1.
</event>
<event>
 8    1  0.1052028E+005  0.1043930E+01  0.7957747E-01            NaN
         13   -1    0    0    0    0  0.00000000000E+00  0.00000000000E+00  0.74505805969E-08  0.10566000000E+00  0.10566000000E+00 0.  1.
     999900   -1    0    0    0    0 -0.00000000000E+00 -0.00000000000E+00 -0.74505805969E-08  0.93827000000E+00  0.93827000000E+00 0.  1.
     999902    2    1    2    0    0 -0.15928565493E-01  0.12145268188E-01  0.13969104243E-01  0.10195094633E+01  0.10192169461E+01 0.  0.
     999903    2    3    3    0    0 -0.10146004880E+00  0.65773426640E-01 -0.47810243379E-01  0.13158587325E+00  0.20217257823E-01 0.  0.
         14    1    1    2    0    0  0.15928565493E-01 -0.12145268188E-01 -0.13969104243E-01  0.24420536672E-01  0.00000000000E+00 0. -1.
     999901    1    3    3    0    0  0.85531483307E-01 -0.53628158452E-01  0.61779347622E-01  0.88792359007E+00  0.88000000000E+00 0. -1.
        -11    1    4    4    0    0 -0.18102779132E-01  0.63712050369E-02 -0.15545413100E-02  0.19260856305E-01  0.51100000000E-03 0. -1.
         11    1    4    4    0    0 -0.83357269667E-01  0.59402221603E-01 -0.46255702069E-01  0.11232501695E+00  0.51100000000E-03 0.  1.
</event>
<event>
 8    1  0.1052028E+005  0.1043930E+01  0.7957747E-01            NaN
         13   -1    0    0    0    0  0.00000000000E+00  0.00000000000E+00  0.74505805969E-08  0.10566000000E+00  0.10566000000E+00 0. -1.
     999900   -1    0    0    0    0 -0.00000000000E+00 -0.00000000000E+00 -0.74505805969E-08  0.93827000000E+00  0.93827000000E+00 0.  1.
     999902    2    1    2    0    0 -0.18502777954E-01  0.63744680519E-03 -0.13922468595E-01  0.10207654956E+01  0.10205026226E+01 0.  0.
     999903    2    3    3    0    0  0.75610333654E-01  0.16089109501E-01  0.10039487811E+00  0.12826088085E+00  0.19898241304E-01 0.  0.
         14    1    1    2    0    0  0.18502777954E-01 -0.63744680519E-03  0.13922468595E-01  0.23164504360E-01  0.00000000000E+00 0. -1.
     999901    1    3    3    0    0 -0.94113111609E-01 -0.15451662696E-01 -0.11431734670E+00  0.89250461479E+00  0.88000000000E+00 0. -1.
        -11    1    4    4    0    0  0.45308862139E-01  0.19003200241E-01  0.57061500326E-01  0.75301331650E-01  0.51100000000E-03 0. -1.
         11    1    4    4    0    0  0.30301471515E-01 -0.29140907397E-02  0.43333377784E-01  0.52959549204E-01  0.51100000000E-03 0.  1.
</event>
<event>
 8    1  0.1052028E+005  0.1043930E+01  0.7957747E-01            NaN
         13   -1    0    0    0    0  0.00000000000E+00  0.00000000000E+00  0.74505805969E-08  0.10566000000E+00  0.10566000000E+00 0.  1.
     999900   -1    0    0    0    0 -0.00000000000E+00 -0.00000000000E+00 -0.74505805969E-08  0.93827000000E+00  0.93827000000E+00 0. -1.
     999902    2    1    2    0    0 -0.13529576467E-01 -0.18799973554E-01  0.46655522523E-02  0.10203025621E+01  0.10200289517E+01 0.  0.
     999903    2    3    3    0    0 -0.41994662025E-01 -0.91096663673E-01 -0.83804813795E-01  0.13246018971E+00  0.21454632887E-01 0.  0.
         14    1    1    2    0    0  0.13529576467E-01  0.18799973554E-01 -0.46655522523E-02  0.23627437924E-01  0.00000000000E+00 0.  1.
     999901    1    3    3    0    0  0.28465085558E-01  0.72296690118E-01  0.88470366047E-01  0.88784237236E+00  0.88000000000E+00 0.  1.
        -11    1    4    4    0    0 -0.12914444244E-01 -0.10018841741E-01 -0.15446278941E-01  0.22494637452E-01  0.51100000000E-03 0.  1.
         11    1    4    4    0    0 -0.29080217781E-01 -0.81077821932E-01 -0.68358534854E-01  0.10996555226E+00  0.51100000000E-03 0. -1.
</event>
<event>
 8    1  0.1052028E+005  0.1043930E+01  0.7957747E-01            NaN
         13   -1    0    0    0    0  0.00000000000E+00  0.00000000000E+00  0.74505805969E-08  0.10566000000E+00  0.10566000000E+00 0. -1.
     999900   -1    0    0    0    0 -0.00000000000E+00 -0.00000000000E+00 -0.74505805969E-08  0.93827000000E+00  0.93827000000E+00 0.  1.
     999902    2    1    2    0    0 -0.19999282970E-01 -0.16324499288E-02 -0.12470092804E-01  0.10203050254E+01  0.10200314727E+01 0.  0.
     999903    2    3    3    0    0 -0.30851319127E-01 -0.83202088780E-01 -0.95894430804E-01  0.13253760490E+00  0.22272929378E-01 0.  0.
         14    1    1    2    0    0  0.19999282970E-01  0.16324499288E-02  0.12470092804E-01  0.23624974638E-01  0.00000000000E+00 0. -1.
     999901    1    3    3    0    0  0.10852036157E-01  0.81569638851E-01  0.83424338000E-01  0.88776742047E+00  0.88000000000E+00 0. -1.
        -11    1    4    4    0    0 -0.74668518964E-02 -0.44715301511E-01 -0.58421803862E-01  0.73949850263E-01  0.51100000000E-03 0.  1.
         11    1    4    4    0    0 -0.23384467231E-01 -0.38486787269E-01 -0.37472626942E-01  0.58587754633E-01  0.51100000000E-03 0. -1.
</event>
<event>
 8    1  0.1052028E+005  0.1043930E+01  0.7957747E-01            NaN
         13   -1    0    0    0    0  0.00000000000E+00  0.00000000000E+00  0.74505805969E-08  0.10566000000E+00  0.10566000000E+00 0.  1.
     999900   -1    0    0    0    0 -0.00000000000E+00 -0.00000000000E+00 -0.74505805969E-08  0.93827000000E+00  0.93827000000E+00 0. -1.
     999902    2    1    2    0    0  0.46605231860E-02 -0.14678096148E-01  0.18512774074E-01  0.10198490991E+01  0.10195647577E+01 0.  0.
     999903    2    3    3    0    0 -0.84541953917E-01 -0.37080550174E-01 -0.87114616451E-01  0.12877329007E+00  0.21709321999E-01 0.  0.
         14    1    1    2    0    0 -0.46605231860E-02  0.14678096148E-01 -0.18512774074E-01  0.24080900872E-01  0.00000000000E+00 0. -1.
     999901    1    3    3    0    0  0.89202477103E-01  0.22402454026E-01  0.10562739052E+00  0.89107580906E+00  0.88000000000E+00 0.  1.
        -11    1    4    4    0    0 -0.16299048934E-01 -0.61671047314E-02 -0.29480297730E-01  0.34249689812E-01  0.51100000000E-03 0.  1.
         11    1    4    4    0    0 -0.68242904982E-01 -0.30913445443E-01 -0.57634318721E-01  0.94523600254E-01  0.51100000000E-03 0. -1.
</event>
<event>
 8    1  0.1052028E+005  0.1043930E+01  0.7957747E-01            NaN
         13   -1    0    0    0    0  0.00000000000E+00  0.00000000000E+00  0.74505805969E-08  0.10566000000E+00  0.10566000000E+00 0. -1.
     999900   -1    0    0    0    0 -0.00000000000E+00 -0.00000000000E+00 -0.74505805969E-08  0.93827000000E+00  0.93827000000E+00 0. -1.
     999902    2    1    2    0    0  0.23260769097E-01 -0.76473286004E-02  0.28679624485E-02  0.10192770038E+01  0.10189788223E+01 0.  0.
     999903    2    3    3    0    0 -0.24573811573E-01 -0.12421616761E+00 -0.21190580327E-01  0.12997657378E+00  0.20281531620E-01 0.  0.
         14    1    1    2    0    0 -0.23260769097E-01  0.76473286004E-02 -0.28679624485E-02  0.24652996214E-01  0.00000000000E+00 0.  1.
     999901    1    3    3    0    0  0.47834580670E-01  0.11656883901E+00  0.24058542775E-01  0.88930043001E+00  0.88000000000E+00 0. -1.
        -11    1    4    4    0    0 -0.92724648865E-02 -0.16676323849E-01  0.98048203021E-03  0.19112845110E-01  0.51100000000E-03 0. -1.
         11    1    4    4    0    0 -0.15301346687E-01 -0.10753984376E+00 -0.22171062357E-01  0.11086372867E+00  0.51100000000E-03 0.  1.
</event>
<event>
 8    1  0.1052028E+005  0.1043930E+01  0.7957747E-01            NaN
         13   -1    0    0    0    0  0.00000000000E+00  0.00000000000E+00  0.74505805969E-08  0.10566000000E+00  0.10566000000E+00 0.  1.
     999900   -1    0    0    0    0 -0.00000000000E+00 -0.00000000000E+00 -0.74505805969E-08  0.93827000000E+00  0.93827000000E+00 0.  1.
     999902    2    1    2    0    0 -0.23586263099E-01 -0.81399808172E-02  0.60566626091E-02  0.10182540530E+01  0.10179302835E+01 0.  0.
     999903    2    3    3    0    0  0.52018318030E-01  0.91566038222E-03  0.11559105083E+00  0.12820021215E+00  0.19164016289E-01 0.  0.
         14    1    1    2    0    0  0.23586263099E-01  0.81399808172E-02 -0.60566626091E-02  0.25675947044E-01  0.00000000000E+00 0. -1.
     999901    1    3    3    0    0 -0.75604581128E-01 -0.90556411994E-02 -0.10953438822E+00  0.89005384080E+00  0.88000000000E+00 0.  1.
        -11    1    4    4    0    0  0.26304289544E-01 -0.71061197739E-02  0.44575004180E-01  0.52245619006E-01  0.51100000000E-03 0.  1.
         11    1    4    4    0    0  0.25714028486E-01  0.80217801561E-02  0.71016046647E-01  0.75954593148E-01  0.51100000000E-03 0. -1.
</event>
<event>
 8    1  0.1052028E+005  0.1043930E+01  0.7957747E-01            NaN
         13   -1    0    0    0    0  0.00000000000E+00  0.00000000000E+00  0.74505805969E-08  0.10566000000E+00  0.10566000000E+00 0.  1.
     999900   -1    0    0    0    0 -0.00000000000E+00 -0.00000000000E+00 -0.74505805969E-08  0.93827000000E+00  0.93827000000E+00 0. -1.
     999902    2    1    2    0    0 -0.23179112257E-01 -0.91655321792E-02 -0.43613684424E-02  0.10186258549E+01  0.10183115105E+01 0.  0.
     999903    2    3    3    0    0 -0.28029343317E-01 -0.11617578469E+00  0.48774204774E-01  0.13053908659E+00  0.19469798163E-01 0.  0.
         14    1    1    2    0    0  0.23179112257E-01  0.91655321792E-02  0.43613684424E-02  0.25304145112E-01  0.00000000000E+00 0. -1.
     999901    1    3    3    0    0  0.48502310598E-02  0.10701025251E+00 -0.53135573216E-01  0.88808676830E+00  0.88000000000E+00 0. -1.
        -11    1    4    4    0    0 -0.94014136871E-02 -0.73744977516E-01  0.24859605672E-01  0.78389855232E-01  0.51100000000E-03 0.  1.
         11    1    4    4    0    0 -0.18627929630E-01 -0.42430807178E-01  0.23914599101E-01  0.52149231358E-01  0.51100000000E-03 0. -1.
</event>
<event>
 8    1  0.1052028E+005  0.1043930E+01  0.7957747E-01            NaN
         13   -1    0    0    0    0  0.00000000000E+00  0.00000000000E+00  0.74505805969E-08  0.10566000000E+00  0.10566000000E+00 0.  1.
     999900   -1    0    0    0    0 -0.00000000000E+00 -0.00000000000E+00 -0.74505805969E-08  0.93827000000E+00  0.93827000000E+00 0. -1.
     999902    2    1    2    0    0  0.19515590709E-01 -0.26637555077E-03  0.15668831172E-01  0.10189011865E+01  0.10185937297E+01 0.  0.
     999903    2    3    3    0    0 -0.88689252178E-01  0.88807512992E-01 -0.82528731234E-02  0.12748955676E+00  0.20806714095E-01 0.  0.
         14    1    1    2    0    0 -0.19515590709E-01  0.26637555077E-03 -0.15668831172E-01  0.25028813534E-01  0.00000000000E+00 0. -1.
     999901    1    3    3    0    0  0.10820484289E+00 -0.89073888543E-01  0.23921704295E-01  0.89141162971E+00  0.88000000000E+00 0. -1.
        -11    1    4    4    0    0 -0.33145341935E-01  0.28640488588E-01  0.64896098555E-02  0.44286199155E-01  0.51100000000E-03 0. -1.
         11    1    4    4    0    0 -0.55543910243E-01  0.60167024404E-01 -0.14742482979E-01  0.83203357601E-01  0.51100000000E-03 0.  1.
</event>
<event>
 8    1  0.1052028E+005  0.1043930E+01  0.7957747E-01            NaN
         13   -1    0    0    0    0  0.00000000000E+00  0.00000000000E+00  0.74505805969E-08  0.10566000000E+00  0.10566000000E+00 0.  1.
     999900   -1    0    0    0    0 -0.00000000000E+00 -0.00000000000E+00 -0.74505805969E-08  0.93827000000E+00  0.93827000000E+00 0.  1.
     999902    2    1    2    0    0  0.32768033095E-02  0.13873856762E-01  0.17364844625E-01  0.10214631540E+01  0.10212160475E+01 0.  0.
     999903    2    3    3    0    0 -0.76017248502E-01 -0.37759658295E-01 -0.95398425608E-01  0.12923609675E+00  0.19917209420E-01 0.  0.
         14    1    1    2    0    0 -0.32768033095E-02 -0.13873856762E-01 -0.17364844625E-01  0.22466846023E-01  0.00000000000E+00 0. -1.
     999901    1    3    3    0    0  0.79294051811E-01  0.51633515057E-01  0.11276327023E+00  0.89222705722E+00  0.88000000000E+00 0. -1.
        -11    1    4    4    0    0 -0.30495855248E-01 -0.69456300917E-02 -0.25812335163E-01  0.40555847079E-01  0.51100000000E-03 0. -1.
         11    1    4    4    0    0 -0.45521393253E-01 -0.30814028203E-01 -0.69586090444E-01  0.88680249673E-01  0.51100000000E-03 0.  1.
</event>
<event>
 8    1  0.1052028E+005  0.1043930E+01  0.7957747E-01            NaN
         13   -1    0    0    0    0  0.00000000000E+00  0.00000000000E+00  0.74505805969E-08  0.10566000000E+00  0.10566000000E+00 0.  1.
     999900   -1    0    0    0    0 -0.00000000000E+00 -0.00000000000E+00 -0.74505805969E-08  0.93827000000E+00  0.93827000000E+00 0.  1.
     999902    2    1    2    0    0  0.23365555262E-01  0.59565118999E-02  0.21104443860E-02  0.10197249761E+01  0.10194376605E+01 0.  0.
     999903    2    3    3    0    0 -0.14017887557E-01 -0.12540311640E+00 -0.16916166173E-01  0.12898658260E+00  0.20710843490E-01 0.  0.
         14    1    1    2    0    0 -0.23365555262E-01 -0.59565118999E-02 -0.21104443860E-02  0.24205023904E-01  0.00000000000E+00 0.  1.
     999901    1    3    3    0    0  0.37383442819E-01  0.13135962830E+00  0.19026610559E-01  0.89073839350E+00  0.88000000000E+00 0.  1.
        -11    1    4    4    0    0 -0.84821171859E-02 -0.16440838919E-01 -0.53872659698E-02  0.19275145964E-01  0.51100000000E-03 0. -1.
         11    1    4    4    0    0 -0.55357703712E-02 -0.10896227748E+00 -0.11528900203E-01  0.10971143663E+00  0.51100000000E-03 0.  1.
</event>
<event>
 8    1  0.1052028E+005  0.1043930E+01  0.7957747E-01            NaN
         13   -1    0    0    0    0  0.00000000000E+00  0.00000000000E+00  0.74505805969E-08  0.10566000000E+00  0.10566000000E+00 0.  1.
     999900   -1    0    0    0    0 -0.00000000000E+00 -0.00000000000E+00 -0.74505805969E-08  0.93827000000E+00  0.93827000000E+00 0. -1.
     999902    2    1    2    0    0 -0.12499097602E-01  0.18985041023E-01  0.85058755687E-02  0.10196604894E+01  0.10193716224E+01 0.  0.
     999903    2    3    3    0    0 -0.53756987640E-01  0.86276104293E-01  0.83259744853E-01  0.13297089231E+00  0.20388555544E-01 0.  0.
         14    1    1    2    0    0  0.12499097602E-01 -0.18985041023E-01 -0.85058755687E-02  0.24269510558E-01  0.00000000000E+00 0. -1.
     999901    1    3    3    0    0  0.41257890038E-01 -0.67291063269E-01 -0.74753869285E-01  0.88668959713E+00  0.88000000000E+00 0.  1.
        -11    1    4    4    0    0 -0.33771216469E-01  0.35436016093E-01  0.36522305586E-01  0.61076560353E-01  0.51100000000E-03 0.  1.
         11    1    4    4    0    0 -0.19985771171E-01  0.50840088200E-01  0.46737439268E-01  0.71894331959E-01  0.51100000000E-03 0. -1.
</event>
<event>
 8    1  0.1052028E+005  0.1043930E+01  0.7957747E-01            NaN
         13   -1    0    0    0    0  0.00000000000E+00  0.00000000000E+00  0.74505805969E-08  0.10566000000E+00  0.10566000000E+00 0. -1.
     999900   -1    0    0    0    0 -0.00000000000E+00 -0.00000000000E+00 -0.74505805969E-08  0.93827000000E+00  0.93827000000E+00 0.  1.
     999902    2    1    2    0    0 -0.96786298905E-04 -0.28256456230E-01 -0.10100797042E-01  0.10139222879E+01  0.10134781414E+01 0.  0.
     999903    2    3    3    0    0  0.54300793219E-01 -0.86956987769E-01  0.71395827078E-01  0.12654043726E+00  0.20125214799E-01 0.  0.
         14    1    1    2    0    0  0.96786298905E-04  0.28256456230E-01  0.10100797042E-01  0.30007712128E-01  0.00000000000E+00 0.  1.
     999901    1    3    3    0    0 -0.54397579517E-01  0.58700531538E-01 -0.81496624120E-01  0.88738185062E+00  0.88000000000E+00 0.  1.
        -11    1    4    4    0    0  0.39815339713E-01 -0.46159456738E-01  0.37687143376E-01  0.71669649223E-01  0.51100000000E-03 0. -1.
         11    1    4    4    0    0  0.14485453505E-01 -0.40797531031E-01  0.33708683702E-01  0.54870788033E-01  0.51100000000E-03 0.  1.
</event>
<event>
 8    1  0.1052028E+005  0.1043930E+01  0.7957747E-01            NaN
         13   -1    0    0    0    0  0.00000000000E+00  0.00000000000E+00  0.74505805969E-08  0.10566000000E+00  0.10566000000E+00 0. -1.
     999900   -1    0    0    0    0 -0.00000000000E+00 -0.00000000000E+00 -0.74505805969E-08  0.93827000000E+00  0.93827000000E+00 0. -1.
     999902    2    1    2    0    0 -0.19759882854E-01 -0.67317303929E-02  0.10779484145E-01  0.10204360339E+01  0.10201655419E+01 0.  0.
     999903    2    3    3    0    0 -0.80633368728E-01  0.48324428869E-02  0.10420007707E+00  0.13332458737E+00  0.19816580949E-01 0.  0.
         14    1    1    2    0    0  0.19759882854E-01  0.67317303929E-02 -0.10779484145E-01  0.23493966096E-01  0.00000000000E+00 0.  1.
     999901    1    3    3    0    0  0.60873485874E-01 -0.11564173280E-01 -0.93420592921E-01  0.88711144653E+00  0.88000000000E+00 0. -1.
        -11    1    4    4    0    0 -0.63695278860E-01  0.55698695521E-02  0.67956927974E-01  0.93308719724E-01  0.51100000000E-03 0. -1.
         11    1    4    4    0    0 -0.16938089868E-01 -0.73742666517E-03  0.36243149093E-01  0.40015867648E-01  0.51100000000E-03 0.  1.
</event>
<event>
 8    1  0.1052028E+005  0.1043930E+01  0.7957747E-01            NaN
         13   -1    0    0    0    0  0.00000000000E+00  0.00000000000E+00  0.74505805969E-08  0.10566000000E+00  0.10566000000E+00 0. -1.
     999900   -1    0    0    0    0 -0.00000000000E+00 -0.00000000000E+00 -0.74505805969E-08  0.93827000000E+00  0.93827000000E+00 0.  1.
     999902    2    1    2    0    0  0.60825026352E-02  0.37247518920E-02 -0.22599070892E-01  0.10202321389E+01  0.10199568759E+01 0.  0.
     999903    2    3    3    0    0  0.90776037320E-01  0.49962805343E-01  0.75211191977E-01  0.12957069935E+00  0.19881445155E-01 0.  0.
         14    1    1    2    0    0 -0.60825026352E-02 -0.37247518920E-02  0.22599070892E-01  0.23697861088E-01  0.00000000000E+00 0. -1.
     999901    1    3    3    0    0 -0.84693534685E-01 -0.46238053451E-01 -0.97810262869E-01  0.89066143956E+00  0.88000000000E+00 0.  1.
        -11    1    4    4    0    0  0.23804227738E-01  0.14648434298E-01  0.10141827291E-01  0.29737781817E-01  0.51100000000E-03 0. -1.
         11    1    4    4    0    0  0.66971809582E-01  0.35314371045E-01  0.65069364686E-01  0.99832917531E-01  0.51100000000E-03 0.  1.
</event>
<event>
 8    1  0.1052028E+005  0.1043930E+01  0.7957747E-01            NaN
         13   -1    0    0    0    0  0.00000000000E+00  0.00000000000E+00  0.74505805969E-08  0.10566000000E+00  0.10566000000E+00 0. -1.
     999900   -1    0    0    0    0 -0.00000000000E+00 -0.00000000000E+00 -0.74505805969E-08  0.93827000000E+00  0.93827000000E+00 0.  1.
     999902    2    1    2    0    0  0.44896310695E-02 -0.20333321982E-01  0.15791188717E-01  0.10177964505E+01  0.10174608848E+01 0.  0.
     999903    2    3    3    0    0  0.13662813734E-01 -0.12544341393E+00 -0.26476799810E-01  0.13048654882E+00  0.20074758191E-01 0.  0.
         14    1    1    2    0    0 -0.44896310695E-02  0.20333321982E-01 -0.15791188717E-01  0.26133549530E-01  0.00000000000E+00 0. -1.
     999901    1    3    3    0    0 -0.91731826644E-02  0.10511009195E+00  0.42267988527E-01  0.88730990165E+00  0.88000000000E+00 0. -1.
        -11    1    4    4    0    0  0.10517641853E-01 -0.24184620677E-01 -0.74143120999E-02  0.27399814093E-01  0.51100000000E-03 0. -1.
         11    1    4    4    0    0  0.31451718806E-02 -0.10125879326E+00 -0.19062487710E-01  0.10308673473E+00  0.51100000000E-03 0.  1.
</event>
<event>
 8    1  0.1052028E+005  0.1043930E+01  0.7957747E-01            NaN
         13   -1    0    0    0    0  0.00000000000E+00  0.00000000000E+00  0.74505805969E-08  0.10566000000E+00  0.10566000000E+00 0. -1.
     999900   -1    0    0    0    0 -0.00000000000E+00 -0.00000000000E+00 -0.74505805969E-08  0.93827000000E+00  0.93827000000E+00 0. -1.
     999902    2    1    2    0    0  0.70138623617E-02  0.21806382561E-02  0.21002193169E-01  0.10216804704E+01  0.10214381734E+01 0.  0.
     999903    2    3    3    0    0 -0.11630638455E+00  0.56104600563E-01  0.15148906340E-01  0.13142773217E+00  0.19205679573E-01 0.  0.
         14    1    1    2    0    0 -0.70138623617E-02 -0.21806382561E-02 -0.21002193169E-01  0.22249529576E-01  0.00000000000E+00 0.  1.
     999901    1    3    3    0    0  0.12332024691E+00 -0.53923962306E-01  0.58532868285E-02  0.89025273826E+00  0.88000000000E+00 0. -1.
        -11    1    4    4    0    0 -0.30451330387E-02  0.38856835240E-02  0.36849549098E-02  0.61815358415E-02  0.51100000000E-03 0. -1.
         11    1    4    4    0    0 -0.11326125151E+00  0.52218917039E-01  0.11463951430E-01  0.12524619632E+00  0.51100000000E-03 0.  1.
</event>
<event>
 8    1  0.1052028E+005  0.1043930E+01  0.7957747E-01            NaN
         13   -1    0    0    0    0  0.00000000000E+00  0.00000000000E+00  0.74505805969E-08  0.10566000000E+00  0.10566000000E+00 0.  1.
     999900   -1    0    0    0    0 -0.00000000000E+00 -0.00000000000E+00 -0.74505805969E-08  0.93827000000E+00  0.93827000000E+00 0. -1.
     999902    2    1    2    0    0 -0.26618692923E-02  0.19711046312E-01 -0.12816479552E-01  0.10202683635E+01  0.10199939512E+01 0.  0.
     999903    2    3    3    0    0  0.60836271251E-01 -0.38819126341E-01 -0.10698032244E+00  0.13104138218E+00  0.22783283021E-01 0.  0.
         14    1    1    2    0    0  0.26618692923E-02 -0.19711046312E-01  0.12816479552E-01  0.23661636523E-01  0.00000000000E+00 0. -1.
     999901    1    3    3    0    0 -0.63498140543E-01  0.58530172652E-01  0.94163842884E-01  0.88922698130E+00  0.88000000000E+00 0.  1.
        -11    1    4    4    0    0  0.40357932557E-01 -0.36980205627E-01 -0.83295842711E-01  0.99673250486E-01  0.51100000000E-03 0. -1.
         11    1    4    4    0    0  0.20478338694E-01 -0.18389207137E-02 -0.23684479725E-01  0.31368131693E-01  0.51100000000E-03 0.  1.
</event>
<event>
 8    1  0.1052028E+005  0.1043930E+01  0.7957747E-01            NaN
         13   -1    0    0    0    0  0.00000000000E+00  0.00000000000E+00  0.74505805969E-08  0.10566000000E+00  0.10566000000E+00 0.  1.
     999900   -1    0    0    0    0 -0.00000000000E+00 -0.00000000000E+00 -0.74505805969E-08  0.93827000000E+00  0.93827000000E+00 0.  1.
     999902    2    1    2    0    0 -0.38401263131E-02  0.13538245965E-01 -0.19551164865E-01  0.10198410249E+01  0.10195564905E+01 0.  0.
     999903    2    3    3    0    0 -0.15971505652E-01 -0.10732831736E+00  0.64331830275E-01  0.12754496788E+00  0.18832889980E-01 0.  0.
         14    1    1    2    0    0  0.38401263131E-02 -0.13538245965E-01  0.19551164865E-01  0.24088975103E-01  0.00000000000E+00 0.  1.
     999901    1    3    3    0    0  0.12131379338E-01  0.12086656332E+00 -0.83882995141E-01  0.89229605702E+00  0.88000000000E+00 0.  1.
        -11    1    4    4    0    0 -0.37082787541E-02 -0.26092491492E-02  0.39998148883E-02  0.60678787547E-02  0.51100000000E-03 0.  1.
         11    1    4    4    0    0 -0.12263226897E-01 -0.10471906821E+00  0.60332015387E-01  0.12147708913E+00  0.51100000000E-03 0. -1.
</event>
<event>
 8    1  0.1052028E+005  0.1043930E+01  0.7957747E-01            NaN
         13   -1    0    0    0    0  0.00000000000E+00  0.00000000000E+00  0.74505805969E-08  0.10566000000E+00  0.10566000000E+00 0.  1.
     999900   -1    0    0    0    0 -0.00000000000E+00 -0.00000000000E+00 -0.74505805969E-08  0.93827000000E+00  0.93827000000E+00 0. -1.
     999902    2    1    2    0    0  0.49340138019E-02  0.15970513151E-01  0.16257480286E-01  0.10206124648E+01  0.10203460667E+01 0.  0.
     999903    2    3    3    0    0  0.73609986284E-01  0.10861668191E+00 -0.36845390552E-02  0.13286397231E+00  0.20572934656E-01 0.  0.
         14    1    1    2    0    0 -0.49340138019E-02 -0.15970513151E-01 -0.16257480286E-01  0.23317535199E-01  0.00000000000E+00 0.  1.
     999901    1    3    3    0    0 -0.68675972482E-01 -0.92646168759E-01  0.19942019341E-01  0.88774849249E+00  0.88000000000E+00 0. -1.
        -11    1    4    4    0    0  0.11862325630E-01  0.29102089515E-01  0.49510083857E-02  0.31818547870E-01  0.51100000000E-03 0.  1.
         11    1    4    4    0    0  0.61747660654E-01  0.79514592395E-01 -0.86355474408E-02  0.10104542444E+00  0.51100000000E-03 0. -1.
</event>
<event>
 8    1  0.1052028E+005  0.1043930E+01  0.7957747E-01            NaN
         13   -1    0    0    0    0  0.00000000000E+00  0.00000000000E+00  0.74505805969E-08  0.10566000000E+00  0.10566000000E+00 0. -1.
     999900   -1    0    0    0    0 -0.00000000000E+00 -0.00000000000E+00 -0.74505805969E-08  0.93827000000E+00  0.93827000000E+00 0.  1.
     999902    2    1    2    0    0  0.13980356349E-01 -0.15556043841E-01 -0.14796580935E-01  0.10183100923E+01  0.10179877526E+01 0.  0.
     999903    2    3    3    0    0  0.28573388315E-01  0.11630653050E+00  0.36736560835E-01  0.12687509197E+00  0.20101405561E-01 0.  0.
         14    1    1    2    0    0 -0.13980356349E-01  0.15556043841E-01  0.14796580935E-01  0.25619907708E-01  0.00000000000E+00 0. -1.
     999901    1    3    3    0    0 -0.14593031966E-01 -0.13186257434E+00 -0.51533141769E-01  0.89143500032E+00  0.88000000000E+00 0.  1.
        -11    1    4    4    0    0  0.17026186091E-01  0.43738212407E-01  0.63843786292E-02  0.47370282338E-01  0.51100000000E-03 0. -1.
         11    1    4    4    0    0  0.11547202224E-01  0.72568318089E-01  0.30352182205E-01  0.79504809635E-01  0.51100000000E-03 0.  1.
</event>
<event>
 8    1  0.1052028E+005  0.1043930E+01  0.7957747E-01            NaN
         13   -1    0    0    0    0  0.00000000000E+00  0.00000000000E+00  0.74505805969E-08  0.10566000000E+00  0.10566000000E+00 0. -1.
     999900   -1    0    0    0    0 -0.00000000000E+00 -0.00000000000E+00 -0.74505805969E-08  0.93827000000E+00  0.93827000000E+00 0. -1.
     999902    2    1    2    0    0 -0.23391772997E-01 -0.56160198604E-02  0.54371796918E-03  0.10198673661E+01  0.10195834610E+01 0.  0.
     999903    2    3    3    0    0  0.21487598737E-01  0.56655835206E-02 -0.12605429317E+00  0.12960420889E+00  0.20340855417E-01 0.  0.
         14    1    1    2    0    0  0.23391772997E-01  0.56160198604E-02 -0.54371796918E-03  0.24062633942E-01  0.00000000000E+00 0.  1.
     999901    1    3    3    0    0 -0.44879371734E-01 -0.11281603381E-01  0.12659801114E+00  0.89026315717E+00  0.88000000000E+00 0.  1.
        -11    1    4    4    0    0  0.69289876265E-02 -0.71674284197E-02 -0.57236515514E-01  0.58100453775E-01  0.51100000000E-03 0.  1.
         11    1    4    4    0    0  0.14558611111E-01  0.12833011940E-01 -0.68817777658E-01  0.71503755117E-01  0.51100000000E-03 0. -1.
</event>
<event>
 8    1  0.1052028E+005  0.1043930E+01  0.7957747E-01            NaN
         13   -1    0    0    0    0  0.00000000000E+00  0.00000000000E+00  0.74505805969E-08  0.10566000000E+00  0.10566000000E+00 0. -1.
     999900   -1    0    0    0    0 -0.00000000000E+00 -0.00000000000E+00 -0.74505805969E-08  0.93827000000E+00  0.93827000000E+00 0. -1.
     999902    2    1    2    0    0  0.20624608092E-01  0.50073458374E-02  0.13092930645E-01  0.10189926223E+01  0.10186874357E+01 0.  0.
     999903    2    3    3    0    0 -0.11157319743E+00 -0.51889772521E-01 -0.21669473087E-01  0.12662388322E+00  0.20564893884E-01 0.  0.
         14    1    1    2    0    0 -0.20624608092E-01 -0.50073458374E-02 -0.13092930645E-01  0.24937377651E-01  0.00000000000E+00 0.  1.
     999901    1    3    3    0    0  0.13219780552E+00  0.56897118359E-01  0.34762403731E-01  0.89236873913E+00  0.88000000000E+00 0.  1.
        -11    1    4    4    0    0 -0.13119337422E-01 -0.21502140567E-02 -0.78707255614E-02  0.15458003647E-01  0.51100000000E-03 0. -1.
         11    1    4    4    0    0 -0.98453860009E-01 -0.49739558465E-01 -0.13798747525E-01  0.11116587957E+00  0.51100000000E-03 0.  1.
</event>
<event>
 8    1  0.1052028E+005  0.1043930E+01  0.7957747E-01            NaN
         13   -1    0    0    0    0  0.00000000000E+00  0.00000000000E+00  0.74505805969E-08  0.10566000000E+00  0.10566000000E+00 0. -1.
     999900   -1    0    0    0    0 -0.00000000000E+00 -0.00000000000E+00 -0.74505805969E-08  0.93827000000E+00  0.93827000000E+00 0.  1.
     999902    2    1    2    0    0 -0.14904509357E-01  0.17874278477E-01  0.37587478854E-02  0.10203553862E+01  0.10200830122E+01 0.  0.
     999903    2    3    3    0    0  0.73350192605E-01 -0.31682161550E-01 -0.98795595926E-01  0.12863674974E+00  0.20070712354E-01 0.  0.
         14    1    1    2    0    0  0.14904509357E-01 -0.17874278477E-01 -0.37587478854E-02  0.23574613802E-01  0.00000000000E+00 0.  1.
     999901    1    3    3    0    0 -0.88254701962E-01  0.49556440027E-01  0.10255434381E+00  0.89171863645E+00  0.88000000000E+00 0. -1.
        -11    1    4    4    0    0  0.82437643037E-02 -0.21869683370E-02 -0.22606897739E-01  0.24167652488E-01  0.51100000000E-03 0.  1.
         11    1    4    4    0    0  0.65106428301E-01 -0.29495193213E-01 -0.76188698186E-01  0.10446909725E+00  0.51100000000E-03 0. -1.
</event>
<event>
 8    1  0.1052028E+005  0.1043930E+01  0.7957747E-01            NaN
         13   -1    0    0    0    0  0.00000000000E+00  0.00000000000E+00  0.74505805969E-08  0.10566000000E+00  0.10566000000E+00 0.  1.
     999900   -1    0    0    0    0 -0.00000000000E+00 -0.00000000000E+00 -0.74505805969E-08  0.93827000000E+00  0.93827000000E+00 0. -1.
     999902    2    1    2    0    0 -0.14053073149E-01  0.15478007605E-01  0.11749408636E-01  0.10199486283E+01  0.10196666603E+01 0.  0.
     999903    2    3    3    0    0 -0.91917210402E-01 -0.44352190973E-01  0.81086968433E-01  0.13177624993E+00  0.19338903390E-01 0.  0.
         14    1    1    2    0    0  0.14053073149E-01 -0.15478007605E-01 -0.11749408636E-01  0.23981371680E-01  0.00000000000E+00 0. -1.
     999901    1    3    3    0    0  0.77864137253E-01  0.59830198578E-01 -0.69337559798E-01  0.88817237839E+00  0.88000000000E+00 0. -1.
        -11    1    4    4    0    0 -0.31586399182E-01 -0.59221189481E-02  0.28986567685E-01  0.43281108272E-01  0.51100000000E-03 0.  1.
         11    1    4    4    0    0 -0.60330811221E-01 -0.38430072025E-01  0.52100400748E-01  0.88495141661E-01  0.51100000000E-03 0. -1.
</event>
<event>
 8    1  0.1052028E+005  0.1043930E+01  0.7957747E-01            NaN
         13   -1    0    0    0    0  0.00000000000E+00  0.00000000000E+00  0.74505805969E-08  0.10566000000E+00  0.10566000000E+00 0.  1.
     999900   -1    0    0    0    0 -0.00000000000E+00 -0.00000000000E+00 -0.74505805969E-08  0.93827000000E+00  0.93827000000E+00 0. -1.
     999902    2    1    2    0    0  0.17088075800E-01  0.13583181732E-01  0.89040591566E-02  0.10203548557E+01  0.10200824692E+01 0.  0.
     999903    2    3    3    0    0  0.70054513392E-01  0.10732580083E+00  0.31534986198E-01  0.13350352597E+00  0.20056762492E-01 0.  0.
         14    1    1    2    0    0 -0.17088075800E-01 -0.13583181732E-01 -0.89040591566E-02  0.23575144325E-01  0.00000000000E+00 0. -1.
     999901    1    3    3    0    0 -0.52966437592E-01 -0.93742619094E-01 -0.22630927042E-01  0.88685132971E+00  0.88000000000E+00 0. -1.
        -11    1    4    4    0    0  0.47308548350E-01  0.83182691440E-01  0.30022159870E-01  0.10029481595E+00  0.51100000000E-03 0. -1.
         11    1    4    4    0    0  0.22745965042E-01  0.24143109386E-01  0.15128263280E-02  0.33208710018E-01  0.51100000000E-03 0.  1.
</event>
<event>
 8    1  0.1052028E+005  0.1043930E+01  0.7957747E-01            NaN
         13   -1    0    0    0    0  0.00000000000E+00  0.00000000000E+00  0.74505805969E-08  0.10566000000E+00  0.10566000000E+00 0.  1.
     999900   -1    0    0    0    0 -0.00000000000E+00 -0.00000000000E+00 -0.74505805969E-08  0.93827000000E+00  0.93827000000E+00 0.  1.
     999902    2    1    2    0    0  0.10977587604E-01 -0.20084027423E-01  0.49134667672E-02  0.10205202212E+01  0.10202516867E+01 0.  0.
     999903    2    3    3    0    0  0.10065160889E+00 -0.72103452522E-01  0.44973141682E-01  0.13352967547E+00  0.21861759343E-01 0.  0.
         14    1    1    2    0    0 -0.10977587604E-01  0.20084027423E-01 -0.49134667672E-02  0.23409778786E-01  0.00000000000E+00 0.  1.
     999901    1    3    3    0    0 -0.89674021284E-01  0.52019425099E-01 -0.40059674915E-01  0.88699054574E+00  0.88000000000E+00 0. -1.
        -11    1    4    4    0    0  0.92005299342E-01 -0.56769128290E-01  0.38221601383E-01  0.11466848288E+00  0.51100000000E-03 0.  1.
         11    1    4    4    0    0  0.86463095467E-02 -0.15334324232E-01  0.67515402994E-02  0.18861192588E-01  0.51100000000E-03 0. -1.
</event>
<event>
 8    1  0.1052028E+005  0.1043930E+01  0.7957747E-01            NaN
         13   -1    0    0    0    0  0.00000000000E+00  0.00000000000E+00  0.74505805969E-08  0.10566000000E+00  0.10566000000E+00 0. -1.
     999900   -1    0    0    0    0 -0.00000000000E+00 -0.00000000000E+00 -0.74505805969E-08  0.93827000000E+00  0.93827000000E+00 0. -1.
     999902    2    1    2    0    0 -0.33914305168E-02 -0.23049597757E-01  0.35509913040E-02  0.10203631738E+01  0.10200909818E+01 0.  0.
     999903    2    3    3    0    0  0.10506425742E+00 -0.77249044472E-02 -0.73733915904E-01  0.13021125455E+00  0.20496539266E-01 0.  0.
         14    1    1    2    0    0  0.33914305168E-02  0.23049597757E-01 -0.35509913040E-02  0.23566826196E-01  0.00000000000E+00 0.  1.
     999901    1    3    3    0    0 -0.10845568793E+00 -0.15324693309E-01  0.77284907208E-01  0.89015191925E+00  0.88000000000E+00 0.  1.
        -11    1    4    4    0    0  0.59893100429E-01 -0.14540055301E-01 -0.42838266065E-01  0.75059808470E-01  0.51100000000E-03 0.  1.
         11    1    4    4    0    0  0.45171156987E-01  0.68151508541E-02 -0.30895649838E-01  0.55151446080E-01  0.51100000000E-03 0. -1.
</event>
<event>
 8    1  0.1052028E+005  0.1043930E+01  0.7957747E-01            NaN
         13   -1    0    0    0    0  0.00000000000E+00  0.00000000000E+00  0.74505805969E-08  0.10566000000E+00  0.10566000000E+00 0.  1.
     999900   -1    0    0    0    0 -0.00000000000E+00 -0.00000000000E+00 -0.74505805969E-08  0.93827000000E+00  0.93827000000E+00 0.  1.
     999902    2    1    2    0    0 -0.22372901465E-01  0.86964707013E-02 -0.32841044550E-03  0.10199241012E+01  0.10196415493E+01 0.  0.
     999903    2    3    3    0    0 -0.33710445467E-01  0.78394880796E-01 -0.98284128325E-01  0.13167766530E+00  0.19927021564E-01 0.  0.
         14    1    1    2    0    0  0.22372901465E-01 -0.86964707013E-02  0.32841044550E-03  0.24005898776E-01  0.00000000000E+00 0. -1.
     999901    1    3    3    0    0  0.11337544002E-01 -0.69698410095E-01  0.97955717880E-01  0.88824643593E+00  0.88000000000E+00 0.  1.
        -11    1    4    4    0    0 -0.24830281918E-01  0.49555612567E-01 -0.76436908724E-01  0.94420144955E-01  0.51100000000E-03 0.  1.
         11    1    4    4    0    0 -0.88801635490E-02  0.28839268229E-01 -0.21847219602E-01  0.37257520341E-01  0.51100000000E-03 0. -1.
</event>
<event>
 8    1  0.1052028E+005  0.1043930E+01  0.7957747E-01            NaN
         13   -1    0    0    0    0  0.00000000000E+00  0.00000000000E+00  0.74505805969E-08  0.10566000000E+00  0.10566000000E+00 0. -1.
     999900   -1    0    0    0    0 -0.00000000000E+00 -0.00000000000E+00 -0.74505805969E-08  0.93827000000E+00  0.93827000000E+00 0. -1.
     999902    2    1    2    0    0 -0.16765364065E-01 -0.12715475033E-02 -0.16881048852E-01  0.10201042980E+01  0.10198260218E+01 0.  0.
     999903    2    3    3    0    0 -0.85236588471E-01 -0.98652851464E-01 -0.47645083214E-02  0.13200619673E+00  0.20131426155E-01 0.  0.
         14    1    1    2    0    0  0.16765364065E-01  0.12715475033E-02  0.16881048852E-01  0.23825701997E-01  0.00000000000E+00 0. -1.
     999901    1    3    3    0    0  0.68471224406E-01  0.97381303961E-01 -0.12116540530E-01  0.88809810127E+00  0.88000000000E+00 0. -1.
        -11    1    4    4    0    0 -0.84620870288E-01 -0.91956645373E-01 -0.28682093477E-02  0.12500081625E+00  0.51100000000E-03 0.  1.
         11    1    4    4    0    0 -0.61571818314E-03 -0.66962060910E-02 -0.18962989737E-02  0.70053804816E-02  0.51100000000E-03 0. -1.
</event>
<event>
 8    1  0.1052028E+005  0.1043930E+01  0.7957747E-01            NaN
         13   -1    0    0    0    0  0.00000000000E+00  0.00000000000E+00  0.74505805969E-08  0.10566000000E+00  0.10566000000E+00 0.  1.
     999900   -1    0    0    0    0 -0.00000000000E+00 -0.00000000000E+00 -0.74505805969E-08  0.93827000000E+00  0.93827000000E+00 0. -1.
     999902    2    1    2    0    0 -0.32430514120E-02 -0.14390771973E-02  0.22706928403E-01  0.10209475518E+01  0.10206888413E+01 0.  0.
     999903    2    3    3    0    0 -0.67460539405E-01  0.99075660946E-01 -0.46832196021E-01  0.13018226953E+00  0.19678865523E-01 0.  0.
         14    1    1    2    0    0  0.32430514120E-02  0.14390771973E-02 -0.22706928403E-01  0.22982448153E-01  0.00000000000E+00 0. -1.
     999901    1    3    3    0    0  0.64217487993E-01 -0.10051473814E+00  0.69539124423E-01  0.89076528231E+00  0.88000000000E+00 0. -1.
        -11    1    4    4    0    0 -0.59496728870E-01  0.74820083979E-01 -0.32918170212E-01  0.10110278317E+00  0.51100000000E-03 0.  1.
         11    1    4    4    0    0 -0.79638105356E-02  0.24255576966E-01 -0.13914025809E-01  0.29079486368E-01  0.51100000000E-03 0. -1.
</event>
<event>
 8    1  0.1052028E+005  0.1043930E+01  0.7957747E-01            NaN
         13   -1    0    0    0    0  0.00000000000E+00  0.00000000000E+00  0.74505805969E-08  0.10566000000E+00  0.10566000000E+00 0.  1.
     999900   -1    0    0    0    0 -0.00000000000E+00 -0.00000000000E+00 -0.74505805969E-08  0.93827000000E+00  0.93827000000E+00 0.  1.
     999902    2    1    2    0    0 -0.10891747092E-01 -0.11162050189E-01  0.17625587016E-01  0.10203952844E+01  0.10201238423E+01 0.  0.
     999903    2    3    3    0    0 -0.39954434993E-01  0.10092138628E+00 -0.64303656375E-01  0.12903691796E+00  0.27093964081E-01 0.  0.
         14    1    1    2    0    0  0.10891747092E-01  0.11162050189E-01 -0.17625587016E-01  0.23534715567E-01  0.00000000000E+00 0. -1.
     999901    1    3    3    0    0  0.29062687901E-01 -0.11208343647E+00  0.81929243392E-01  0.89135836647E+00  0.88000000000E+00 0. -1.
        -11    1    4    4    0    0 -0.18401197539E-01  0.22577402526E-01 -0.26643549660E-01  0.39477627020E-01  0.51100000000E-03 0. -1.
         11    1    4    4    0    0 -0.21553237455E-01  0.78343983752E-01 -0.37660106716E-01  0.89559290941E-01  0.51100000000E-03 0.  1.
</event>
<event>
 8    1  0.1052028E+005  0.1043930E+01  0.7957747E-01            NaN
         13   -1    0    0    0    0  0.00000000000E+00  0.00000000000E+00  0.74505805969E-08  0.10566000000E+00  0.10566000000E+00 0. -1.
     999900   -1    0    0    0    0 -0.00000000000E+00 -0.00000000000E+00 -0.74505805969E-08  0.93827000000E+00  0.93827000000E+00 0.  1.
     999902    2    1    2    0    0 -0.24874334209E-01  0.40947073758E-02 -0.47759047716E-02  0.10182724787E+01  0.10179491798E+01 0.  0.
     999903    2    3    3    0    0  0.11932957614E+00 -0.31824705539E-01  0.11590840908E-01  0.12566234976E+00  0.20107683374E-01 0.  0.
         14    1    1    2    0    0  0.24874334209E-01 -0.40947073758E-02  0.47759047716E-02  0.25657521261E-01  0.00000000000E+00 0. -1.
     999901    1    3    3    0    0 -0.14420391035E+00  0.35919412915E-01 -0.16366745680E-01  0.89261012897E+00  0.88000000000E+00 0. -1.
        -11    1    4    4    0    0  0.11692901239E+00 -0.27884736619E-01  0.95381766425E-02  0.12058685836E+00  0.51100000000E-03 0. -1.
         11    1    4    4    0    0  0.24005637552E-02 -0.39399689203E-02  0.20526642656E-02  0.50754914070E-02  0.51100000000E-03 0.  1.
</event>
<event>
 8    1  0.1052028E+005  0.1043930E+01  0.7957747E-01            NaN
         13   -1    0    0    0    0  0.00000000000E+00  0.00000000000E+00  0.74505805969E-08  0.10566000000E+00  0.10566000000E+00 0. -1.
     999900   -1    0    0    0    0 -0.00000000000E+00 -0.00000000000E+00 -0.74505805969E-08  0.93827000000E+00  0.93827000000E+00 0.  1.
     999902    2    1    2    0    0 -0.20616613890E-01 -0.10151647198E-01  0.59597854891E-02  0.10201893228E+01  0.10199130525E+01 0.  0.
     999903    2    3    3    0    0 -0.13123828991E+00 -0.90993434286E-02  0.84329796115E-02  0.13325957408E+00  0.19511846367E-01 0.  0.
         14    1    1    2    0    0  0.20616613890E-01  0.10151647198E-01 -0.59597854891E-02  0.23740677164E-01  0.00000000000E+00 0.  1.
     999901    1    3    3    0    0  0.11062167602E+00 -0.10523037695E-02 -0.24731941224E-02  0.88692974876E+00  0.88000000000E+00 0. -1.
        -11    1    4    4    0    0 -0.93144810032E-01 -0.14986680514E-01  0.83198744543E-02  0.94710282761E-01  0.51100000000E-03 0. -1.
         11    1    4    4    0    0 -0.38093479876E-01  0.58873370855E-02  0.11310515713E-03  0.38549291314E-01  0.51100000000E-03 0.  1.
</event>
<event>
 8    1  0.1052028E+005  0.1043930E+01  0.7957747E-01            NaN
         13   -1    0    0    0    0  0.00000000000E+00  0.00000000000E+00  0.74505805969E-08  0.10566000000E+00  0.10566000000E+00 0. -1.
     999900   -1    0    0    0    0 -0.00000000000E+00 -0.00000000000E+00 -0.74505805969E-08  0.93827000000E+00  0.93827000000E+00 0.  1.
     999902    2    1    2    0    0 -0.19508435197E-01 -0.14099144330E-01  0.65020931542E-02  0.10189972478E+01  0.10186921758E+01 0.  0.
     999903    2    3    3    0    0  0.12526031822E-01  0.83054805626E-01  0.95190909986E-01  0.12864293449E+00  0.20801274975E-01 0.  0.
         14    1    1    2    0    0  0.19508435197E-01  0.14099144330E-01 -0.65020931542E-02  0.24932752156E-01  0.00000000000E+00 0.  1.
     999901    1    3    3    0    0 -0.32034467019E-01 -0.97153949956E-01 -0.88688816832E-01  0.89035431335E+00  0.88000000000E+00 0.  1.
        -11    1    4    4    0    0  0.65754826087E-02  0.52004525296E-01  0.43834975783E-01  0.68333548464E-01  0.51100000000E-03 0. -1.
         11    1    4    4    0    0  0.59505492129E-02  0.31050280330E-01  0.51355934203E-01  0.60309386030E-01  0.51100000000E-03 0.  1.
</event>
<event>
 7    1  0.1052028E+005  0.1043930E+01  0.7957747E-01            NaN
         13   -1    0    0    0    0  0.00000000000E+00  0.00000000000E+00  0.74505805969E-08  0.10566000000E+00  0.10566000000E+00 0.  1.
     999900   -1    0    0    0    0 -0.00000000000E+00 -0.00000000000E+00 -0.74505805969E-08  0.93827000000E+00  0.93827000000E+00 0.  1.
     999902    2    1    2    0    0  0.11965786728E-01  0.41333158680E-02  0.20024766109E-01  0.10202391661E+01  0.10199640682E+01 0.  0.
         14    1    1    2    0    0 -0.11965786728E-01 -0.41333158680E-02 -0.20024766109E-01  0.23690833877E-01  0.00000000000E+00 0. -1.
     999901    1    3    3    0    0  0.10421261507E+00  0.61481111665E-01  0.40569038680E-02  0.88828861002E+00  0.88000000000E+00 0. -1.
        -11    1    3    3    0    0 -0.21290396202E-01 -0.16594264092E-01 -0.28135146352E-01  0.38993565526E-01  0.51100000000E-03 0.  1.
         11    1    3    3    0    0 -0.70956432139E-01 -0.40753531705E-01  0.44103008593E-01  0.92956990572E-01  0.51100000000E-03 0. -1.
</event>
<event>
 8    1  0.1052028E+005  0.1043930E+01  0.7957747E-01            NaN
         13   -1    0    0    0    0  0.00000000000E+00  0.00000000000E+00  0.74505805969E-08  0.10566000000E+00  0.10566000000E+00 0. -1.
     999900   -1    0    0    0    0 -0.00000000000E+00 -0.00000000000E+00 -0.74505805969E-08  0.93827000000E+00  0.93827000000E+00 0.  1.
     999902    2    1    2    0    0 -0.80524869863E-02 -0.62805925321E-02  0.20813777155E-01  0.10207459169E+01  0.10204825943E+01 0.  0.
     999903    2    3    3    0    0 -0.51084580703E-01 -0.11897003337E+00 -0.14665854798E-01  0.13180864384E+00  0.19872797220E-01 0.  0.
         14    1    1    2    0    0  0.80524869863E-02  0.62805925321E-02 -0.20813777155E-01  0.23184083089E-01  0.00000000000E+00 0.  1.
     999901    1    3    3    0    0  0.43032093716E-01  0.11268944084E+00  0.35479631953E-01  0.88893727307E+00  0.88000000000E+00 0. -1.
        -11    1    4    4    0    0 -0.17266385404E-01 -0.60496269959E-01 -0.11821048864E-02  0.62925235295E-01  0.51100000000E-03 0.  1.
         11    1    4    4    0    0 -0.33818195299E-01 -0.58473763410E-01 -0.13483749912E-01  0.68883408548E-01  0.51100000000E-03 0. -1.
</event>
<event>
 8    1  0.1052028E+005  0.1043930E+01  0.7957747E-01            NaN
         13   -1    0    0    0    0  0.00000000000E+00  0.00000000000E+00  0.74505805969E-08  0.10566000000E+00  0.10566000000E+00 0. -1.
     999900   -1    0    0    0    0 -0.00000000000E+00 -0.00000000000E+00 -0.74505805969E-08  0.93827000000E+00  0.93827000000E+00 0.  1.
     999902    2    1    2    0    0  0.17843231540E-01  0.13744600009E-01 -0.46844275967E-02  0.10209248092E+01  0.10206655805E+01 0.  0.
     999903    2    3    3    0    0 -0.12704618092E+00 -0.25081435046E-02 -0.88252066600E-02  0.12891906957E+00  0.19880124637E-01 0.  0.
         14    1    1    2    0    0 -0.17843231540E-01 -0.13744600009E-01  0.46844275967E-02  0.23005190786E-01  0.00000000000E+00 0. -1.
     999901    1    3    3    0    0  0.14488941246E+00  0.16252743513E-01  0.41407790633E-02  0.89200573965E+00  0.88000000000E+00 0. -1.
        -11    1    4    4    0    0 -0.85939843638E-01 -0.10824437995E-01 -0.41928338659E-02  0.86721774424E-01  0.51100000000E-03 0.  1.
         11    1    4    4    0    0 -0.41106337280E-01  0.83162944903E-02 -0.46323727941E-02  0.42197295142E-01  0.51100000000E-03 0. -1.
</event>
<event>
 8    1  0.1052028E+005  0.1043930E+01  0.7957747E-01            NaN
         13   -1    0    0    0    0  0.00000000000E+00  0.00000000000E+00  0.74505805969E-08  0.10566000000E+00  0.10566000000E+00 0.  1.
     999900   -1    0    0    0    0 -0.00000000000E+00 -0.00000000000E+00 -0.74505805969E-08  0.93827000000E+00  0.93827000000E+00 0. -1.
     999902    2    1    2    0    0 -0.19072732528E-01 -0.34650372336E-03  0.14492368887E-01  0.10199734154E+01  0.10196920369E+01 0.  0.
     999903    2    3    3    0    0 -0.19310524178E-01 -0.64216336451E-01  0.11231818966E+00  0.13225200452E+00  0.19457203303E-01 0.  0.
         14    1    1    2    0    0  0.19072732528E-01  0.34650372336E-03 -0.14492368887E-01  0.23956584624E-01  0.00000000000E+00 0. -1.
     999901    1    3    3    0    0  0.23779165026E-03  0.63869832728E-01 -0.97825820774E-01  0.88772141085E+00  0.88000000000E+00 0.  1.
        -11    1    4    4    0    0 -0.11122804827E-01 -0.53130387454E-01  0.99888196346E-01  0.11368582915E+00  0.51100000000E-03 0.  1.
         11    1    4    4    0    0 -0.81877193507E-02 -0.11085948997E-01  0.12429993315E-01  0.18566175377E-01  0.51100000000E-03 0. -1.
</event>
<event>
 8    1  0.1052028E+005  0.1043930E+01  0.7957747E-01            NaN
         13   -1    0    0    0    0  0.00000000000E+00  0.00000000000E+00  0.74505805969E-08  0.10566000000E+00  0.10566000000E+00 0. -1.
     999900   -1    0    0    0    0 -0.00000000000E+00 -0.00000000000E+00 -0.74505805969E-08  0.93827000000E+00  0.93827000000E+00 0.  1.
     999902    2    1    2    0    0 -0.94265627088E-02  0.89818874568E-02  0.19064858401E-01  0.10208431377E+01  0.10205820440E+01 0.  0.
     999903    2    3    3    0    0  0.14886792223E-01 -0.10898703395E+00 -0.63850716223E-01  0.12877654925E+00  0.20166693390E-01 0.  0.
         14    1    1    2    0    0  0.94265627088E-02 -0.89818874568E-02 -0.19064858401E-01  0.23086862339E-01  0.00000000000E+00 0.  1.
     999901    1    3    3    0    0 -0.24313354932E-01  0.11796892141E+00  0.82915574624E-01  0.89206658841E+00  0.88000000000E+00 0.  1.
        -11    1    4    4    0    0  0.17784171963E-01 -0.56477892921E-01 -0.32404075710E-01  0.67500477071E-01  0.51100000000E-03 0. -1.
         11    1    4    4    0    0 -0.28973797397E-02 -0.52509141030E-01 -0.31446640513E-01  0.61276072178E-01  0.51100000000E-03 0.  1.
</event>
<event>
 8    1  0.1052028E+005  0.1043930E+01  0.7957747E-01            NaN
         13   -1    0    0    0    0  0.00000000000E+00  0.00000000000E+00  0.74505805969E-08  0.10566000000E+00  0.10566000000E+00 0.  1.
     999900   -1    0    0    0    0 -0.00000000000E+00 -0.00000000000E+00 -0.74505805969E-08  0.93827000000E+00  0.93827000000E+00 0.  1.
     999902    2    1    2    0    0 -0.20054939387E-01 -0.10549291849E-01 -0.74595060189E-02  0.10200735044E+01  0.10197944999E+01 0.  0.
     999903    2    3    3    0    0 -0.67405294743E-02  0.12098767858E+00  0.39197370995E-01  0.12897524255E+00  0.20364827343E-01 0.  0.
         14    1    1    2    0    0  0.20054939387E-01  0.10549291849E-01  0.74595060189E-02  0.23856495601E-01  0.00000000000E+00 0. -1.
     999901    1    3    3    0    0 -0.13314409912E-01 -0.13153697043E+00 -0.46656877013E-01  0.89109826185E+00  0.88000000000E+00 0.  1.
        -11    1    4    4    0    0 -0.14009453218E-01  0.83824618395E-01  0.26177933016E-01  0.88929054456E-01  0.51100000000E-03 0. -1.
         11    1    4    4    0    0  0.72689237436E-02  0.37163060181E-01  0.13019437979E-01  0.40046188092E-01  0.51100000000E-03 0.  1.
</event>
<event>
 8    1  0.1052028E+005  0.1043930E+01  0.7957747E-01            NaN
         13   -1    0    0    0    0  0.00000000000E+00  0.00000000000E+00  0.74505805969E-08  0.10566000000E+00  0.10566000000E+00 0. -1.
     999900   -1    0    0    0    0 -0.00000000000E+00 -0.00000000000E+00 -0.74505805969E-08  0.93827000000E+00  0.93827000000E+00 0.  1.
     999902    2    1    2    0    0  0.15230556419E-01 -0.96423259957E-02 -0.15731373394E-01  0.10200046911E+01  0.10197240555E+01 0.  0.
     999903    2    3    3    0    0 -0.11644465096E-01  0.20393601247E-02 -0.13004758640E+00  0.13212692631E+00  0.20134482116E-01 0.  0.
         14    1    1    2    0    0 -0.15230556419E-01  0.96423259957E-02  0.15731373394E-01  0.23925308949E-01  0.00000000000E+00 0. -1.
     999901    1    3    3    0    0  0.26875021514E-01 -0.11681686120E-01  0.11431621300E+00  0.88787776474E+00  0.88000000000E+00 0. -1.
        -11    1    4    4    0    0 -0.10083092945E-01  0.83514899803E-02 -0.46086179406E-01  0.47912557868E-01  0.51100000000E-03 0.  1.
         11    1    4    4    0    0 -0.15613721504E-02 -0.63121298556E-02 -0.83961406993E-01  0.84214368439E-01  0.51100000000E-03 0. -1.
</event>
<event>
 8    1  0.1052028E+005  0.1043930E+01  0.7957747E-01            NaN
         13   -1    0    0    0    0  0.00000000000E+00  0.00000000000E+00  0.74505805969E-08  0.10566000000E+00  0.10566000000E+00 0. -1.
     999900   -1    0    0    0    0 -0.00000000000E+00 -0.00000000000E+00 -0.74505805969E-08  0.93827000000E+00  0.93827000000E+00 0. -1.
     999902    2    1    2    0    0 -0.15847542560E-01  0.60013986191E-02  0.16937827282E-01  0.10199706306E+01  0.10196891859E+01 0.  0.
     999903    2    3    3    0    0  0.10853442297E-02 -0.59987169436E-01 -0.11134805629E+00  0.12806341471E+00  0.20055175859E-01 0.  0.
         14    1    1    2    0    0  0.15847542560E-01 -0.60013986191E-02 -0.16937827282E-01  0.23959369432E-01  0.00000000000E+00 0.  1.
     999901    1    3    3    0    0 -0.16932886790E-01  0.65988568055E-01  0.12828588357E+00  0.89190721585E+00  0.88000000000E+00 0.  1.
        -11    1    4    4    0    0  0.56731250474E-03 -0.25850249813E-01 -0.68856500277E-01  0.73552946985E-01  0.51100000000E-03 0.  1.
         11    1    4    4    0    0  0.51803172494E-03 -0.34136919623E-01 -0.42491556016E-01  0.54510467728E-01  0.51100000000E-03 0. -1.
</event>
<event>
 8    1  0.1052028E+005  0.1043930E+01  0.7957747E-01            NaN
         13   -1    0    0    0    0  0.00000000000E+00  0.00000000000E+00  0.74505805969E-08  0.10566000000E+00  0.10566000000E+00 0. -1.
     999900   -1    0    0    0    0 -0.00000000000E+00 -0.00000000000E+00 -0.74505805969E-08  0.93827000000E+00  0.93827000000E+00 0. -1.
     999902    2    1    2    0    0  0.11515831239E-01 -0.11377664157E-01  0.17162545245E-01  0.10203372348E+01  0.10200644363E+01 0.  0.
     999903    2    3    3    0    0 -0.11510772569E+00 -0.28076974485E-01  0.51181754348E-01  0.13046662694E+00  0.19075213185E-01 0.  0.
         14    1    1    2    0    0 -0.11515831239E-01  0.11377664157E-01 -0.17162545245E-01  0.23592765207E-01  0.00000000000E+00 0. -1.
     999901    1    3    3    0    0  0.12662355692E+00  0.16699310328E-01 -0.34019209103E-01  0.88987060785E+00  0.88000000000E+00 0.  1.
        -11    1    4    4    0    0 -0.80064720729E-01 -0.24561316783E-01  0.43674505500E-01  0.94452852468E-01  0.51100000000E-03 0.  1.
         11    1    4    4    0    0 -0.35043004956E-01 -0.35156577019E-02  0.75072488481E-02  0.36013774472E-01  0.51100000000E-03 0. -1.
</event>
<event>
 8    1  0.1052028E+005  0.1043930E+01  0.7957747E-01            NaN
         13   -1    0    0    0    0  0.00000000000E+00  0.00000000000E+00  0.74505805969E-08  0.10566000000E+00  0.10566000000E+00 0. -1.
     999900   -1    0    0    0    0 -0.00000000000E+00 -0.00000000000E+00 -0.74505805969E-08  0.93827000000E+00  0.93827000000E+00 0.  1.
     999902    2    1    2    0    0  0.15112699411E-01 -0.17657776414E-01 -0.49924004481E-02  0.10201578564E+01  0.10198808445E+01 0.  0.
     999903    2    3    3    0    0 -0.17995616196E-01 -0.11093440978E+00 -0.67749662980E-01  0.13238808614E+00  0.17501515459E-01 0.  0.
         14    1    1    2    0    0 -0.15112699411E-01  0.17657776414E-01  0.49924004481E-02  0.23772143647E-01  0.00000000000E+00 0. -1.
     999901    1    3    3    0    0  0.33108315607E-01  0.93276633368E-01  0.62757262532E-01  0.88776977021E+00  0.88000000000E+00 0.  1.
        -11    1    4    4    0    0 -0.23745737613E-02 -0.23133526315E-01 -0.63416852756E-02  0.24109681322E-01  0.51100000000E-03 0. -1.
         11    1    4    4    0    0 -0.15621042435E-01 -0.87800883466E-01 -0.61407977705E-01  0.10827840482E+00  0.51100000000E-03 0.  1.
</event>
<event>
 8    1  0.1052028E+005  0.1043930E+01  0.7957747E-01            NaN
         13   -1    0    0    0    0  0.00000000000E+00  0.00000000000E+00  0.74505805969E-08  0.10566000000E+00  0.10566000000E+00 0.  1.
     999900   -1    0    0    0    0 -0.00000000000E+00 -0.00000000000E+00 -0.74505805969E-08  0.93827000000E+00  0.93827000000E+00 0.  1.
     999902    2    1    2    0    0  0.21355481583E-02 -0.11851149901E-01 -0.20403092394E-01  0.10202383032E+01  0.10199631850E+01 0.  0.
     999903    2    3    3    0    0 -0.10660422196E+00  0.78040215490E-02 -0.74392210025E-01  0.13168583527E+00  0.19534467121E-01 0.  0.
         14    1    1    2    0    0 -0.21355481583E-02  0.11851149901E-01  0.20403092394E-01  0.23691696840E-01  0.00000000000E+00 0.  1.
     999901    1    3    3    0    0  0.10873977012E+00 -0.19655171450E-01  0.53989117631E-01  0.88855246789E+00  0.88000000000E+00 0. -1.
        -11    1    4    4    0    0 -0.66458687747E-01  0.10168466803E-01 -0.36860215306E-01  0.76675233861E-01  0.51100000000E-03 0.  1.
         11    1    4    4    0    0 -0.40145534216E-01 -0.23644452539E-02 -0.37531994719E-01  0.55010601409E-01  0.51100000000E-03 0. -1.
</event>
<event>
 8    1  0.1052028E+005  0.1043930E+01  0.7957747E-01            NaN
         13   -1    0    0    0    0  0.00000000000E+00  0.00000000000E+00  0.74505805969E-08  0.10566000000E+00  0.10566000000E+00 0. -1.
     999900   -1    0    0    0    0 -0.00000000000E+00 -0.00000000000E+00 -0.74505805969E-08  0.93827000000E+00  0.93827000000E+00 0.  1.
     999902    2    1    2    0    0 -0.25986781118E-02 -0.12155517173E-01  0.19658245431E-01  0.10206715319E+01  0.10204064973E+01 0.  0.
     999903    2    3    3    0    0  0.80077703328E-02 -0.40536236876E-01 -0.12065339799E+00  0.12904082398E+00  0.19671830641E-01 0.  0.
         14    1    1    2    0    0  0.25986781118E-02  0.12155517173E-01 -0.19658245431E-01  0.23258468116E-01  0.00000000000E+00 0.  1.
     999901    1    3    3    0    0 -0.10606448445E-01  0.28380719702E-01  0.14031164342E+00  0.89163070790E+00  0.88000000000E+00 0. -1.
        -11    1    4    4    0    0 -0.19624443101E-02  0.35105364909E-05 -0.19566064882E-01  0.19670872272E-01  0.51100000000E-03 0.  1.
         11    1    4    4    0    0  0.99702146429E-02 -0.40539747412E-01 -0.10108733311E+00  0.10936995171E+00  0.51100000000E-03 0. -1.
</event>
<event>
 8    1  0.1052028E+005  0.1043930E+01  0.7957747E-01            NaN
         13   -1    0    0    0    0  0.00000000000E+00  0.00000000000E+00  0.74505805969E-08  0.10566000000E+00  0.10566000000E+00 0. -1.
     999900   -1    0    0    0    0 -0.00000000000E+00 -0.00000000000E+00 -0.74505805969E-08  0.93827000000E+00  0.93827000000E+00 0.  1.
     999902    2    1    2    0    0  0.14666048244E-01 -0.19267179823E-01 -0.91269794947E-02  0.10180530036E+01  0.10177240781E+01 0.  0.
     999903    2    3    3    0    0 -0.38167771615E-01  0.11612464123E+00  0.11367913260E-01  0.12589696433E+00  0.27912453951E-01 0.  0.
         14    1    1    2    0    0 -0.14666048244E-01  0.19267179823E-01  0.91269794947E-02  0.25876996427E-01  0.00000000000E+00 0. -1.
     999901    1    3    3    0    0  0.52833819859E-01 -0.13539182105E+00 -0.20494892754E-01  0.89215603924E+00  0.88000000000E+00 0.  1.
        -11    1    4    4    0    0 -0.32364126013E-01  0.94784676324E-01 -0.17587331017E-02  0.10017447670E+00  0.51100000000E-03 0. -1.
         11    1    4    4    0    0 -0.58036456025E-02  0.21339964902E-01  0.13126646361E-01  0.25722487633E-01  0.51100000000E-03 0.  1.
</event>
<event>
 8    1  0.1052028E+005  0.1043930E+01  0.7957747E-01            NaN
         13   -1    0    0    0    0  0.00000000000E+00  0.00000000000E+00  0.74505805969E-08  0.10566000000E+00  0.10566000000E+00 0. -1.
     999900   -1    0    0    0    0 -0.00000000000E+00 -0.00000000000E+00 -0.74505805969E-08  0.93827000000E+00  0.93827000000E+00 0. -1.
     999902    2    1    2    0    0 -0.61164053472E-02 -0.22771211884E-01  0.10894172903E-02  0.10203264974E+01  0.10200534476E+01 0.  0.
     999903    2    3    3    0    0 -0.15133261567E-01  0.10443158182E+00 -0.69855270691E-01  0.12830911911E+00  0.21177826052E-01 0.  0.
         14    1    1    2    0    0  0.61164053472E-02  0.22771211884E-01 -0.10894172903E-02  0.23603502602E-01  0.00000000000E+00 0.  1.
     999901    1    3    3    0    0  0.90168562198E-02 -0.12720279370E+00  0.70944687981E-01  0.89201737829E+00  0.88000000000E+00 0.  1.
        -11    1    4    4    0    0 -0.16605874318E-01  0.73346989460E-01 -0.39999022629E-01  0.85180507494E-01  0.51100000000E-03 0. -1.
         11    1    4    4    0    0  0.14726127510E-02  0.31084592356E-01 -0.29856248062E-01  0.43128611612E-01  0.51100000000E-03 0.  1.
</event>
<event>
 8    1  0.1052028E+005  0.1043930E+01  0.7957747E-01            NaN
         13   -1    0    0    0    0  0.00000000000E+00  0.00000000000E+00  0.74505805969E-08  0.10566000000E+00  0.10566000000E+00 0.  1.
     999900   -1    0    0    0    0 -0.00000000000E+00 -0.00000000000E+00 -0.74505805969E-08  0.93827000000E+00  0.93827000000E+00 0.  1.
     999902    2    1    2    0    0 -0.56102702353E-02  0.15433476072E-01 -0.12059282717E-01  0.10235561536E+01  0.10233533632E+01 0.  0.
     999903    2    3    3    0    0 -0.12933707637E-01 -0.10737354443E+00 -0.74411441006E-01  0.13281321168E+00  0.20147650157E-01 0.  0.
         14    1    1    2    0    0  0.56102702353E-02 -0.15433476072E-01  0.12059282717E-01  0.20373846358E-01  0.00000000000E+00 0.  1.
     999901    1    3    3    0    0  0.73234374015E-02  0.12280702050E+00  0.62352158289E-01  0.89074294197E+00  0.88000000000E+00 0. -1.
        -11    1    4    4    0    0 -0.15471236038E-01 -0.52478360153E-01 -0.31903822791E-01  0.63336028124E-01  0.51100000000E-03 0.  1.
         11    1    4    4    0    0  0.25375284009E-02 -0.54895184275E-01 -0.42507618214E-01  0.69477183552E-01  0.51100000000E-03 0. -1.
</event>
<event>
 8    1  0.1052028E+005  0.1043930E+01  0.7957747E-01            NaN
         13   -1    0    0    0    0  0.00000000000E+00  0.00000000000E+00  0.74505805969E-08  0.10566000000E+00  0.10566000000E+00 0. -1.
     999900   -1    0    0    0    0 -0.00000000000E+00 -0.00000000000E+00 -0.74505805969E-08  0.93827000000E+00  0.93827000000E+00 0.  1.
     999902    2    1    2    0    0  0.16601724429E-01 -0.84100713453E-02 -0.15752404180E-01  0.10195479412E+01  0.10192563562E+01 0.  0.
     999903    2    3    3    0    0 -0.56967788334E-01 -0.86132762702E-01 -0.77993762201E-01  0.13088193160E+00  0.19567098896E-01 0.  0.
         14    1    1    2    0    0 -0.16601724429E-01  0.84100713453E-02  0.15752404180E-01  0.24382058804E-01  0.00000000000E+00 0.  1.
     999901    1    3    3    0    0  0.73569512763E-01  0.77722691357E-01  0.62241358021E-01  0.88866600959E+00  0.88000000000E+00 0. -1.
        -11    1    4    4    0    0 -0.19952926805E-01 -0.46984609132E-01 -0.41750643819E-01  0.65947328708E-01  0.51100000000E-03 0. -1.
         11    1    4    4    0    0 -0.37014861530E-01 -0.39148153569E-01 -0.36243118383E-01  0.64934602894E-01  0.51100000000E-03 0.  1.
</event>
<event>
 8    1  0.1052028E+005  0.1043930E+01  0.7957747E-01            NaN
         13   -1    0    0    0    0  0.00000000000E+00  0.00000000000E+00  0.74505805969E-08  0.10566000000E+00  0.10566000000E+00 0.  1.
     999900   -1    0    0    0    0 -0.00000000000E+00 -0.00000000000E+00 -0.74505805969E-08  0.93827000000E+00  0.93827000000E+00 0. -1.
     999902    2    1    2    0    0  0.72290231816E-02  0.21563127091E-01 -0.66645867588E-02  0.10202309717E+01  0.10199556812E+01 0.  0.
     999903    2    3    3    0    0 -0.75367325792E-01 -0.99142361537E-01  0.20647004246E-01  0.12774125475E+00  0.19547064536E-01 0.  0.
         14    1    1    2    0    0 -0.72290231816E-02 -0.21563127091E-01  0.66645867588E-02  0.23699028308E-01  0.00000000000E+00 0.  1.
     999901    1    3    3    0    0  0.82596348974E-01  0.12070548863E+00 -0.27311591005E-01  0.89248971694E+00  0.88000000000E+00 0. -1.
        -11    1    4    4    0    0 -0.30640901002E-01 -0.41324939720E-01 -0.11511050973E-02  0.51460680340E-01  0.51100000000E-03 0.  1.
         11    1    4    4    0    0 -0.44726424790E-01 -0.57817421817E-01  0.21798109343E-01  0.76280574407E-01  0.51100000000E-03 0. -1.
</event>
<event>
 8    1  0.1052028E+005  0.1043930E+01  0.7957747E-01            NaN
         13   -1    0    0    0    0  0.00000000000E+00  0.00000000000E+00  0.74505805969E-08  0.10566000000E+00  0.10566000000E+00 0.  1.
     999900   -1    0    0    0    0 -0.00000000000E+00 -0.00000000000E+00 -0.74505805969E-08  0.93827000000E+00  0.93827000000E+00 0.  1.
     999902    2    1    2    0    0  0.11916571198E-01 -0.83572974486E-02  0.17516649364E-01  0.10211554068E+01  0.10209014070E+01 0.  0.
     999903    2    3    3    0    0  0.41592254905E-01 -0.43179360652E-02  0.12572294964E+00  0.13402206506E+00  0.20176561036E-01 0.  0.
         14    1    1    2    0    0 -0.11916571198E-01  0.83572974486E-02 -0.17516649364E-01  0.22774593184E-01  0.00000000000E+00 0. -1.
     999901    1    3    3    0    0 -0.29675683707E-01 -0.40393613834E-02 -0.10820630028E+00  0.88713334176E+00  0.88000000000E+00 0.  1.
        -11    1    4    4    0    0 -0.10228271248E-02 -0.13078365430E-02  0.18786457232E-01  0.18866602982E-01  0.51100000000E-03 0. -1.
         11    1    4    4    0    0  0.42615082030E-01 -0.30100995222E-02  0.10693649241E+00  0.11515546207E+00  0.51100000000E-03 0.  1.
</event>
<event>
 8    1  0.1052028E+005  0.1043930E+01  0.7957747E-01            NaN
         13   -1    0    0    0    0  0.00000000000E+00  0.00000000000E+00  0.74505805969E-08  0.10566000000E+00  0.10566000000E+00 0.  1.
     999900   -1    0    0    0    0 -0.00000000000E+00 -0.00000000000E+00 -0.74505805969E-08  0.93827000000E+00  0.93827000000E+00 0. -1.
     999902    2    1    2    0    0  0.99744518371E-02 -0.11583530158E-01 -0.16984890601E-01  0.10210793027E+01  0.10208235832E+01 0.  0.
     999903    2    3    3    0    0 -0.14655863040E-01 -0.12970803421E+00  0.10256264750E-01  0.13242744089E+00  0.19820889831E-01 0.  0.
         14    1    1    2    0    0 -0.99744518371E-02  0.11583530158E-01  0.16984890601E-01  0.22850697344E-01  0.00000000000E+00 0.  1.
     999901    1    3    3    0    0  0.24630314877E-01  0.11812450406E+00 -0.27241155351E-01  0.88865186176E+00  0.88000000000E+00 0. -1.
        -11    1    4    4    0    0 -0.42867211640E-02 -0.25526760303E-01 -0.57326437936E-02  0.26516330737E-01  0.51100000000E-03 0. -1.
         11    1    4    4    0    0 -0.10369141876E-01 -0.10418127391E+00  0.15988908543E-01  0.10591111016E+00  0.51100000000E-03 0.  1.
</event>
<event>
 8    1  0.1151697E+005  0.1043930E+01  0.7957747E-01            NaN
         13   -1    0    0    0    0  0.00000000000E+00  0.00000000000E+00  0.74505805969E-08  0.10566000000E+00  0.10566000000E+00 0. -1.
     999900   -1    0    0    0    0 -0.00000000000E+00 -0.00000000000E+00 -0.74505805969E-08  0.93827000000E+00  0.93827000000E+00 0.  1.
     999902    2    1    2    0    0  0.31975958866E-01 -0.60428483593E-02 -0.37003976648E-02  0.10111783450E+01  0.10106477994E+01 0.  0.
     999903    2    3    3    0    0  0.11671448314E+00  0.35995861696E-01 -0.22976407360E-01  0.12589904717E+00  0.20116713173E-01 0.  0.
         14    1    1    2    0    0 -0.31975958866E-01  0.60428483593E-02  0.37003976648E-02  0.32751654989E-01  0.00000000000E+00 0. -1.
     999901    1    3    3    0    0 -0.84738524274E-01 -0.42038710055E-01  0.19276009696E-01  0.88527929784E+00  0.88000000000E+00 0. -1.
        -11    1    4    4    0    0  0.39122257479E-01  0.20902435860E-01 -0.35634123721E-02  0.44501931237E-01  0.51100000000E-03 0.  1.
         11    1    4    4    0    0  0.77592225660E-01  0.15093425836E-01 -0.19412994988E-01  0.81397115930E-01  0.51100000000E-03 0. -1.
</event>
<event>
 8    1  0.1052028E+005  0.1043930E+01  0.7957747E-01            NaN
         13   -1    0    0    0    0  0.00000000000E+00  0.00000000000E+00  0.74505805969E-08  0.10566000000E+00  0.10566000000E+00 0.  1.
     999900   -1    0    0    0    0 -0.00000000000E+00 -0.00000000000E+00 -0.74505805969E-08  0.93827000000E+00  0.93827000000E+00 0.  1.
     999902    2    1    2    0    0  0.56418639279E-02 -0.13271024146E-01  0.19346872814E-01  0.10198000974E+01  0.10195145838E+01 0.  0.
     999903    2    3    3    0    0 -0.10037147236E+00  0.32732552139E-01  0.74084713224E-01  0.13055806757E+00  0.20273426934E-01 0.  0.
         14    1    1    2    0    0 -0.56418639279E-02  0.13271024146E-01 -0.19346872814E-01  0.24129902572E-01  0.00000000000E+00 0. -1.
     999901    1    3    3    0    0  0.10601333629E+00 -0.46003576285E-01 -0.54737840411E-01  0.88924202986E+00  0.88000000000E+00 0.  1.
        -11    1    4    4    0    0 -0.58933647675E-01  0.24068441254E-01  0.33619168078E-01  0.71992876563E-01  0.51100000000E-03 0. -1.
         11    1    4    4    0    0 -0.41437824685E-01  0.86641108848E-02  0.40465545147E-01  0.58565191002E-01  0.51100000000E-03 0.  1.
</event>
<event>
 8    1  0.1052028E+005  0.1043930E+01  0.7957747E-01            NaN
         13   -1    0    0    0    0  0.00000000000E+00  0.00000000000E+00  0.74505805969E-08  0.10566000000E+00  0.10566000000E+00 0.  1.
     999900   -1    0    0    0    0 -0.00000000000E+00 -0.00000000000E+00 -0.74505805969E-08  0.93827000000E+00  0.93827000000E+00 0. -1.
     999902    2    1    2    0    0  0.16065095585E-01 -0.82616279118E-02  0.14408748416E-01  0.10208225591E+01  0.10205609945E+01 0.  0.
     999903    2    3    3    0    0  0.48234949109E-01  0.35810371199E-01  0.11713278763E+00  0.13316864640E+00  0.20119777445E-01 0.  0.
         14    1    1    2    0    0 -0.16065095585E-01  0.82616279118E-02 -0.14408748416E-01  0.23107440854E-01  0.00000000000E+00 0. -1.
     999901    1    3    3    0    0 -0.32169853525E-01 -0.44071999111E-01 -0.10272403922E+00  0.88765391275E+00  0.88000000000E+00 0. -1.
        -11    1    4    4    0    0  0.46466532049E-01  0.26401192802E-01  0.10373847664E+00  0.11669659052E+00  0.51100000000E-03 0. -1.
         11    1    4    4    0    0  0.17684170608E-02  0.94091783969E-02  0.13394310992E-01  0.16472055882E-01  0.51100000000E-03 0.  1.
</event>
<event>
 8    1  0.1052028E+005  0.1043930E+01  0.7957747E-01            NaN
         13   -1    0    0    0    0  0.00000000000E+00  0.00000000000E+00  0.74505805969E-08  0.10566000000E+00  0.10566000000E+00 0. -1.
     999900   -1    0    0    0    0 -0.00000000000E+00 -0.00000000000E+00 -0.74505805969E-08  0.93827000000E+00  0.93827000000E+00 0. -1.
     999902    2    1    2    0    0 -0.11338311844E-01 -0.22223944899E-01 -0.56847211864E-02  0.10183413874E+01  0.10180198446E+01 0.  0.
     999903    2    3    3    0    0 -0.22847530571E-01  0.34466220102E-01 -0.12051172291E+00  0.12899810310E+00  0.20186759575E-01 0.  0.
         14    1    1    2    0    0  0.11338311844E-01  0.22223944899E-01  0.56847211864E-02  0.25588612649E-01  0.00000000000E+00 0. -1.
     999901    1    3    3    0    0  0.11509218727E-01 -0.56690165001E-01  0.11482700172E+00  0.88934328425E+00  0.88000000000E+00 0.  1.
        -11    1    4    4    0    0 -0.23119111966E-01  0.30577883936E-01 -0.84712736324E-01  0.92983918720E-01  0.51100000000E-03 0.  1.
         11    1    4    4    0    0  0.27158139540E-03  0.38883361661E-02 -0.35798986587E-01  0.36014184376E-01  0.51100000000E-03 0. -1.
</event>
<event>
 8    1  0.1052028E+005  0.1043930E+01  0.7957747E-01            NaN
         13   -1    0    0    0    0  0.00000000000E+00  0.00000000000E+00  0.74505805969E-08  0.10566000000E+00  0.10566000000E+00 0. -1.
     999900   -1    0    0    0    0 -0.00000000000E+00 -0.00000000000E+00 -0.74505805969E-08  0.93827000000E+00  0.93827000000E+00 0.  1.
     999902    2    1    2    0    0 -0.29804778326E-02  0.88088753609E-02 -0.23091488136E-01  0.10190362988E+01  0.10187321935E+01 0.  0.
     999903    2    3    3    0    0  0.41807887549E-01  0.10689933381E+00 -0.61194276467E-01  0.13163584910E+00  0.20196293348E-01 0.  0.
         14    1    1    2    0    0  0.29804778326E-02 -0.88088753609E-02  0.23091488136E-01  0.24893701162E-01  0.00000000000E+00 0. -1.
     999901    1    3    3    0    0 -0.44788365381E-01 -0.98090458454E-01  0.38102788332E-01  0.88740044974E+00  0.88000000000E+00 0. -1.
        -11    1    4    4    0    0  0.11554445904E-01  0.16334911568E-01 -0.17669623667E-01  0.26698525758E-01  0.51100000000E-03 0. -1.
         11    1    4    4    0    0  0.30253441644E-01  0.90564422247E-01 -0.43524652800E-01  0.10493732334E+00  0.51100000000E-03 0.  1.
</event>
<event>
 8    1  0.1052028E+005  0.1043930E+01  0.7957747E-01            NaN
         13   -1    0    0    0    0  0.00000000000E+00  0.00000000000E+00  0.74505805969E-08  0.10566000000E+00  0.10566000000E+00 0.  1.
     999900   -1    0    0    0    0 -0.00000000000E+00 -0.00000000000E+00 -0.74505805969E-08  0.93827000000E+00  0.93827000000E+00 0. -1.
     999902    2    1    2    0    0  0.13356987029E-01  0.10818924252E-01  0.15826240888E-01  0.10205648951E+01  0.10202973964E+01 0.  0.
     999903    2    3    3    0    0 -0.77819881940E-01  0.37726161902E-01  0.96980425169E-01  0.13173238983E+00  0.21656923760E-01 0.  0.
         14    1    1    2    0    0 -0.13356987029E-01 -0.10818924252E-01 -0.15826240888E-01  0.23365104860E-01  0.00000000000E+00 0. -1.
     999901    1    3    3    0    0  0.91176868969E-01 -0.26907237649E-01 -0.81154184281E-01  0.88883250531E+00  0.88000000000E+00 0.  1.
        -11    1    4    4    0    0 -0.27272086636E-01  0.20640613113E-01  0.26174774219E-01  0.43071818461E-01  0.51100000000E-03 0. -1.
         11    1    4    4    0    0 -0.50547795304E-01  0.17085548788E-01  0.70805650950E-01  0.88660571367E-01  0.51100000000E-03 0.  1.
</event>
<event>
 8    1  0.1052028E+005  0.1043930E+01  0.7957747E-01            NaN
         13   -1    0    0    0    0  0.00000000000E+00  0.00000000000E+00  0.74505805969E-08  0.10566000000E+00  0.10566000000E+00 0. -1.
     999900   -1    0    0    0    0 -0.00000000000E+00 -0.00000000000E+00 -0.74505805969E-08  0.93827000000E+00  0.93827000000E+00 0. -1.
     999902    2    1    2    0    0  0.22635652638E-02  0.23523835658E-01  0.16675312097E-02  0.10202387520E+01  0.10199636444E+01 0.  0.
     999903    2    3    3    0    0 -0.49872545364E-01  0.97995191599E-01  0.71434777734E-01  0.13280896572E+00  0.21094206476E-01 0.  0.
         14    1    1    2    0    0 -0.22635652638E-02 -0.23523835658E-01 -0.16675312097E-02  0.23691248006E-01  0.00000000000E+00 0.  1.
     999901    1    3    3    0    0  0.52136110628E-01 -0.74471355941E-01 -0.69767246524E-01  0.88742978628E+00  0.88000000000E+00 0.  1.
        -11    1    4    4    0    0 -0.32445021015E-02  0.25492527282E-01  0.18164754956E-01  0.31474039854E-01  0.51100000000E-03 0. -1.
         11    1    4    4    0    0 -0.46628043262E-01  0.72502664317E-01  0.53270022778E-01  0.10133492586E+00  0.51100000000E-03 0.  1.
</event>
<event>
 8    1  0.1052028E+005  0.1043930E+01  0.7957747E-01            NaN
         13   -1    0    0    0    0  0.00000000000E+00  0.00000000000E+00  0.74505805969E-08  0.10566000000E+00  0.10566000000E+00 0. -1.
     999900   -1    0    0    0    0 -0.00000000000E+00 -0.00000000000E+00 -0.74505805969E-08  0.93827000000E+00  0.93827000000E+00 0. -1.
     999902    2    1    2    0    0 -0.11858613955E-02 -0.22516941969E-01 -0.96621605626E-02  0.10193988710E+01  0.10191036659E+01 0.  0.
     999903    2    3    3    0    0 -0.12427692319E+00  0.27566121062E-01 -0.12688229159E-01  0.12941635444E+00  0.19569286389E-01 0.  0.
         14    1    1    2    0    0  0.11858613955E-02  0.22516941969E-01  0.96621605626E-02  0.24531128992E-01  0.00000000000E+00 0. -1.
     999901    1    3    3    0    0  0.12309106180E+00 -0.50083063031E-01  0.30260685966E-02  0.88998251656E+00  0.88000000000E+00 0.  1.
        -11    1    4    4    0    0 -0.52512516130E-01  0.76120341797E-02 -0.14133171210E-01  0.54913705612E-01  0.51100000000E-03 0. -1.
         11    1    4    4    0    0 -0.71764407064E-01  0.19954086882E-01  0.14449420512E-02  0.74502648832E-01  0.51100000000E-03 0.  1.
</event>
<event>
 8    1  0.1052028E+005  0.1043930E+01  0.7957747E-01            NaN
         13   -1    0    0    0    0  0.00000000000E+00  0.00000000000E+00  0.74505805969E-08  0.10566000000E+00  0.10566000000E+00 0.  1.
     999900   -1    0    0    0    0 -0.00000000000E+00 -0.00000000000E+00 -0.74505805969E-08  0.93827000000E+00  0.93827000000E+00 0. -1.
     999902    2    1    2    0    0  0.22584175274E-01 -0.14009013845E-02 -0.35923424497E-02  0.10210190327E+01  0.10207619472E+01 0.  0.
     999903    2    3    3    0    0 -0.69454439264E-01  0.10592303857E+00  0.17242172175E-01  0.12949022687E+00  0.20659552774E-01 0.  0.
         14    1    1    2    0    0 -0.22584175274E-01  0.14009013845E-02  0.35923424497E-02  0.22910967282E-01  0.00000000000E+00 0. -1.
     999901    1    3    3    0    0  0.92038614539E-01 -0.10732393995E+00 -0.20834514625E-01  0.89152880585E+00  0.88000000000E+00 0. -1.
        -11    1    4    4    0    0 -0.30644261723E-01  0.34286517495E-01  0.13500492921E-01  0.47928702137E-01  0.51100000000E-03 0. -1.
         11    1    4    4    0    0 -0.38810177541E-01  0.71636521074E-01  0.37416792546E-02  0.81561524735E-01  0.51100000000E-03 0.  1.
</event>
<event>
 8    1  0.1052028E+005  0.1043930E+01  0.7957747E-01            NaN
         13   -1    0    0    0    0  0.00000000000E+00  0.00000000000E+00  0.74505805969E-08  0.10566000000E+00  0.10566000000E+00 0. -1.
     999900   -1    0    0    0    0 -0.00000000000E+00 -0.00000000000E+00 -0.74505805969E-08  0.93827000000E+00  0.93827000000E+00 0.  1.
     999902    2    1    2    0    0 -0.48742599410E-02 -0.77165871723E-02 -0.22098985324E-01  0.10200203936E+01  0.10197401306E+01 0.  0.
     999903    2    3    3    0    0 -0.10879190028E+00  0.13473467587E-01  0.65748048594E-01  0.12931000530E+00  0.19520750045E-01 0.  0.
         14    1    1    2    0    0  0.48742599410E-02  0.77165871723E-02  0.22098985324E-01  0.23909606436E-01  0.00000000000E+00 0. -1.
     999901    1    3    3    0    0  0.10391764033E+00 -0.21190054759E-01 -0.87847033918E-01  0.89071038826E+00  0.88000000000E+00 0.  1.
        -11    1    4    4    0    0 -0.32408353367E-01  0.46948420907E-03  0.10239056557E-01  0.33994428713E-01  0.51100000000E-03 0. -1.
         11    1    4    4    0    0 -0.76383546909E-01  0.13003983378E-01  0.55508992037E-01  0.95315576587E-01  0.51100000000E-03 0.  1.
</event>
<event>
 8    1  0.1052028E+005  0.1043930E+01  0.7957747E-01            NaN
         13   -1    0    0    0    0  0.00000000000E+00  0.00000000000E+00  0.74505805969E-08  0.10566000000E+00  0.10566000000E+00 0.  1.
     999900   -1    0    0    0    0 -0.00000000000E+00 -0.00000000000E+00 -0.74505805969E-08  0.93827000000E+00  0.93827000000E+00 0.  1.
     999902    2    1    2    0    0  0.89306782399E-02  0.22103367946E-01  0.67781639249E-02  0.10191457430E+01  0.10188443385E+01 0.  0.
     999903    2    3    3    0    0  0.13516129848E-01  0.12931132683E+00 -0.14187976545E-01  0.13237962285E+00  0.20468533286E-01 0.  0.
         14    1    1    2    0    0 -0.89306782399E-02 -0.22103367946E-01 -0.67781639249E-02  0.24784256990E-01  0.00000000000E+00 0. -1.
     999901    1    3    3    0    0 -0.45854516076E-02 -0.10720795889E+00  0.20966140470E-01  0.88676612016E+00  0.88000000000E+00 0. -1.
        -11    1    4    4    0    0  0.14675695856E-01  0.72300516457E-01 -0.15288359810E-01  0.75344115865E-01  0.51100000000E-03 0. -1.
         11    1    4    4    0    0 -0.11595660081E-02  0.57010810374E-01  0.11003832644E-02  0.57035506986E-01  0.51100000000E-03 0.  1.
</event>
<event>
 8    1  0.1052028E+005  0.1043930E+01  0.7957747E-01            NaN
         13   -1    0    0    0    0  0.00000000000E+00  0.00000000000E+00  0.74505805969E-08  0.10566000000E+00  0.10566000000E+00 0.  1.
     999900   -1    0    0    0    0 -0.00000000000E+00 -0.00000000000E+00 -0.74505805969E-08  0.93827000000E+00  0.93827000000E+00 0.  1.
     999902    2    1    2    0    0  0.46002182777E-02 -0.11467535302E-01  0.19557457321E-01  0.10207964635E+01  0.10205343009E+01 0.  0.
     999903    2    3    3    0    0 -0.12074474815E+00  0.14895424154E-01  0.44238820886E-01  0.13118107697E+00  0.21218713842E-01 0.  0.
         14    1    1    2    0    0 -0.46002182777E-02  0.11467535302E-01 -0.19557457321E-01  0.23133536500E-01  0.00000000000E+00 0. -1.
     999901    1    3    3    0    0  0.12534496642E+00 -0.26362959456E-01 -0.24681363564E-01  0.88961538653E+00  0.88000000000E+00 0. -1.
        -11    1    4    4    0    0 -0.54013560565E-01  0.70254243209E-02  0.31063943161E-01  0.62706068268E-01  0.51100000000E-03 0.  1.
         11    1    4    4    0    0 -0.66731187580E-01  0.78699998330E-02  0.13174877724E-01  0.68475008705E-01  0.51100000000E-03 0. -1.
</event>
<event>
 8    1  0.1052028E+005  0.1043930E+01  0.7957747E-01            NaN
         13   -1    0    0    0    0  0.00000000000E+00  0.00000000000E+00  0.74505805969E-08  0.10566000000E+00  0.10566000000E+00 0.  1.
     999900   -1    0    0    0    0 -0.00000000000E+00 -0.00000000000E+00 -0.74505805969E-08  0.93827000000E+00  0.93827000000E+00 0. -1.
     999902    2    1    2    0    0  0.18518433911E-01 -0.84142562945E-02  0.12483815670E-01  0.10200641718E+01  0.10197849463E+01 0.  0.
     999903    2    3    3    0    0  0.11566634526E+00  0.59428270831E-01 -0.88572371685E-02  0.13186612758E+00  0.19995053210E-01 0.  0.
         14    1    1    2    0    0 -0.18518433911E-01  0.84142562945E-02 -0.12483815670E-01  0.23865828231E-01  0.00000000000E+00 0. -1.
     999901    1    3    3    0    0 -0.97147911348E-01 -0.67842527126E-01  0.21341052838E-01  0.88819804419E+00  0.88000000000E+00 0.  1.
        -11    1    4    4    0    0  0.20040046386E-01  0.16243927877E-01 -0.77261737184E-02  0.26933687704E-01  0.51100000000E-03 0.  1.
         11    1    4    4    0    0  0.95626298873E-01  0.43184342954E-01 -0.11310634501E-02  0.10493243987E+00  0.51100000000E-03 0. -1.
</event>
<event>
 8    1  0.1052028E+005  0.1043930E+01  0.7957747E-01            NaN
         13   -1    0    0    0    0  0.00000000000E+00  0.00000000000E+00  0.74505805969E-08  0.10566000000E+00  0.10566000000E+00 0.  1.
     999900   -1    0    0    0    0 -0.00000000000E+00 -0.00000000000E+00 -0.74505805969E-08  0.93827000000E+00  0.93827000000E+00 0.  1.
     999902    2    1    2    0    0  0.50219154237E-03  0.11969624088E-01 -0.21115813355E-01  0.10196524039E+01  0.10193633421E+01 0.  0.
     999903    2    3    3    0    0 -0.82676705676E-01 -0.96294051665E-01 -0.95714268957E-02  0.12904978475E+00  0.21313204468E-01 0.  0.
         14    1    1    2    0    0 -0.50219154237E-03 -0.11969624088E-01  0.21115813355E-01  0.24277596067E-01  0.00000000000E+00 0.  1.
     999901    1    3    3    0    0  0.83178897219E-01  0.10826367575E+00 -0.11544386459E-01  0.89060261918E+00  0.88000000000E+00 0.  1.
        -11    1    4    4    0    0 -0.39993336778E-01 -0.52175743233E-01 -0.14967569631E-01  0.67424509121E-01  0.51100000000E-03 0.  1.
         11    1    4    4    0    0 -0.42683368899E-01 -0.44118308432E-01  0.53961427356E-02  0.61625275633E-01  0.51100000000E-03 0. -1.
</event>
<event>
 8    1  0.1052028E+005  0.1043930E+01  0.7957747E-01            NaN
         13   -1    0    0    0    0  0.00000000000E+00  0.00000000000E+00  0.74505805969E-08  0.10566000000E+00  0.10566000000E+00 0. -1.
     999900   -1    0    0    0    0 -0.00000000000E+00 -0.00000000000E+00 -0.74505805969E-08  0.93827000000E+00  0.93827000000E+00 0. -1.
     999902    2    1    2    0    0 -0.16193784741E-01  0.50324111998E-02  0.15589989395E-01  0.10208949919E+01  0.10206350832E+01 0.  0.
     999903    2    3    3    0    0  0.94249978123E-01 -0.81004640543E-01  0.30752518749E-01  0.12969910926E+00  0.20768518642E-01 0.  0.
         14    1    1    2    0    0  0.16193784741E-01 -0.50324111998E-02 -0.15589989395E-01  0.23035008054E-01  0.00000000000E+00 0.  1.
     999901    1    3    3    0    0 -0.11044376286E+00  0.86037051742E-01 -0.15162529355E-01  0.89119588269E+00  0.88000000000E+00 0.  1.
        -11    1    4    4    0    0  0.72263282388E-01 -0.72086774805E-01  0.27756110160E-01  0.10577876845E+00  0.51100000000E-03 0.  1.
         11    1    4    4    0    0  0.21986695735E-01 -0.89178657379E-02  0.29964085895E-02  0.23920340803E-01  0.51100000000E-03 0. -1.
</event>
<event>
 8    1  0.1052028E+005  0.1043930E+01  0.7957747E-01            NaN
         13   -1    0    0    0    0  0.00000000000E+00  0.00000000000E+00  0.74505805969E-08  0.10566000000E+00  0.10566000000E+00 0. -1.
     999900   -1    0    0    0    0 -0.00000000000E+00 -0.00000000000E+00 -0.74505805969E-08  0.93827000000E+00  0.93827000000E+00 0. -1.
     999902    2    1    2    0    0 -0.13438552638E-01  0.23676497576E-02  0.18710011439E-01  0.10207726040E+01  0.10205098941E+01 0.  0.
     999903    2    3    3    0    0 -0.16483924231E-01 -0.51658068151E-02 -0.12620727532E+00  0.12888301033E+00  0.19599711472E-01 0.  0.
         14    1    1    2    0    0  0.13438552638E-01 -0.23676497576E-02 -0.18710011439E-01  0.23157396020E-01  0.00000000000E+00 0.  1.
     999901    1    3    3    0    0  0.30453715933E-02  0.75334565727E-02  0.14491728676E+00  0.89188959365E+00  0.88000000000E+00 0.  1.
        -11    1    4    4    0    0 -0.15513670820E-01  0.26895075341E-02 -0.54281260315E-01  0.56521002959E-01  0.51100000000E-03 0.  1.
         11    1    4    4    0    0 -0.97025341121E-03 -0.78553143492E-02 -0.71926015008E-01  0.72362007373E-01  0.51100000000E-03 0. -1.
</event>
<event>
 8    1  0.1052028E+005  0.1043930E+01  0.7957747E-01            NaN
         13   -1    0    0    0    0  0.00000000000E+00  0.00000000000E+00  0.74505805969E-08  0.10566000000E+00  0.10566000000E+00 0.  1.
     999900   -1    0    0    0    0 -0.00000000000E+00 -0.00000000000E+00 -0.74505805969E-08  0.93827000000E+00  0.93827000000E+00 0. -1.
     999902    2    1    2    0    0  0.13235688596E-01  0.16016693316E-01 -0.11773952824E-01  0.10200481265E+01  0.10197685210E+01 0.  0.
     999903    2    3    3    0    0 -0.65791900126E-01 -0.10562973532E+00  0.19536926873E-01  0.12762245195E+00  0.20483740526E-01 0.  0.
         14    1    1    2    0    0 -0.13235688596E-01 -0.16016693316E-01  0.11773952824E-01  0.23881873513E-01  0.00000000000E+00 0.  1.
     999901    1    3    3    0    0  0.79027588722E-01  0.12164642863E+00 -0.31310879697E-01  0.89242567453E+00  0.88000000000E+00 0. -1.
        -11    1    4    4    0    0 -0.11423005812E-01 -0.10002395730E-01 -0.26016894923E-02  0.15413075337E-01  0.51100000000E-03 0.  1.
         11    1    4    4    0    0 -0.54368894314E-01 -0.95627339587E-01  0.22138616365E-01  0.11220937662E+00  0.51100000000E-03 0. -1.
</event>
<event>
 8    1  0.1052028E+005  0.1043930E+01  0.7957747E-01            NaN
         13   -1    0    0    0    0  0.00000000000E+00  0.00000000000E+00  0.74505805969E-08  0.10566000000E+00  0.10566000000E+00 0.  1.
     999900   -1    0    0    0    0 -0.00000000000E+00 -0.00000000000E+00 -0.74505805969E-08  0.93827000000E+00  0.93827000000E+00 0. -1.
     999902    2    1    2    0    0 -0.21032751282E-01 -0.62336552309E-02  0.93047392196E-02  0.10201011675E+01  0.10198228173E+01 0.  0.
     999903    2    3    3    0    0  0.12000918465E-01  0.60391062887E-01 -0.11253690910E+00  0.12859936516E+00  0.90630177025E-02 0.  0.
         14    1    1    2    0    0  0.21032751282E-01  0.62336552309E-02 -0.93047392196E-02  0.23828832451E-01  0.00000000000E+00 0. -1.
     999901    1    3    3    0    0 -0.33033669747E-01 -0.66624718118E-01  0.12184164832E+00  0.89150180239E+00  0.88000000000E+00 0.  1.
        -11    1    4    4    0    0  0.76604610403E-02  0.23787461607E-01 -0.52531448878E-01  0.58175082598E-01  0.51100000000E-03 0.  1.
         11    1    4    4    0    0  0.43404574246E-02  0.36603601279E-01 -0.60005460218E-01  0.70424282561E-01  0.51100000000E-03 0. -1.
</event>
<event>
 8    1  0.1052028E+005  0.1043930E+01  0.7957747E-01            NaN
         13   -1    0    0    0    0  0.00000000000E+00  0.00000000000E+00  0.74505805969E-08  0.10566000000E+00  0.10566000000E+00 0. -1.
     999900   -1    0    0    0    0 -0.00000000000E+00 -0.00000000000E+00 -0.74505805969E-08  0.93827000000E+00  0.93827000000E+00 0. -1.
     999902    2    1    2    0    0  0.20756657236E-01  0.10328749694E-01  0.59960229756E-02  0.10199826790E+01  0.10197015207E+01 0.  0.
     999903    2    3    3    0    0  0.10615944752E+00  0.24627118294E-01 -0.72146142386E-01  0.13228662861E+00  0.20453923681E-01 0.  0.
         14    1    1    2    0    0 -0.20756657236E-01 -0.10328749694E-01 -0.59960229756E-02  0.23947320964E-01  0.00000000000E+00 0.  1.
     999901    1    3    3    0    0 -0.85402790288E-01 -0.14298368600E-01  0.78142165362E-01  0.88769605043E+00  0.88000000000E+00 0. -1.
        -11    1    4    4    0    0  0.23248611693E-01 -0.30565853273E-02 -0.16162315058E-01  0.28483718306E-01  0.51100000000E-03 0.  1.
         11    1    4    4    0    0  0.82910835830E-01  0.27683703621E-01 -0.55983827328E-01  0.10380291030E+00  0.51100000000E-03 0. -1.
</event>
<event>
 8    1  0.1189047E+005  0.1043930E+01  0.7957747E-01            NaN
         13   -1    0    0    0    0  0.00000000000E+00  0.00000000000E+00  0.74505805969E-08  0.10566000000E+00  0.10566000000E+00 0. -1.
     999900   -1    0    0    0    0 -0.00000000000E+00 -0.00000000000E+00 -0.74505805969E-08  0.93827000000E+00  0.93827000000E+00 0.  1.
     999902    2    1    2    0    0  0.13684720966E-01  0.19070096722E-01  0.40866899206E-02  0.10201047778E+01  0.10198265130E+01 0.  0.
     999903    2    3    3    0    0  0.16152712115E-01 -0.14547606416E-02 -0.12802359590E+00  0.13000338565E+00  0.15742068978E-01 0.  0.
         14    1    1    2    0    0 -0.13684720966E-01 -0.19070096722E-01 -0.40866899206E-02  0.23825222169E-01  0.00000000000E+00 0. -1.
     999901    1    3    3    0    0 -0.24679911494E-02  0.20524857364E-01  0.13211028582E+00  0.89010139218E+00  0.88000000000E+00 0. -1.
        -11    1    4    4    0    0  0.16855921010E-01 -0.11376689845E-02 -0.71439069325E-01  0.73411294164E-01  0.51100000000E-03 0. -1.
         11    1    4    4    0    0 -0.70320889483E-03 -0.31709165707E-03 -0.56584526572E-01  0.56592091482E-01  0.51100000000E-03 0.  1.
</event>
<event>
 8    1  0.1052028E+005  0.1043930E+01  0.7957747E-01            NaN
         13   -1    0    0    0    0  0.00000000000E+00  0.00000000000E+00  0.74505805969E-08  0.10566000000E+00  0.10566000000E+00 0. -1.
     999900   -1    0    0    0    0 -0.00000000000E+00 -0.00000000000E+00 -0.74505805969E-08  0.93827000000E+00  0.93827000000E+00 0.  1.
     999902    2    1    2    0    0 -0.75772075261E-02  0.10689375849E-01 -0.19422809261E-01  0.10205009081E+01  0.10202319251E+01 0.  0.
     999903    2    3    3    0    0 -0.10155207500E+00  0.55384526171E-01 -0.62159314588E-01  0.13333951289E+00  0.23138185578E-01 0.  0.
         14    1    1    2    0    0  0.75772075261E-02 -0.10689375849E-01  0.19422809261E-01  0.23429091949E-01  0.00000000000E+00 0. -1.
     999901    1    3    3    0    0  0.93974867472E-01 -0.44695150322E-01  0.42736505326E-01  0.88716139516E+00  0.88000000000E+00 0. -1.
        -11    1    4    4    0    0 -0.39809867967E-01  0.18881187775E-01 -0.11541493999E-01  0.45549885225E-01  0.51100000000E-03 0. -1.
         11    1    4    4    0    0 -0.61742207031E-01  0.36503338397E-01 -0.50617820589E-01  0.87789627664E-01  0.51100000000E-03 0.  1.
</event>
<event>
 8    1  0.1052028E+005  0.1043930E+01  0.7957747E-01            NaN
         13   -1    0    0    0    0  0.00000000000E+00  0.00000000000E+00  0.74505805969E-08  0.10566000000E+00  0.10566000000E+00 0.  1.
     999900   -1    0    0    0    0 -0.00000000000E+00 -0.00000000000E+00 -0.74505805969E-08  0.93827000000E+00  0.93827000000E+00 0. -1.
     999902    2    1    2    0    0  0.19687415166E-01  0.10714614136E-01  0.91730417784E-02  0.10197113715E+01  0.10194237290E+01 0.  0.
     999903    2    3    3    0    0  0.12409772388E+00 -0.22445965252E-02  0.42670199723E-01  0.13281142600E+00  0.20318603429E-01 0.  0.
         14    1    1    2    0    0 -0.19687415166E-01 -0.10714614136E-01 -0.91730417784E-02  0.24218628521E-01  0.00000000000E+00 0.  1.
     999901    1    3    3    0    0 -0.10441030871E+00  0.12959210661E-01 -0.33497157945E-01  0.88689994548E+00  0.88000000000E+00 0. -1.
        -11    1    4    4    0    0  0.13671210283E-01 -0.70819897161E-03  0.11953157316E-01  0.18180831313E-01  0.51100000000E-03 0. -1.
         11    1    4    4    0    0  0.11042651360E+00 -0.15363975536E-02  0.30717042407E-01  0.11463059468E+00  0.51100000000E-03 0.  1.
</event>
<event>
 8    1  0.1052028E+005  0.1043930E+01  0.7957747E-01            NaN
         13   -1    0    0    0    0  0.00000000000E+00  0.00000000000E+00  0.74505805969E-08  0.10566000000E+00  0.10566000000E+00 0.  1.
     999900   -1    0    0    0    0 -0.00000000000E+00 -0.00000000000E+00 -0.74505805969E-08  0.93827000000E+00  0.93827000000E+00 0.  1.
     999902    2    1    2    0    0  0.60137368400E-02 -0.33655741540E-01  0.12185428380E-01  0.10076345646E+01  0.10069806637E+01 0.  0.
     999903    2    3    3    0    0 -0.30064650955E-01 -0.52693405233E-01  0.10390152423E+00  0.12192810926E+00  0.19760032861E-01 0.  0.
         14    1    1    2    0    0 -0.60137368400E-02  0.33655741540E-01 -0.12185428380E-01  0.36295435446E-01  0.00000000000E+00 0. -1.
     999901    1    3    3    0    0  0.36078387795E-01  0.19037663693E-01 -0.91716095853E-01  0.88570645529E+00  0.88000000000E+00 0.  1.
        -11    1    4    4    0    0 -0.20232059937E-01 -0.37184745122E-01  0.87908982122E-01  0.97571982546E-01  0.51100000000E-03 0. -1.
         11    1    4    4    0    0 -0.98325910182E-02 -0.15508660111E-01  0.15992542110E-01  0.24356126718E-01  0.51100000000E-03 0.  1.
</event>
<event>
 8    1  0.1052028E+005  0.1043930E+01  0.7957747E-01            NaN
         13   -1    0    0    0    0  0.00000000000E+00  0.00000000000E+00  0.74505805969E-08  0.10566000000E+00  0.10566000000E+00 0.  1.
     999900   -1    0    0    0    0 -0.00000000000E+00 -0.00000000000E+00 -0.74505805969E-08  0.93827000000E+00  0.93827000000E+00 0.  1.
     999902    2    1    2    0    0 -0.87535506342E-02  0.17016736417E-01  0.14068654315E-01  0.10201787684E+01  0.10199022495E+01 0.  0.
     999903    2    3    3    0    0 -0.25013091912E-01 -0.12278242227E+00 -0.18159384689E-01  0.12841264216E+00  0.21421144438E-01 0.  0.
         14    1    1    2    0    0  0.87535506342E-02 -0.17016736417E-01 -0.14068654315E-01  0.23751231573E-01  0.00000000000E+00 0. -1.
     999901    1    3    3    0    0  0.16259541278E-01  0.13979915869E+00  0.32228039004E-01  0.89176612626E+00  0.88000000000E+00 0. -1.
        -11    1    4    4    0    0 -0.21951995197E-01 -0.56443373906E-01 -0.11740803036E-01  0.61691588794E-01  0.51100000000E-03 0. -1.
         11    1    4    4    0    0 -0.30610967153E-02 -0.66339048367E-01 -0.64185816525E-02  0.66721053370E-01  0.51100000000E-03 0.  1.
</event>
<event>
 8    1  0.1052028E+005  0.1043930E+01  0.7957747E-01            NaN
         13   -1    0    0    0    0  0.00000000000E+00  0.00000000000E+00  0.74505805969E-08  0.10566000000E+00  0.10566000000E+00 0. -1.
     999900   -1    0    0    0    0 -0.00000000000E+00 -0.00000000000E+00 -0.74505805969E-08  0.93827000000E+00  0.93827000000E+00 0.  1.
     999902    2    1    2    0    0 -0.12438861392E-02  0.23165103171E-01 -0.56794375937E-02  0.10200464226E+01  0.10197667768E+01 0.  0.
     999903    2    3    3    0    0 -0.56002052935E-01  0.92922390082E-01  0.72862792637E-01  0.13210868952E+00  0.19311105222E-01 0.  0.
         14    1    1    2    0    0  0.12438861392E-02 -0.23165103171E-01  0.56794375937E-02  0.23883577392E-01  0.00000000000E+00 0. -1.
     999901    1    3    3    0    0  0.54758166795E-01 -0.69757286911E-01 -0.78542230231E-01  0.88793773309E+00  0.88000000000E+00 0.  1.
        -11    1    4    4    0    0 -0.18537120540E-01  0.34091788114E-01  0.15456258021E-01  0.41773578824E-01  0.51100000000E-03 0. -1.
         11    1    4    4    0    0 -0.37464932394E-01  0.58830601968E-01  0.57406534616E-01  0.90335110698E-01  0.51100000000E-03 0.  1.
</event>
<event>
 8    1  0.1238009E+005  0.1043930E+01  0.7957747E-01            NaN
         13   -1    0    0    0    0  0.00000000000E+00  0.00000000000E+00  0.74505805969E-08  0.10566000000E+00  0.10566000000E+00 0.  1.
     999900   -1    0    0    0    0 -0.00000000000E+00 -0.00000000000E+00 -0.74505805969E-08  0.93827000000E+00  0.93827000000E+00 0.  1.
     999902    2    1    2    0    0  0.17942484805E-01 -0.33086801227E-02 -0.15249920137E-01  0.10201510137E+01  0.10198738405E+01 0.  0.
     999903    2    3    3    0    0  0.23845066970E-01 -0.83163570511E-01  0.94670818246E-01  0.12970493857E+00  0.19391765852E-01 0.  0.
         14    1    1    2    0    0 -0.17942484805E-01  0.33086801227E-02  0.15249920137E-01  0.23778986297E-01  0.00000000000E+00 0.  1.
     999901    1    3    3    0    0 -0.59025821653E-02  0.79854890389E-01 -0.10992073838E+00  0.89044607513E+00  0.88000000000E+00 0.  1.
        -11    1    4    4    0    0  0.39451095901E-02 -0.11467460118E-01  0.24906004594E-01  0.27706257724E-01  0.51100000000E-03 0. -1.
         11    1    4    4    0    0  0.19899957380E-01 -0.71696110393E-01  0.69764813652E-01  0.10199868084E+00  0.51100000000E-03 0.  1.
</event>
<event>
 8    1  0.1052028E+005  0.1043930E+01  0.7957747E-01            NaN
         13   -1    0    0    0    0  0.00000000000E+00  0.00000000000E+00  0.74505805969E-08  0.10566000000E+00  0.10566000000E+00 0. -1.
     999900   -1    0    0    0    0 -0.00000000000E+00 -0.00000000000E+00 -0.74505805969E-08  0.93827000000E+00  0.93827000000E+00 0. -1.
     999902    2    1    2    0    0 -0.11888049299E-01 -0.18874955881E-01  0.10734772315E-01  0.10191746973E+01  0.10188740053E+01 0.  0.
     999903    2    3    3    0    0  0.66271589984E-01  0.96734815645E-01  0.46217313953E-01  0.12747207912E+00  0.19066794431E-01 0.  0.
         14    1    1    2    0    0  0.11888049299E-01  0.18874955881E-01 -0.10734772315E-01  0.24755302711E-01  0.00000000000E+00 0.  1.
     999901    1    3    3    0    0 -0.78159639283E-01 -0.11560977153E+00 -0.35482541637E-01  0.89170261817E+00  0.88000000000E+00 0.  1.
        -11    1    4    4    0    0  0.16459534839E-01  0.21386916041E-01  0.24566517213E-02  0.27103740028E-01  0.51100000000E-03 0. -1.
         11    1    4    4    0    0  0.49812055145E-01  0.75347899604E-01  0.43760662231E-01  0.10036833909E+00  0.51100000000E-03 0.  1.
</event>
<event>
 7    1  0.1052028E+005  0.1043930E+01  0.7957747E-01            NaN
         13   -1    0    0    0    0  0.00000000000E+00  0.00000000000E+00  0.74505805969E-08  0.10566000000E+00  0.10566000000E+00 0.  1.
     999900   -1    0    0    0    0 -0.00000000000E+00 -0.00000000000E+00 -0.74505805969E-08  0.93827000000E+00  0.93827000000E+00 0. -1.
     999903    2    1    2    0    0  0.10134142344E+00  0.29269749724E-01  0.75732960348E-02  0.10732768636E+00  0.18305056489E-01 0.  0.
         14    1    1    2    0    0 -0.48398521931E-01  0.22174368081E-01 -0.53915550922E-02  0.53508769293E-01  0.00000000000E+00 0.  1.
     999901    1    1    2    0    0 -0.52942901506E-01 -0.51444117805E-01 -0.21817409426E-02  0.88309354435E+00  0.88000000000E+00 0.  1.
        -11    1    3    3    0    0  0.60545614616E-01  0.21976236223E-01  0.12421122725E-01  0.65599327882E-01  0.51100000000E-03 0. -1.
         11    1    3    3    0    0  0.40795808821E-01  0.72935135009E-02 -0.48478266902E-02  0.41728358477E-01  0.51100000000E-03 0.  1.
</event>
<event>
 8    1  0.1052028E+005  0.1043930E+01  0.7957747E-01            NaN
         13   -1    0    0    0    0  0.00000000000E+00  0.00000000000E+00  0.74505805969E-08  0.10566000000E+00  0.10566000000E+00 0. -1.
     999900   -1    0    0    0    0 -0.00000000000E+00 -0.00000000000E+00 -0.74505805969E-08  0.93827000000E+00  0.93827000000E+00 0. -1.
     999902    2    1    2    0    0 -0.88351410446E-02  0.36887271747E-02  0.21857767565E-01  0.10200673005E+01  0.10197881491E+01 0.  0.
     999903    2    3    3    0    0 -0.51740962549E-01  0.10971728614E+00  0.48625558145E-01  0.13226130847E+00  0.20337126905E-01 0.  0.
         14    1    1    2    0    0  0.88351410446E-02 -0.36887271747E-02 -0.21857767565E-01  0.23862699520E-01  0.00000000000E+00 0.  1.
     999901    1    3    3    0    0  0.42905821505E-01 -0.10602855896E+00 -0.26767790580E-01  0.88780599201E+00  0.88000000000E+00 0.  1.
        -11    1    4    4    0    0 -0.45091787727E-01  0.76875824200E-01  0.30758897792E-01  0.94284317790E-01  0.51100000000E-03 0.  1.
         11    1    4    4    0    0 -0.66491748225E-02  0.32841461937E-01  0.17866660353E-01  0.37976990681E-01  0.51100000000E-03 0. -1.
</event>
<event>
 8    1  0.1052028E+005  0.1043930E+01  0.7957747E-01            NaN
         13   -1    0    0    0    0  0.00000000000E+00  0.00000000000E+00  0.74505805969E-08  0.10566000000E+00  0.10566000000E+00 0. -1.
     999900   -1    0    0    0    0 -0.00000000000E+00 -0.00000000000E+00 -0.74505805969E-08  0.93827000000E+00  0.93827000000E+00 0.  1.
     999902    2    1    2    0    0  0.12111496462E-01 -0.13666484832E-01 -0.13191988806E-01  0.10214024674E+01  0.10211540093E+01 0.  0.
     999903    2    3    3    0    0  0.11380624835E+00 -0.39885404656E-02  0.63962882636E-01  0.13213964952E+00  0.20046595739E-01 0.  0.
         14    1    1    2    0    0 -0.12111496462E-01  0.13666484832E-01  0.13191988806E-01  0.22527532552E-01  0.00000000000E+00 0. -1.
     999901    1    3    3    0    0 -0.10169475189E+00 -0.96779443667E-02 -0.77154871442E-01  0.88926281793E+00  0.88000000000E+00 0.  1.
        -11    1    4    4    0    0  0.35370330800E-01 -0.43894458254E-02  0.30297663830E-01  0.46781802981E-01  0.51100000000E-03 0. -1.
         11    1    4    4    0    0  0.78435917549E-01  0.40090535972E-03  0.33665218806E-01  0.85357846535E-01  0.51100000000E-03 0.  1.
</event>
<event>
 8    1  0.1052028E+005  0.1043930E+01  0.7957747E-01            NaN
         13   -1    0    0    0    0  0.00000000000E+00  0.00000000000E+00  0.74505805969E-08  0.10566000000E+00  0.10566000000E+00 0.  1.
     999900   -1    0    0    0    0 -0.00000000000E+00 -0.00000000000E+00 -0.74505805969E-08  0.93827000000E+00  0.93827000000E+00 0.  1.
     999902    2    1    2    0    0 -0.15532053248E-01 -0.19882027674E-02 -0.17718101151E-01  0.10202840968E+01  0.10200100536E+01 0.  0.
     999903    2    3    3    0    0  0.21316679082E-01  0.29831169016E-01  0.11897847491E+00  0.12840055320E+00  0.31408997396E-01 0.  0.
         14    1    1    2    0    0  0.15532053248E-01  0.19882027674E-02  0.17718101151E-01  0.23645903171E-01  0.00000000000E+00 0.  1.
     999901    1    3    3    0    0 -0.36848732330E-01 -0.31819371784E-01 -0.13669657606E+00  0.89188354363E+00  0.88000000000E+00 0.  1.
        -11    1    4    4    0    0  0.63527992965E-02  0.95913467780E-02  0.86716978771E-01  0.87478268845E-01  0.51100000000E-03 0. -1.
         11    1    4    4    0    0  0.14963879786E-01  0.20239822238E-01  0.32261496139E-01  0.40922284352E-01  0.51100000000E-03 0.  1.
</event>
<event>
 8    1  0.1052028E+005  0.1043930E+01  0.7957747E-01            NaN
         13   -1    0    0    0    0  0.00000000000E+00  0.00000000000E+00  0.74505805969E-08  0.10566000000E+00  0.10566000000E+00 0.  1.
     999900   -1    0    0    0    0 -0.00000000000E+00 -0.00000000000E+00 -0.74505805969E-08  0.93827000000E+00  0.93827000000E+00 0.  1.
     999902    2    1    2    0    0 -0.61048571059E-02 -0.18133439128E-01 -0.16397098561E-01  0.10187316720E+01  0.10184199840E+01 0.  0.
     999903    2    3    3    0    0  0.88636524247E-01  0.88846576952E-01 -0.13982268600E-03  0.12705630940E+00  0.19827721507E-01 0.  0.
         14    1    1    2    0    0  0.61048571059E-02  0.18133439128E-01  0.16397098561E-01  0.25198328042E-01  0.00000000000E+00 0.  1.
     999901    1    3    3    0    0 -0.94741381353E-01 -0.10698001608E+00 -0.16257275875E-01  0.89167536256E+00  0.88000000000E+00 0.  1.
        -11    1    4    4    0    0  0.25167122157E-01  0.28199623344E-01  0.88105630936E-02  0.38813527764E-01  0.51100000000E-03 0. -1.
         11    1    4    4    0    0  0.63469402090E-01  0.60646953608E-01 -0.89503857796E-02  0.88242781632E-01  0.51100000000E-03 0.  1.
</event>
<event>
 8    1  0.1052028E+005  0.1043930E+01  0.7957747E-01            NaN
         13   -1    0    0    0    0  0.00000000000E+00  0.00000000000E+00  0.74505805969E-08  0.10566000000E+00  0.10566000000E+00 0. -1.
     999900   -1    0    0    0    0 -0.00000000000E+00 -0.00000000000E+00 -0.74505805969E-08  0.93827000000E+00  0.93827000000E+00 0.  1.
     999902    2    1    2    0    0  0.42338256438E-02  0.20344163596E-02  0.23685569088E-01  0.10197831511E+01  0.10194972314E+01 0.  0.
     999903    2    3    3    0    0  0.35822022571E-01  0.12284246002E+00  0.19033248196E-01  0.13095581032E+00  0.20338938871E-01 0.  0.
         14    1    1    2    0    0 -0.42338256438E-02 -0.20344163596E-02 -0.23685569088E-01  0.24146848915E-01  0.00000000000E+00 0.  1.
     999901    1    3    3    0    0 -0.31588196927E-01 -0.12080804366E+00  0.46523208919E-02  0.88882734076E+00  0.88000000000E+00 0.  1.
        -11    1    4    4    0    0  0.26486827241E-03  0.13892278445E-01 -0.30649804385E-02  0.14238004835E-01  0.51100000000E-03 0. -1.
         11    1    4    4    0    0  0.35557154299E-01  0.10895018158E+00  0.22098228635E-01  0.11671780549E+00  0.51100000000E-03 0.  1.
</event>
<event>
 8    1  0.1052028E+005  0.1043930E+01  0.7957747E-01            NaN
         13   -1    0    0    0    0  0.00000000000E+00  0.00000000000E+00  0.74505805969E-08  0.10566000000E+00  0.10566000000E+00 0.  1.
     999900   -1    0    0    0    0 -0.00000000000E+00 -0.00000000000E+00 -0.74505805969E-08  0.93827000000E+00  0.93827000000E+00 0.  1.
     999902    2    1    2    0    0  0.10302835064E-01  0.20743620182E-01  0.55091946184E-02  0.10201224925E+01  0.10198446461E+01 0.  0.
     999903    2    3    3    0    0  0.11083740590E+00  0.55539625350E-01  0.43473132525E-01  0.13290255217E+00  0.20089663820E-01 0.  0.
         14    1    1    2    0    0 -0.10302835064E-01 -0.20743620182E-01 -0.55091946184E-02  0.23807507512E-01  0.00000000000E+00 0. -1.
     999901    1    3    3    0    0 -0.10053457084E+00 -0.34796005168E-01 -0.37963937906E-01  0.88721994031E+00  0.88000000000E+00 0.  1.
        -11    1    4    4    0    0  0.44154897848E-01  0.31173300159E-01  0.12706634866E-01  0.55526114013E-01  0.51100000000E-03 0.  1.
         11    1    4    4    0    0  0.66682508051E-01  0.24366325191E-01  0.30766497659E-01  0.77376438161E-01  0.51100000000E-03 0. -1.
</event>
<event>
 8    1  0.1052028E+005  0.1043930E+01  0.7957747E-01            NaN
         13   -1    0    0    0    0  0.00000000000E+00  0.00000000000E+00  0.74505805969E-08  0.10566000000E+00  0.10566000000E+00 0.  1.
     999900   -1    0    0    0    0 -0.00000000000E+00 -0.00000000000E+00 -0.74505805969E-08  0.93827000000E+00  0.93827000000E+00 0. -1.
     999902    2    1    2    0    0 -0.22642024394E-01 -0.23913564206E-02  0.41036944336E-02  0.10207951743E+01  0.10205329821E+01 0.  0.
     999903    2    3    3    0    0 -0.88991017098E-01 -0.75396342428E-01  0.61467387307E-01  0.13342686849E+00  0.20505607956E-01 0.  0.
         14    1    1    2    0    0  0.22642024394E-01  0.23913564206E-02 -0.41036944336E-02  0.23134825743E-01  0.00000000000E+00 0.  1.
     999901    1    3    3    0    0  0.66348992705E-01  0.73004986007E-01 -0.57363692873E-01  0.88736830576E+00  0.88000000000E+00 0. -1.
        -11    1    4    4    0    0 -0.45707450756E-01 -0.25448966599E-01  0.26157556437E-01  0.58491878371E-01  0.51100000000E-03 0.  1.
         11    1    4    4    0    0 -0.43283566342E-01 -0.49947375828E-01  0.35309830870E-01  0.74934990122E-01  0.51100000000E-03 0. -1.
</event>
<event>
 8    1  0.1052028E+005  0.1043930E+01  0.7957747E-01            NaN
         13   -1    0    0    0    0  0.00000000000E+00  0.00000000000E+00  0.74505805969E-08  0.10566000000E+00  0.10566000000E+00 0. -1.
     999900   -1    0    0    0    0 -0.00000000000E+00 -0.00000000000E+00 -0.74505805969E-08  0.93827000000E+00  0.93827000000E+00 0. -1.
     999902    2    1    2    0    0 -0.15612921700E-01 -0.20236973500E-01  0.12115601710E-02  0.10183415984E+01  0.10180200610E+01 0.  0.
     999903    2    3    3    0    0  0.98218968314E-01  0.75681193742E-01 -0.88334040362E-02  0.12578409584E+00  0.19209396598E-01 0.  0.
         14    1    1    2    0    0  0.15612921700E-01  0.20236973500E-01 -0.12115601710E-02  0.25588401640E-01  0.00000000000E+00 0. -1.
     999901    1    3    3    0    0 -0.11383189001E+00 -0.95918167242E-01  0.10044964207E-01  0.89255750252E+00  0.88000000000E+00 0.  1.
        -11    1    4    4    0    0  0.67705624921E-01  0.41060032662E-01 -0.84160280453E-02  0.79630826802E-01  0.51100000000E-03 0.  1.
         11    1    4    4    0    0  0.30513343392E-01  0.34621161080E-01 -0.41737599091E-03  0.46153269042E-01  0.51100000000E-03 0. -1.
</event>
<event>
 8    1  0.1052028E+005  0.1043930E+01  0.7957747E-01            NaN
         13   -1    0    0    0    0  0.00000000000E+00  0.00000000000E+00  0.74505805969E-08  0.10566000000E+00  0.10566000000E+00 0.  1.
     999900   -1    0    0    0    0 -0.00000000000E+00 -0.00000000000E+00 -0.74505805969E-08  0.93827000000E+00  0.93827000000E+00 0.  1.
     999902    2    1    2    0    0  0.18805501241E-02 -0.19836915842E-01  0.90996574554E-02  0.10220246704E+01  0.10217898920E+01 0.  0.
     999903    2    3    3    0    0 -0.37267062719E-01 -0.86113796250E-01 -0.91742907335E-01  0.13292715981E+00  0.21176612123E-01 0.  0.
         14    1    1    2    0    0 -0.18805501241E-02  0.19836915842E-01 -0.90996574554E-02  0.21905329596E-01  0.00000000000E+00 0. -1.
     999901    1    3    3    0    0  0.39147612844E-01  0.66276880408E-01  0.10084256479E+00  0.88909751059E+00  0.88000000000E+00 0. -1.
        -11    1    4    4    0    0 -0.13013950013E-01 -0.53172685658E-01 -0.45486774711E-01  0.71175875053E-01  0.51100000000E-03 0.  1.
         11    1    4    4    0    0 -0.24253112707E-01 -0.32941110593E-01 -0.46256132623E-01  0.61751284758E-01  0.51100000000E-03 0. -1.
</event>
<event>
 8    1  0.1052028E+005  0.1043930E+01  0.7957747E-01            NaN
         13   -1    0    0    0    0  0.00000000000E+00  0.00000000000E+00  0.74505805969E-08  0.10566000000E+00  0.10566000000E+00 0. -1.
     999900   -1    0    0    0    0 -0.00000000000E+00 -0.00000000000E+00 -0.74505805969E-08  0.93827000000E+00  0.93827000000E+00 0.  1.
     999902    2    1    2    0    0  0.43018360266E-02  0.48661278186E-02 -0.24049179297E-01  0.10190191988E+01  0.10187146703E+01 0.  0.
     999903    2    3    3    0    0  0.51743660632E-01 -0.73621300934E-01  0.87594273505E-01  0.12723712688E+00  0.20470157259E-01 0.  0.
         14    1    1    2    0    0 -0.43018360266E-02 -0.48661278186E-02  0.24049179297E-01  0.24910801232E-01  0.00000000000E+00 0. -1.
     999901    1    3    3    0    0 -0.47441824606E-01  0.78487428752E-01 -0.11164345280E+00  0.89178207189E+00  0.88000000000E+00 0.  1.
        -11    1    4    4    0    0  0.49956680365E-01 -0.61096065065E-01  0.69557228954E-01  0.10519918393E+00  0.51100000000E-03 0. -1.
         11    1    4    4    0    0  0.17869802673E-02 -0.12525235869E-01  0.18037044550E-01  0.22037942943E-01  0.51100000000E-03 0.  1.
</event>
<event>
 8    1  0.1052028E+005  0.1043930E+01  0.7957747E-01            NaN
         13   -1    0    0    0    0  0.00000000000E+00  0.00000000000E+00  0.74505805969E-08  0.10566000000E+00  0.10566000000E+00 0.  1.
     999900   -1    0    0    0    0 -0.00000000000E+00 -0.00000000000E+00 -0.74505805969E-08  0.93827000000E+00  0.93827000000E+00 0.  1.
     999902    2    1    2    0    0 -0.22451082321E-01 -0.74954724310E-02 -0.24096269978E-03  0.10202595275E+01  0.10199849078E+01 0.  0.
     999903    2    3    3    0    0 -0.12096527708E-01  0.76791455429E-01  0.10372502913E+00  0.13007952861E+00  0.10887997304E-01 0.  0.
         14    1    1    2    0    0  0.22451082321E-01  0.74954724310E-02  0.24096269978E-03  0.23670472479E-01  0.00000000000E+00 0.  1.
     999901    1    3    3    0    0 -0.10354554613E-01 -0.84286927860E-01 -0.10396599183E+00  0.89017999891E+00  0.88000000000E+00 0.  1.
        -11    1    4    4    0    0 -0.11853027356E-01  0.40771922136E-01  0.55072148585E-01  0.69541689388E-01  0.51100000000E-03 0.  1.
         11    1    4    4    0    0 -0.24350035208E-03  0.36019533293E-01  0.48652880544E-01  0.60537839219E-01  0.51100000000E-03 0. -1.
</event>
<event>
 8    1  0.1052028E+005  0.1043930E+01  0.7957747E-01            NaN
         13   -1    0    0    0    0  0.00000000000E+00  0.00000000000E+00  0.74505805969E-08  0.10566000000E+00  0.10566000000E+00 0.  1.
     999900   -1    0    0    0    0 -0.00000000000E+00 -0.00000000000E+00 -0.74505805969E-08  0.93827000000E+00  0.93827000000E+00 0.  1.
     999902    2    1    2    0    0  0.14290548503E-01 -0.53864395772E-02 -0.17218555078E-01  0.10209145238E+01  0.10206550606E+01 0.  0.
     999903    2    3    3    0    0 -0.41799043671E-01 -0.80100631523E-01  0.91411130449E-01  0.12932680434E+00  0.14358145056E-01 0.  0.
         14    1    1    2    0    0 -0.14290548503E-01  0.53864395772E-02  0.17218555078E-01  0.23015476245E-01  0.00000000000E+00 0.  1.
     999901    1    3    3    0    0  0.56089592174E-01  0.74714191945E-01 -0.10862968553E+00  0.89158771941E+00  0.88000000000E+00 0.  1.
        -11    1    4    4    0    0 -0.31576640096E-01 -0.46158097903E-01  0.58937293414E-01  0.81249737709E-01  0.51100000000E-03 0. -1.
         11    1    4    4    0    0 -0.10222403576E-01 -0.33942533620E-01  0.32473837035E-01  0.48077066634E-01  0.51100000000E-03 0.  1.
</event>
<event>
 8    1  0.1052028E+005  0.1043930E+01  0.7957747E-01            NaN
         13   -1    0    0    0    0  0.00000000000E+00  0.00000000000E+00  0.74505805969E-08  0.10566000000E+00  0.10566000000E+00 0. -1.
     999900   -1    0    0    0    0 -0.00000000000E+00 -0.00000000000E+00 -0.74505805969E-08  0.93827000000E+00  0.93827000000E+00 0. -1.
     999902    2    1    2    0    0  0.97726598831E-02  0.19316373550E-01  0.10520002493E-01  0.10198613976E+01  0.10195773500E+01 0.  0.
     999903    2    3    3    0    0 -0.63440667681E-02 -0.68629247276E-01 -0.10558592869E+00  0.12774326174E+00  0.20487357494E-01 0.  0.
         14    1    1    2    0    0 -0.97726598831E-02 -0.19316373550E-01 -0.10520002493E-01  0.24068602385E-01  0.00000000000E+00 0. -1.
     999901    1    3    3    0    0  0.16116726651E-01  0.87945620826E-01  0.11610593119E+00  0.89211813588E+00  0.88000000000E+00 0.  1.
        -11    1    4    4    0    0  0.46365711084E-02 -0.49069748260E-01 -0.76589147390E-01  0.91079616847E-01  0.51100000000E-03 0.  1.
         11    1    4    4    0    0 -0.10980637877E-01 -0.19559499016E-01 -0.28996781303E-01  0.36663644893E-01  0.51100000000E-03 0. -1.
</event>
<event>
 8    1  0.1052028E+005  0.1043930E+01  0.7957747E-01            NaN
         13   -1    0    0    0    0  0.00000000000E+00  0.00000000000E+00  0.74505805969E-08  0.10566000000E+00  0.10566000000E+00 0.  1.
     999900   -1    0    0    0    0 -0.00000000000E+00 -0.00000000000E+00 -0.74505805969E-08  0.93827000000E+00  0.93827000000E+00 0.  1.
     999902    2    1    2    0    0 -0.11688074276E-01 -0.61168048105E-02 -0.20897256816E-01  0.10192172154E+01  0.10189175680E+01 0.  0.
     999903    2    3    3    0    0  0.77348974834E-01 -0.86966739249E-01  0.49232315986E-01  0.12827251171E+00  0.21998606305E-01 0.  0.
         14    1    1    2    0    0  0.11688074276E-01  0.61168048105E-02  0.20897256816E-01  0.24712784622E-01  0.00000000000E+00 0.  1.
     999901    1    3    3    0    0 -0.89037049110E-01  0.80849934438E-01 -0.70129572802E-01  0.89094470367E+00  0.88000000000E+00 0.  1.
        -11    1    4    4    0    0  0.53191530775E-01 -0.53253729247E-01  0.41917166058E-01  0.86154562016E-01  0.51100000000E-03 0. -1.
         11    1    4    4    0    0  0.24157444060E-01 -0.33713010002E-01  0.73151499282E-02  0.42117949693E-01  0.51100000000E-03 0.  1.
</event>
<event>
 8    1  0.1052028E+005  0.1043930E+01  0.7957747E-01            NaN
         13   -1    0    0    0    0  0.00000000000E+00  0.00000000000E+00  0.74505805969E-08  0.10566000000E+00  0.10566000000E+00 0.  1.
     999900   -1    0    0    0    0 -0.00000000000E+00 -0.00000000000E+00 -0.74505805969E-08  0.93827000000E+00  0.93827000000E+00 0.  1.
     999902    2    1    2    0    0 -0.52914234616E-02  0.87670629856E-02 -0.20696241050E-01  0.10208389855E+01  0.10205777969E+01 0.  0.
     999903    2    3    3    0    0 -0.77590888691E-01  0.54754996491E-01  0.86637822364E-01  0.13018602064E+00  0.20587181872E-01 0.  0.
         14    1    1    2    0    0  0.52914234616E-02 -0.87670629856E-02  0.20696241050E-01  0.23091014469E-01  0.00000000000E+00 0.  1.
     999901    1    3    3    0    0  0.72299465229E-01 -0.45987933505E-01 -0.10733406341E+00  0.89065296489E+00  0.88000000000E+00 0.  1.
        -11    1    4    4    0    0 -0.51364251443E-01  0.40394998647E-01  0.70792557810E-01  0.96342563825E-01  0.51100000000E-03 0. -1.
         11    1    4    4    0    0 -0.26226637248E-01  0.14359997844E-01  0.15845264554E-01  0.33843456815E-01  0.51100000000E-03 0.  1.
</event>
<event>
 8    1  0.1052028E+005  0.1043930E+01  0.7957747E-01            NaN
         13   -1    0    0    0    0  0.00000000000E+00  0.00000000000E+00  0.74505805969E-08  0.10566000000E+00  0.10566000000E+00 0.  1.
     999900   -1    0    0    0    0 -0.00000000000E+00 -0.00000000000E+00 -0.74505805969E-08  0.93827000000E+00  0.93827000000E+00 0. -1.
     999902    2    1    2    0    0  0.22735994046E-01 -0.46904762260E-02 -0.44409906517E-03  0.10207109730E+01  0.10204468468E+01 0.  0.
     999903    2    3    3    0    0  0.12459166908E+00 -0.34285536554E-01  0.28434375888E-01  0.13387140887E+00  0.20358250382E-01 0.  0.
         14    1    1    2    0    0 -0.22735994046E-01  0.46904762260E-02  0.44409906517E-03  0.23219027035E-01  0.00000000000E+00 0. -1.
     999901    1    3    3    0    0 -0.10185567504E+00  0.29595060328E-01 -0.28878474953E-01  0.88683956410E+00  0.88000000000E+00 0. -1.
        -11    1    4    4    0    0  0.91209439169E-01 -0.19298807502E-01  0.27738667632E-01  0.97269216958E-01  0.51100000000E-03 0.  1.
         11    1    4    4    0    0  0.33382229913E-01 -0.14986729053E-01  0.69570825615E-03  0.36602191910E-01  0.51100000000E-03 0. -1.
</event>
<event>
 8    1  0.1052028E+005  0.1043930E+01  0.7957747E-01            NaN
         13   -1    0    0    0    0  0.00000000000E+00  0.00000000000E+00  0.74505805969E-08  0.10566000000E+00  0.10566000000E+00 0.  1.
     999900   -1    0    0    0    0 -0.00000000000E+00 -0.00000000000E+00 -0.74505805969E-08  0.93827000000E+00  0.93827000000E+00 0.  1.
     999902    2    1    2    0    0 -0.15065871953E-01  0.13229469204E-01 -0.16140589061E-01  0.10181905756E+01  0.10178651828E+01 0.  0.
     999903    2    3    3    0    0  0.26883162790E-01 -0.75423821578E-01 -0.99009713187E-01  0.12887262390E+00  0.19843703857E-01 0.  0.
         14    1    1    2    0    0  0.15065871953E-01 -0.13229469204E-01  0.16140589061E-01  0.25739424399E-01  0.00000000000E+00 0.  1.
     999901    1    3    3    0    0 -0.41949034743E-01  0.88653290782E-01  0.82869124126E-01  0.88931795170E+00  0.88000000000E+00 0.  1.
        -11    1    4    4    0    0  0.15644607694E-01 -0.22807424780E-01 -0.24402295931E-01  0.36887200256E-01  0.51100000000E-03 0.  1.
         11    1    4    4    0    0  0.11238555096E-01 -0.52616396799E-01 -0.74607417256E-01  0.91985423646E-01  0.51100000000E-03 0. -1.
</event>
<event>
 8    1  0.1052028E+005  0.1043930E+01  0.7957747E-01            NaN
         13   -1    0    0    0    0  0.00000000000E+00  0.00000000000E+00  0.74505805969E-08  0.10566000000E+00  0.10566000000E+00 0.  1.
     999900   -1    0    0    0    0 -0.00000000000E+00 -0.00000000000E+00 -0.74505805969E-08  0.93827000000E+00  0.93827000000E+00 0.  1.
     999902    2    1    2    0    0 -0.36887799241E-02 -0.73775945968E-03 -0.23510614662E-01  0.10201203299E+01  0.10198424325E+01 0.  0.
     999903    2    3    3    0    0  0.11413298443E+00 -0.37031524120E-01  0.43131967678E-01  0.12903086233E+00  0.19771820464E-01 0.  0.
         14    1    1    2    0    0  0.36887799241E-02  0.73775945968E-03  0.23510614662E-01  0.23809670055E-01  0.00000000000E+00 0.  1.
     999901    1    3    3    0    0 -0.11782176436E+00  0.36293764660E-01 -0.66642582340E-01  0.89108946761E+00  0.88000000000E+00 0.  1.
        -11    1    4    4    0    0  0.84146265549E-01 -0.33804886114E-01  0.25985038180E-01  0.94333703740E-01  0.51100000000E-03 0.  1.
         11    1    4    4    0    0  0.29986718883E-01 -0.32266380055E-02  0.17146929499E-01  0.34697158593E-01  0.51100000000E-03 0. -1.
</event>
<event>
 8    1  0.1052028E+005  0.1043930E+01  0.7957747E-01            NaN
         13   -1    0    0    0    0  0.00000000000E+00  0.00000000000E+00  0.74505805969E-08  0.10566000000E+00  0.10566000000E+00 0. -1.
     999900   -1    0    0    0    0 -0.00000000000E+00 -0.00000000000E+00 -0.74505805969E-08  0.93827000000E+00  0.93827000000E+00 0. -1.
     999902    2    1    2    0    0  0.16961065749E-01  0.15081033658E-01 -0.46020012508E-02  0.10207719832E+01  0.10205092591E+01 0.  0.
     999903    2    3    3    0    0  0.61565764346E-01  0.86688228749E-01  0.77243756592E-01  0.13295674474E+00  0.20142137346E-01 0.  0.
         14    1    1    2    0    0 -0.16961065749E-01 -0.15081033658E-01  0.46020012508E-02  0.23158016820E-01  0.00000000000E+00 0.  1.
     999901    1    3    3    0    0 -0.44604698597E-01 -0.71607195091E-01 -0.81845757843E-01  0.88781523844E+00  0.88000000000E+00 0. -1.
        -11    1    4    4    0    0  0.22637581915E-01  0.20092980375E-01  0.29309763419E-01  0.42136816776E-01  0.51100000000E-03 0.  1.
         11    1    4    4    0    0  0.38928182431E-01  0.66595248374E-01  0.47933993173E-01  0.90819927966E-01  0.51100000000E-03 0. -1.
</event>
<event>
 7    1  0.1052028E+005  0.1043930E+01  0.7957747E-01            NaN
         13   -1    0    0    0    0  0.00000000000E+00  0.00000000000E+00  0.74505805969E-08  0.10566000000E+00  0.10566000000E+00 0.  1.
     999900   -1    0    0    0    0 -0.00000000000E+00 -0.00000000000E+00 -0.74505805969E-08  0.93827000000E+00  0.93827000000E+00 0. -1.
     999902    2    1    2    0    0 -0.18829147470E-01  0.10686168676E-01  0.95960460896E-02  0.10202484651E+01  0.10199735856E+01 0.  0.
         14    1    1    2    0    0  0.18829147470E-01 -0.10686168676E-01 -0.95960460896E-02  0.23681534916E-01  0.00000000000E+00 0. -1.
     999901    1    3    3    0    0  0.76264419193E-01 -0.18653325654E-01  0.62939032807E-01  0.88573445797E+00  0.88000000000E+00 0.  1.
        -11    1    3    3    0    0 -0.81350652225E-02  0.32810869899E-01 -0.27922582405E-01  0.43848194933E-01  0.51100000000E-03 0. -1.
         11    1    3    3    0    0 -0.86958501441E-01 -0.34713755695E-02 -0.25420404313E-01  0.90665812177E-01  0.51100000000E-03 0.  1.
</event>
<event>
 8    1  0.1052028E+005  0.1043930E+01  0.7957747E-01            NaN
         13   -1    0    0    0    0  0.00000000000E+00  0.00000000000E+00  0.74505805969E-08  0.10566000000E+00  0.10566000000E+00 0. -1.
     999900   -1    0    0    0    0 -0.00000000000E+00 -0.00000000000E+00 -0.74505805969E-08  0.93827000000E+00  0.93827000000E+00 0. -1.
     999902    2    1    2    0    0 -0.17081459444E-01 -0.14495424724E-01  0.47537484025E-02  0.10210282158E+01  0.10207713386E+01 0.  0.
     999903    2    3    3    0    0  0.15305622770E-01 -0.12841016545E+00 -0.21860908779E-01  0.13269616573E+00  0.20172763450E-01 0.  0.
         14    1    1    2    0    0  0.17081459444E-01  0.14495424724E-01 -0.47537484025E-02  0.22901784178E-01  0.00000000000E+00 0.  1.
     999901    1    3    3    0    0 -0.32387082214E-01  0.11391474073E+00  0.26614657181E-01  0.88833205010E+00  0.88000000000E+00 0.  1.
        -11    1    4    4    0    0  0.13723106088E-01 -0.11551457732E+00 -0.25711579974E-01  0.11913558528E+00  0.51100000000E-03 0. -1.
         11    1    4    4    0    0  0.15825166813E-02 -0.12895588132E-01  0.38506711951E-02  0.13560580444E-01  0.51100000000E-03 0.  1.
</event>
<event>
 8    1  0.1052028E+005  0.1043930E+01  0.7957747E-01            NaN
         13   -1    0    0    0    0  0.00000000000E+00  0.00000000000E+00  0.74505805969E-08  0.10566000000E+00  0.10566000000E+00 0. -1.
     999900   -1    0    0    0    0 -0.00000000000E+00 -0.00000000000E+00 -0.74505805969E-08  0.93827000000E+00  0.93827000000E+00 0. -1.
     999902    2    1    2    0    0 -0.41167369048E-02  0.22604980603E-01  0.41844823989E-02  0.10205752882E+01  0.10203080301E+01 0.  0.
     999903    2    3    3    0    0 -0.84313023005E-01 -0.37448918552E-01 -0.89354749176E-01  0.12996454103E+00  0.19884752363E-01 0.  0.
         14    1    1    2    0    0  0.41167369048E-02 -0.22604980603E-01 -0.41844823989E-02  0.23354711810E-01  0.00000000000E+00 0. -1.
     999901    1    3    3    0    0  0.80196286100E-01  0.60053899155E-01  0.93539231575E-01  0.89061074716E+00  0.88000000000E+00 0.  1.
        -11    1    4    4    0    0 -0.19191710454E-01 -0.18128782940E-02 -0.11805295601E-01  0.22610493207E-01  0.51100000000E-03 0. -1.
         11    1    4    4    0    0 -0.65121312551E-01 -0.35636040258E-01 -0.77549453575E-01  0.10735404783E+00  0.51100000000E-03 0.  1.
</event>
<event>
 8    1  0.1052028E+005  0.1043930E+01  0.7957747E-01            NaN
         13   -1    0    0    0    0  0.00000000000E+00  0.00000000000E+00  0.74505805969E-08  0.10566000000E+00  0.10566000000E+00 0.  1.
     999900   -1    0    0    0    0 -0.00000000000E+00 -0.00000000000E+00 -0.74505805969E-08  0.93827000000E+00  0.93827000000E+00 0.  1.
     999902    2    1    2    0    0 -0.77090098281E-02 -0.68685101101E-02 -0.21530408933E-01  0.10200518976E+01  0.10197723815E+01 0.  0.
     999903    2    3    3    0    0  0.65811050230E-01  0.37505595661E-01  0.10061801954E+00  0.12747445054E+00  0.19697351242E-01 0.  0.
         14    1    1    2    0    0  0.77090098281E-02  0.68685101101E-02  0.21530408933E-01  0.23878102364E-01  0.00000000000E+00 0.  1.
     999901    1    3    3    0    0 -0.73520060058E-01 -0.44374105771E-01 -0.12214842847E+00  0.89257744710E+00  0.88000000000E+00 0.  1.
        -11    1    4    4    0    0  0.37902162813E-01  0.30168481389E-01  0.53107914272E-01  0.71884789035E-01  0.51100000000E-03 0.  1.
         11    1    4    4    0    0  0.27908887417E-01  0.73371142721E-02  0.47510105264E-01  0.55589661501E-01  0.51100000000E-03 0. -1.
</event>
<event>
 8    1  0.1052028E+005  0.1043930E+01  0.7957747E-01            NaN
         13   -1    0    0    0    0  0.00000000000E+00  0.00000000000E+00  0.74505805969E-08  0.10566000000E+00  0.10566000000E+00 0. -1.
     999900   -1    0    0    0    0 -0.00000000000E+00 -0.00000000000E+00 -0.74505805969E-08  0.93827000000E+00  0.93827000000E+00 0.  1.
     999902    2    1    2    0    0 -0.13072483055E-01 -0.14286442311E-01  0.26484943586E-02  0.10243850065E+01  0.10241985329E+01 0.  0.
     999903    2    3    3    0    0 -0.48102764224E-01 -0.86329062708E-01  0.91716311238E-01  0.13626883409E+00  0.19766901723E-01 0.  0.
         14    1    1    2    0    0  0.13072483055E-01  0.14286442311E-01 -0.26484943586E-02  0.19544993464E-01  0.00000000000E+00 0.  1.
     999901    1    3    3    0    0  0.35030281170E-01  0.72042620396E-01 -0.89067816880E-01  0.88811617244E+00  0.88000000000E+00 0. -1.
        -11    1    4    4    0    0 -0.37721744478E-01 -0.47891433813E-01  0.55427695822E-01  0.82395449050E-01  0.51100000000E-03 0. -1.
         11    1    4    4    0    0 -0.10381019746E-01 -0.38437628895E-01  0.36288615417E-01  0.53873385042E-01  0.51100000000E-03 0.  1.
</event>
<event>
 8    1  0.1052028E+005  0.1043930E+01  0.7957747E-01            NaN
         13   -1    0    0    0    0  0.00000000000E+00  0.00000000000E+00  0.74505805969E-08  0.10566000000E+00  0.10566000000E+00 0. -1.
     999900   -1    0    0    0    0 -0.00000000000E+00 -0.00000000000E+00 -0.74505805969E-08  0.93827000000E+00  0.93827000000E+00 0.  1.
     999902    2    1    2    0    0  0.10205502480E-01 -0.20125633336E-01 -0.56613357717E-02  0.10206653461E+01  0.10204001689E+01 0.  0.
     999903    2    3    3    0    0  0.43229784189E-01  0.11981964513E-01  0.12086655182E+00  0.13042335240E+00  0.19726778421E-01 0.  0.
         14    1    1    2    0    0 -0.10205502480E-01  0.20125633336E-01  0.56613357717E-02  0.23264653893E-01  0.00000000000E+00 0. -1.
     999901    1    3    3    0    0 -0.33024281709E-01 -0.32107597849E-01 -0.12652788759E+00  0.89024199371E+00  0.88000000000E+00 0.  1.
        -11    1    4    4    0    0  0.24890825685E-01  0.92743259813E-02  0.44412102544E-01  0.51751930390E-01  0.51100000000E-03 0. -1.
         11    1    4    4    0    0  0.18338958504E-01  0.27076385315E-02  0.76454449279E-01  0.78671422009E-01  0.51100000000E-03 0.  1.
</event>
<event>
 8    1  0.1052028E+005  0.1043930E+01  0.7957747E-01            NaN
         13   -1    0    0    0    0  0.00000000000E+00  0.00000000000E+00  0.74505805969E-08  0.10566000000E+00  0.10566000000E+00 0. -1.
     999900   -1    0    0    0    0 -0.00000000000E+00 -0.00000000000E+00 -0.74505805969E-08  0.93827000000E+00  0.93827000000E+00 0. -1.
     999902    2    1    2    0    0  0.23024317379E-01  0.43100462789E-02  0.51307415656E-02  0.10199504212E+01  0.10196684959E+01 0.  0.
     999903    2    3    3    0    0 -0.72711352420E-01 -0.36424360849E-01  0.97683326397E-01  0.12900115703E+00  0.22036139058E-01 0.  0.
         14    1    1    2    0    0 -0.23024317379E-01 -0.43100462789E-02 -0.51307415656E-02  0.23979578785E-01  0.00000000000E+00 0.  1.
     999901    1    3    3    0    0  0.95735669799E-01  0.40734407128E-01 -0.92552584832E-01  0.89094926419E+00  0.88000000000E+00 0. -1.
        -11    1    4    4    0    0 -0.59955704409E-01 -0.24749412200E-01  0.63937838859E-01  0.91079790593E-01  0.51100000000E-03 0. -1.
         11    1    4    4    0    0 -0.12755648010E-01 -0.11674948649E-01  0.33745487538E-01  0.37921366435E-01  0.51100000000E-03 0.  1.
</event>
<event>
 8    1  0.1052028E+005  0.1043930E+01  0.7957747E-01            NaN
         13   -1    0    0    0    0  0.00000000000E+00  0.00000000000E+00  0.74505805969E-08  0.10566000000E+00  0.10566000000E+00 0. -1.
     999900   -1    0    0    0    0 -0.00000000000E+00 -0.00000000000E+00 -0.74505805969E-08  0.93827000000E+00  0.93827000000E+00 0. -1.
     999902    2    1    2    0    0  0.21842377357E-01 -0.97467951170E-02  0.35618942804E-04  0.10200115817E+01  0.10197311097E+01 0.  0.
     999903    2    3    3    0    0  0.74207153353E-01  0.90747010855E-01 -0.55044998257E-01  0.13103748245E+00  0.19978698314E-01 0.  0.
         14    1    1    2    0    0 -0.21842377357E-01  0.97467951170E-02 -0.35618942804E-04  0.23918418266E-01  0.00000000000E+00 0. -1.
     999901    1    3    3    0    0 -0.52364775996E-01 -0.10049380597E+00  0.55080617200E-01  0.88897409928E+00  0.88000000000E+00 0.  1.
        -11    1    4    4    0    0  0.12108693579E-01  0.28069108201E-01 -0.11737371986E-01  0.32749386521E-01  0.51100000000E-03 0. -1.
         11    1    4    4    0    0  0.62098459774E-01  0.62677902654E-01 -0.43307626270E-01  0.98288095930E-01  0.51100000000E-03 0.  1.
</event>
<event>
 8    1  0.1052028E+005  0.1043930E+01  0.7957747E-01            NaN
         13   -1    0    0    0    0  0.00000000000E+00  0.00000000000E+00  0.74505805969E-08  0.10566000000E+00  0.10566000000E+00 0.  1.
     999900   -1    0    0    0    0 -0.00000000000E+00 -0.00000000000E+00 -0.74505805969E-08  0.93827000000E+00  0.93827000000E+00 0.  1.
     999902    2    1    2    0    0 -0.16511314638E-01  0.17387760784E-01  0.53533536856E-02  0.10193613995E+01  0.10190652808E+01 0.  0.
     999903    2    3    3    0    0  0.25010437442E-01  0.12265549237E+00 -0.33947933206E-01  0.13124544851E+00  0.20075203465E-01 0.  0.
         14    1    1    2    0    0  0.16511314638E-01 -0.17387760784E-01 -0.53533536856E-02  0.24568600526E-01  0.00000000000E+00 0. -1.
     999901    1    3    3    0    0 -0.41521752080E-01 -0.10526773159E+00  0.39301286892E-01  0.88811595097E+00  0.88000000000E+00 0. -1.
        -11    1    4    4    0    0  0.24358430351E-01  0.72171785354E-01 -0.23148661610E-01  0.79612947349E-01  0.51100000000E-03 0.  1.
         11    1    4    4    0    0  0.65200709174E-03  0.50483707020E-01 -0.10799271596E-01  0.51632501157E-01  0.51100000000E-03 0. -1.
</event>
<event>
 8    1  0.1052028E+005  0.1043930E+01  0.7957747E-01            NaN
         13   -1    0    0    0    0  0.00000000000E+00  0.00000000000E+00  0.74505805969E-08  0.10566000000E+00  0.10566000000E+00 0. -1.
     999900   -1    0    0    0    0 -0.00000000000E+00 -0.00000000000E+00 -0.74505805969E-08  0.93827000000E+00  0.93827000000E+00 0.  1.
     999902    2    1    2    0    0 -0.79070835863E-02 -0.25895224433E-01  0.14935408301E-01  0.10130083079E+01  0.10125362615E+01 0.  0.
     999903    2    3    3    0    0 -0.11165438751E+00  0.38462218098E-03  0.53809895363E-01  0.12567220523E+00  0.20764107094E-01 0.  0.
         14    1    1    2    0    0  0.79070835863E-02  0.25895224433E-01 -0.14935408301E-01  0.30921692069E-01  0.00000000000E+00 0. -1.
     999901    1    3    3    0    0  0.10374730393E+00 -0.26279846614E-01 -0.38874487062E-01  0.88733610270E+00  0.88000000000E+00 0. -1.
        -11    1    4    4    0    0 -0.27402795726E-01  0.75824118710E-02  0.19153150967E-01  0.34285718548E-01  0.51100000000E-03 0. -1.
         11    1    4    4    0    0 -0.84251591788E-01 -0.71977896900E-02  0.34656744396E-01  0.91386486684E-01  0.51100000000E-03 0.  1.
</event>
<event>
 8    1  0.1052028E+005  0.1043930E+01  0.7957747E-01            NaN
         13   -1    0    0    0    0  0.00000000000E+00  0.00000000000E+00  0.74505805969E-08  0.10566000000E+00  0.10566000000E+00 0.  1.
     999900   -1    0    0    0    0 -0.00000000000E+00 -0.00000000000E+00 -0.74505805969E-08  0.93827000000E+00  0.93827000000E+00 0. -1.
     999902    2    1    2    0    0 -0.20396814731E-01  0.13746176568E-01  0.63995460010E-02  0.10185146186E+01  0.10181974694E+01 0.  0.
     999903    2    3    3    0    0 -0.97449613027E-02  0.37389847425E-02 -0.12630055037E+00  0.12844556431E+00  0.20916254181E-01 0.  0.
         14    1    1    2    0    0  0.20396814731E-01 -0.13746176568E-01 -0.63995460010E-02  0.25415381375E-01  0.00000000000E+00 0.  1.
     999901    1    3    3    0    0 -0.10651853429E-01  0.10007191825E-01  0.13270009637E+00  0.89006905431E+00  0.88000000000E+00 0.  1.
        -11    1    4    4    0    0 -0.48553170221E-02 -0.80972598844E-02 -0.73799786379E-01  0.74403019506E-01  0.51100000000E-03 0.  1.
         11    1    4    4    0    0 -0.48896442806E-02  0.11836244627E-01 -0.52500763994E-01  0.54042544805E-01  0.51100000000E-03 0. -1.
</event>
<event>
 8    1  0.1052028E+005  0.1043930E+01  0.7957747E-01            NaN
         13   -1    0    0    0    0  0.00000000000E+00  0.00000000000E+00  0.74505805969E-08  0.10566000000E+00  0.10566000000E+00 0.  1.
     999900   -1    0    0    0    0 -0.00000000000E+00 -0.00000000000E+00 -0.74505805969E-08  0.93827000000E+00  0.93827000000E+00 0. -1.
     999902    2    1    2    0    0  0.23113025403E-01  0.45172158069E-02  0.49577181125E-02  0.10198635056E+01  0.10195795084E+01 0.  0.
     999903    2    3    3    0    0  0.69624816425E-01  0.10585236833E+00  0.32551031281E-01  0.13239882985E+00  0.20433833832E-01 0.  0.
         14    1    1    2    0    0 -0.23113025403E-01 -0.45172158069E-02 -0.49577181125E-02  0.24066494361E-01  0.00000000000E+00 0. -1.
     999901    1    3    3    0    0 -0.46511791022E-01 -0.10133515252E+00 -0.27593313168E-01  0.88746467579E+00  0.88000000000E+00 0.  1.
        -11    1    4    4    0    0  0.53377737390E-01  0.66746798787E-01  0.27322207362E-01  0.89727822515E-01  0.51100000000E-03 0.  1.
         11    1    4    4    0    0  0.16247079036E-01  0.39105569543E-01  0.52288239186E-02  0.42671007335E-01  0.51100000000E-03 0. -1.
</event>
<event>
 8    1  0.1052028E+005  0.1043930E+01  0.7957747E-01            NaN
         13   -1    0    0    0    0  0.00000000000E+00  0.00000000000E+00  0.74505805969E-08  0.10566000000E+00  0.10566000000E+00 0. -1.
     999900   -1    0    0    0    0 -0.00000000000E+00 -0.00000000000E+00 -0.74505805969E-08  0.93827000000E+00  0.93827000000E+00 0. -1.
     999902    2    1    2    0    0  0.21156054897E-01  0.52481897671E-02 -0.80125489840E-02  0.10207066691E+01  0.10204424439E+01 0.  0.
     999903    2    3    3    0    0  0.12400441173E+00  0.45125185432E-01 -0.29712342793E-02  0.13380567459E+00  0.21948891344E-01 0.  0.
         14    1    1    2    0    0 -0.21156054897E-01 -0.52481897671E-02  0.80125489840E-02  0.23223330852E-01  0.00000000000E+00 0. -1.
     999901    1    3    3    0    0 -0.10284835684E+00 -0.39876995665E-01 -0.50413147047E-02  0.88690099455E+00  0.88000000000E+00 0. -1.
        -11    1    4    4    0    0  0.74957935121E-01  0.36450612379E-01  0.43221104126E-02  0.83464249471E-01  0.51100000000E-03 0. -1.
         11    1    4    4    0    0  0.49046476611E-01  0.86745730528E-02 -0.72933446919E-02  0.50341425123E-01  0.51100000000E-03 0.  1.
</event>
<event>
 8    1  0.1052028E+005  0.1043930E+01  0.7957747E-01            NaN
         13   -1    0    0    0    0  0.00000000000E+00  0.00000000000E+00  0.74505805969E-08  0.10566000000E+00  0.10566000000E+00 0. -1.
     999900   -1    0    0    0    0 -0.00000000000E+00 -0.00000000000E+00 -0.74505805969E-08  0.93827000000E+00  0.93827000000E+00 0.  1.
     999902    2    1    2    0    0  0.51179548642E-03  0.16159593702E-01  0.16179471077E-01  0.10210570971E+01  0.10208008747E+01 0.  0.
     999903    2    3    3    0    0 -0.65738259688E-01  0.10839072199E+00 -0.32725412077E-01  0.13241355864E+00  0.19807334910E-01 0.  0.
         14    1    1    2    0    0 -0.51179548642E-03 -0.16159593702E-01 -0.16179471077E-01  0.22872902910E-01  0.00000000000E+00 0.  1.
     999901    1    3    3    0    0  0.66250055174E-01 -0.92231128284E-01  0.48904883154E-01  0.88864353845E+00  0.88000000000E+00 0. -1.
        -11    1    4    4    0    0 -0.47286270353E-01  0.75577798502E-01 -0.32111899038E-01  0.94759855272E-01  0.51100000000E-03 0.  1.
         11    1    4    4    0    0 -0.18451989335E-01  0.32812923484E-01 -0.61351303937E-03  0.37653703367E-01  0.51100000000E-03 0. -1.
</event>
<event>
 8    1  0.1052028E+005  0.1043930E+01  0.7957747E-01            NaN
         13   -1    0    0    0    0  0.00000000000E+00  0.00000000000E+00  0.74505805969E-08  0.10566000000E+00  0.10566000000E+00 0. -1.
     999900   -1    0    0    0    0 -0.00000000000E+00 -0.00000000000E+00 -0.74505805969E-08  0.93827000000E+00  0.93827000000E+00 0. -1.
     999902    2    1    2    0    0 -0.31808209870E-02  0.97800231074E-02 -0.23586951266E-01  0.10181984873E+01  0.10178732971E+01 0.  0.
     999903    2    3    3    0    0 -0.91625969805E-01 -0.12543145078E-01 -0.90647889477E-01  0.13094540189E+00  0.19416734514E-01 0.  0.
         14    1    1    2    0    0  0.31808209870E-02 -0.97800231074E-02  0.23586951266E-01  0.25731512668E-01  0.00000000000E+00 0. -1.
     999901    1    3    3    0    0  0.88445148818E-01  0.22323168186E-01  0.67060938211E-01  0.88725308544E+00  0.88000000000E+00 0.  1.
        -11    1    4    4    0    0 -0.62447163057E-01 -0.10001409990E-01 -0.73644584333E-01  0.97074519305E-01  0.51100000000E-03 0. -1.
         11    1    4    4    0    0 -0.29178806748E-01 -0.25417350879E-02 -0.17003305144E-01  0.33870882588E-01  0.51100000000E-03 0.  1.
</event>
<event>
 8    1  0.1052028E+005  0.1043930E+01  0.7957747E-01            NaN
         13   -1    0    0    0    0  0.00000000000E+00  0.00000000000E+00  0.74505805969E-08  0.10566000000E+00  0.10566000000E+00 0.  1.
     999900   -1    0    0    0    0 -0.00000000000E+00 -0.00000000000E+00 -0.74505805969E-08  0.93827000000E+00  0.93827000000E+00 0.  1.
     999902    2    1    2    0    0  0.88525317049E-02 -0.20322225121E-01 -0.67881981191E-02  0.10207472524E+01  0.10204839605E+01 0.  0.
     999903    2    3    3    0    0  0.44581956167E-02 -0.91548390248E-01 -0.94955254918E-01  0.13346719140E+00  0.19899936638E-01 0.  0.
         14    1    1    2    0    0 -0.88525317049E-02  0.20322225121E-01  0.67881981191E-02  0.23182747575E-01  0.00000000000E+00 0.  1.
     999901    1    3    3    0    0  0.43943360882E-02  0.71226165128E-01  0.88167056799E-01  0.88728006103E+00  0.88000000000E+00 0. -1.
        -11    1    4    4    0    0 -0.63789356694E-02 -0.17649096366E-01 -0.14798170992E-01  0.23904568780E-01  0.51100000000E-03 0.  1.
         11    1    4    4    0    0  0.10837131286E-01 -0.73899293882E-01 -0.80157083926E-01  0.10956262262E+00  0.51100000000E-03 0. -1.
</event>
<event>
 8    1  0.1052028E+005  0.1043930E+01  0.7957747E-01            NaN
         13   -1    0    0    0    0  0.00000000000E+00  0.00000000000E+00  0.74505805969E-08  0.10566000000E+00  0.10566000000E+00 0.  1.
     999900   -1    0    0    0    0 -0.00000000000E+00 -0.00000000000E+00 -0.74505805969E-08  0.93827000000E+00  0.93827000000E+00 0. -1.
     999902    2    1    2    0    0  0.19006703180E-01  0.10903560619E-01 -0.68900970667E-02  0.10209601102E+01  0.10207016855E+01 0.  0.
     999903    2    3    3    0    0 -0.23786839547E-01 -0.78879740681E-01 -0.99329641016E-01  0.13054593815E+00  0.19698658805E-01 0.  0.
         14    1    1    2    0    0 -0.19006703180E-01 -0.10903560619E-01  0.68900970667E-02  0.22969889802E-01  0.00000000000E+00 0.  1.
     999901    1    3    3    0    0  0.42793542726E-01  0.89783301299E-01  0.92439543949E-01  0.89041417204E+00  0.88000000000E+00 0.  1.
        -11    1    4    4    0    0 -0.11843671395E-01 -0.16521725746E-01 -0.16539744944E-01  0.26211910604E-01  0.51100000000E-03 0. -1.
         11    1    4    4    0    0 -0.11943168152E-01 -0.62358014935E-01 -0.82789896072E-01  0.10433402755E+00  0.51100000000E-03 0.  1.
</event>
<event>
 8    1  0.1052028E+005  0.1043930E+01  0.7957747E-01            NaN
         13   -1    0    0    0    0  0.00000000000E+00  0.00000000000E+00  0.74505805969E-08  0.10566000000E+00  0.10566000000E+00 0.  1.
     999900   -1    0    0    0    0 -0.00000000000E+00 -0.00000000000E+00 -0.74505805969E-08  0.93827000000E+00  0.93827000000E+00 0. -1.
     999902    2    1    2    0    0 -0.12342246609E-01  0.36686792259E-02  0.19258875663E-01  0.10207633310E+01  0.10205004084E+01 0.  0.
     999903    2    3    3    0    0  0.15646735527E-01 -0.59654332307E-01 -0.11095028470E+00  0.12849228907E+00  0.19920918102E-01 0.  0.
         14    1    1    2    0    0  0.12342246609E-01 -0.36686792259E-02 -0.19258875663E-01  0.23166668954E-01  0.00000000000E+00 0. -1.
     999901    1    3    3    0    0 -0.27988982136E-01  0.63323011532E-01  0.13020916037E+00  0.89227104198E+00  0.88000000000E+00 0.  1.
        -11    1    4    4    0    0  0.14035889104E-03 -0.24973503725E-01 -0.29770552254E-01  0.38861838498E-01  0.51100000000E-03 0. -1.
         11    1    4    4    0    0  0.15506376636E-01 -0.34680828582E-01 -0.81179732450E-01  0.89630450569E-01  0.51100000000E-03 0.  1.
</event>
<event>
 8    1  0.1052028E+005  0.1043930E+01  0.7957747E-01            NaN
         13   -1    0    0    0    0  0.00000000000E+00  0.00000000000E+00  0.74505805969E-08  0.10566000000E+00  0.10566000000E+00 0. -1.
     999900   -1    0    0    0    0 -0.00000000000E+00 -0.00000000000E+00 -0.74505805969E-08  0.93827000000E+00  0.93827000000E+00 0.  1.
     999902    2    1    2    0    0  0.26049993923E-02  0.75882584226E-02  0.23188971148E-01  0.10193923540E+01  0.10190969902E+01 0.  0.
     999903    2    3    3    0    0 -0.25532527002E-01  0.12610141793E+00 -0.83025019125E-02  0.13044421028E+00  0.19831362014E-01 0.  0.
         14    1    1    2    0    0 -0.26049993923E-02 -0.75882584226E-02 -0.23188971148E-01  0.24537645988E-01  0.00000000000E+00 0.  1.
     999901    1    3    3    0    0  0.28137526394E-01 -0.11851315950E+00  0.31491473061E-01  0.88894814373E+00  0.88000000000E+00 0. -1.
        -11    1    4    4    0    0 -0.10957902331E-01  0.42741112476E-01  0.62786925039E-02  0.44570858414E-01  0.51100000000E-03 0. -1.
         11    1    4    4    0    0 -0.14574624671E-01  0.83360305451E-01 -0.14581194416E-01  0.85873351867E-01  0.51100000000E-03 0.  1.
</event>
<event>
 8    1  0.1052028E+005  0.1043930E+01  0.7957747E-01            NaN
         13   -1    0    0    0    0  0.00000000000E+00  0.00000000000E+00  0.74505805969E-08  0.10566000000E+00  0.10566000000E+00 0.  1.
     999900   -1    0    0    0    0 -0.00000000000E+00 -0.00000000000E+00 -0.74505805969E-08  0.93827000000E+00  0.93827000000E+00 0. -1.
     999902    2    1    2    0    0  0.20165156670E-01  0.10999381054E-01 -0.47790110923E-03  0.10209550502E+01  0.10206965104E+01 0.  0.
     999903    2    3    3    0    0  0.56381740233E-01  0.11114523792E+00 -0.43654827577E-01  0.13348387856E+00  0.19494545935E-01 0.  0.
         14    1    1    2    0    0 -0.20165156670E-01 -0.10999381054E-01  0.47790110923E-03  0.22974949762E-01  0.00000000000E+00 0. -1.
     999901    1    3    3    0    0 -0.36216583563E-01 -0.10014585687E+00  0.43176926468E-01  0.88747117167E+00  0.88000000000E+00 0.  1.
        -11    1    4    4    0    0  0.88759501360E-02  0.36415510354E-01 -0.10500445177E-01  0.38928040730E-01  0.51100000000E-03 0. -1.
         11    1    4    4    0    0  0.47505790097E-01  0.74729727568E-01 -0.33154382400E-01  0.94555837834E-01  0.51100000000E-03 0.  1.
</event>
<event>
 8    1  0.1052028E+005  0.1043930E+01  0.7957747E-01            NaN
         13   -1    0    0    0    0  0.00000000000E+00  0.00000000000E+00  0.74505805969E-08  0.10566000000E+00  0.10566000000E+00 0. -1.
     999900   -1    0    0    0    0 -0.00000000000E+00 -0.00000000000E+00 -0.74505805969E-08  0.93827000000E+00  0.93827000000E+00 0.  1.
     999902    2    1    2    0    0  0.18045352509E-01  0.15888314308E-01 -0.44790885561E-02  0.10194731909E+01  0.10191797935E+01 0.  0.
     999903    2    3    3    0    0  0.24100238984E-01 -0.57017923495E-01 -0.11217278364E+00  0.12989468780E+00  0.21401668414E-01 0.  0.
         14    1    1    2    0    0 -0.18045352509E-01 -0.15888314308E-01  0.44790885561E-02  0.24456809134E-01  0.00000000000E+00 0.  1.
     999901    1    3    3    0    0 -0.60548864749E-02  0.72906237803E-01  0.10769369508E+00  0.88957850307E+00  0.88000000000E+00 0. -1.
        -11    1    4    4    0    0  0.11061982394E-01 -0.30236972779E-01 -0.37090590056E-01  0.49118377101E-01  0.51100000000E-03 0.  1.
         11    1    4    4    0    0  0.13038256589E-01 -0.26780950716E-01 -0.75082193579E-01  0.80776310697E-01  0.51100000000E-03 0. -1.
</event>
<event>
 8    1  0.1052028E+005  0.1043930E+01  0.7957747E-01            NaN
         13   -1    0    0    0    0  0.00000000000E+00  0.00000000000E+00  0.74505805969E-08  0.10566000000E+00  0.10566000000E+00 0. -1.
     999900   -1    0    0    0    0 -0.00000000000E+00 -0.00000000000E+00 -0.74505805969E-08  0.93827000000E+00  0.93827000000E+00 0.  1.
     999902    2    1    2    0    0  0.11751051192E-01  0.85248663541E-02  0.16719070527E-01  0.10217875550E+01  0.10215476101E+01 0.  0.
     999903    2    3    3    0    0  0.39005515341E-01  0.11239488196E+00 -0.53731521011E-01  0.13246473860E+00  0.22489795523E-01 0.  0.
         14    1    1    2    0    0 -0.11751051192E-01 -0.85248663541E-02 -0.16719070527E-01  0.22142444982E-01  0.00000000000E+00 0.  1.
     999901    1    3    3    0    0 -0.27254464149E-01 -0.10387001561E+00  0.70450591537E-01  0.88932281642E+00  0.88000000000E+00 0.  1.
        -11    1    4    4    0    0  0.15187924217E-01  0.26271235839E-01 -0.52447672511E-02  0.30799668489E-01  0.51100000000E-03 0. -1.
         11    1    4    4    0    0  0.23817591124E-01  0.86123646126E-01 -0.48486753759E-01  0.10166507011E+00  0.51100000000E-03 0.  1.
</event>
<event>
 8    1  0.1052028E+005  0.1043930E+01  0.7957747E-01            NaN
         13   -1    0    0    0    0  0.00000000000E+00  0.00000000000E+00  0.74505805969E-08  0.10566000000E+00  0.10566000000E+00 0. -1.
     999900   -1    0    0    0    0 -0.00000000000E+00 -0.00000000000E+00 -0.74505805969E-08  0.93827000000E+00  0.93827000000E+00 0. -1.
     999902    2    1    2    0    0 -0.11405258479E-01  0.17670264203E-01 -0.62600033550E-02  0.10219867596E+01  0.10217511590E+01 0.  0.
     999903    2    3    3    0    0  0.26646843402E-02 -0.12090003318E+00 -0.43963180366E-01  0.13023498910E+00  0.20111503979E-01 0.  0.
         14    1    1    2    0    0  0.11405258479E-01 -0.17670264203E-01  0.62600033550E-02  0.21943240416E-01  0.00000000000E+00 0. -1.
     999901    1    3    3    0    0 -0.14069942819E-01  0.13857029738E+00  0.37703177011E-01  0.89175177049E+00  0.88000000000E+00 0.  1.
        -11    1    4    4    0    0  0.11158282088E-01 -0.77630586938E-01 -0.26144863184E-01  0.82673032359E-01  0.51100000000E-03 0.  1.
         11    1    4    4    0    0 -0.84935977480E-02 -0.43269446241E-01 -0.17818317182E-01  0.47561956739E-01  0.51100000000E-03 0. -1.
</event>
<event>
 8    1  0.1052028E+005  0.1043930E+01  0.7957747E-01            NaN
         13   -1    0    0    0    0  0.00000000000E+00  0.00000000000E+00  0.74505805969E-08  0.10566000000E+00  0.10566000000E+00 0.  1.
     999900   -1    0    0    0    0 -0.00000000000E+00 -0.00000000000E+00 -0.74505805969E-08  0.93827000000E+00  0.93827000000E+00 0. -1.
     999902    2    1    2    0    0 -0.14052839467E-02  0.19347945896E-01  0.17090996473E-01  0.10180761803E+01  0.10177478513E+01 0.  0.
     999903    2    3    3    0    0  0.64276639236E-01  0.98191349951E-01  0.56915096187E-01  0.13121860643E+00  0.14351548405E-01 0.  0.
         14    1    1    2    0    0  0.14052839467E-02 -0.19347945896E-01 -0.17090996473E-01  0.25853819714E-01  0.00000000000E+00 0. -1.
     999901    1    3    3    0    0 -0.65681923182E-01 -0.78843404056E-01 -0.39824099714E-01  0.88685757386E+00  0.88000000000E+00 0. -1.
        -11    1    4    4    0    0  0.25108077604E-01  0.41180151860E-01  0.15826657643E-01  0.50763812714E-01  0.51100000000E-03 0.  1.
         11    1    4    4    0    0  0.39168561632E-01  0.57011198092E-01  0.41088438544E-01  0.80454793711E-01  0.51100000000E-03 0. -1.
</event>
<event>
 7    1  0.1052028E+005  0.1043930E+01  0.7957747E-01            NaN
         13   -1    0    0    0    0  0.00000000000E+00  0.00000000000E+00  0.74505805969E-08  0.10566000000E+00  0.10566000000E+00 0.  1.
     999900   -1    0    0    0    0 -0.00000000000E+00 -0.00000000000E+00 -0.74505805969E-08  0.93827000000E+00  0.93827000000E+00 0.  1.
     999903    2    1    2    0    0  0.76217024813E-01 -0.56437658630E-01  0.62648212420E-01  0.11554958971E+00  0.20800600468E-01 0.  0.
         14    1    1    2    0    0 -0.23252292802E-01 -0.28523423536E-01 -0.19513487411E-01  0.41653703337E-01  0.00000000000E+00 0.  1.
     999901    1    1    2    0    0 -0.52964732011E-01  0.84961082166E-01 -0.43134725009E-01  0.88672670695E+00  0.88000000000E+00 0.  1.
        -11    1    3    3    0    0  0.50446261365E-01 -0.30821142074E-01  0.28290840291E-01  0.65539307670E-01  0.51100000000E-03 0.  1.
         11    1    3    3    0    0  0.25770763448E-01 -0.25616516556E-01  0.34357372130E-01  0.50010282041E-01  0.51100000000E-03 0. -1.
</event>
<event>
 8    1  0.1052028E+005  0.1043930E+01  0.7957747E-01            NaN
         13   -1    0    0    0    0  0.00000000000E+00  0.00000000000E+00  0.74505805969E-08  0.10566000000E+00  0.10566000000E+00 0.  1.
     999900   -1    0    0    0    0 -0.00000000000E+00 -0.00000000000E+00 -0.74505805969E-08  0.93827000000E+00  0.93827000000E+00 0.  1.
     999902    2    1    2    0    0  0.10273484859E-01  0.11265205497E-01 -0.16743567718E-01  0.10212849916E+01  0.10210339062E+01 0.  0.
     999903    2    3    3    0    0  0.43767908766E-02  0.17542776656E-01  0.12683645880E+00  0.12960713333E+00  0.19586128155E-01 0.  0.
         14    1    1    2    0    0 -0.10273484859E-01 -0.11265205497E-01  0.16743567718E-01  0.22645008412E-01  0.00000000000E+00 0.  1.
     999901    1    3    3    0    0  0.58966939821E-02 -0.62775711590E-02 -0.14358002652E+00  0.89167785826E+00  0.88000000000E+00 0.  1.
        -11    1    4    4    0    0  0.10019752471E-01  0.14286311708E-01  0.61051219766E-01  0.63498084205E-01  0.51100000000E-03 0. -1.
         11    1    4    4    0    0 -0.56429615947E-02  0.32564649483E-02  0.65785239037E-01  0.66109049121E-01  0.51100000000E-03 0.  1.
</event>
<event>
 7    1  0.1052028E+005  0.1043930E+01  0.7957747E-01            NaN
         13   -1    0    0    0    0  0.00000000000E+00  0.00000000000E+00  0.74505805969E-08  0.10566000000E+00  0.10566000000E+00 0.  1.
     999900   -1    0    0    0    0 -0.00000000000E+00 -0.00000000000E+00 -0.74505805969E-08  0.93827000000E+00  0.93827000000E+00 0. -1.
     999903    2    1    2    0    0 -0.87657255578E-02 -0.45102145254E-01 -0.10258765082E+00  0.11379302178E+00  0.17708310333E-01 0.  0.
         14    1    1    2    0    0  0.22003324478E-01 -0.18495285801E-01 -0.25586156706E-01  0.38482116625E-01  0.00000000000E+00 0. -1.
     999901    1    1    2    0    0 -0.13237598920E-01  0.63597431056E-01  0.12817380753E+00  0.89165486159E+00  0.88000000000E+00 0.  1.
        -11    1    3    3    0    0 -0.45140445475E-03 -0.38764310749E-01 -0.80242710862E-01  0.89118063945E-01  0.51100000000E-03 0. -1.
         11    1    3    3    0    0 -0.83143211031E-02 -0.63378345051E-02 -0.22344939959E-01  0.24674957840E-01  0.51100000000E-03 0.  1.
</event>
<event>
 8    1  0.1052028E+005  0.1043930E+01  0.7957747E-01            NaN
         13   -1    0    0    0    0  0.00000000000E+00  0.00000000000E+00  0.74505805969E-08  0.10566000000E+00  0.10566000000E+00 0.  1.
     999900   -1    0    0    0    0 -0.00000000000E+00 -0.00000000000E+00 -0.74505805969E-08  0.93827000000E+00  0.93827000000E+00 0. -1.
     999902    2    1    2    0    0 -0.19193430890E-01 -0.12201378942E-01 -0.64444472946E-02  0.10202912111E+01  0.10200173348E+01 0.  0.
     999903    2    3    3    0    0  0.61803366638E-01  0.70513143073E-01 -0.84938754704E-01  0.12924489941E+00  0.26417655081E-01 0.  0.
         14    1    1    2    0    0  0.19193430890E-01  0.12201378942E-01  0.64444472946E-02  0.23638788851E-01  0.00000000000E+00 0.  1.
     999901    1    3    3    0    0 -0.80996797527E-01 -0.82714522015E-01  0.78494307409E-01  0.89104631174E+00  0.88000000000E+00 0.  1.
        -11    1    4    4    0    0  0.29619393977E-01  0.35854796920E-01 -0.59555662032E-01  0.75564627722E-01  0.51100000000E-03 0. -1.
         11    1    4    4    0    0  0.32183972660E-01  0.34658346152E-01 -0.25383092672E-01  0.53680271691E-01  0.51100000000E-03 0.  1.
</event>
<event>
 8    1  0.1062053E+005  0.1043930E+01  0.7957747E-01            NaN
         13   -1    0    0    0    0  0.00000000000E+00  0.00000000000E+00  0.74505805969E-08  0.10566000000E+00  0.10566000000E+00 0.  1.
     999900   -1    0    0    0    0 -0.00000000000E+00 -0.00000000000E+00 -0.74505805969E-08  0.93827000000E+00  0.93827000000E+00 0.  1.
     999902    2    1    2    0    0  0.73206312144E-03 -0.22601214173E-01 -0.16264766636E-01  0.10160751363E+01  0.10156932554E+01 0.  0.
     999903    2    3    3    0    0 -0.19719333002E-01 -0.10149251784E+00  0.72345973454E-01  0.12787810823E+00  0.20719252329E-01 0.  0.
         14    1    1    2    0    0 -0.73206312144E-03  0.22601214173E-01  0.16264766636E-01  0.27854863709E-01  0.00000000000E+00 0. -1.
     999901    1    3    3    0    0  0.20451396124E-01  0.78891303671E-01 -0.88610740090E-01  0.88819702806E+00  0.88000000000E+00 0.  1.
        -11    1    4    4    0    0 -0.18632877594E-01 -0.43880141545E-01  0.29414781005E-01  0.56019116487E-01  0.51100000000E-03 0.  1.
         11    1    4    4    0    0 -0.10864554086E-02 -0.57612376299E-01  0.42931192449E-01  0.71858991743E-01  0.51100000000E-03 0. -1.
</event>
<event>
 8    1  0.1270768E+005  0.1043930E+01  0.7957747E-01            NaN
         13   -1    0    0    0    0  0.00000000000E+00  0.00000000000E+00  0.74505805969E-08  0.10566000000E+00  0.10566000000E+00 0.  1.
     999900   -1    0    0    0    0 -0.00000000000E+00 -0.00000000000E+00 -0.74505805969E-08  0.93827000000E+00  0.93827000000E+00 0.  1.
     999902    2    1    2    0    0  0.32721857265E-02  0.46943147387E-02 -0.23037930292E-01  0.10201920552E+01  0.10199158492E+01 0.  0.
     999903    2    3    3    0    0  0.12024673660E+00  0.46483503812E-01 -0.15234144824E-01  0.13143433742E+00  0.20564826662E-01 0.  0.
         14    1    1    2    0    0 -0.32721857265E-02 -0.46943147387E-02  0.23037930292E-01  0.23737944781E-01  0.00000000000E+00 0.  1.
     999901    1    3    3    0    0 -0.11697455087E+00 -0.41789189073E-01 -0.78037854672E-02  0.88875771780E+00  0.88000000000E+00 0.  1.
        -11    1    4    4    0    0  0.68805769452E-01  0.35862760283E-01 -0.38606163299E-02  0.77688718386E-01  0.51100000000E-03 0.  1.
         11    1    4    4    0    0  0.51440967148E-01  0.10620743529E-01 -0.11373528494E-01  0.53745619037E-01  0.51100000000E-03 0. -1.
</event>
<event>
 8    1  0.1052028E+005  0.1043930E+01  0.7957747E-01            NaN
         13   -1    0    0    0    0  0.00000000000E+00  0.00000000000E+00  0.74505805969E-08  0.10566000000E+00  0.10566000000E+00 0. -1.
     999900   -1    0    0    0    0 -0.00000000000E+00 -0.00000000000E+00 -0.74505805969E-08  0.93827000000E+00  0.93827000000E+00 0.  1.
     999902    2    1    2    0    0  0.17414733319E-01  0.10987807887E-01 -0.12829511450E-01  0.10196688949E+01  0.10193802303E+01 0.  0.
     999903    2    3    3    0    0 -0.12566025211E+00  0.11375157846E-01 -0.90828570508E-02  0.12810586348E+00  0.20216844228E-01 0.  0.
         14    1    1    2    0    0 -0.17414733319E-01 -0.10987807887E-01  0.12829511450E-01  0.24261105144E-01  0.00000000000E+00 0.  1.
     999901    1    3    3    0    0  0.14307498543E+00 -0.38734995961E-03 -0.37466543989E-02  0.89156303137E+00  0.88000000000E+00 0.  1.
        -11    1    4    4    0    0 -0.96119956886E-01  0.15867264237E-01 -0.22386710306E-02  0.97447878146E-01  0.51100000000E-03 0.  1.
         11    1    4    4    0    0 -0.29540295221E-01 -0.44921063908E-02 -0.68441860202E-02  0.30657985336E-01  0.51100000000E-03 0. -1.
</event>
<event>
 8    1  0.1052028E+005  0.1043930E+01  0.7957747E-01            NaN
         13   -1    0    0    0    0  0.00000000000E+00  0.00000000000E+00  0.74505805969E-08  0.10566000000E+00  0.10566000000E+00 0. -1.
     999900   -1    0    0    0    0 -0.00000000000E+00 -0.00000000000E+00 -0.74505805969E-08  0.93827000000E+00  0.93827000000E+00 0. -1.
     999902    2    1    2    0    0 -0.13778319497E-01  0.17477235694E-01  0.15448617849E-02  0.10216212023E+01  0.10213775984E+01 0.  0.
     999903    2    3    3    0    0  0.10928188333E+00  0.36113700321E-02 -0.67902018401E-01  0.13024084304E+00  0.19910325832E-01 0.  0.
         14    1    1    2    0    0  0.13778319497E-01 -0.17477235694E-01 -0.15448617849E-02  0.22308797673E-01  0.00000000000E+00 0.  1.
     999901    1    3    3    0    0 -0.12306020283E+00  0.13865865662E-01  0.69446880186E-01  0.89138035929E+00  0.88000000000E+00 0.  1.
        -11    1    4    4    0    0  0.33376333006E-01 -0.75140807654E-02 -0.17331689698E-01  0.38354785926E-01  0.51100000000E-03 0. -1.
         11    1    4    4    0    0  0.75905550329E-01  0.11125450797E-01 -0.50570328703E-01  0.91886057116E-01  0.51100000000E-03 0.  1.
</event>
<event>
 8    1  0.1052028E+005  0.1043930E+01  0.7957747E-01            NaN
         13   -1    0    0    0    0  0.00000000000E+00  0.00000000000E+00  0.74505805969E-08  0.10566000000E+00  0.10566000000E+00 0.  1.
     999900   -1    0    0    0    0 -0.00000000000E+00 -0.00000000000E+00 -0.74505805969E-08  0.93827000000E+00  0.93827000000E+00 0. -1.
     999902    2    1    2    0    0 -0.11626866018E-01  0.10034190154E-01  0.18019002269E-01  0.10202539905E+01  0.10199792408E+01 0.  0.
     999903    2    3    3    0    0 -0.75045425973E-01 -0.55758151397E-01 -0.86748130585E-01  0.12934058384E+00  0.21516529950E-01 0.  0.
         14    1    1    2    0    0  0.11626866018E-01 -0.10034190154E-01 -0.18019002269E-01  0.23676009550E-01  0.00000000000E+00 0. -1.
     999901    1    3    3    0    0  0.63418559956E-01  0.65792341551E-01  0.10476713285E+00  0.89091340661E+00  0.88000000000E+00 0.  1.
        -11    1    4    4    0    0 -0.36913127397E-01 -0.38817266675E-01 -0.41301655983E-01  0.67642051080E-01  0.51100000000E-03 0. -1.
         11    1    4    4    0    0 -0.38132298576E-01 -0.16940884722E-01 -0.45446474602E-01  0.61698532758E-01  0.51100000000E-03 0.  1.
</event>
<event>
 8    1  0.1052028E+005  0.1043930E+01  0.7957747E-01            NaN
         13   -1    0    0    0    0  0.00000000000E+00  0.00000000000E+00  0.74505805969E-08  0.10566000000E+00  0.10566000000E+00 0.  1.
     999900   -1    0    0    0    0 -0.00000000000E+00 -0.00000000000E+00 -0.74505805969E-08  0.93827000000E+00  0.93827000000E+00 0. -1.
     999902    2    1    2    0    0  0.19764373914E-02  0.93980546927E-02  0.20801564194E-01  0.10210185441E+01  0.10207614475E+01 0.  0.
     999903    2    3    3    0    0  0.31895439260E-01 -0.70883332893E-01 -0.10046303992E+00  0.12858067399E+00  0.19959995148E-01 0.  0.
         14    1    1    2    0    0 -0.19764373914E-02 -0.93980546927E-02 -0.20801564194E-01  0.22911455861E-01  0.00000000000E+00 0. -1.
     999901    1    3    3    0    0 -0.29919001868E-01  0.80281387586E-01  0.12126460411E+00  0.89243787015E+00  0.88000000000E+00 0.  1.
        -11    1    4    4    0    0  0.15153587137E-01 -0.50348083179E-01 -0.76659500678E-01  0.92959673236E-01  0.51100000000E-03 0.  1.
         11    1    4    4    0    0  0.16741852122E-01 -0.20535249714E-01 -0.23803539241E-01  0.35621000753E-01  0.51100000000E-03 0. -1.
</event>
<event>
 8    1  0.1052028E+005  0.1043930E+01  0.7957747E-01            NaN
         13   -1    0    0    0    0  0.00000000000E+00  0.00000000000E+00  0.74505805969E-08  0.10566000000E+00  0.10566000000E+00 0. -1.
     999900   -1    0    0    0    0 -0.00000000000E+00 -0.00000000000E+00 -0.74505805969E-08  0.93827000000E+00  0.93827000000E+00 0.  1.
     999902    2    1    2    0    0 -0.72126573860E-02  0.17548993967E-01  0.18553115461E-01  0.10173930878E+01  0.10170469445E+01 0.  0.
     999903    2    3    3    0    0  0.48112957678E-02  0.11606351432E+00 -0.52315146666E-01  0.12898327429E+00  0.20147519717E-01 0.  0.
         14    1    1    2    0    0  0.72126573860E-02 -0.17548993967E-01 -0.18553115461E-01  0.26536912201E-01  0.00000000000E+00 0.  1.
     999901    1    3    3    0    0 -0.12023953154E-01 -0.98514520356E-01  0.70868262127E-01  0.88840981351E+00  0.88000000000E+00 0. -1.
        -11    1    4    4    0    0  0.52688311154E-02  0.94338323065E-01 -0.33545855689E-01  0.10026497561E+00  0.51100000000E-03 0. -1.
         11    1    4    4    0    0 -0.45753534760E-03  0.21725191259E-01 -0.18769290977E-01  0.28718298672E-01  0.51100000000E-03 0.  1.
</event>
<event>
 8    1  0.1052028E+005  0.1043930E+01  0.7957747E-01            NaN
         13   -1    0    0    0    0  0.00000000000E+00  0.00000000000E+00  0.74505805969E-08  0.10566000000E+00  0.10566000000E+00 0. -1.
     999900   -1    0    0    0    0 -0.00000000000E+00 -0.00000000000E+00 -0.74505805969E-08  0.93827000000E+00  0.93827000000E+00 0.  1.
     999902    2    1    2    0    0 -0.87394761340E-02  0.10667770495E-01  0.19830684992E-01  0.10197755835E+01  0.10194894824E+01 0.  0.
     999903    2    3    3    0    0 -0.11593760882E+00  0.58930010315E-01  0.13065578368E-01  0.13193187532E+00  0.17917453325E-01 0.  0.
         14    1    1    2    0    0  0.87394761340E-02 -0.10667770495E-01 -0.19830684992E-01  0.24154416525E-01  0.00000000000E+00 0.  1.
     999901    1    3    3    0    0  0.10719813268E+00 -0.48262239821E-01  0.67651066238E-02  0.88784370816E+00  0.88000000000E+00 0. -1.
        -11    1    4    4    0    0 -0.10467239897E+00  0.54694909256E-01  0.66622657978E-02  0.11828986056E+00  0.51100000000E-03 0. -1.
         11    1    4    4    0    0 -0.11265209850E-01  0.42351010592E-02  0.64033125704E-02  0.13642014764E-01  0.51100000000E-03 0.  1.
</event>
<event>
 8    1  0.1052028E+005  0.1043930E+01  0.7957747E-01            NaN
         13   -1    0    0    0    0  0.00000000000E+00  0.00000000000E+00  0.74505805969E-08  0.10566000000E+00  0.10566000000E+00 0. -1.
     999900   -1    0    0    0    0 -0.00000000000E+00 -0.00000000000E+00 -0.74505805969E-08  0.93827000000E+00  0.93827000000E+00 0.  1.
     999902    2    1    2    0    0  0.11477228552E-01 -0.19871124442E-02  0.20455148101E-01  0.10203909160E+01  0.10201193719E+01 0.  0.
     999903    2    3    3    0    0 -0.85378502940E-01  0.65136854049E-01 -0.66744159069E-01  0.12826403111E+00  0.21554126901E-01 0.  0.
         14    1    1    2    0    0 -0.11477228552E-01  0.19871124442E-02 -0.20455148101E-01  0.23539083986E-01  0.00000000000E+00 0.  1.
     999901    1    3    3    0    0  0.96855731491E-01 -0.67123966494E-01  0.87199307170E-01  0.89212688491E+00  0.88000000000E+00 0. -1.
        -11    1    4    4    0    0 -0.31531172437E-01  0.11619307724E-01 -0.20127004531E-01  0.39173723076E-01  0.51100000000E-03 0.  1.
         11    1    4    4    0    0 -0.53847330503E-01  0.53517546325E-01 -0.46617154538E-01  0.89090308032E-01  0.51100000000E-03 0. -1.
</event>
<event>
 7    1  0.1052028E+005  0.1043930E+01  0.7957747E-01            NaN
         13   -1    0    0    0    0  0.00000000000E+00  0.00000000000E+00  0.74505805969E-08  0.10566000000E+00  0.10566000000E+00 0.  1.
     999900   -1    0    0    0    0 -0.00000000000E+00 -0.00000000000E+00 -0.74505805969E-08  0.93827000000E+00  0.93827000000E+00 0.  1.
     999902    2    1    2    0    0 -0.23963876627E-01  0.29910987172E-02  0.48179949067E-02  0.10193042588E+01  0.10190067443E+01 0.  0.
         14    1    1    2    0    0  0.23963876627E-01 -0.29910987172E-02 -0.48179949067E-02  0.24625741196E-01  0.00000000000E+00 0. -1.
     999901    1    3    3    0    0  0.25861165927E-01 -0.27961345585E-01 -0.10340570571E+00  0.88687280752E+00  0.88000000000E+00 0.  1.
        -11    1    3    3    0    0 -0.29560355280E-01  0.58489618900E-03  0.16853281714E-01  0.34036024053E-01  0.51100000000E-03 0.  1.
         11    1    3    3    0    0 -0.20264687274E-01  0.30367548113E-01  0.91370418899E-01  0.98395427228E-01  0.51100000000E-03 0. -1.
</event>
<event>
 8    1  0.1052028E+005  0.1043930E+01  0.7957747E-01            NaN
         13   -1    0    0    0    0  0.00000000000E+00  0.00000000000E+00  0.74505805969E-08  0.10566000000E+00  0.10566000000E+00 0. -1.
     999900   -1    0    0    0    0 -0.00000000000E+00 -0.00000000000E+00 -0.74505805969E-08  0.93827000000E+00  0.93827000000E+00 0.  1.
     999902    2    1    2    0    0  0.31153822127E-02 -0.18743347083E-01 -0.14464041404E-01  0.10200505704E+01  0.10197710228E+01 0.  0.
     999903    2    3    3    0    0  0.26923826838E-01 -0.12721564509E+00 -0.20092428349E-01  0.13305296032E+00  0.19765418425E-01 0.  0.
         14    1    1    2    0    0 -0.31153822127E-02  0.18743347083E-01  0.14464041404E-01  0.23879429641E-01  0.00000000000E+00 0.  1.
     999901    1    3    3    0    0 -0.23808444625E-01  0.10847229801E+00  0.56283869444E-02  0.88699761004E+00  0.88000000000E+00 0.  1.
        -11    1    4    4    0    0  0.18270311751E-01 -0.41451020622E-01 -0.57216711261E-02  0.45661691203E-01  0.51100000000E-03 0.  1.
         11    1    4    4    0    0  0.86535150866E-02 -0.85764624472E-01 -0.14370757222E-01  0.87391269119E-01  0.51100000000E-03 0. -1.
</event>
<event>
 8    1  0.1052028E+005  0.1043930E+01  0.7957747E-01            NaN
         13   -1    0    0    0    0  0.00000000000E+00  0.00000000000E+00  0.74505805969E-08  0.10566000000E+00  0.10566000000E+00 0.  1.
     999900   -1    0    0    0    0 -0.00000000000E+00 -0.00000000000E+00 -0.74505805969E-08  0.93827000000E+00  0.93827000000E+00 0.  1.
     999902    2    1    2    0    0 -0.38766485763E-02 -0.23214810123E-01  0.90187159814E-02  0.10187249796E+01  0.10184131240E+01 0.  0.
     999903    2    3    3    0    0  0.11864188065E+00  0.26070633584E-01  0.36553594168E-01  0.12844524019E+00  0.20160374504E-01 0.  0.
         14    1    1    2    0    0  0.38766485763E-02  0.23214810123E-01 -0.90187159814E-02  0.25205020357E-01  0.00000000000E+00 0.  1.
     999901    1    3    3    0    0 -0.12251852923E+00 -0.49285443707E-01 -0.27534878186E-01  0.89027973945E+00  0.88000000000E+00 0. -1.
        -11    1    4    4    0    0  0.69593383417E-01  0.19933306291E-01  0.30816965918E-01  0.78679871787E-01  0.51100000000E-03 0. -1.
         11    1    4    4    0    0  0.49048497237E-01  0.61373272929E-02  0.57366282500E-02  0.49765368402E-01  0.51100000000E-03 0.  1.
</event>
<event>
 8    1  0.1084854E+005  0.1043930E+01  0.7957747E-01            NaN
         13   -1    0    0    0    0  0.00000000000E+00  0.00000000000E+00  0.74505805969E-08  0.10566000000E+00  0.10566000000E+00 0. -1.
     999900   -1    0    0    0    0 -0.00000000000E+00 -0.00000000000E+00 -0.74505805969E-08  0.93827000000E+00  0.93827000000E+00 0. -1.
     999902    2    1    2    0    0  0.80398101614E-02  0.13353874638E-01  0.16017452407E-01  0.10215799822E+01  0.10213354673E+01 0.  0.
     999903    2    3    3    0    0  0.96372345916E-01 -0.35984883645E-01  0.82645383499E-01  0.13328035302E+00  0.18731048564E-01 0.  0.
         14    1    1    2    0    0 -0.80398101614E-02 -0.13353874638E-01 -0.16017452407E-01  0.22350017828E-01  0.00000000000E+00 0. -1.
     999901    1    3    3    0    0 -0.88332535755E-01  0.49338758283E-01 -0.66627931092E-01  0.88829962915E+00  0.88000000000E+00 0. -1.
        -11    1    4    4    0    0  0.59791531320E-01 -0.12606639552E-01  0.46529373449E-01  0.76806238632E-01  0.51100000000E-03 0.  1.
         11    1    4    4    0    0  0.36580814597E-01 -0.23378244093E-01  0.36116010051E-01  0.56474114392E-01  0.51100000000E-03 0. -1.
</event>
<event>
 8    1  0.1052028E+005  0.1043930E+01  0.7957747E-01            NaN
         13   -1    0    0    0    0  0.00000000000E+00  0.00000000000E+00  0.74505805969E-08  0.10566000000E+00  0.10566000000E+00 0. -1.
     999900   -1    0    0    0    0 -0.00000000000E+00 -0.00000000000E+00 -0.74505805969E-08  0.93827000000E+00  0.93827000000E+00 0. -1.
     999902    2    1    2    0    0 -0.12409605077E-01  0.16470783570E-01 -0.11474030981E-01  0.10203304577E+01  0.10200575006E+01 0.  0.
     999903    2    3    3    0    0  0.73314180463E-01 -0.90565947663E-01 -0.51147096509E-01  0.12882645807E+00  0.20076625312E-01 0.  0.
         14    1    1    2    0    0  0.12409605077E-01 -0.16470783570E-01  0.11474030981E-01  0.23599542295E-01  0.00000000000E+00 0. -1.
     999901    1    3    3    0    0 -0.85723785541E-01  0.10703673123E+00  0.39673065527E-01  0.89150399964E+00  0.88000000000E+00 0.  1.
        -11    1    4    4    0    0  0.30107911631E-01 -0.22950105561E-01 -0.19279200400E-01  0.42486967144E-01  0.51100000000E-03 0.  1.
         11    1    4    4    0    0  0.43206268833E-01 -0.67615842102E-01 -0.31867896108E-01  0.86339490924E-01  0.51100000000E-03 0. -1.
</event>
<event>
 8    1  0.1052028E+005  0.1043930E+01  0.7957747E-01            NaN
         13   -1    0    0    0    0  0.00000000000E+00  0.00000000000E+00  0.74505805969E-08  0.10566000000E+00  0.10566000000E+00 0. -1.
     999900   -1    0    0    0    0 -0.00000000000E+00 -0.00000000000E+00 -0.74505805969E-08  0.93827000000E+00  0.93827000000E+00 0.  1.
     999902    2    1    2    0    0  0.20653915900E-01 -0.33266531811E-02  0.10986278816E-01  0.10203005864E+01  0.10200269298E+01 0.  0.
     999903    2    3    3    0    0  0.63152477454E-01 -0.11193695026E+00 -0.21620033106E-01  0.13200699986E+00  0.20983468235E-01 0.  0.
         14    1    1    2    0    0 -0.20653915900E-01  0.33266531811E-02 -0.10986278816E-01  0.23629413569E-01  0.00000000000E+00 0.  1.
     999901    1    3    3    0    0 -0.42498561554E-01  0.10861029708E+00  0.32606311922E-01  0.88829358657E+00  0.88000000000E+00 0. -1.
        -11    1    4    4    0    0  0.48106344826E-01 -0.99864368078E-01 -0.20035291122E-01  0.11264451356E+00  0.51100000000E-03 0.  1.
         11    1    4    4    0    0  0.15046132628E-01 -0.12072582179E-01 -0.15847419849E-02  0.19362486299E-01  0.51100000000E-03 0. -1.
</event>
<event>
 8    1  0.1052028E+005  0.1043930E+01  0.7957747E-01            NaN
         13   -1    0    0    0    0  0.00000000000E+00  0.00000000000E+00  0.74505805969E-08  0.10566000000E+00  0.10566000000E+00 0. -1.
     999900   -1    0    0    0    0 -0.00000000000E+00 -0.00000000000E+00 -0.74505805969E-08  0.93827000000E+00  0.93827000000E+00 0. -1.
     999902    2    1    2    0    0 -0.22369315912E-01  0.44664821488E-02 -0.11862786528E-01  0.10182188845E+01  0.10178942161E+01 0.  0.
     999903    2    3    3    0    0  0.55036569555E-01 -0.88305594199E-01 -0.71750656286E-01  0.12794651818E+00  0.19880967810E-01 0.  0.
         14    1    1    2    0    0  0.22369315912E-01 -0.44664821488E-02  0.11862786528E-01  0.25711115522E-01  0.00000000000E+00 0. -1.
     999901    1    3    3    0    0 -0.77405885467E-01  0.92772076348E-01  0.59887869758E-01  0.89027236630E+00  0.88000000000E+00 0. -1.
        -11    1    4    4    0    0  0.43632481943E-01 -0.73264669872E-01 -0.48888054271E-01  0.98294497828E-01  0.51100000000E-03 0.  1.
         11    1    4    4    0    0  0.11404087612E-01 -0.15040924327E-01 -0.22862602015E-01  0.29652020349E-01  0.51100000000E-03 0. -1.
</event>
<event>
 8    1  0.1052028E+005  0.1043930E+01  0.7957747E-01            NaN
         13   -1    0    0    0    0  0.00000000000E+00  0.00000000000E+00  0.74505805969E-08  0.10566000000E+00  0.10566000000E+00 0.  1.
     999900   -1    0    0    0    0 -0.00000000000E+00 -0.00000000000E+00 -0.74505805969E-08  0.93827000000E+00  0.93827000000E+00 0. -1.
     999902    2    1    2    0    0  0.29002063823E-02  0.14810999137E-01 -0.18340579438E-01  0.10201780791E+01  0.10199015439E+01 0.  0.
     999903    2    3    3    0    0  0.12017129399E+00 -0.45218966930E-01  0.56683524077E-02  0.13004745182E+00  0.19857357218E-01 0.  0.
         14    1    1    2    0    0 -0.29002063823E-02 -0.14810999137E-01  0.18340579438E-01  0.23751920904E-01  0.00000000000E+00 0.  1.
     999901    1    3    3    0    0 -0.11727108761E+00  0.60029966067E-01 -0.24008931846E-01  0.89013062728E+00  0.88000000000E+00 0.  1.
        -11    1    4    4    0    0  0.50466794532E-01 -0.28782697877E-01  0.61799797124E-02  0.58427684514E-01  0.51100000000E-03 0. -1.
         11    1    4    4    0    0  0.69704499457E-01 -0.16436269053E-01 -0.51162730471E-03  0.71619767302E-01  0.51100000000E-03 0.  1.
</event>
<event>
 8    1  0.1052028E+005  0.1043930E+01  0.7957747E-01            NaN
         13   -1    0    0    0    0  0.00000000000E+00  0.00000000000E+00  0.74505805969E-08  0.10566000000E+00  0.10566000000E+00 0. -1.
     999900   -1    0    0    0    0 -0.00000000000E+00 -0.00000000000E+00 -0.74505805969E-08  0.93827000000E+00  0.93827000000E+00 0. -1.
     999902    2    1    2    0    0 -0.56369645098E-02 -0.11093958713E-01 -0.30090685855E-01  0.10113677417E+01  0.10108434144E+01 0.  0.
     999903    2    3    3    0    0  0.53473855222E-01 -0.10341536952E+00 -0.39565062914E-01  0.12451538889E+00  0.19608570116E-01 0.  0.
         14    1    1    2    0    0  0.56369645098E-02  0.11093958713E-01  0.30090685855E-01  0.32562258276E-01  0.00000000000E+00 0. -1.
     999901    1    3    3    0    0 -0.59110819731E-01  0.92321410809E-01  0.94743770592E-02  0.88685235283E+00  0.88000000000E+00 0. -1.
        -11    1    4    4    0    0  0.62690689013E-02 -0.26677308430E-01 -0.42074597216E-02  0.27729836788E-01  0.51100000000E-03 0.  1.
         11    1    4    4    0    0  0.47204786320E-01 -0.76738061091E-01 -0.35357603193E-01  0.96785552104E-01  0.51100000000E-03 0. -1.
</event>
<event>
 8    1  0.1052028E+005  0.1043930E+01  0.7957747E-01            NaN
         13   -1    0    0    0    0  0.00000000000E+00  0.00000000000E+00  0.74505805969E-08  0.10566000000E+00  0.10566000000E+00 0. -1.
     999900   -1    0    0    0    0 -0.00000000000E+00 -0.00000000000E+00 -0.74505805969E-08  0.93827000000E+00  0.93827000000E+00 0.  1.
     999902    2    1    2    0    0  0.65947668530E-03 -0.20698980448E-01 -0.11059332365E-01  0.10204525314E+01  0.10201824235E+01 0.  0.
     999903    2    3    3    0    0  0.19332317906E-01  0.30885693211E-01  0.12196338811E+00  0.12876609673E+00  0.19441580828E-01 0.  0.
         14    1    1    2    0    0 -0.65947668530E-03  0.20698980448E-01  0.11059332365E-01  0.23477468634E-01  0.00000000000E+00 0. -1.
     999901    1    3    3    0    0 -0.18672841220E-01 -0.51584673660E-01 -0.13302272048E+00  0.89168643464E+00  0.88000000000E+00 0.  1.
        -11    1    4    4    0    0  0.52140208366E-03  0.18989500741E-01  0.53604376646E-01  0.56873221424E-01  0.51100000000E-03 0.  1.
         11    1    4    4    0    0  0.18810915822E-01  0.11896192470E-01  0.68359011469E-01  0.71892875303E-01  0.51100000000E-03 0. -1.
</event>
<event>
 8    1  0.1052028E+005  0.1043930E+01  0.7957747E-01            NaN
         13   -1    0    0    0    0  0.00000000000E+00  0.00000000000E+00  0.74505805969E-08  0.10566000000E+00  0.10566000000E+00 0.  1.
     999900   -1    0    0    0    0 -0.00000000000E+00 -0.00000000000E+00 -0.74505805969E-08  0.93827000000E+00  0.93827000000E+00 0.  1.
     999902    2    1    2    0    0 -0.71085788608E-02  0.10322421832E-01  0.27140502387E-01  0.10140353323E+01  0.10135945758E+01 0.  0.
     999903    2    3    3    0    0 -0.26032311898E-01  0.87236214224E-01  0.88329402647E-01  0.12836162228E+00  0.19666834232E-01 0.  0.
         14    1    1    2    0    0  0.71085788608E-02 -0.10322421832E-01 -0.27140502387E-01  0.29894667680E-01  0.00000000000E+00 0. -1.
     999901    1    3    3    0    0  0.18923733037E-01 -0.76913792393E-01 -0.61188900259E-01  0.88567371004E+00  0.88000000000E+00 0.  1.
        -11    1    4    4    0    0 -0.10374973178E-01  0.10784616809E-01  0.16734611119E-01  0.22455653152E-01  0.51100000000E-03 0.  1.
         11    1    4    4    0    0 -0.15657338720E-01  0.76451597415E-01  0.71594791527E-01  0.10590596913E+00  0.51100000000E-03 0. -1.
</event>
<event>
 8    1  0.1052028E+005  0.1043930E+01  0.7957747E-01            NaN
         13   -1    0    0    0    0  0.00000000000E+00  0.00000000000E+00  0.74505805969E-08  0.10566000000E+00  0.10566000000E+00 0.  1.
     999900   -1    0    0    0    0 -0.00000000000E+00 -0.00000000000E+00 -0.74505805969E-08  0.93827000000E+00  0.93827000000E+00 0.  1.
     999902    2    1    2    0    0  0.20856589356E-01  0.12125653279E-01 -0.45653558402E-02  0.10193765632E+01  0.10190808144E+01 0.  0.
     999903    2    3    3    0    0  0.27682837730E-01  0.75330760336E-01  0.10134294446E+00  0.13074950342E+00  0.19595338572E-01 0.  0.
         14    1    1    2    0    0 -0.20856589356E-01 -0.12125653279E-01  0.45653558402E-02  0.24553436846E-01  0.00000000000E+00 0. -1.
     999901    1    3    3    0    0 -0.68262483740E-02 -0.63205107057E-01 -0.10590830030E+00  0.88862705974E+00  0.88000000000E+00 0.  1.
        -11    1    4    4    0    0  0.30320515522E-02  0.32971775616E-01  0.34025056818E-01  0.47479436984E-01  0.51100000000E-03 0. -1.
         11    1    4    4    0    0  0.24650786178E-01  0.42358984720E-01  0.67317887644E-01  0.83270066432E-01  0.51100000000E-03 0.  1.
</event>
<event>
 8    1  0.1052028E+005  0.1043930E+01  0.7957747E-01            NaN
         13   -1    0    0    0    0  0.00000000000E+00  0.00000000000E+00  0.74505805969E-08  0.10566000000E+00  0.10566000000E+00 0. -1.
     999900   -1    0    0    0    0 -0.00000000000E+00 -0.00000000000E+00 -0.74505805969E-08  0.93827000000E+00  0.93827000000E+00 0.  1.
     999902    2    1    2    0    0 -0.14563809010E-01 -0.17724237037E-01 -0.15253298590E-01  0.10163815658E+01  0.10160081550E+01 0.  0.
     999903    2    3    3    0    0 -0.65276065242E-02  0.64191402057E-01  0.10433711646E+00  0.12448660566E+00  0.21155031858E-01 0.  0.
         14    1    1    2    0    0  0.14563809010E-01  0.17724237037E-01  0.15253298590E-01  0.27548434244E-01  0.00000000000E+00 0. -1.
     999901    1    3    3    0    0 -0.80362024855E-02 -0.81915639094E-01 -0.11959041505E+00  0.89189496010E+00  0.88000000000E+00 0.  1.
        -11    1    4    4    0    0  0.10773639899E-02  0.39936191981E-01  0.46495216330E-01  0.61303559486E-01  0.51100000000E-03 0.  1.
         11    1    4    4    0    0 -0.76049705141E-02  0.24255210076E-01  0.57841900126E-01  0.63183046172E-01  0.51100000000E-03 0. -1.
</event>
<event>
 8    1  0.1052028E+005  0.1043930E+01  0.7957747E-01            NaN
         13   -1    0    0    0    0  0.00000000000E+00  0.00000000000E+00  0.74505805969E-08  0.10566000000E+00  0.10566000000E+00 0.  1.
     999900   -1    0    0    0    0 -0.00000000000E+00 -0.00000000000E+00 -0.74505805969E-08  0.93827000000E+00  0.93827000000E+00 0.  1.
     999902    2    1    2    0    0  0.15495679915E-01  0.88127356083E-02 -0.25177818842E-02  0.10259266772E+01  0.10257687007E+01 0.  0.
     999903    2    3    3    0    0 -0.61202500629E-01 -0.93783255962E-01  0.69986013542E-01  0.13370173433E+00  0.20906135234E-01 0.  0.
         14    1    1    2    0    0 -0.15495679915E-01 -0.88127356083E-02  0.25177818842E-02  0.18003322764E-01  0.00000000000E+00 0. -1.
     999901    1    3    3    0    0  0.76698180544E-01  0.10259599157E+00 -0.72503795427E-01  0.89222494290E+00  0.88000000000E+00 0.  1.
        -11    1    4    4    0    0 -0.27437471002E-01 -0.26803970055E-01  0.30005326926E-01  0.48701626160E-01  0.51100000000E-03 0. -1.
         11    1    4    4    0    0 -0.33765029627E-01 -0.66979285907E-01  0.39980686616E-01  0.85000108174E-01  0.51100000000E-03 0.  1.
</event>
<event>
 8    1  0.1052028E+005  0.1043930E+01  0.7957747E-01            NaN
         13   -1    0    0    0    0  0.00000000000E+00  0.00000000000E+00  0.74505805969E-08  0.10566000000E+00  0.10566000000E+00 0. -1.
     999900   -1    0    0    0    0 -0.00000000000E+00 -0.00000000000E+00 -0.74505805969E-08  0.93827000000E+00  0.93827000000E+00 0. -1.
     999902    2    1    2    0    0  0.12672270320E-01 -0.22623751170E-01 -0.13942726480E-02  0.10179614700E+01  0.10176301833E+01 0.  0.
     999903    2    3    3    0    0 -0.26344416077E-01  0.18958314369E-01  0.12168901408E+00  0.12756781246E+00  0.20294942346E-01 0.  0.
         14    1    1    2    0    0 -0.12672270320E-01  0.22623751170E-01  0.13942726480E-02  0.25968529960E-01  0.00000000000E+00 0.  1.
     999901    1    3    3    0    0  0.39016686397E-01 -0.41582065539E-01 -0.12308328673E+00  0.89039365758E+00  0.88000000000E+00 0. -1.
        -11    1    4    4    0    0 -0.24808686372E-01  0.95149152908E-02  0.10512741946E+00  0.10843449625E+00  0.51100000000E-03 0. -1.
         11    1    4    4    0    0 -0.15357297045E-02  0.94433990779E-02  0.16561594620E-01  0.19133316211E-01  0.51100000000E-03 0.  1.
</event>
<event>
 8    1  0.1052028E+005  0.1043930E+01  0.7957747E-01            NaN
         13   -1    0    0    0    0  0.00000000000E+00  0.00000000000E+00  0.74505805969E-08  0.10566000000E+00  0.10566000000E+00 0. -1.
     999900   -1    0    0    0    0 -0.00000000000E+00 -0.00000000000E+00 -0.74505805969E-08  0.93827000000E+00  0.93827000000E+00 0. -1.
     999902    2    1    2    0    0 -0.18163109570E-01  0.11449177642E-01 -0.99979196652E-02  0.10202458151E+01  0.10199708734E+01 0.  0.
     999903    2    3    3    0    0  0.64187237181E-01  0.82986065027E-01  0.72067656449E-01  0.12972132656E+00  0.25043702845E-01 0.  0.
         14    1    1    2    0    0  0.18163109570E-01 -0.11449177642E-01  0.99979196652E-02  0.23684184925E-01  0.00000000000E+00 0.  1.
     999901    1    3    3    0    0 -0.82350346751E-01 -0.71536887385E-01 -0.82065576114E-01  0.89052448852E+00  0.88000000000E+00 0. -1.
        -11    1    4    4    0    0  0.22020100532E-01  0.16703479908E-01  0.29268675097E-01  0.40259253984E-01  0.51100000000E-03 0. -1.
         11    1    4    4    0    0  0.42167136648E-01  0.66282585119E-01  0.42798981353E-01  0.89462072573E-01  0.51100000000E-03 0.  1.
</event>
<event>
 8    1  0.1052028E+005  0.1043930E+01  0.7957747E-01            NaN
         13   -1    0    0    0    0  0.00000000000E+00  0.00000000000E+00  0.74505805969E-08  0.10566000000E+00  0.10566000000E+00 0.  1.
     999900   -1    0    0    0    0 -0.00000000000E+00 -0.00000000000E+00 -0.74505805969E-08  0.93827000000E+00  0.93827000000E+00 0.  1.
     999902    2    1    2    0    0 -0.25156239766E-01  0.17387240721E-02 -0.10988274085E-02  0.10186898141E+01  0.10183770768E+01 0.  0.
     999903    2    3    3    0    0  0.60843349651E-01 -0.21324567348E-02 -0.11035433266E+00  0.12776463162E+00  0.20958573124E-01 0.  0.
         14    1    1    2    0    0  0.25156239766E-01 -0.17387240721E-02  0.10988274085E-02  0.25240185860E-01  0.00000000000E+00 0. -1.
     999901    1    3    3    0    0 -0.85999589417E-01  0.38711808069E-02  0.10925550525E+00  0.89092518252E+00  0.88000000000E+00 0. -1.
        -11    1    4    4    0    0  0.51911980504E-01 -0.84818195261E-02 -0.98129026262E-01  0.11133895050E+00  0.51100000000E-03 0. -1.
         11    1    4    4    0    0  0.89313691474E-02  0.63493627913E-02 -0.12225306399E-01  0.16425681120E-01  0.51100000000E-03 0.  1.
</event>
<event>
 8    1  0.1052028E+005  0.1043930E+01  0.7957747E-01            NaN
         13   -1    0    0    0    0  0.00000000000E+00  0.00000000000E+00  0.74505805969E-08  0.10566000000E+00  0.10566000000E+00 0.  1.
     999900   -1    0    0    0    0 -0.00000000000E+00 -0.00000000000E+00 -0.74505805969E-08  0.93827000000E+00  0.93827000000E+00 0. -1.
     999902    2    1    2    0    0  0.69273807826E-02  0.30094962200E-01  0.14097178197E-01  0.10099826026E+01  0.10094119238E+01 0.  0.
     999903    2    3    3    0    0 -0.78181137236E-01  0.11660043945E-01  0.91109945773E-01  0.12233724980E+00  0.20423849432E-01 0.  0.
         14    1    1    2    0    0 -0.69273807826E-02 -0.30094962200E-01 -0.14097178197E-01  0.33947397359E-01  0.00000000000E+00 0.  1.
     999901    1    3    3    0    0  0.85108518018E-01  0.18434918255E-01 -0.77012767575E-01  0.88764535284E+00  0.88000000000E+00 0.  1.
        -11    1    4    4    0    0 -0.54468741907E-01  0.28394746437E-02  0.49613317108E-01  0.73733634229E-01  0.51100000000E-03 0.  1.
         11    1    4    4    0    0 -0.23712395329E-01  0.88205693010E-02  0.41496628664E-01  0.48603615571E-01  0.51100000000E-03 0. -1.
</event>
<event>
 8    1  0.1052028E+005  0.1043930E+01  0.7957747E-01            NaN
         13   -1    0    0    0    0  0.00000000000E+00  0.00000000000E+00  0.74505805969E-08  0.10566000000E+00  0.10566000000E+00 0. -1.
     999900   -1    0    0    0    0 -0.00000000000E+00 -0.00000000000E+00 -0.74505805969E-08  0.93827000000E+00  0.93827000000E+00 0.  1.
     999902    2    1    2    0    0 -0.55712386076E-02 -0.18542472596E-01  0.76027979792E-02  0.10231294104E+01  0.10229179468E+01 0.  0.
     999903    2    3    3    0    0  0.73700439098E-01  0.31651103105E-01 -0.10049851524E+00  0.13156377187E+00  0.27848293531E-01 0.  0.
         14    1    1    2    0    0  0.55712386076E-02  0.18542472596E-01 -0.76027979792E-02  0.20800589576E-01  0.00000000000E+00 0.  1.
     999901    1    3    3    0    0 -0.79271677706E-01 -0.50193575701E-01  0.10810131322E+00  0.89156563855E+00  0.88000000000E+00 0. -1.
        -11    1    4    4    0    0  0.76708837648E-02  0.11603067362E-01 -0.29152325739E-01  0.32304687693E-01  0.51100000000E-03 0.  1.
         11    1    4    4    0    0  0.66029555333E-01  0.20048035744E-01 -0.71346189501E-01  0.99259084179E-01  0.51100000000E-03 0. -1.
</event>
<event>
 8    1  0.1052028E+005  0.1043930E+01  0.7957747E-01            NaN
         13   -1    0    0    0    0  0.00000000000E+00  0.00000000000E+00  0.74505805969E-08  0.10566000000E+00  0.10566000000E+00 0.  1.
     999900   -1    0    0    0    0 -0.00000000000E+00 -0.00000000000E+00 -0.74505805969E-08  0.93827000000E+00  0.93827000000E+00 0. -1.
     999902    2    1    2    0    0  0.80890476830E-02 -0.83208627046E-04 -0.21904766019E-01  0.10205792315E+01  0.10203120647E+01 0.  0.
     999903    2    3    3    0    0 -0.59945276162E-01 -0.33890516931E-01 -0.11179941577E+00  0.13274329429E+00  0.19485110718E-01 0.  0.
         14    1    1    2    0    0 -0.80890476830E-02  0.83208627046E-04  0.21904766019E-01  0.23350768519E-01  0.00000000000E+00 0. -1.
     999901    1    3    3    0    0  0.68034323845E-01  0.33807308304E-01  0.89894649753E-01  0.88783593719E+00  0.88000000000E+00 0.  1.
        -11    1    4    4    0    0 -0.15402476927E-01 -0.28273051066E-02 -0.14676410554E-01  0.21468304483E-01  0.51100000000E-03 0.  1.
         11    1    4    4    0    0 -0.44542799235E-01 -0.31063211825E-01 -0.97123005218E-01  0.11127498981E+00  0.51100000000E-03 0. -1.
</event>
<event>
 8    1  0.1052028E+005  0.1043930E+01  0.7957747E-01            NaN
         13   -1    0    0    0    0  0.00000000000E+00  0.00000000000E+00  0.74505805969E-08  0.10566000000E+00  0.10566000000E+00 0. -1.
     999900   -1    0    0    0    0 -0.00000000000E+00 -0.00000000000E+00 -0.74505805969E-08  0.93827000000E+00  0.93827000000E+00 0. -1.
     999902    2    1    2    0    0 -0.12472913570E-01 -0.13152187428E-01 -0.13648059283E-01  0.10212402858E+01  0.10209881969E+01 0.  0.
     999903    2    3    3    0    0  0.84412008496E-02 -0.96818293494E-01  0.85482377356E-01  0.13148511672E+00  0.23153039827E-01 0.  0.
         14    1    1    2    0    0  0.12472913570E-01  0.13152187428E-01  0.13648059283E-01  0.22689714173E-01  0.00000000000E+00 0. -1.
     999901    1    3    3    0    0 -0.20914114420E-01  0.83666106066E-01 -0.99130436639E-01  0.88975516911E+00  0.88000000000E+00 0. -1.
        -11    1    4    4    0    0 -0.43078789332E-02 -0.69745071503E-01  0.57170388331E-01  0.90286473199E-01  0.51100000000E-03 0.  1.
         11    1    4    4    0    0  0.12749079783E-01 -0.27073221992E-01  0.28311989025E-01  0.41198643520E-01  0.51100000000E-03 0. -1.
</event>
<event>
 8    1  0.1052028E+005  0.1043930E+01  0.7957747E-01            NaN
         13   -1    0    0    0    0  0.00000000000E+00  0.00000000000E+00  0.74505805969E-08  0.10566000000E+00  0.10566000000E+00 0. -1.
     999900   -1    0    0    0    0 -0.00000000000E+00 -0.00000000000E+00 -0.74505805969E-08  0.93827000000E+00  0.93827000000E+00 0. -1.
     999902    2    1    2    0    0  0.62341965698E-02  0.22575683099E-01  0.41056677622E-02  0.10201522124E+01  0.10198750675E+01 0.  0.
     999903    2    3    3    0    0 -0.19299085843E-01  0.10029910460E+00 -0.81421095435E-01  0.13222895787E+00  0.20560579229E-01 0.  0.
         14    1    1    2    0    0 -0.62341965698E-02 -0.22575683099E-01 -0.41056677622E-02  0.23777787576E-01  0.00000000000E+00 0.  1.
     999901    1    3    3    0    0  0.25533282412E-01 -0.77723421503E-01  0.85526763197E-01  0.88792325456E+00  0.88000000000E+00 0.  1.
        -11    1    4    4    0    0  0.28336163366E-02  0.25174960884E-01 -0.14377456887E-01  0.29133836421E-01  0.51100000000E-03 0.  1.
         11    1    4    4    0    0 -0.22132702179E-01  0.75124143718E-01 -0.67043638548E-01  0.10309512145E+00  0.51100000000E-03 0. -1.
</event>
<event>
 8    1  0.1052028E+005  0.1043930E+01  0.7957747E-01            NaN
         13   -1    0    0    0    0  0.00000000000E+00  0.00000000000E+00  0.74505805969E-08  0.10566000000E+00  0.10566000000E+00 0.  1.
     999900   -1    0    0    0    0 -0.00000000000E+00 -0.00000000000E+00 -0.74505805969E-08  0.93827000000E+00  0.93827000000E+00 0. -1.
     999902    2    1    2    0    0 -0.18601152396E-01 -0.72231930588E-02  0.13204002578E-01  0.10200025456E+01  0.10197218591E+01 0.  0.
     999903    2    3    3    0    0 -0.39787474427E-01 -0.12343473969E+00  0.15222023679E-01  0.13210724988E+00  0.20035902308E-01 0.  0.
         14    1    1    2    0    0  0.18601152396E-01  0.72231930588E-02 -0.13204002578E-01  0.23927454368E-01  0.00000000000E+00 0.  1.
     999901    1    3    3    0    0  0.21186322031E-01  0.11621154663E+00 -0.20180211011E-02  0.88789529575E+00  0.88000000000E+00 0.  1.
        -11    1    4    4    0    0 -0.12635386682E-01 -0.42535795850E-01 -0.42487685595E-02  0.44578695365E-01  0.51100000000E-03 0.  1.
         11    1    4    4    0    0 -0.27152087746E-01 -0.80898943843E-01  0.19470792238E-01  0.87528554514E-01  0.51100000000E-03 0. -1.
</event>
<event>
 8    1  0.1052028E+005  0.1043930E+01  0.7957747E-01            NaN
         13   -1    0    0    0    0  0.00000000000E+00  0.00000000000E+00  0.74505805969E-08  0.10566000000E+00  0.10566000000E+00 0. -1.
     999900   -1    0    0    0    0 -0.00000000000E+00 -0.00000000000E+00 -0.74505805969E-08  0.93827000000E+00  0.93827000000E+00 0.  1.
     999902    2    1    2    0    0  0.14865408340E-01  0.12155543250E-01  0.13584172672E-01  0.10204083643E+01  0.10201372274E+01 0.  0.
     999903    2    3    3    0    0 -0.68756095168E-01  0.59611749844E-01 -0.89543474293E-01  0.12918450977E+00  0.19739362538E-01 0.  0.
         14    1    1    2    0    0 -0.14865408340E-01 -0.12155543250E-01 -0.13584172672E-01  0.23521635658E-01  0.00000000000E+00 0.  1.
     999901    1    3    3    0    0  0.83621503508E-01 -0.47456206594E-01  0.10312764697E+00  0.89122385457E+00  0.88000000000E+00 0. -1.
        -11    1    4    4    0    0 -0.27337853614E-01  0.27082455251E-01 -0.25055201972E-01  0.45922128538E-01  0.51100000000E-03 0. -1.
         11    1    4    4    0    0 -0.41418241554E-01  0.32529294593E-01 -0.64488272321E-01  0.83262381230E-01  0.51100000000E-03 0.  1.
</event>
<event>
 8    1  0.1052028E+005  0.1043930E+01  0.7957747E-01            NaN
         13   -1    0    0    0    0  0.00000000000E+00  0.00000000000E+00  0.74505805969E-08  0.10566000000E+00  0.10566000000E+00 0. -1.
     999900   -1    0    0    0    0 -0.00000000000E+00 -0.00000000000E+00 -0.74505805969E-08  0.93827000000E+00  0.93827000000E+00 0. -1.
     999902    2    1    2    0    0 -0.88055043988E-02  0.18194309929E-01 -0.12694122450E-01  0.10200613895E+01  0.10197820982E+01 0.  0.
     999903    2    3    3    0    0  0.10765411934E+00  0.13532631981E-01 -0.69823620764E-01  0.13053997057E+00  0.19819292631E-01 0.  0.
         14    1    1    2    0    0  0.88055043988E-02 -0.18194309929E-01  0.12694122450E-01  0.23868610480E-01  0.00000000000E+00 0. -1.
     999901    1    3    3    0    0 -0.11645962373E+00  0.46616779474E-02  0.57129498314E-01  0.88952141895E+00  0.88000000000E+00 0.  1.
        -11    1    4    4    0    0  0.85762298367E-01  0.92851740422E-02 -0.64209505595E-01  0.10753840248E+00  0.51100000000E-03 0.  1.
         11    1    4    4    0    0  0.21891820968E-01  0.42474579390E-02 -0.56141151689E-02  0.23001568085E-01  0.51100000000E-03 0. -1.
</event>
<event>
 8    1  0.1052028E+005  0.1043930E+01  0.7957747E-01            NaN
         13   -1    0    0    0    0  0.00000000000E+00  0.00000000000E+00  0.74505805969E-08  0.10566000000E+00  0.10566000000E+00 0. -1.
     999900   -1    0    0    0    0 -0.00000000000E+00 -0.00000000000E+00 -0.74505805969E-08  0.93827000000E+00  0.93827000000E+00 0. -1.
     999902    2    1    2    0    0 -0.13712932276E-01 -0.10809717078E-01  0.16937132968E-01  0.10196038625E+01  0.10193136295E+01 0.  0.
     999903    2    3    3    0    0  0.11468456176E+00  0.86179674830E-02  0.55176583680E-01  0.12925246722E+00  0.20854899344E-01 0.  0.
         14    1    1    2    0    0  0.13712932276E-01  0.10809717078E-01 -0.16937132968E-01  0.24326137549E-01  0.00000000000E+00 0.  1.
     999901    1    3    3    0    0 -0.12839749403E+00 -0.19427684561E-01 -0.38239450713E-01  0.89035139523E+00  0.88000000000E+00 0.  1.
        -11    1    4    4    0    0  0.52346347438E-01  0.92421989581E-02  0.35322517243E-01  0.63823974156E-01  0.51100000000E-03 0. -1.
         11    1    4    4    0    0  0.62338214318E-01 -0.62423147509E-03  0.19854066437E-01  0.65428493062E-01  0.51100000000E-03 0.  1.
</event>
<event>
 8    1  0.1052028E+005  0.1043930E+01  0.7957747E-01            NaN
         13   -1    0    0    0    0  0.00000000000E+00  0.00000000000E+00  0.74505805969E-08  0.10566000000E+00  0.10566000000E+00 0. -1.
     999900   -1    0    0    0    0 -0.00000000000E+00 -0.00000000000E+00 -0.74505805969E-08  0.93827000000E+00  0.93827000000E+00 0. -1.
     999902    2    1    2    0    0  0.89705601593E-04  0.23604355016E-01 -0.18184488923E-02  0.10202555332E+01  0.10199808197E+01 0.  0.
     999903    2    3    3    0    0  0.60383707187E-01 -0.94691787111E-03 -0.11396445103E+00  0.13075294329E+00  0.21478997497E-01 0.  0.
         14    1    1    2    0    0 -0.89705601593E-04 -0.23604355016E-01  0.18184488923E-02  0.23674466820E-01  0.00000000000E+00 0.  1.
     999901    1    3    3    0    0 -0.60294001585E-01  0.24551272888E-01  0.11214600214E+00  0.88950258989E+00  0.88000000000E+00 0.  1.
        -11    1    4    4    0    0  0.21161768021E-01 -0.71607694602E-03 -0.20882676330E-01  0.29743578864E-01  0.51100000000E-03 0.  1.
         11    1    4    4    0    0  0.39221939166E-01 -0.23084092509E-03 -0.93081774699E-01  0.10100936443E+00  0.51100000000E-03 0. -1.
</event>
<event>
 8    1  0.1052028E+005  0.1043930E+01  0.7957747E-01            NaN
         13   -1    0    0    0    0  0.00000000000E+00  0.00000000000E+00  0.74505805969E-08  0.10566000000E+00  0.10566000000E+00 0. -1.
     999900   -1    0    0    0    0 -0.00000000000E+00 -0.00000000000E+00 -0.74505805969E-08  0.93827000000E+00  0.93827000000E+00 0.  1.
     999902    2    1    2    0    0  0.78483604274E-02 -0.18220512994E-03 -0.23011178060E-01  0.10196165413E+01  0.10193266145E+01 0.  0.
     999903    2    3    3    0    0 -0.11610646836E+00 -0.22960733588E-01  0.44803228310E-01  0.12805473485E+00  0.19564727691E-01 0.  0.
         14    1    1    2    0    0 -0.78483604274E-02  0.18220512994E-03  0.23011178060E-01  0.24313458739E-01  0.00000000000E+00 0. -1.
     999901    1    3    3    0    0  0.12395482878E+00  0.22778528458E-01 -0.67814406370E-01  0.89156180641E+00  0.88000000000E+00 0.  1.
        -11    1    4    4    0    0 -0.48790469630E-01 -0.72445030951E-02  0.87789711643E-02  0.50103135705E-01  0.51100000000E-03 0.  1.
         11    1    4    4    0    0 -0.67315998728E-01 -0.15716230493E-01  0.36024257145E-01  0.77951599146E-01  0.51100000000E-03 0. -1.
</event>
<event>
 8    1  0.1052028E+005  0.1043930E+01  0.7957747E-01            NaN
         13   -1    0    0    0    0  0.00000000000E+00  0.00000000000E+00  0.74505805969E-08  0.10566000000E+00  0.10566000000E+00 0.  1.
     999900   -1    0    0    0    0 -0.00000000000E+00 -0.00000000000E+00 -0.74505805969E-08  0.93827000000E+00  0.93827000000E+00 0.  1.
     999902    2    1    2    0    0 -0.50408739268E-02 -0.22259819102E-01  0.49745918862E-02  0.10205707080E+01  0.10203033439E+01 0.  0.
     999903    2    3    3    0    0  0.11286605464E+00  0.58989905584E-01 -0.40898568501E-02  0.12895098765E+00  0.19826120038E-01 0.  0.
         14    1    1    2    0    0  0.50408739268E-02  0.22259819102E-01 -0.49745918862E-02  0.23359291959E-01  0.00000000000E+00 0. -1.
     999901    1    3    3    0    0 -0.11790692856E+00 -0.81249724686E-01  0.90644487364E-02  0.89161972039E+00  0.88000000000E+00 0. -1.
        -11    1    4    4    0    0  0.94762157529E-01  0.57193563741E-01 -0.36762485031E-02  0.11074631442E+00  0.51100000000E-03 0. -1.
         11    1    4    4    0    0  0.18103897108E-01  0.17963418433E-02 -0.41360834708E-03  0.18204673229E-01  0.51100000000E-03 0.  1.
</event>
<event>
 8    1  0.1052028E+005  0.1043930E+01  0.7957747E-01            NaN
         13   -1    0    0    0    0  0.00000000000E+00  0.00000000000E+00  0.74505805969E-08  0.10566000000E+00  0.10566000000E+00 0.  1.
     999900   -1    0    0    0    0 -0.00000000000E+00 -0.00000000000E+00 -0.74505805969E-08  0.93827000000E+00  0.93827000000E+00 0. -1.
     999902    2    1    2    0    0 -0.24514750668E-02  0.11726961301E-03  0.23318886761E-01  0.10204823144E+01  0.10202128993E+01 0.  0.
     999903    2    3    3    0    0 -0.11262260677E+00 -0.14192743701E-01  0.66039143451E-01  0.13246909651E+00  0.17366851524E-01 0.  0.
         14    1    1    2    0    0  0.24514750668E-02 -0.11726961301E-03 -0.23318886761E-01  0.23447685642E-01  0.00000000000E+00 0. -1.
     999901    1    3    3    0    0  0.11017113171E+00  0.14310013314E-01 -0.42720256690E-01  0.88801321785E+00  0.88000000000E+00 0.  1.
        -11    1    4    4    0    0 -0.10885551993E+00 -0.10219800243E-01  0.62853303338E-01  0.12611410467E+00  0.51100000000E-03 0. -1.
         11    1    4    4    0    0 -0.37670868473E-02 -0.39729434578E-02  0.31858401131E-02  0.63549918379E-02  0.51100000000E-03 0.  1.
</event>
<event>
 8    1  0.1052028E+005  0.1043930E+01  0.7957747E-01            NaN
         13   -1    0    0    0    0  0.00000000000E+00  0.00000000000E+00  0.74505805969E-08  0.10566000000E+00  0.10566000000E+00 0. -1.
     999900   -1    0    0    0    0 -0.00000000000E+00 -0.00000000000E+00 -0.74505805969E-08  0.93827000000E+00  0.93827000000E+00 0.  1.
     999902    2    1    2    0    0 -0.48472021027E-02  0.93120036427E-02 -0.21152727728E-01  0.10203154564E+01  0.10200421481E+01 0.  0.
     999903    2    3    3    0    0  0.78128073437E-01 -0.16865035662E-02  0.99619290559E-01  0.12813176234E+00  0.19669908877E-01 0.  0.
         14    1    1    2    0    0  0.48472021027E-02 -0.93120036427E-02  0.21152727728E-01  0.23614543621E-01  0.00000000000E+00 0. -1.
     999901    1    3    3    0    0 -0.82975275540E-01  0.10998507209E-01 -0.12077201829E+00  0.89218369404E+00  0.88000000000E+00 0.  1.
        -11    1    4    4    0    0  0.21121828748E-01 -0.83581999673E-02  0.34703127274E-01  0.41479625360E-01  0.51100000000E-03 0. -1.
         11    1    4    4    0    0  0.57006244689E-01  0.66716964010E-02  0.64916163285E-01  0.86652136978E-01  0.51100000000E-03 0.  1.
</event>
<event>
 8    1  0.1052028E+005  0.1043930E+01  0.7957747E-01            NaN
         13   -1    0    0    0    0  0.00000000000E+00  0.00000000000E+00  0.74505805969E-08  0.10566000000E+00  0.10566000000E+00 0. -1.
     999900   -1    0    0    0    0 -0.00000000000E+00 -0.00000000000E+00 -0.74505805969E-08  0.93827000000E+00  0.93827000000E+00 0.  1.
     999902    2    1    2    0    0  0.21064162310E-01  0.88678675649E-02  0.65933704259E-02  0.10201432276E+01  0.10198658707E+01 0.  0.
     999903    2    3    3    0    0 -0.58850183812E-01 -0.95411753374E-01 -0.58343861021E-01  0.12802362455E+00  0.20476706486E-01 0.  0.
         14    1    1    2    0    0 -0.21064162310E-01 -0.88678675649E-02 -0.65933704259E-02  0.23786772428E-01  0.00000000000E+00 0. -1.
     999901    1    3    3    0    0  0.79914346123E-01  0.10427962094E+00  0.64937231447E-01  0.89211960302E+00  0.88000000000E+00 0. -1.
        -11    1    4    4    0    0 -0.33977857699E-01 -0.54492840183E-01 -0.21921466630E-01  0.67858501790E-01  0.51100000000E-03 0. -1.
         11    1    4    4    0    0 -0.24872326114E-01 -0.40918913192E-01 -0.36422394391E-01  0.60165122764E-01  0.51100000000E-03 0.  1.
</event>
<event>
 8    1  0.1052028E+005  0.1043930E+01  0.7957747E-01            NaN
         13   -1    0    0    0    0  0.00000000000E+00  0.00000000000E+00  0.74505805969E-08  0.10566000000E+00  0.10566000000E+00 0.  1.
     999900   -1    0    0    0    0 -0.00000000000E+00 -0.00000000000E+00 -0.74505805969E-08  0.93827000000E+00  0.93827000000E+00 0. -1.
     999902    2    1    2    0    0  0.16856223135E-01  0.42575325319E-02  0.17303650845E-01  0.10194009321E+01  0.10191057772E+01 0.  0.
     999903    2    3    3    0    0  0.11566812579E-01 -0.30991048810E-01  0.12624866008E+00  0.13196673428E+00  0.19551432773E-01 0.  0.
         14    1    1    2    0    0 -0.16856223135E-01 -0.42575325319E-02 -0.17303650845E-01  0.24529067944E-01  0.00000000000E+00 0. -1.
     999901    1    3    3    0    0  0.52894105565E-02  0.35248581342E-01 -0.10894500924E+00  0.88743419778E+00  0.88000000000E+00 0. -1.
        -11    1    4    4    0    0  0.14993413616E-01 -0.13228726172E-01  0.74800302028E-01  0.77428340758E-01  0.51100000000E-03 0.  1.
         11    1    4    4    0    0 -0.34266010369E-02 -0.17762322638E-01  0.51448358054E-01  0.54538393518E-01  0.51100000000E-03 0. -1.
</event>
<event>
 8    1  0.1052028E+005  0.1043930E+01  0.7957747E-01            NaN
         13   -1    0    0    0    0  0.00000000000E+00  0.00000000000E+00  0.74505805969E-08  0.10566000000E+00  0.10566000000E+00 0.  1.
     999900   -1    0    0    0    0 -0.00000000000E+00 -0.00000000000E+00 -0.74505805969E-08  0.93827000000E+00  0.93827000000E+00 0. -1.
     999902    2    1    2    0    0  0.89922038578E-02 -0.27275524448E-02  0.22361633362E-01  0.10196742395E+01  0.10193857036E+01 0.  0.
     999903    2    3    3    0    0 -0.91710267808E-02 -0.78899841459E-01 -0.98301200725E-01  0.12799512673E+00  0.20256694877E-01 0.  0.
         14    1    1    2    0    0 -0.89922038578E-02  0.27275524448E-02 -0.22361633362E-01  0.24255760536E-01  0.00000000000E+00 0. -1.
     999901    1    3    3    0    0  0.18163230639E-01  0.76172289014E-01  0.12066283409E+00  0.89167911274E+00  0.88000000000E+00 0.  1.
        -11    1    4    4    0    0 -0.70175611977E-02 -0.38189142381E-01 -0.32746494087E-01  0.50796168723E-01  0.51100000000E-03 0. -1.
         11    1    4    4    0    0 -0.21534655832E-02 -0.40710699078E-01 -0.65554706639E-01  0.77198958004E-01  0.51100000000E-03 0.  1.
</event>
<event>
 8    1  0.1052028E+005  0.1043930E+01  0.7957747E-01            NaN
         13   -1    0    0    0    0  0.00000000000E+00  0.00000000000E+00  0.74505805969E-08  0.10566000000E+00  0.10566000000E+00 0. -1.
     999900   -1    0    0    0    0 -0.00000000000E+00 -0.00000000000E+00 -0.74505805969E-08  0.93827000000E+00  0.93827000000E+00 0. -1.
     999902    2    1    2    0    0  0.10996552868E-01  0.16885784104E-01  0.13774261611E-01  0.10195213097E+01  0.10192290796E+01 0.  0.
     999903    2    3    3    0    0 -0.99289481819E-02 -0.56920501573E-01 -0.11172166316E+00  0.12731367044E+00  0.19710736904E-01 0.  0.
         14    1    1    2    0    0 -0.10996552868E-01 -0.16885784104E-01 -0.13774261611E-01  0.24408690311E-01  0.00000000000E+00 0.  1.
     999901    1    3    3    0    0  0.20925501050E-01  0.73806285677E-01  0.12549592478E+00  0.89220763925E+00  0.88000000000E+00 0.  1.
        -11    1    4    4    0    0  0.46739028302E-03 -0.43808211327E-01 -0.87677593064E-01  0.98015301254E-01  0.51100000000E-03 0. -1.
         11    1    4    4    0    0 -0.10396338465E-01 -0.13112290246E-01 -0.24044070100E-01  0.29298369186E-01  0.51100000000E-03 0.  1.
</event>
<event>
 8    1  0.1052028E+005  0.1043930E+01  0.7957747E-01            NaN
         13   -1    0    0    0    0  0.00000000000E+00  0.00000000000E+00  0.74505805969E-08  0.10566000000E+00  0.10566000000E+00 0. -1.
     999900   -1    0    0    0    0 -0.00000000000E+00 -0.00000000000E+00 -0.74505805969E-08  0.93827000000E+00  0.93827000000E+00 0.  1.
     999902    2    1    2    0    0 -0.12703534925E-01  0.38946751420E-02 -0.19499730170E-01  0.10203336492E+01  0.10200607668E+01 0.  0.
     999903    2    3    3    0    0  0.25729375204E-01 -0.92916988980E-01 -0.87321264060E-01  0.13159896025E+00  0.19942808051E-01 0.  0.
         14    1    1    2    0    0  0.12703534925E-01 -0.38946751420E-02  0.19499730170E-01  0.23596350793E-01  0.00000000000E+00 0. -1.
     999901    1    3    3    0    0 -0.38432910128E-01  0.96811664122E-01  0.67821533890E-01  0.88873468895E+00  0.88000000000E+00 0.  1.
        -11    1    4    4    0    0  0.57388157886E-02 -0.57383575570E-01 -0.50300353916E-01  0.76525783086E-01  0.51100000000E-03 0. -1.
         11    1    4    4    0    0  0.19990559415E-01 -0.35533413410E-01 -0.37020910144E-01  0.55073177166E-01  0.51100000000E-03 0.  1.
</event>
<event>
 8    1  0.1052028E+005  0.1043930E+01  0.7957747E-01            NaN
         13   -1    0    0    0    0  0.00000000000E+00  0.00000000000E+00  0.74505805969E-08  0.10566000000E+00  0.10566000000E+00 0. -1.
     999900   -1    0    0    0    0 -0.00000000000E+00 -0.00000000000E+00 -0.74505805969E-08  0.93827000000E+00  0.93827000000E+00 0.  1.
     999902    2    1    2    0    0  0.14966067503E-01  0.29936639801E-02  0.19541647531E-01  0.10191344119E+01  0.10188327283E+01 0.  0.
     999903    2    3    3    0    0  0.38995781655E-01 -0.21311266977E-02 -0.12008490470E+00  0.12778752953E+00  0.19597338589E-01 0.  0.
         14    1    1    2    0    0 -0.14966067503E-01 -0.29936639801E-02 -0.19541647531E-01  0.24795588090E-01  0.00000000000E+00 0.  1.
     999901    1    3    3    0    0 -0.24029714152E-01  0.51247906778E-02  0.13962655223E+00  0.89134688238E+00  0.88000000000E+00 0. -1.
        -11    1    4    4    0    0  0.38101152951E-01 -0.23135273737E-02 -0.90987981312E-01  0.98671800071E-01  0.51100000000E-03 0.  1.
         11    1    4    4    0    0  0.89462870424E-03  0.18240067602E-03 -0.29096923384E-01  0.29115729459E-01  0.51100000000E-03 0. -1.
</event>
<event>
 8    1  0.1052028E+005  0.1043930E+01  0.7957747E-01            NaN
         13   -1    0    0    0    0  0.00000000000E+00  0.00000000000E+00  0.74505805969E-08  0.10566000000E+00  0.10566000000E+00 0. -1.
     999900   -1    0    0    0    0 -0.00000000000E+00 -0.00000000000E+00 -0.74505805969E-08  0.93827000000E+00  0.93827000000E+00 0. -1.
     999902    2    1    2    0    0  0.20538894780E-01 -0.11109273104E-01 -0.14040583257E-02  0.10205369769E+01  0.10202688311E+01 0.  0.
     999903    2    3    3    0    0  0.75188378072E-01  0.61763453704E-01 -0.87104539604E-01  0.13169414898E+00  0.16974440964E-01 0.  0.
         14    1    1    2    0    0 -0.20538894780E-01  0.11109273104E-01  0.14040583257E-02  0.23393023051E-01  0.00000000000E+00 0. -1.
     999901    1    3    3    0    0 -0.54649483291E-01 -0.72872726808E-01  0.85700481278E-01  0.88884282797E+00  0.88000000000E+00 0. -1.
        -11    1    4    4    0    0  0.76083343396E-03  0.47811767893E-02 -0.61068922653E-02  0.78098510321E-02  0.51100000000E-03 0. -1.
         11    1    4    4    0    0  0.74427544638E-01  0.56982276914E-01 -0.80997647339E-01  0.12388429795E+00  0.51100000000E-03 0.  1.
</event>
<event>
 8    1  0.1052028E+005  0.1043930E+01  0.7957747E-01            NaN
         13   -1    0    0    0    0  0.00000000000E+00  0.00000000000E+00  0.74505805969E-08  0.10566000000E+00  0.10566000000E+00 0.  1.
     999900   -1    0    0    0    0 -0.00000000000E+00 -0.00000000000E+00 -0.74505805969E-08  0.93827000000E+00  0.93827000000E+00 0.  1.
     999902    2    1    2    0    0  0.12044270575E-01 -0.69092842975E-02  0.17832985581E-01  0.10213287160E+01  0.10210786102E+01 0.  0.
     999903    2    3    3    0    0 -0.96046379578E-01  0.15494365043E-01 -0.80985015794E-01  0.12894398421E+00  0.24555974891E-01 0.  0.
         14    1    1    2    0    0 -0.12044270575E-01  0.69092842975E-02 -0.17832985581E-01  0.22601283989E-01  0.00000000000E+00 0. -1.
     999901    1    3    3    0    0  0.10809065015E+00 -0.22403649340E-01  0.98818001375E-01  0.89238473180E+00  0.88000000000E+00 0. -1.
        -11    1    4    4    0    0 -0.92653443628E-01  0.19346198940E-01 -0.79404954832E-01  0.12354895387E+00  0.51100000000E-03 0.  1.
         11    1    4    4    0    0 -0.33929359508E-02 -0.38518338971E-02 -0.15800609615E-02  0.53950303409E-02  0.51100000000E-03 0. -1.
</event>
<event>
 8    1  0.1052028E+005  0.1043930E+01  0.7957747E-01            NaN
         13   -1    0    0    0    0  0.00000000000E+00  0.00000000000E+00  0.74505805969E-08  0.10566000000E+00  0.10566000000E+00 0.  1.
     999900   -1    0    0    0    0 -0.00000000000E+00 -0.00000000000E+00 -0.74505805969E-08  0.93827000000E+00  0.93827000000E+00 0.  1.
     999902    2    1    2    0    0 -0.76960661266E-02 -0.26037879403E-02  0.22403469553E-01  0.10200988315E+01  0.10198204260E+01 0.  0.
     999903    2    3    3    0    0 -0.11664720320E+00 -0.45274626876E-01 -0.31981917776E-01  0.13068952124E+00  0.20013646471E-01 0.  0.
         14    1    1    2    0    0  0.76960661266E-02  0.26037879403E-02 -0.22403469553E-01  0.23831168530E-01  0.00000000000E+00 0. -1.
     999901    1    3    3    0    0  0.10895113707E+00  0.42670838936E-01  0.54385387330E-01  0.88940931023E+00  0.88000000000E+00 0.  1.
        -11    1    4    4    0    0 -0.41621144510E-01 -0.23204997673E-01 -0.19511404398E-01  0.51495122195E-01  0.51100000000E-03 0.  1.
         11    1    4    4    0    0 -0.75026058689E-01 -0.22069629203E-01 -0.12470513378E-01  0.79194399047E-01  0.51100000000E-03 0. -1.
</event>
<event>
 8    1  0.1052028E+005  0.1043930E+01  0.7957747E-01            NaN
         13   -1    0    0    0    0  0.00000000000E+00  0.00000000000E+00  0.74505805969E-08  0.10566000000E+00  0.10566000000E+00 0.  1.
     999900   -1    0    0    0    0 -0.00000000000E+00 -0.00000000000E+00 -0.74505805969E-08  0.93827000000E+00  0.93827000000E+00 0. -1.
     999902    2    1    2    0    0 -0.21974989895E-01  0.85065517946E-02 -0.14974208707E-02  0.10203184801E+01  0.10200452426E+01 0.  0.
     999903    2    3    3    0    0  0.97360356848E-01  0.45661091265E-01  0.68073951359E-01  0.12876839139E+00  0.19577063777E-01 0.  0.
         14    1    1    2    0    0  0.21974989895E-01 -0.85065517946E-02  0.14974208707E-02  0.23611519934E-01  0.00000000000E+00 0.  1.
     999901    1    3    3    0    0 -0.11933534674E+00 -0.37154539470E-01 -0.69571372230E-01  0.89155008868E+00  0.88000000000E+00 0.  1.
        -11    1    4    4    0    0  0.50985898199E-01  0.13188384959E-01  0.31536400181E-01  0.61386488500E-01  0.51100000000E-03 0.  1.
         11    1    4    4    0    0  0.46374458649E-01  0.32472706306E-01  0.36537551178E-01  0.67381902889E-01  0.51100000000E-03 0. -1.
</event>
<event>
 8    1  0.1052028E+005  0.1043930E+01  0.7957747E-01            NaN
         13   -1    0    0    0    0  0.00000000000E+00  0.00000000000E+00  0.74505805969E-08  0.10566000000E+00  0.10566000000E+00 0.  1.
     999900   -1    0    0    0    0 -0.00000000000E+00 -0.00000000000E+00 -0.74505805969E-08  0.93827000000E+00  0.93827000000E+00 0.  1.
     999902    2    1    2    0    0  0.29654514393E-02 -0.14888546657E-01 -0.17845550133E-01  0.10205008220E+01  0.10202318370E+01 0.  0.
     999903    2    3    3    0    0 -0.25406091078E-01  0.50175820135E-01  0.11352859332E+00  0.12792170401E+00  0.17667440833E-01 0.  0.
         14    1    1    2    0    0 -0.29654514393E-02  0.14888546657E-01  0.17845550133E-01  0.23429178034E-01  0.00000000000E+00 0.  1.
     999901    1    3    3    0    0  0.28371542517E-01 -0.65064366793E-01 -0.13137414345E+00  0.89257911796E+00  0.88000000000E+00 0.  1.
        -11    1    4    4    0    0 -0.25037957049E-01  0.37835320035E-01  0.77164260806E-01  0.89515333894E-01  0.51100000000E-03 0. -1.
         11    1    4    4    0    0 -0.36813402911E-03  0.12340500101E-01  0.36364332509E-01  0.38406370112E-01  0.51100000000E-03 0.  1.
</event>
<event>
 8    1  0.1052028E+005  0.1043930E+01  0.7957747E-01            NaN
         13   -1    0    0    0    0  0.00000000000E+00  0.00000000000E+00  0.74505805969E-08  0.10566000000E+00  0.10566000000E+00 0.  1.
     999900   -1    0    0    0    0 -0.00000000000E+00 -0.00000000000E+00 -0.74505805969E-08  0.93827000000E+00  0.93827000000E+00 0. -1.
     999902    2    1    2    0    0 -0.83204376847E-02  0.11847683767E-01  0.19505847034E-01  0.10196385331E+01  0.10193491369E+01 0.  0.
     999903    2    3    3    0    0  0.11899347953E+00  0.45337793978E-01  0.16930441035E-01  0.12984245891E+00  0.18906627586E-01 0.  0.
         14    1    1    2    0    0  0.83204376847E-02 -0.11847683767E-01 -0.19505847034E-01  0.24291466864E-01  0.00000000000E+00 0. -1.
     999901    1    3    3    0    0 -0.12731391722E+00 -0.33490110212E-01  0.25754059989E-02  0.88979607423E+00  0.88000000000E+00 0.  1.
        -11    1    4    4    0    0  0.66682621556E-01  0.16978003831E-01  0.38740932972E-02  0.68920928255E-01  0.51100000000E-03 0. -1.
         11    1    4    4    0    0  0.52310857978E-01  0.28359790147E-01  0.13056347738E-01  0.60921530650E-01  0.51100000000E-03 0.  1.
</event>
<event>
 8    1  0.1052028E+005  0.1043930E+01  0.7957747E-01            NaN
         13   -1    0    0    0    0  0.00000000000E+00  0.00000000000E+00  0.74505805969E-08  0.10566000000E+00  0.10566000000E+00 0. -1.
     999900   -1    0    0    0    0 -0.00000000000E+00 -0.00000000000E+00 -0.74505805969E-08  0.93827000000E+00  0.93827000000E+00 0. -1.
     999902    2    1    2    0    0 -0.12933787176E-01  0.12585185072E-01 -0.16495410093E-01  0.10194806996E+01  0.10191874845E+01 0.  0.
     999903    2    3    3    0    0  0.19654573434E-01  0.51557139359E-01 -0.11842144128E+00  0.13214213387E+00  0.19835950044E-01 0.  0.
         14    1    1    2    0    0  0.12933787176E-01 -0.12585185072E-01  0.16495410093E-01  0.24449300361E-01  0.00000000000E+00 0. -1.
     999901    1    3    3    0    0 -0.32588360610E-01 -0.38971954288E-01  0.10192603118E+00  0.88733856577E+00  0.88000000000E+00 0.  1.
        -11    1    4    4    0    0  0.87215411022E-02  0.12824643452E-01 -0.53959574290E-01  0.56146536290E-01  0.51100000000E-03 0. -1.
         11    1    4    4    0    0  0.10933032332E-01  0.38732495908E-01 -0.64461866986E-01  0.75995597580E-01  0.51100000000E-03 0.  1.
</event>
<event>
 7    1  0.1052028E+005  0.1043930E+01  0.7957747E-01            NaN
         13   -1    0    0    0    0  0.00000000000E+00  0.00000000000E+00  0.74505805969E-08  0.10566000000E+00  0.10566000000E+00 0. -1.
     999900   -1    0    0    0    0 -0.00000000000E+00 -0.00000000000E+00 -0.74505805969E-08  0.93827000000E+00  0.93827000000E+00 0.  1.
     999902    2    1    2    0    0 -0.31502469579E-02 -0.22735895429E-01 -0.47155898590E-02  0.10204975058E+01  0.10202284438E+01 0.  0.
         14    1    1    2    0    0  0.31502469579E-02  0.22735895429E-01  0.47155898590E-02  0.23432494203E-01  0.00000000000E+00 0. -1.
     999901    1    3    3    0    0 -0.23046177256E-01 -0.14203381415E+00 -0.19084467741E-02  0.89168849539E+00  0.88000000000E+00 0. -1.
        -11    1    3    3    0    0  0.11685829629E-01  0.11891867154E+00  0.15291539779E-02  0.11950233674E+00  0.51100000000E-03 0. -1.
         11    1    3    3    0    0  0.82101006688E-02  0.37924717983E-03 -0.43362970628E-02  0.93066736610E-02  0.51100000000E-03 0.  1.
</event>
<event>
 8    1  0.1052028E+005  0.1043930E+01  0.7957747E-01            NaN
         13   -1    0    0    0    0  0.00000000000E+00  0.00000000000E+00  0.74505805969E-08  0.10566000000E+00  0.10566000000E+00 0.  1.
     999900   -1    0    0    0    0 -0.00000000000E+00 -0.00000000000E+00 -0.74505805969E-08  0.93827000000E+00  0.93827000000E+00 0. -1.
     999902    2    1    2    0    0  0.16956410994E-01 -0.16188606237E-01 -0.31128706435E-02  0.10202808814E+01  0.10200067628E+01 0.  0.
     999903    2    3    3    0    0  0.85111267669E-01 -0.10085653874E+00  0.65822839640E-02  0.13354093121E+00  0.19336094667E-01 0.  0.
         14    1    1    2    0    0 -0.16956410994E-01  0.16188606237E-01  0.31128706435E-02  0.23649118574E-01  0.00000000000E+00 0. -1.
     999901    1    3    3    0    0 -0.68154856675E-01  0.84667932498E-01 -0.96951546076E-02  0.88673995021E+00  0.88000000000E+00 0. -1.
        -11    1    4    4    0    0  0.26336159052E-01 -0.45731113790E-01  0.37617496808E-02  0.52908788720E-01  0.51100000000E-03 0. -1.
         11    1    4    4    0    0  0.58775108617E-01 -0.55125424945E-01  0.28205342832E-02  0.80632142493E-01  0.51100000000E-03 0.  1.
</event>
<event>
 8    1  0.1052028E+005  0.1043930E+01  0.7957747E-01            NaN
         13   -1    0    0    0    0  0.00000000000E+00  0.00000000000E+00  0.74505805969E-08  0.10566000000E+00  0.10566000000E+00 0.  1.
     999900   -1    0    0    0    0 -0.00000000000E+00 -0.00000000000E+00 -0.74505805969E-08  0.93827000000E+00  0.93827000000E+00 0. -1.
     999902    2    1    2    0    0  0.21871671053E-01  0.16292190464E-02 -0.10012444258E-01  0.10198203880E+01  0.10195353601E+01 0.  0.
     999903    2    3    3    0    0  0.73251954551E-01 -0.92865225417E-01 -0.55129400248E-01  0.13212411492E+00  0.20681683577E-01 0.  0.
         14    1    1    2    0    0 -0.21871671053E-01 -0.16292190464E-02  0.10012444258E-01  0.24109611970E-01  0.00000000000E+00 0.  1.
     999901    1    3    3    0    0 -0.51380283498E-01  0.94494444464E-01  0.45116955990E-01  0.88769627311E+00  0.88000000000E+00 0. -1.
        -11    1    4    4    0    0  0.62178142374E-01 -0.74961245096E-01 -0.36501366483E-01  0.10400923291E+00  0.51100000000E-03 0. -1.
         11    1    4    4    0    0  0.11073812177E-01 -0.17903980321E-01 -0.18628033765E-01  0.28114882010E-01  0.51100000000E-03 0.  1.
</event>
<event>
 8    1  0.1052028E+005  0.1043930E+01  0.7957747E-01            NaN
         13   -1    0    0    0    0  0.00000000000E+00  0.00000000000E+00  0.74505805969E-08  0.10566000000E+00  0.10566000000E+00 0.  1.
     999900   -1    0    0    0    0 -0.00000000000E+00 -0.00000000000E+00 -0.74505805969E-08  0.93827000000E+00  0.93827000000E+00 0.  1.
     999902    2    1    2    0    0 -0.82674076022E-02  0.25473724124E-01 -0.10966783365E-02  0.10171258333E+01  0.10167725888E+01 0.  0.
     999903    2    3    3    0    0  0.11457810195E+00 -0.18750926321E-02 -0.50395791989E-01  0.12680601458E+00  0.20208217780E-01 0.  0.
         14    1    1    2    0    0  0.82674076022E-02 -0.25473724124E-01  0.10966783365E-02  0.26804166701E-01  0.00000000000E+00 0. -1.
     999901    1    3    3    0    0 -0.12284550955E+00  0.27348816756E-01  0.49299113653E-01  0.89031981872E+00  0.88000000000E+00 0.  1.
        -11    1    4    4    0    0  0.33464934897E-01 -0.92786672812E-02 -0.11881192475E-01  0.36707211687E-01  0.51100000000E-03 0.  1.
         11    1    4    4    0    0  0.81113167049E-01  0.74035746491E-02 -0.38514599515E-01  0.90098802894E-01  0.51100000000E-03 0. -1.
</event>
<event>
 8    1  0.1052028E+005  0.1043930E+01  0.7957747E-01            NaN
         13   -1    0    0    0    0  0.00000000000E+00  0.00000000000E+00  0.74505805969E-08  0.10566000000E+00  0.10566000000E+00 0.  1.
     999900   -1    0    0    0    0 -0.00000000000E+00 -0.00000000000E+00 -0.74505805969E-08  0.93827000000E+00  0.93827000000E+00 0.  1.
     999902    2    1    2    0    0  0.60899390265E-02  0.19317126157E-01  0.12270747170E-01  0.10202485736E+01  0.10199736967E+01 0.  0.
     999903    2    3    3    0    0  0.66835723769E-02 -0.12456398345E+00  0.23971222630E-01  0.12848681885E+00  0.19323224172E-01 0.  0.
         14    1    1    2    0    0 -0.60899390265E-02 -0.19317126157E-01 -0.12270747170E-01  0.23681426402E-01  0.00000000000E+00 0. -1.
     999901    1    3    3    0    0 -0.59363335043E-03  0.14388110960E+00 -0.11700475460E-01  0.89176175475E+00  0.88000000000E+00 0. -1.
        -11    1    4    4    0    0  0.12406109450E-01 -0.69309739884E-01  0.92572290429E-02  0.71019074938E-01  0.51100000000E-03 0.  1.
         11    1    4    4    0    0 -0.57225370735E-02 -0.55254243564E-01  0.14713993587E-01  0.57467743915E-01  0.51100000000E-03 0. -1.
</event>
<event>
 8    1  0.1052028E+005  0.1043930E+01  0.7957747E-01            NaN
         13   -1    0    0    0    0  0.00000000000E+00  0.00000000000E+00  0.74505805969E-08  0.10566000000E+00  0.10566000000E+00 0.  1.
     999900   -1    0    0    0    0 -0.00000000000E+00 -0.00000000000E+00 -0.74505805969E-08  0.93827000000E+00  0.93827000000E+00 0. -1.
     999902    2    1    2    0    0 -0.16140911972E-01  0.37484030878E-03 -0.17691652180E-01  0.10199787140E+01  0.10196974615E+01 0.  0.
     999903    2    3    3    0    0 -0.80979532820E-01 -0.47248242174E-01  0.87800896185E-01  0.13003451209E+00  0.20245884503E-01 0.  0.
         14    1    1    2    0    0  0.16140911972E-01 -0.37484030878E-03  0.17691652180E-01  0.23951286007E-01  0.00000000000E+00 0.  1.
     999901    1    3    3    0    0  0.64838620849E-01  0.47623082483E-01 -0.10549254837E+00  0.88994420190E+00  0.88000000000E+00 0. -1.
        -11    1    4    4    0    0 -0.35876600297E-01 -0.10222695687E-01  0.38890711637E-01  0.53892323467E-01  0.51100000000E-03 0. -1.
         11    1    4    4    0    0 -0.45102932523E-01 -0.37025546487E-01  0.48910184548E-01  0.76142188624E-01  0.51100000000E-03 0.  1.
</event>
<event>
 7    1  0.1052028E+005  0.1043930E+01  0.7957747E-01            NaN
         13   -1    0    0    0    0  0.00000000000E+00  0.00000000000E+00  0.74505805969E-08  0.10566000000E+00  0.10566000000E+00 0.  1.
     999900   -1    0    0    0    0 -0.00000000000E+00 -0.00000000000E+00 -0.74505805969E-08  0.93827000000E+00  0.93827000000E+00 0. -1.
     999903    2    1    2    0    0  0.70839339672E-01 -0.16934740676E-02 -0.68656759512E-01  0.10063970351E+00  0.19837323325E-01 0.  0.
         14    1    1    2    0    0 -0.40241901507E-01 -0.81633803549E-02 -0.38400291082E-01  0.56219514147E-01  0.00000000000E+00 0. -1.
     999901    1    1    2    0    0 -0.30597438165E-01  0.98568544224E-02  0.10705705059E+00  0.88707078234E+00  0.88000000000E+00 0.  1.
        -11    1    3    3    0    0  0.53531870658E-02 -0.66102404164E-03 -0.15072791931E-01  0.16016982928E-01  0.51100000000E-03 0.  1.
         11    1    3    3    0    0  0.65486152606E-01 -0.10324500259E-02 -0.53583967582E-01  0.84622720584E-01  0.51100000000E-03 0. -1.
</event>
<event>
 8    1  0.1052028E+005  0.1043930E+01  0.7957747E-01            NaN
         13   -1    0    0    0    0  0.00000000000E+00  0.00000000000E+00  0.74505805969E-08  0.10566000000E+00  0.10566000000E+00 0.  1.
     999900   -1    0    0    0    0 -0.00000000000E+00 -0.00000000000E+00 -0.74505805969E-08  0.93827000000E+00  0.93827000000E+00 0. -1.
     999902    2    1    2    0    0 -0.74424995140E-02  0.19076988462E-01 -0.11972516465E-01  0.10202094722E+01  0.10199336762E+01 0.  0.
     999903    2    3    3    0    0 -0.12212874574E-01 -0.98888496847E-02  0.12667008599E+00  0.12887140646E+00  0.17764714038E-01 0.  0.
         14    1    1    2    0    0  0.74424995140E-02 -0.19076988462E-01  0.11972516465E-01  0.23720527783E-01  0.00000000000E+00 0.  1.
     999901    1    3    3    0    0  0.47703750603E-02  0.28965838147E-01 -0.13864260245E+00  0.89133806576E+00  0.88000000000E+00 0. -1.
        -11    1    4    4    0    0 -0.23418041542E-02  0.50100215352E-02  0.22316776858E-01  0.22997478401E-01  0.51100000000E-03 0.  1.
         11    1    4    4    0    0 -0.98710704201E-02 -0.14898871220E-01  0.10435330913E+00  0.10587392806E+00  0.51100000000E-03 0. -1.
</event>
<event>
 8    1  0.1052028E+005  0.1043930E+01  0.7957747E-01            NaN
         13   -1    0    0    0    0  0.00000000000E+00  0.00000000000E+00  0.74505805969E-08  0.10566000000E+00  0.10566000000E+00 0.  1.
     999900   -1    0    0    0    0 -0.00000000000E+00 -0.00000000000E+00 -0.74505805969E-08  0.93827000000E+00  0.93827000000E+00 0. -1.
     999902    2    1    2    0    0 -0.14671905837E-01  0.24581496255E-02  0.12467192527E-01  0.10245202548E+01  0.10243363775E+01 0.  0.
     999903    2    3    3    0    0  0.29415313528E-02 -0.13224212402E+00 -0.70958953626E-02  0.13388165730E+00  0.19424583887E-01 0.  0.
         14    1    1    2    0    0  0.14671905837E-01 -0.24581496255E-02 -0.12467192527E-01  0.19409745232E-01  0.00000000000E+00 0.  1.
     999901    1    3    3    0    0 -0.17613437190E-01  0.13470027364E+00  0.19563087889E-01  0.89063859747E+00  0.88000000000E+00 0.  1.
        -11    1    4    4    0    0 -0.92594738603E-03 -0.42852253554E-01 -0.11227726248E-01  0.44311352619E-01  0.51100000000E-03 0. -1.
         11    1    4    4    0    0  0.38674787389E-02 -0.89389870465E-01  0.41318308857E-02  0.89570304683E-01  0.51100000000E-03 0.  1.
</event>
<event>
 8    1  0.1052028E+005  0.1043930E+01  0.7957747E-01            NaN
         13   -1    0    0    0    0  0.00000000000E+00  0.00000000000E+00  0.74505805969E-08  0.10566000000E+00  0.10566000000E+00 0. -1.
     999900   -1    0    0    0    0 -0.00000000000E+00 -0.00000000000E+00 -0.74505805969E-08  0.93827000000E+00  0.93827000000E+00 0. -1.
     999902    2    1    2    0    0 -0.18966209245E-01  0.10630202221E-01 -0.84306119675E-02  0.10206106194E+01  0.10203441787E+01 0.  0.
     999903    2    3    3    0    0 -0.94496116759E-01 -0.79654232717E-01 -0.42281269107E-01  0.13212769156E+00  0.19892417806E-01 0.  0.
         14    1    1    2    0    0  0.18966209245E-01 -0.10630202221E-01  0.84306119675E-02  0.23319380578E-01  0.00000000000E+00 0. -1.
     999901    1    3    3    0    0  0.75529907514E-01  0.90284434938E-01  0.33850657140E-01  0.88848292787E+00  0.88000000000E+00 0. -1.
        -11    1    4    4    0    0 -0.17369902500E-01 -0.13093554205E-01 -0.15725357168E-01  0.26845905715E-01  0.51100000000E-03 0. -1.
         11    1    4    4    0    0 -0.77126214259E-01 -0.66560678512E-01 -0.26555911939E-01  0.10528178584E+00  0.51100000000E-03 0.  1.
</event>
<event>
 8    1  0.1052028E+005  0.1043930E+01  0.7957747E-01            NaN
         13   -1    0    0    0    0  0.00000000000E+00  0.00000000000E+00  0.74505805969E-08  0.10566000000E+00  0.10566000000E+00 0. -1.
     999900   -1    0    0    0    0 -0.00000000000E+00 -0.00000000000E+00 -0.74505805969E-08  0.93827000000E+00  0.93827000000E+00 0. -1.
     999902    2    1    2    0    0 -0.11281554129E-01 -0.11442158647E-01 -0.16734308960E-01  0.10207301389E+01  0.10204664536E+01 0.  0.
     999903    2    3    3    0    0  0.92339285325E-01 -0.31969802132E-01  0.80365560041E-01  0.12910967758E+00  0.25730793622E-01 0.  0.
         14    1    1    2    0    0  0.11281554129E-01  0.11442158647E-01  0.16734308960E-01  0.23199861087E-01  0.00000000000E+00 0. -1.
     999901    1    3    3    0    0 -0.10362083945E+00  0.20527643485E-01 -0.97099869000E-01  0.89162046134E+00  0.88000000000E+00 0. -1.
        -11    1    4    4    0    0  0.30916902113E-01 -0.23851447671E-01  0.32799030103E-01  0.50997881220E-01  0.51100000000E-03 0. -1.
         11    1    4    4    0    0  0.61422383212E-01 -0.81183544614E-02  0.47566529938E-01  0.78111796355E-01  0.51100000000E-03 0.  1.
</event>
<event>
 8    1  0.1052028E+005  0.1043930E+01  0.7957747E-01            NaN
         13   -1    0    0    0    0  0.00000000000E+00  0.00000000000E+00  0.74505805969E-08  0.10566000000E+00  0.10566000000E+00 0.  1.
     999900   -1    0    0    0    0 -0.00000000000E+00 -0.00000000000E+00 -0.74505805969E-08  0.93827000000E+00  0.93827000000E+00 0. -1.
     999902    2    1    2    0    0 -0.18758972566E-01 -0.13807419548E-01 -0.52459606102E-02  0.10200539872E+01  0.10197745205E+01 0.  0.
     999903    2    3    3    0    0  0.32584313288E-01  0.87623808560E-01  0.85323154977E-01  0.12813067671E+00  0.19943927369E-01 0.  0.
         14    1    1    2    0    0  0.18758972566E-01  0.13807419548E-01  0.52459606102E-02  0.23876012838E-01  0.00000000000E+00 0.  1.
     999901    1    3    3    0    0 -0.51343285854E-01 -0.10143122811E+00 -0.90569115587E-01  0.89192331046E+00  0.88000000000E+00 0.  1.
        -11    1    4    4    0    0  0.23135826324E-01  0.72662204963E-01  0.59040868948E-01  0.96442458579E-01  0.51100000000E-03 0. -1.
         11    1    4    4    0    0  0.94484869634E-02  0.14961603597E-01  0.26282286029E-01  0.31688218126E-01  0.51100000000E-03 0.  1.
</event>
<event>
 8    1  0.1052028E+005  0.1043930E+01  0.7957747E-01            NaN
         13   -1    0    0    0    0  0.00000000000E+00  0.00000000000E+00  0.74505805969E-08  0.10566000000E+00  0.10566000000E+00 0. -1.
     999900   -1    0    0    0    0 -0.00000000000E+00 -0.00000000000E+00 -0.74505805969E-08  0.93827000000E+00  0.93827000000E+00 0. -1.
     999902    2    1    2    0    0 -0.17692358553E-02  0.27181219545E-01  0.10884577315E-01  0.10145970337E+01  0.10141729230E+01 0.  0.
     999903    2    3    3    0    0 -0.85815886777E-01  0.38622972852E-01  0.83805818584E-01  0.12751628159E+00  0.19516310787E-01 0.  0.
         14    1    1    2    0    0  0.17692358553E-02 -0.27181219545E-01 -0.10884577315E-01  0.29332966349E-01  0.00000000000E+00 0.  1.
     999901    1    3    3    0    0  0.84046650921E-01 -0.11441753307E-01 -0.72921241269E-01  0.88708075206E+00  0.88000000000E+00 0. -1.
        -11    1    4    4    0    0 -0.46150458587E-01  0.25896291248E-01  0.57977032086E-01  0.78498917819E-01  0.51100000000E-03 0. -1.
         11    1    4    4    0    0 -0.39665428189E-01  0.12726681604E-01  0.25828786498E-01  0.49017363771E-01  0.51100000000E-03 0.  1.
</event>
<event>
 8    1  0.1052028E+005  0.1043930E+01  0.7957747E-01            NaN
         13   -1    0    0    0    0  0.00000000000E+00  0.00000000000E+00  0.74505805969E-08  0.10566000000E+00  0.10566000000E+00 0.  1.
     999900   -1    0    0    0    0 -0.00000000000E+00 -0.00000000000E+00 -0.74505805969E-08  0.93827000000E+00  0.93827000000E+00 0. -1.
     999902    2    1    2    0    0  0.13087360948E-01  0.22594121442E-01 -0.66179103989E-02  0.10169935920E+01  0.10166368063E+01 0.  0.
     999903    2    3    3    0    0  0.79217057577E-01  0.70143400160E-01 -0.75302428314E-01  0.13056726468E+00  0.13487627628E-01 0.  0.
         14    1    1    2    0    0 -0.13087360948E-01 -0.22594121442E-01  0.66179103989E-02  0.26936408045E-01  0.00000000000E+00 0.  1.
     999901    1    3    3    0    0 -0.66129696629E-01 -0.47549278718E-01  0.68684517915E-01  0.88642632727E+00  0.88000000000E+00 0. -1.
        -11    1    4    4    0    0  0.68488893716E-01  0.54216662215E-01 -0.63883231627E-01  0.10821969982E+00  0.51100000000E-03 0. -1.
         11    1    4    4    0    0  0.10728163861E-01  0.15926737945E-01 -0.11419196687E-01  0.22347564865E-01  0.51100000000E-03 0.  1.
</event>
<event>
 8    1  0.1052028E+005  0.1043930E+01  0.7957747E-01            NaN
         13   -1    0    0    0    0  0.00000000000E+00  0.00000000000E+00  0.74505805969E-08  0.10566000000E+00  0.10566000000E+00 0. -1.
     999900   -1    0    0    0    0 -0.00000000000E+00 -0.00000000000E+00 -0.74505805969E-08  0.93827000000E+00  0.93827000000E+00 0. -1.
     999902    2    1    2    0    0  0.21437179768E-02  0.99324619027E-02 -0.21079807438E-01  0.10205289828E+01  0.10202606515E+01 0.  0.
     999903    2    3    3    0    0 -0.35071558924E-01 -0.34298457188E-02  0.12173251753E+00  0.12813955641E+00  0.18951570000E-01 0.  0.
         14    1    1    2    0    0 -0.21437179768E-02 -0.99324619027E-02  0.21079807438E-01  0.23401017239E-01  0.00000000000E+00 0. -1.
     999901    1    3    3    0    0  0.37215276901E-01  0.13362307621E-01 -0.14281232497E+00  0.89238942635E+00  0.88000000000E+00 0. -1.
        -11    1    4    4    0    0 -0.33916173305E-01 -0.87116483466E-03  0.88451836288E-01  0.94736762682E-01  0.51100000000E-03 0. -1.
         11    1    4    4    0    0 -0.11553856191E-02 -0.25586808842E-02  0.33280681244E-01  0.33402793728E-01  0.51100000000E-03 0.  1.
</event>
<event>
 8    1  0.1052028E+005  0.1043930E+01  0.7957747E-01            NaN
         13   -1    0    0    0    0  0.00000000000E+00  0.00000000000E+00  0.74505805969E-08  0.10566000000E+00  0.10566000000E+00 0. -1.
     999900   -1    0    0    0    0 -0.00000000000E+00 -0.00000000000E+00 -0.74505805969E-08  0.93827000000E+00  0.93827000000E+00 0.  1.
     999902    2    1    2    0    0 -0.23846239220E-01 -0.32014494485E-02  0.99513858848E-02  0.10178930554E+01  0.10175599981E+01 0.  0.
     999903    2    3    3    0    0 -0.41520662266E-01 -0.57519951408E-01  0.10806548807E+00  0.13059983332E+00  0.18591840882E-01 0.  0.
         14    1    1    2    0    0  0.23846239220E-01  0.32014494485E-02 -0.99513858848E-02  0.26036944609E-01  0.00000000000E+00 0.  1.
     999901    1    3    3    0    0  0.17674423045E-01  0.54318501959E-01 -0.98114102182E-01  0.88729322207E+00  0.88000000000E+00 0.  1.
        -11    1    4    4    0    0 -0.21761456575E-01 -0.16493570341E-01  0.47960479504E-01  0.55191191055E-01  0.51100000000E-03 0. -1.
         11    1    4    4    0    0 -0.19759205690E-01 -0.41026381067E-01  0.60105008563E-01  0.75408642266E-01  0.51100000000E-03 0.  1.
</event>
<event>
 8    1  0.1052028E+005  0.1043930E+01  0.7957747E-01            NaN
         13   -1    0    0    0    0  0.00000000000E+00  0.00000000000E+00  0.74505805969E-08  0.10566000000E+00  0.10566000000E+00 0. -1.
     999900   -1    0    0    0    0 -0.00000000000E+00 -0.00000000000E+00 -0.74505805969E-08  0.93827000000E+00  0.93827000000E+00 0. -1.
     999902    2    1    2    0    0  0.96322229702E-02  0.15372849137E-01 -0.14813005751E-01  0.10205092966E+01  0.10202405084E+01 0.  0.
     999903    2    3    3    0    0  0.16412678705E-01 -0.12085171538E+00  0.35593186254E-01  0.12857662492E+00  0.19762601935E-01 0.  0.
         14    1    1    2    0    0 -0.96322229702E-02 -0.15372849137E-01  0.14813005751E-01  0.23420703434E-01  0.00000000000E+00 0. -1.
     999901    1    3    3    0    0 -0.67804557343E-02  0.13622456452E+00 -0.50406192005E-01  0.89193267165E+00  0.88000000000E+00 0. -1.
        -11    1    4    4    0    0  0.31464662219E-02 -0.60599696518E-01  0.88216614479E-02  0.61321336413E-01  0.51100000000E-03 0. -1.
         11    1    4    4    0    0  0.13266212483E-01 -0.60252018863E-01  0.26771524806E-01  0.67255288507E-01  0.51100000000E-03 0.  1.
</event>
<event>
 8    1  0.1052028E+005  0.1043930E+01  0.7957747E-01            NaN
         13   -1    0    0    0    0  0.00000000000E+00  0.00000000000E+00  0.74505805969E-08  0.10566000000E+00  0.10566000000E+00 0.  1.
     999900   -1    0    0    0    0 -0.00000000000E+00 -0.00000000000E+00 -0.74505805969E-08  0.93827000000E+00  0.93827000000E+00 0.  1.
     999902    2    1    2    0    0 -0.18826299983E-01  0.55686137290E-02  0.13804378927E-01  0.10199300019E+01  0.10196475906E+01 0.  0.
     999903    2    3    3    0    0  0.20951814603E-01  0.43560099329E-01  0.12093740904E+00  0.13172780788E+00  0.19745826734E-01 0.  0.
         14    1    1    2    0    0  0.18826299983E-01 -0.55686137290E-02 -0.13804378927E-01  0.23999998072E-01  0.00000000000E+00 0.  1.
     999901    1    3    3    0    0 -0.39778114586E-01 -0.37991485600E-01 -0.10713303011E+00  0.88820219405E+00  0.88000000000E+00 0.  1.
        -11    1    4    4    0    0  0.22029379559E-01  0.30289653004E-01  0.10124225731E+00  0.10794911963E+00  0.51100000000E-03 0.  1.
         11    1    4    4    0    0 -0.10775649567E-02  0.13270446326E-01  0.19695151729E-01  0.23778688242E-01  0.51100000000E-03 0. -1.
</event>
<event>
 8    1  0.1052028E+005  0.1043930E+01  0.7957747E-01            NaN
         13   -1    0    0    0    0  0.00000000000E+00  0.00000000000E+00  0.74505805969E-08  0.10566000000E+00  0.10566000000E+00 0. -1.
     999900   -1    0    0    0    0 -0.00000000000E+00 -0.00000000000E+00 -0.74505805969E-08  0.93827000000E+00  0.93827000000E+00 0. -1.
     999902    2    1    2    0    0  0.24421789382E-03 -0.23133214457E-01  0.52547615873E-02  0.10202062193E+01  0.10199303467E+01 0.  0.
     999903    2    3    3    0    0  0.11970331880E-01  0.54759367756E-01 -0.11405248373E+00  0.12866879722E+00  0.20144804044E-01 0.  0.
         14    1    1    2    0    0 -0.24421789382E-03  0.23133214457E-01 -0.52547615873E-02  0.23723780745E-01  0.00000000000E+00 0.  1.
     999901    1    3    3    0    0 -0.11726113986E-01 -0.77892582213E-01  0.11930724532E+00  0.89153742204E+00  0.88000000000E+00 0.  1.
        -11    1    4    4    0    0 -0.28230409766E-02  0.32698215502E-01 -0.58144077393E-01  0.66769287208E-01  0.51100000000E-03 0.  1.
         11    1    4    4    0    0  0.14793372856E-01  0.22061152254E-01 -0.55908406335E-01  0.61899510008E-01  0.51100000000E-03 0. -1.
</event>
<event>
 8    1  0.1052028E+005  0.1043930E+01  0.7957747E-01            NaN
         13   -1    0    0    0    0  0.00000000000E+00  0.00000000000E+00  0.74505805969E-08  0.10566000000E+00  0.10566000000E+00 0. -1.
     999900   -1    0    0    0    0 -0.00000000000E+00 -0.00000000000E+00 -0.74505805969E-08  0.93827000000E+00  0.93827000000E+00 0.  1.
     999902    2    1    2    0    0  0.18693965751E-01  0.16017956679E-02  0.16044305859E-01  0.10192429618E+01  0.10189439461E+01 0.  0.
     999903    2    3    3    0    0 -0.73483555717E-01  0.50164138670E-01 -0.88299423842E-01  0.12697472267E+00  0.20236555465E-01 0.  0.
         14    1    1    2    0    0 -0.18693965751E-01 -0.16017956679E-02 -0.16044305859E-01  0.24687038205E-01  0.00000000000E+00 0. -1.
     999901    1    3    3    0    0  0.92177521468E-01 -0.48562343002E-01  0.10434372970E+00  0.89226823912E+00  0.88000000000E+00 0.  1.
        -11    1    4    4    0    0 -0.56961214587E-02  0.73308260410E-02 -0.18324299110E-01  0.20548184080E-01  0.51100000000E-03 0. -1.
         11    1    4    4    0    0 -0.67787434258E-01  0.42833312629E-01 -0.69975124733E-01  0.10642653859E+00  0.51100000000E-03 0.  1.
</event>
<event>
 8    1  0.1052028E+005  0.1043930E+01  0.7957747E-01            NaN
         13   -1    0    0    0    0  0.00000000000E+00  0.00000000000E+00  0.74505805969E-08  0.10566000000E+00  0.10566000000E+00 0. -1.
     999900   -1    0    0    0    0 -0.00000000000E+00 -0.00000000000E+00 -0.74505805969E-08  0.93827000000E+00  0.93827000000E+00 0.  1.
     999902    2    1    2    0    0 -0.12519624976E-01  0.19435023200E-01  0.18922131502E-02  0.10207342761E+01  0.10204706859E+01 0.  0.
     999903    2    3    3    0    0 -0.73316333370E-01  0.61860939766E-01 -0.89846114170E-01  0.13286484942E+00  0.19459788593E-01 0.  0.
         14    1    1    2    0    0  0.12519624976E-01 -0.19435023200E-01 -0.18922131502E-02  0.23195723893E-01  0.00000000000E+00 0.  1.
     999901    1    3    3    0    0  0.60796708394E-01 -0.42425916566E-01  0.91738327320E-01  0.88786942669E+00  0.88000000000E+00 0. -1.
        -11    1    4    4    0    0 -0.33361895455E-01  0.31755476081E-01 -0.30499255686E-01  0.55243932227E-01  0.51100000000E-03 0.  1.
         11    1    4    4    0    0 -0.39954437916E-01  0.30105463684E-01 -0.59346858484E-01  0.77620917192E-01  0.51100000000E-03 0. -1.
</event>
<event>
 8    1  0.1052028E+005  0.1043930E+01  0.7957747E-01            NaN
         13   -1    0    0    0    0  0.00000000000E+00  0.00000000000E+00  0.74505805969E-08  0.10566000000E+00  0.10566000000E+00 0.  1.
     999900   -1    0    0    0    0 -0.00000000000E+00 -0.00000000000E+00 -0.74505805969E-08  0.93827000000E+00  0.93827000000E+00 0.  1.
     999902    2    1    2    0    0 -0.84793274320E-02 -0.20686114986E-01 -0.66701871556E-03  0.10215635237E+01  0.10213186446E+01 0.  0.
     999903    2    3    3    0    0 -0.36706650875E-01  0.58111290946E-02 -0.12505608750E+00  0.13197287283E+00  0.19916493230E-01 0.  0.
         14    1    1    2    0    0  0.84793274320E-02  0.20686114986E-01  0.66701871556E-03  0.22366476273E-01  0.00000000000E+00 0.  1.
     999901    1    3    3    0    0  0.28227323443E-01 -0.26497244080E-01  0.12438906878E+00  0.88959065090E+00  0.88000000000E+00 0. -1.
        -11    1    4    4    0    0 -0.17423845253E-01 -0.70196417079E-02 -0.62539944921E-01  0.65302156051E-01  0.51100000000E-03 0. -1.
         11    1    4    4    0    0 -0.19282805622E-01  0.12830770802E-01 -0.62516142577E-01  0.66670716779E-01  0.51100000000E-03 0.  1.
</event>
<event>
 8    1  0.1052028E+005  0.1043930E+01  0.7957747E-01            NaN
         13   -1    0    0    0    0  0.00000000000E+00  0.00000000000E+00  0.74505805969E-08  0.10566000000E+00  0.10566000000E+00 0.  1.
     999900   -1    0    0    0    0 -0.00000000000E+00 -0.00000000000E+00 -0.74505805969E-08  0.93827000000E+00  0.93827000000E+00 0. -1.
     999902    2    1    2    0    0  0.92464205937E-03 -0.15999248085E-01  0.15678898121E-01  0.10215099476E+01  0.10212638809E+01 0.  0.
     999903    2    3    3    0    0 -0.12068667193E+00 -0.49420900625E-01  0.12173776367E-01  0.13251129497E+00  0.20083432527E-01 0.  0.
         14    1    1    2    0    0 -0.92464205937E-03  0.15999248085E-01 -0.15678898121E-01  0.22420052375E-01  0.00000000000E+00 0. -1.
     999901    1    3    3    0    0  0.12161131399E+00  0.33421652540E-01  0.35051217538E-02  0.88899865266E+00  0.88000000000E+00 0. -1.
        -11    1    4    4    0    0 -0.20138151316E-01 -0.89161337288E-02  0.97286119605E-02  0.24082142570E-01  0.51100000000E-03 0.  1.
         11    1    4    4    0    0 -0.10054852062E+00 -0.40504766897E-01  0.24451644066E-02  0.10842915240E+00  0.51100000000E-03 0. -1.
</event>
<event>
 8    1  0.1052028E+005  0.1043930E+01  0.7957747E-01            NaN
         13   -1    0    0    0    0  0.00000000000E+00  0.00000000000E+00  0.74505805969E-08  0.10566000000E+00  0.10566000000E+00 0.  1.
     999900   -1    0    0    0    0 -0.00000000000E+00 -0.00000000000E+00 -0.74505805969E-08  0.93827000000E+00  0.93827000000E+00 0. -1.
     999902    2    1    2    0    0  0.64207069357E-02  0.21780482328E-01  0.10545477703E-02  0.10211983710E+01  0.10209453393E+01 0.  0.
     999903    2    3    3    0    0 -0.18036460575E-01  0.71517662941E-01  0.10888002151E+00  0.13288633515E+00  0.19074301093E-01 0.  0.
         14    1    1    2    0    0 -0.64207069357E-02 -0.21780482328E-01 -0.10545477703E-02  0.22731629044E-01  0.00000000000E+00 0.  1.
     999901    1    3    3    0    0  0.24457167511E-01 -0.49737180613E-01 -0.10782547374E+00  0.88831203581E+00  0.88000000000E+00 0. -1.
        -11    1    4    4    0    0 -0.13980589806E-01  0.54184241076E-01  0.66478748066E-01  0.86896915583E-01  0.51100000000E-03 0.  1.
         11    1    4    4    0    0 -0.40558707684E-02  0.17333421865E-01  0.42401273442E-01  0.45989419563E-01  0.51100000000E-03 0. -1.
</event>
<event>
 8    1  0.1052028E+005  0.1043930E+01  0.7957747E-01            NaN
         13   -1    0    0    0    0  0.00000000000E+00  0.00000000000E+00  0.74505805969E-08  0.10566000000E+00  0.10566000000E+00 0. -1.
     999900   -1    0    0    0    0 -0.00000000000E+00 -0.00000000000E+00 -0.74505805969E-08  0.93827000000E+00  0.93827000000E+00 0. -1.
     999902    2    1    2    0    0 -0.13700490822E-01  0.19162483095E-01  0.43812590669E-02  0.10199696236E+01  0.10196881550E+01 0.  0.
     999903    2    3    3    0    0  0.20713472070E-01  0.12437353157E+00 -0.34438313072E-01  0.13218550301E+00  0.19727810760E-01 0.  0.
         14    1    1    2    0    0  0.13700490822E-01 -0.19162483095E-01 -0.43812590669E-02  0.23960376419E-01  0.00000000000E+00 0.  1.
     999901    1    3    3    0    0 -0.34413962892E-01 -0.10521104848E+00  0.38819572138E-01  0.88778412057E+00  0.88000000000E+00 0. -1.
        -11    1    4    4    0    0  0.76326591718E-02  0.32011023590E-01 -0.49399334188E-03  0.32916079167E-01  0.51100000000E-03 0.  1.
         11    1    4    4    0    0  0.13080812898E-01  0.92362507980E-01 -0.33944319730E-01  0.99269423839E-01  0.51100000000E-03 0. -1.
</event>
<event>
 8    1  0.1052028E+005  0.1043930E+01  0.7957747E-01            NaN
         13   -1    0    0    0    0  0.00000000000E+00  0.00000000000E+00  0.74505805969E-08  0.10566000000E+00  0.10566000000E+00 0.  1.
     999900   -1    0    0    0    0 -0.00000000000E+00 -0.00000000000E+00 -0.74505805969E-08  0.93827000000E+00  0.93827000000E+00 0. -1.
     999902    2    1    2    0    0  0.21877826061E-01  0.75709652811E-02 -0.40843066249E-02  0.10204216962E+01  0.10201508700E+01 0.  0.
     999903    2    3    3    0    0  0.10533329539E+00 -0.45177221527E-01  0.64721539908E-01  0.13223172151E+00  0.12659620113E-01 0.  0.
         14    1    1    2    0    0 -0.21877826061E-01 -0.75709652811E-02  0.40843066249E-02  0.23508303832E-01  0.00000000000E+00 0. -1.
     999901    1    3    3    0    0 -0.83455469330E-01  0.52748186808E-01 -0.68805846533E-01  0.88818997466E+00  0.88000000000E+00 0.  1.
        -11    1    4    4    0    0  0.57059343704E-01 -0.29192015605E-01  0.30877816187E-01  0.71145225648E-01  0.51100000000E-03 0.  1.
         11    1    4    4    0    0  0.48273951688E-01 -0.15985205922E-01  0.33843723722E-01  0.61086495858E-01  0.51100000000E-03 0. -1.
</event>
<event>
 8    1  0.1052028E+005  0.1043930E+01  0.7957747E-01            NaN
         13   -1    0    0    0    0  0.00000000000E+00  0.00000000000E+00  0.74505805969E-08  0.10566000000E+00  0.10566000000E+00 0. -1.
     999900   -1    0    0    0    0 -0.00000000000E+00 -0.00000000000E+00 -0.74505805969E-08  0.93827000000E+00  0.93827000000E+00 0. -1.
     999902    2    1    2    0    0  0.17414183962E-02 -0.21719987240E-01 -0.95726483754E-02  0.10201302945E+01  0.10198526324E+01 0.  0.
     999903    2    3    3    0    0 -0.10326336281E+00  0.28287168903E-01  0.69314711436E-01  0.12897938964E+00  0.19174663151E-01 0.  0.
         14    1    1    2    0    0 -0.17414183962E-02  0.21719987240E-01  0.95726483754E-02  0.23799705474E-01  0.00000000000E+00 0. -1.
     999901    1    3    3    0    0  0.10500478121E+00 -0.50007156143E-01 -0.78887359811E-01  0.89115090489E+00  0.88000000000E+00 0.  1.
        -11    1    4    4    0    0 -0.20994597881E-01  0.60054228350E-02  0.23987047283E-01  0.32441914277E-01  0.51100000000E-03 0. -1.
         11    1    4    4    0    0 -0.82268764929E-01  0.22281746068E-01  0.45327664153E-01  0.96537475363E-01  0.51100000000E-03 0.  1.
</event>
<event>
 8    1  0.1052028E+005  0.1043930E+01  0.7957747E-01            NaN
         13   -1    0    0    0    0  0.00000000000E+00  0.00000000000E+00  0.74505805969E-08  0.10566000000E+00  0.10566000000E+00 0.  1.
     999900   -1    0    0    0    0 -0.00000000000E+00 -0.00000000000E+00 -0.74505805969E-08  0.93827000000E+00  0.93827000000E+00 0.  1.
     999902    2    1    2    0    0  0.38471927278E-02  0.22508328482E-01 -0.56494696858E-02  0.10204067721E+01  0.10201355980E+01 0.  0.
     999903    2    3    3    0    0 -0.55913157018E-01  0.71111754449E-01  0.93425503387E-01  0.13150326626E+00  0.19535137689E-01 0.  0.
         14    1    1    2    0    0 -0.38471927278E-02 -0.22508328482E-01  0.56494696858E-02  0.23523227897E-01  0.00000000000E+00 0.  1.
     999901    1    3    3    0    0  0.59760349746E-01 -0.48603425967E-01 -0.99074973073E-01  0.88890350585E+00  0.88000000000E+00 0.  1.
        -11    1    4    4    0    0 -0.28997742643E-01  0.23325002695E-01  0.44427944082E-01  0.57957123509E-01  0.51100000000E-03 0. -1.
         11    1    4    4    0    0 -0.26915414375E-01  0.47786751754E-01  0.48997559305E-01  0.73546142747E-01  0.51100000000E-03 0.  1.
</event>
<event>
 8    1  0.1052028E+005  0.1043930E+01  0.7957747E-01            NaN
         13   -1    0    0    0    0  0.00000000000E+00  0.00000000000E+00  0.74505805969E-08  0.10566000000E+00  0.10566000000E+00 0. -1.
     999900   -1    0    0    0    0 -0.00000000000E+00 -0.00000000000E+00 -0.74505805969E-08  0.93827000000E+00  0.93827000000E+00 0.  1.
     999902    2    1    2    0    0 -0.79413813365E-02  0.14420582364E-01  0.17078752413E-01  0.10202086485E+01  0.10199328331E+01 0.  0.
     999903    2    3    3    0    0  0.40561581379E-01  0.78450949584E-01 -0.92838162109E-01  0.12974014629E+00  0.20341775766E-01 0.  0.
         14    1    1    2    0    0  0.79413813365E-02 -0.14420582364E-01 -0.17078752413E-01  0.23721351505E-01  0.00000000000E+00 0.  1.
     999901    1    3    3    0    0 -0.48502962716E-01 -0.64030367220E-01  0.10991691452E+00  0.89046850220E+00  0.88000000000E+00 0. -1.
        -11    1    4    4    0    0  0.11897497937E-01  0.16496916866E-01 -0.33973712965E-01  0.39600164354E-01  0.51100000000E-03 0. -1.
         11    1    4    4    0    0  0.28664083443E-01  0.61954032718E-01 -0.58864449144E-01  0.90139981937E-01  0.51100000000E-03 0.  1.
</event>
<event>
 8    1  0.1052028E+005  0.1043930E+01  0.7957747E-01            NaN
         13   -1    0    0    0    0  0.00000000000E+00  0.00000000000E+00  0.74505805969E-08  0.10566000000E+00  0.10566000000E+00 0. -1.
     999900   -1    0    0    0    0 -0.00000000000E+00 -0.00000000000E+00 -0.74505805969E-08  0.93827000000E+00  0.93827000000E+00 0.  1.
     999902    2    1    2    0    0  0.17627584850E-01 -0.15814966657E-01 -0.52548652583E-02  0.10196718359E+01  0.10193832421E+01 0.  0.
     999903    2    3    3    0    0 -0.29708099329E-01  0.11636412689E+00  0.37449145621E-01  0.12751959981E+00  0.20871718511E-01 0.  0.
         14    1    1    2    0    0 -0.17627584850E-01  0.15814966657E-01  0.52548652583E-02  0.24258164128E-01  0.00000000000E+00 0. -1.
     999901    1    3    3    0    0  0.47335684179E-01 -0.13217909355E+00 -0.42704010879E-01  0.89215223606E+00  0.88000000000E+00 0. -1.
        -11    1    4    4    0    0 -0.14816017388E-01  0.44601081508E-01  0.24801288166E-01  0.53142599283E-01  0.51100000000E-03 0. -1.
         11    1    4    4    0    0 -0.14892081941E-01  0.71763045387E-01  0.12647857455E-01  0.74377000524E-01  0.51100000000E-03 0.  1.
</event>
<event>
 8    1  0.1052028E+005  0.1043930E+01  0.7957747E-01            NaN
         13   -1    0    0    0    0  0.00000000000E+00  0.00000000000E+00  0.74505805969E-08  0.10566000000E+00  0.10566000000E+00 0.  1.
     999900   -1    0    0    0    0 -0.00000000000E+00 -0.00000000000E+00 -0.74505805969E-08  0.93827000000E+00  0.93827000000E+00 0. -1.
     999902    2    1    2    0    0  0.12286340462E-01 -0.18644320810E-01 -0.68964751678E-02  0.10205606562E+01  0.10202930592E+01 0.  0.
     999903    2    3    3    0    0 -0.89526143332E-01  0.60496762862E-01  0.66159392750E-01  0.12816710354E+00  0.19363690838E-01 0.  0.
         14    1    1    2    0    0 -0.12286340462E-01  0.18644320810E-01  0.68964751678E-02  0.23369343811E-01  0.00000000000E+00 0.  1.
     999901    1    3    3    0    0  0.10181248379E+00 -0.79141083673E-01 -0.73055867918E-01  0.89239355265E+00  0.88000000000E+00 0. -1.
        -11    1    4    4    0    0 -0.49039824799E-01  0.39851490883E-01  0.47420437463E-01  0.79006358935E-01  0.51100000000E-03 0.  1.
         11    1    4    4    0    0 -0.40486318533E-01  0.20645271979E-01  0.18738955287E-01  0.49160744601E-01  0.51100000000E-03 0. -1.
</event>
<event>
 7    1  0.1124749E+005  0.1043930E+01  0.7957747E-01            NaN
         13   -1    0    0    0    0  0.00000000000E+00  0.00000000000E+00  0.74505805969E-08  0.10566000000E+00  0.10566000000E+00 0.  1.
     999900   -1    0    0    0    0 -0.00000000000E+00 -0.00000000000E+00 -0.74505805969E-08  0.93827000000E+00  0.93827000000E+00 0. -1.
     999903    2    1    2    0    0 -0.27760269432E-01 -0.28301542758E-01  0.10244556743E+00  0.11179963253E+00  0.20795520339E-01 0.  0.
         14    1    1    2    0    0 -0.30762306036E-01  0.25762176017E-01 -0.23873218802E-01  0.46689825034E-01  0.00000000000E+00 0. -1.
     999901    1    1    2    0    0  0.58522575467E-01  0.25393667406E-02 -0.78572348627E-01  0.88544054244E+00  0.88000000000E+00 0. -1.
        -11    1    3    3    0    0 -0.24357282722E-01 -0.11060371894E-01  0.54056246697E-01  0.60315404135E-01  0.51100000000E-03 0.  1.
         11    1    3    3    0    0 -0.34029867101E-02 -0.17241170864E-01  0.48389320732E-01  0.51484228393E-01  0.51100000000E-03 0. -1.
</event>
<event>
 8    1  0.1052028E+005  0.1043930E+01  0.7957747E-01            NaN
         13   -1    0    0    0    0  0.00000000000E+00  0.00000000000E+00  0.74505805969E-08  0.10566000000E+00  0.10566000000E+00 0.  1.
     999900   -1    0    0    0    0 -0.00000000000E+00 -0.00000000000E+00 -0.74505805969E-08  0.93827000000E+00  0.93827000000E+00 0. -1.
     999902    2    1    2    0    0  0.25215953114E-01 -0.40515205293E-02  0.31727867657E-02  0.10181943110E+01  0.10178690139E+01 0.  0.
     999903    2    3    3    0    0 -0.61435734104E-01 -0.61073146992E-01  0.91639341175E-01  0.12769652215E+00  0.20108560602E-01 0.  0.
         14    1    1    2    0    0 -0.25215953114E-01  0.40515205293E-02 -0.31727867657E-02  0.25735688954E-01  0.00000000000E+00 0.  1.
     999901    1    3    3    0    0  0.86651687219E-01  0.57021626463E-01 -0.88466554409E-01  0.89049778890E+00  0.88000000000E+00 0. -1.
        -11    1    4    4    0    0 -0.33165478748E-01 -0.46026325803E-01  0.54752980854E-01  0.78844921720E-01  0.51100000000E-03 0. -1.
         11    1    4    4    0    0 -0.28270255356E-01 -0.15046821189E-01  0.36886360320E-01  0.48851600429E-01  0.51100000000E-03 0.  1.
</event>
<event>
 8    1  0.1052028E+005  0.1043930E+01  0.7957747E-01            NaN
         13   -1    0    0    0    0  0.00000000000E+00  0.00000000000E+00  0.74505805969E-08  0.10566000000E+00  0.10566000000E+00 0.  1.
     999900   -1    0    0    0    0 -0.00000000000E+00 -0.00000000000E+00 -0.74505805969E-08  0.93827000000E+00  0.93827000000E+00 0.  1.
     999902    2    1    2    0    0  0.11372449164E-01  0.20550188977E-01 -0.35888642649E-02  0.10201703112E+01  0.10198935930E+01 0.  0.
     999903    2    3    3    0    0  0.11002223756E+00  0.33553274968E-01  0.61942955220E-01  0.13214143755E+00  0.19842247853E-01 0.  0.
         14    1    1    2    0    0 -0.11372449164E-01 -0.20550188977E-01  0.35888642649E-02  0.23759688838E-01  0.00000000000E+00 0.  1.
     999901    1    3    3    0    0 -0.98649788391E-01 -0.13003085991E-01 -0.65531819485E-01  0.88802887361E+00  0.88000000000E+00 0. -1.
        -11    1    4    4    0    0  0.32487047811E-01  0.16863891135E-01  0.26923646749E-01  0.45441643620E-01  0.51100000000E-03 0.  1.
         11    1    4    4    0    0  0.77535189744E-01  0.16689383833E-01  0.35019308472E-01  0.86699793934E-01  0.51100000000E-03 0. -1.
</event>
<event>
 8    1  0.1052028E+005  0.1043930E+01  0.7957747E-01            NaN
         13   -1    0    0    0    0  0.00000000000E+00  0.00000000000E+00  0.74505805969E-08  0.10566000000E+00  0.10566000000E+00 0.  1.
     999900   -1    0    0    0    0 -0.00000000000E+00 -0.00000000000E+00 -0.74505805969E-08  0.93827000000E+00  0.93827000000E+00 0.  1.
     999902    2    1    2    0    0 -0.52080265759E-02 -0.29038536631E-02  0.23631722009E-01  0.10195575936E+01  0.10192662422E+01 0.  0.
     999903    2    3    3    0    0 -0.50266931254E-01 -0.20758403529E-01 -0.11373897481E+00  0.12758237078E+00  0.19571184129E-01 0.  0.
         14    1    1    2    0    0  0.52080265759E-02  0.29038536631E-02 -0.23631722009E-01  0.24372406365E-01  0.00000000000E+00 0. -1.
     999901    1    3    3    0    0  0.45058904678E-01  0.17854549866E-01  0.13737069682E+00  0.89197522285E+00  0.88000000000E+00 0. -1.
        -11    1    4    4    0    0 -0.49550619466E-03 -0.55188107998E-02 -0.14253941457E-01  0.15301593613E-01  0.51100000000E-03 0. -1.
         11    1    4    4    0    0 -0.49771425059E-01 -0.15239592729E-01 -0.99485033354E-01  0.11228077717E+00  0.51100000000E-03 0.  1.
</event>
<event>
 8    1  0.1052028E+005  0.1043930E+01  0.7957747E-01            NaN
         13   -1    0    0    0    0  0.00000000000E+00  0.00000000000E+00  0.74505805969E-08  0.10566000000E+00  0.10566000000E+00 0.  1.
     999900   -1    0    0    0    0 -0.00000000000E+00 -0.00000000000E+00 -0.74505805969E-08  0.93827000000E+00  0.93827000000E+00 0.  1.
     999902    2    1    2    0    0  0.74216478959E-02 -0.17828819215E-01 -0.13752605668E-01  0.10202217353E+01  0.10199462277E+01 0.  0.
     999903    2    3    3    0    0 -0.10645271086E+00  0.46735627621E-02  0.69372180216E-01  0.12871544996E+00  0.20028625340E-01 0.  0.
         14    1    1    2    0    0 -0.74216478959E-02  0.17828819215E-01  0.13752605668E-01  0.23708264693E-01  0.00000000000E+00 0. -1.
     999901    1    3    3    0    0  0.11387435876E+00 -0.22502381978E-01 -0.83124785883E-01  0.89150628534E+00  0.88000000000E+00 0.  1.
        -11    1    4    4    0    0 -0.74712926344E-01  0.45097611097E-02  0.37451346964E-01  0.83697215118E-01  0.51100000000E-03 0.  1.
         11    1    4    4    0    0 -0.31739784518E-01  0.16380165242E-03  0.31920833251E-01  0.45018234846E-01  0.51100000000E-03 0. -1.
</event>
<event>
 8    1  0.1052028E+005  0.1043930E+01  0.7957747E-01            NaN
         13   -1    0    0    0    0  0.00000000000E+00  0.00000000000E+00  0.74505805969E-08  0.10566000000E+00  0.10566000000E+00 0. -1.
     999900   -1    0    0    0    0 -0.00000000000E+00 -0.00000000000E+00 -0.74505805969E-08  0.93827000000E+00  0.93827000000E+00 0.  1.
     999902    2    1    2    0    0 -0.18918965952E-01  0.91534268740E-02 -0.10839897010E-01  0.10202822546E+01  0.10200081682E+01 0.  0.
     999903    2    3    3    0    0  0.58031743121E-01 -0.67661948391E-01 -0.92216503592E-01  0.12986428216E+00  0.20372181456E-01 0.  0.
         14    1    1    2    0    0  0.18918965952E-01 -0.91534268740E-02  0.10839897010E-01  0.23647745420E-01  0.00000000000E+00 0. -1.
     999901    1    3    3    0    0 -0.76950709074E-01  0.76815375265E-01  0.81376606582E-01  0.89041797242E+00  0.88000000000E+00 0. -1.
        -11    1    4    4    0    0  0.39944411415E-01 -0.47911700232E-01 -0.76858859090E-01  0.98988041521E-01  0.51100000000E-03 0.  1.
         11    1    4    4    0    0  0.18087331706E-01 -0.19750248159E-01 -0.15357644502E-01  0.30876240643E-01  0.51100000000E-03 0. -1.
</event>
<event>
 8    1  0.1052028E+005  0.1043930E+01  0.7957747E-01            NaN
         13   -1    0    0    0    0  0.00000000000E+00  0.00000000000E+00  0.74505805969E-08  0.10566000000E+00  0.10566000000E+00 0.  1.
     999900   -1    0    0    0    0 -0.00000000000E+00 -0.00000000000E+00 -0.74505805969E-08  0.93827000000E+00  0.93827000000E+00 0.  1.
     999902    2    1    2    0    0  0.10004496518E-01 -0.52712020527E-02  0.20898792073E-01  0.10201679498E+01  0.10198911759E+01 0.  0.
     999903    2    3    3    0    0  0.12357418228E+00  0.34317591225E-01 -0.20957786552E-01  0.13100130663E+00  0.16548049082E-01 0.  0.
         14    1    1    2    0    0 -0.10004496518E-01  0.52712020527E-02 -0.20898792073E-01  0.23762050243E-01  0.00000000000E+00 0.  1.
     999901    1    3    3    0    0 -0.11356968576E+00 -0.39588793277E-01  0.41856578625E-01  0.88916664313E+00  0.88000000000E+00 0. -1.
        -11    1    4    4    0    0  0.68125606249E-01  0.15343414960E-01 -0.18950650648E-01  0.72359566682E-01  0.51100000000E-03 0. -1.
         11    1    4    4    0    0  0.55448576028E-01  0.18974176265E-01 -0.20071359038E-02  0.58641739947E-01  0.51100000000E-03 0.  1.
</event>
<event>
 8    1  0.1057189E+005  0.1043930E+01  0.7957747E-01            NaN
         13   -1    0    0    0    0  0.00000000000E+00  0.00000000000E+00  0.74505805969E-08  0.10566000000E+00  0.10566000000E+00 0.  1.
     999900   -1    0    0    0    0 -0.00000000000E+00 -0.00000000000E+00 -0.74505805969E-08  0.93827000000E+00  0.93827000000E+00 0.  1.
     999902    2    1    2    0    0  0.83287425166E-02 -0.32100523703E-03  0.21786989898E-01  0.10206031073E+01  0.10203364928E+01 0.  0.
     999903    2    3    3    0    0  0.57225102183E-01 -0.36769113764E-01  0.11341452716E+00  0.13374634081E+00  0.19963683611E-01 0.  0.
         14    1    1    2    0    0 -0.83287425166E-02  0.32100523703E-03 -0.21786989898E-01  0.23326892743E-01  0.00000000000E+00 0. -1.
     999901    1    3    3    0    0 -0.48896359667E-01  0.36448108527E-01 -0.91627537260E-01  0.88685676644E+00  0.88000000000E+00 0.  1.
        -11    1    4    4    0    0  0.35431768718E-01 -0.24680601801E-01  0.88653450421E-01  0.98611549690E-01  0.51100000000E-03 0.  1.
         11    1    4    4    0    0  0.21793333466E-01 -0.12088511963E-01  0.24761076737E-01  0.35134791122E-01  0.51100000000E-03 0. -1.
</event>
<event>
 8    1  0.1052028E+005  0.1043930E+01  0.7957747E-01            NaN
         13   -1    0    0    0    0  0.00000000000E+00  0.00000000000E+00  0.74505805969E-08  0.10566000000E+00  0.10566000000E+00 0. -1.
     999900   -1    0    0    0    0 -0.00000000000E+00 -0.00000000000E+00 -0.74505805969E-08  0.93827000000E+00  0.93827000000E+00 0. -1.
     999902    2    1    2    0    0 -0.17417694266E-01  0.18378778991E-01  0.73383050308E-02  0.10175670276E+01  0.10172254664E+01 0.  0.
     999903    2    3    3    0    0  0.24863026212E-01 -0.42801585857E-01  0.11604581928E+00  0.12776479118E+00  0.20175823860E-01 0.  0.
         14    1    1    2    0    0  0.17417694266E-01 -0.18378778991E-01 -0.73383050308E-02  0.26362972357E-01  0.00000000000E+00 0.  1.
     999901    1    3    3    0    0 -0.42280720478E-01  0.61180364849E-01 -0.10870751425E+00  0.88980223647E+00  0.88000000000E+00 0. -1.
        -11    1    4    4    0    0  0.12554376845E-01 -0.32919670216E-01  0.95887551461E-01  0.10215674579E+00  0.51100000000E-03 0.  1.
         11    1    4    4    0    0  0.12308649367E-01 -0.98819156411E-02  0.20158267817E-01  0.25608045383E-01  0.51100000000E-03 0. -1.
</event>
<event>
 8    1  0.1052028E+005  0.1043930E+01  0.7957747E-01            NaN
         13   -1    0    0    0    0  0.00000000000E+00  0.00000000000E+00  0.74505805969E-08  0.10566000000E+00  0.10566000000E+00 0.  1.
     999900   -1    0    0    0    0 -0.00000000000E+00 -0.00000000000E+00 -0.74505805969E-08  0.93827000000E+00  0.93827000000E+00 0. -1.
     999902    2    1    2    0    0 -0.10358737051E-01 -0.17774688463E-01  0.10678499089E-01  0.10207508429E+01  0.10204876334E+01 0.  0.
     999903    2    3    3    0    0 -0.13449550100E-01  0.12550717330E+00  0.19286529801E-01  0.12911563537E+00  0.19129456811E-01 0.  0.
         14    1    1    2    0    0  0.10358737051E-01  0.17774688463E-01 -0.10678499089E-01  0.23179157147E-01  0.00000000000E+00 0.  1.
     999901    1    3    3    0    0  0.30908130497E-02 -0.14328186176E+00 -0.86080307118E-02  0.89163520749E+00  0.88000000000E+00 0. -1.
        -11    1    4    4    0    0  0.30822788418E-03  0.78666639996E-01  0.15192222698E-01  0.80122406381E-01  0.51100000000E-03 0. -1.
         11    1    4    4    0    0 -0.13757777985E-01  0.46840533301E-01  0.40943071024E-02  0.48993228987E-01  0.51100000000E-03 0.  1.
</event>
<event>
 7    1  0.1711326E+005  0.1043930E+01  0.7957747E-01            NaN
         13   -1    0    0    0    0  0.00000000000E+00  0.00000000000E+00  0.74505805969E-08  0.10566000000E+00  0.10566000000E+00 0. -1.
     999900   -1    0    0    0    0 -0.00000000000E+00 -0.00000000000E+00 -0.74505805969E-08  0.93827000000E+00  0.93827000000E+00 0. -1.
     999903    2    1    2    0    0  0.41392189031E-01  0.58324495591E-01  0.60439886276E-01  0.95841716538E-01  0.20435133405E-01 0.  0.
         14    1    1    2    0    0  0.72757570277E-02  0.27761004790E-01 -0.55561902444E-01  0.62535869950E-01  0.00000000000E+00 0.  1.
     999901    1    1    2    0    0 -0.48667946058E-01 -0.86085500381E-01 -0.48779838318E-02  0.88555241351E+00  0.88000000000E+00 0. -1.
        -11    1    3    3    0    0  0.13602143028E-01  0.31119855194E-01  0.37884780917E-01  0.50882034437E-01  0.51100000000E-03 0. -1.
         11    1    3    3    0    0  0.27790046003E-01  0.27204640397E-01  0.22555105358E-01  0.44959682102E-01  0.51100000000E-03 0.  1.
</event>
<event>
 8    1  0.1052028E+005  0.1043930E+01  0.7957747E-01            NaN
         13   -1    0    0    0    0  0.00000000000E+00  0.00000000000E+00  0.74505805969E-08  0.10566000000E+00  0.10566000000E+00 0.  1.
     999900   -1    0    0    0    0 -0.00000000000E+00 -0.00000000000E+00 -0.74505805969E-08  0.93827000000E+00  0.93827000000E+00 0.  1.
     999902    2    1    2    0    0  0.31278388472E-03  0.22369882273E-01 -0.82056985819E-02  0.10201005444E+01  0.10198221794E+01 0.  0.
     999903    2    3    3    0    0  0.11669920344E+00 -0.37383189695E-01 -0.37445306384E-01  0.12994820744E+00  0.21637437284E-01 0.  0.
         14    1    1    2    0    0 -0.31278388472E-03 -0.22369882273E-01  0.82056985819E-02  0.23829455636E-01  0.00000000000E+00 0.  1.
     999901    1    3    3    0    0 -0.11638641955E+00  0.59753071969E-01  0.29239607802E-01  0.89015233692E+00  0.88000000000E+00 0. -1.
        -11    1    4    4    0    0  0.93491044507E-01 -0.25966141658E-01 -0.20950022366E-01  0.99267217518E-01  0.51100000000E-03 0. -1.
         11    1    4    4    0    0  0.23208158930E-01 -0.11417048038E-01 -0.16495284018E-01  0.30680989923E-01  0.51100000000E-03 0.  1.
</event>
<event>
 8    1  0.1052028E+005  0.1043930E+01  0.7957747E-01            NaN
         13   -1    0    0    0    0  0.00000000000E+00  0.00000000000E+00  0.74505805969E-08  0.10566000000E+00  0.10566000000E+00 0.  1.
     999900   -1    0    0    0    0 -0.00000000000E+00 -0.00000000000E+00 -0.74505805969E-08  0.93827000000E+00  0.93827000000E+00 0. -1.
     999902    2    1    2    0    0  0.17911269751E-02 -0.22296237072E-01  0.85145155741E-02  0.10199961892E+01  0.10197153518E+01 0.  0.
     999903    2    3    3    0    0 -0.88336557301E-01 -0.57183783736E-01  0.77051008130E-01  0.13205621872E+00  0.20703974750E-01 0.  0.
         14    1    1    2    0    0 -0.17911269751E-02  0.22296237072E-01 -0.85145155741E-02  0.23933810789E-01  0.00000000000E+00 0. -1.
     999901    1    3    3    0    0  0.90127684276E-01  0.34887546664E-01 -0.68536492556E-01  0.88793997049E+00  0.88000000000E+00 0. -1.
        -11    1    4    4    0    0 -0.62606052737E-02 -0.47662594593E-02  0.17495402460E-04  0.78850386629E-02  0.51100000000E-03 0.  1.
         11    1    4    4    0    0 -0.82075952027E-01 -0.52417524277E-01  0.77033512727E-01  0.12417118006E+00  0.51100000000E-03 0. -1.
</event>
<event>
 8    1  0.1052028E+005  0.1043930E+01  0.7957747E-01            NaN
         13   -1    0    0    0    0  0.00000000000E+00  0.00000000000E+00  0.74505805969E-08  0.10566000000E+00  0.10566000000E+00 0. -1.
     999900   -1    0    0    0    0 -0.00000000000E+00 -0.00000000000E+00 -0.74505805969E-08  0.93827000000E+00  0.93827000000E+00 0. -1.
     999902    2    1    2    0    0  0.66986765659E-02 -0.14914994683E-01 -0.17914962564E-01  0.10196756145E+01  0.10193871117E+01 0.  0.
     999903    2    3    3    0    0 -0.40465554217E-01  0.96416810236E-01  0.69092917326E-01  0.12715692748E+00  0.21480004825E-01 0.  0.
         14    1    1    2    0    0 -0.66986765659E-02  0.14914994683E-01  0.17914962564E-01  0.24254385537E-01  0.00000000000E+00 0. -1.
     999901    1    3    3    0    0  0.47164230783E-01 -0.11133180492E+00 -0.87007879890E-01  0.89251868698E+00  0.88000000000E+00 0. -1.
        -11    1    4    4    0    0 -0.28063296926E-01  0.66606907230E-01  0.59069291952E-01  0.93345975264E-01  0.51100000000E-03 0. -1.
         11    1    4    4    0    0 -0.12402257291E-01  0.29809903006E-01  0.10023625373E-01  0.33810952216E-01  0.51100000000E-03 0.  1.
</event>
<event>
 8    1  0.1052028E+005  0.1043930E+01  0.7957747E-01            NaN
         13   -1    0    0    0    0  0.00000000000E+00  0.00000000000E+00  0.74505805969E-08  0.10566000000E+00  0.10566000000E+00 0. -1.
     999900   -1    0    0    0    0 -0.00000000000E+00 -0.00000000000E+00 -0.74505805969E-08  0.93827000000E+00  0.93827000000E+00 0.  1.
     999902    2    1    2    0    0 -0.39458153140E-02  0.57286883394E-02 -0.18038989391E-01  0.10245962868E+01  0.10244138609E+01 0.  0.
     999903    2    3    3    0    0 -0.81641722483E-01  0.38933744292E-01  0.92867278175E-01  0.13361961485E+00  0.32383063840E-01 0.  0.
         14    1    1    2    0    0  0.39458153140E-02 -0.57286883394E-02  0.18038989391E-01  0.19333713219E-01  0.00000000000E+00 0. -1.
     999901    1    3    3    0    0  0.77695907169E-01 -0.33205055953E-01 -0.11090626757E+00  0.89097667193E+00  0.88000000000E+00 0.  1.
        -11    1    4    4    0    0 -0.34706914458E-01  0.27266235174E-01  0.62484937356E-01  0.76502588251E-01  0.51100000000E-03 0. -1.
         11    1    4    4    0    0 -0.46934808026E-01  0.11667509118E-01  0.30382340819E-01  0.57117026604E-01  0.51100000000E-03 0.  1.
</event>
<event>
 8    1  0.1052028E+005  0.1043930E+01  0.7957747E-01            NaN
         13   -1    0    0    0    0  0.00000000000E+00  0.00000000000E+00  0.74505805969E-08  0.10566000000E+00  0.10566000000E+00 0.  1.
     999900   -1    0    0    0    0 -0.00000000000E+00 -0.00000000000E+00 -0.74505805969E-08  0.93827000000E+00  0.93827000000E+00 0. -1.
     999902    2    1    2    0    0  0.15659008447E-01  0.18944684101E-01  0.27799368247E-02  0.10191947286E+01  0.10188945290E+01 0.  0.
     999903    2    3    3    0    0 -0.94969585895E-01  0.67578310008E-01  0.53010728262E-01  0.12951667008E+00  0.19451999597E-01 0.  0.
         14    1    1    2    0    0 -0.15659008447E-01 -0.18944684101E-01 -0.27799368247E-02  0.24735271375E-01  0.00000000000E+00 0.  1.
     999901    1    3    3    0    0  0.11062859434E+00 -0.48633625907E-01 -0.50230791437E-01  0.88967805855E+00  0.88000000000E+00 0.  1.
        -11    1    4    4    0    0 -0.57162393558E-01  0.49542830341E-01  0.40453404055E-01  0.85783275154E-01  0.51100000000E-03 0.  1.
         11    1    4    4    0    0 -0.37807192337E-01  0.18035479666E-01  0.12557324206E-01  0.43733394922E-01  0.51100000000E-03 0. -1.
</event>
<event>
 8    1  0.1052028E+005  0.1043930E+01  0.7957747E-01            NaN
         13   -1    0    0    0    0  0.00000000000E+00  0.00000000000E+00  0.74505805969E-08  0.10566000000E+00  0.10566000000E+00 0.  1.
     999900   -1    0    0    0    0 -0.00000000000E+00 -0.00000000000E+00 -0.74505805969E-08  0.93827000000E+00  0.93827000000E+00 0. -1.
     999902    2    1    2    0    0  0.16193977137E-01  0.16739786195E-01 -0.23794354399E-03  0.10206378993E+01  0.10203720888E+01 0.  0.
     999903    2    3    3    0    0  0.68852030505E-01 -0.34551330972E-01  0.10446401837E+00  0.13138756891E+00  0.20385425064E-01 0.  0.
         14    1    1    2    0    0 -0.16193977137E-01 -0.16739786195E-01  0.23794354399E-03  0.23292100689E-01  0.00000000000E+00 0.  1.
     999901    1    3    3    0    0 -0.52658053368E-01  0.51291117166E-01 -0.10470196191E+00  0.88925033040E+00  0.88000000000E+00 0. -1.
        -11    1    4    4    0    0  0.46371217539E-01 -0.31573540668E-01  0.64943174783E-01  0.85819900713E-01  0.51100000000E-03 0.  1.
         11    1    4    4    0    0  0.22480812966E-01 -0.29777903036E-02  0.39520843584E-01  0.45567668201E-01  0.51100000000E-03 0. -1.
</event>
<event>
 8    1  0.1052028E+005  0.1043930E+01  0.7957747E-01            NaN
         13   -1    0    0    0    0  0.00000000000E+00  0.00000000000E+00  0.74505805969E-08  0.10566000000E+00  0.10566000000E+00 0.  1.
     999900   -1    0    0    0    0 -0.00000000000E+00 -0.00000000000E+00 -0.74505805969E-08  0.93827000000E+00  0.93827000000E+00 0. -1.
     999902    2    1    2    0    0  0.70366663878E-02 -0.82591810374E-02 -0.20267095051E-01  0.10209412226E+01  0.10206823679E+01 0.  0.
     999903    2    3    3    0    0 -0.16279504155E-01 -0.12502404984E+00 -0.36804207687E-01  0.13276829207E+00  0.19412222507E-01 0.  0.
         14    1    1    2    0    0 -0.70366663878E-02  0.82591810374E-02  0.20267095051E-01  0.22988777416E-01  0.00000000000E+00 0.  1.
     999901    1    3    3    0    0  0.23316170543E-01  0.11676486880E+00  0.16537112635E-01  0.88817293051E+00  0.88000000000E+00 0. -1.
        -11    1    4    4    0    0 -0.14767487822E-01 -0.80785870001E-01 -0.15239551964E-01  0.83528082424E-01  0.51100000000E-03 0.  1.
         11    1    4    4    0    0 -0.15120163330E-02 -0.44238179841E-01 -0.21564655723E-01  0.49240209651E-01  0.51100000000E-03 0. -1.
</event>
<event>
 8    1  0.1052028E+005  0.1043930E+01  0.7957747E-01            NaN
         13   -1    0    0    0    0  0.00000000000E+00  0.00000000000E+00  0.74505805969E-08  0.10566000000E+00  0.10566000000E+00 0. -1.
     999900   -1    0    0    0    0 -0.00000000000E+00 -0.00000000000E+00 -0.74505805969E-08  0.93827000000E+00  0.93827000000E+00 0. -1.
     999902    2    1    2    0    0 -0.15876329489E-01 -0.17449019949E-01  0.34174071019E-02  0.10200929531E+01  0.10198144086E+01 0.  0.
     999903    2    3    3    0    0 -0.15704989181E-01 -0.13041647953E+00  0.65444328113E-02  0.13286611929E+00  0.18853944854E-01 0.  0.
         14    1    1    2    0    0  0.15876329489E-01  0.17449019949E-01 -0.34174071019E-02  0.23837046934E-01  0.00000000000E+00 0. -1.
     999901    1    3    3    0    0 -0.17134030807E-03  0.11296745958E+00 -0.31270257094E-02  0.88722683378E+00  0.88000000000E+00 0.  1.
        -11    1    4    4    0    0  0.38243554062E-02 -0.16096578837E-01 -0.14361532965E-02  0.16614728461E-01  0.51100000000E-03 0. -1.
         11    1    4    4    0    0 -0.19529344587E-01 -0.11431990069E+00  0.79805861078E-02  0.11625139083E+00  0.51100000000E-03 0.  1.
</event>
<event>
 8    1  0.1052028E+005  0.1043930E+01  0.7957747E-01            NaN
         13   -1    0    0    0    0  0.00000000000E+00  0.00000000000E+00  0.74505805969E-08  0.10566000000E+00  0.10566000000E+00 0. -1.
     999900   -1    0    0    0    0 -0.00000000000E+00 -0.00000000000E+00 -0.74505805969E-08  0.93827000000E+00  0.93827000000E+00 0. -1.
     999902    2    1    2    0    0 -0.23380791887E-01 -0.29048972346E-02  0.51463011612E-02  0.10198139416E+01  0.10195287594E+01 0.  0.
     999903    2    3    3    0    0 -0.54311715164E-01 -0.76136082697E-01 -0.89558098277E-01  0.13116977670E+00  0.20937809327E-01 0.  0.
         14    1    1    2    0    0  0.23380791887E-01  0.29048972346E-02 -0.51463011612E-02  0.24116058402E-01  0.00000000000E+00 0. -1.
     999901    1    3    3    0    0  0.30930923277E-01  0.73231185462E-01  0.94704399438E-01  0.88864416490E+00  0.88000000000E+00 0.  1.
        -11    1    4    4    0    0 -0.13381625411E-01 -0.24253792485E-01 -0.14875141561E-01  0.31445910799E-01  0.51100000000E-03 0.  1.
         11    1    4    4    0    0 -0.40930089753E-01 -0.51882290212E-01 -0.74682956716E-01  0.99723865898E-01  0.51100000000E-03 0. -1.
</event>
<event>
 8    1  0.1052028E+005  0.1043930E+01  0.7957747E-01            NaN
         13   -1    0    0    0    0  0.00000000000E+00  0.00000000000E+00  0.74505805969E-08  0.10566000000E+00  0.10566000000E+00 0.  1.
     999900   -1    0    0    0    0 -0.00000000000E+00 -0.00000000000E+00 -0.74505805969E-08  0.93827000000E+00  0.93827000000E+00 0. -1.
     999902    2    1    2    0    0 -0.69723791969E-02 -0.10838899322E-01 -0.20371102630E-01  0.10198244481E+01  0.10195395173E+01 0.  0.
     999903    2    3    3    0    0  0.51052053248E-01 -0.59429236279E-01  0.99853069611E-01  0.12843132091E+00  0.19642362750E-01 0.  0.
         14    1    1    2    0    0  0.69723791969E-02  0.10838899322E-01  0.20371102630E-01  0.24105551903E-01  0.00000000000E+00 0.  1.
     999901    1    3    3    0    0 -0.58024432445E-01  0.48590336957E-01 -0.12022417224E+00  0.89139312719E+00  0.88000000000E+00 0. -1.
        -11    1    4    4    0    0  0.26238009620E-01 -0.35831301015E-01  0.70513677506E-01  0.83335197351E-01  0.51100000000E-03 0. -1.
         11    1    4    4    0    0  0.24814043627E-01 -0.23597935264E-01  0.29339392105E-01  0.45096123559E-01  0.51100000000E-03 0.  1.
</event>
<event>
 8    1  0.1052028E+005  0.1043930E+01  0.7957747E-01            NaN
         13   -1    0    0    0    0  0.00000000000E+00  0.00000000000E+00  0.74505805969E-08  0.10566000000E+00  0.10566000000E+00 0. -1.
     999900   -1    0    0    0    0 -0.00000000000E+00 -0.00000000000E+00 -0.74505805969E-08  0.93827000000E+00  0.93827000000E+00 0. -1.
     999902    2    1    2    0    0 -0.11631868304E-01 -0.92420719385E-02  0.15446303540E-01  0.10224986084E+01  0.10222739846E+01 0.  0.
     999903    2    3    3    0    0 -0.46907533266E-01  0.93322085127E-01 -0.78447031595E-01  0.13088224623E+00  0.81790808569E-02 0.  0.
         14    1    1    2    0    0  0.11631868304E-01  0.92420719385E-02 -0.15446303540E-01  0.21431391626E-01  0.00000000000E+00 0.  1.
     999901    1    3    3    0    0  0.35275664962E-01 -0.10256415707E+00  0.93893335135E-01  0.89161636214E+00  0.88000000000E+00 0.  1.
        -11    1    4    4    0    0 -0.25232563995E-01  0.54486267511E-01 -0.40642129367E-01  0.72508478356E-01  0.51100000000E-03 0.  1.
         11    1    4    4    0    0 -0.21674969272E-01  0.38835817616E-01 -0.37804902228E-01  0.58373767878E-01  0.51100000000E-03 0. -1.
</event>
<event>
 8    1  0.1052028E+005  0.1043930E+01  0.7957747E-01            NaN
         13   -1    0    0    0    0  0.00000000000E+00  0.00000000000E+00  0.74505805969E-08  0.10566000000E+00  0.10566000000E+00 0. -1.
     999900   -1    0    0    0    0 -0.00000000000E+00 -0.00000000000E+00 -0.74505805969E-08  0.93827000000E+00  0.93827000000E+00 0. -1.
     999902    2    1    2    0    0 -0.41551099140E-02 -0.44447719253E-02  0.20865300151E-01  0.10221956565E+01  0.10219645681E+01 0.  0.
     999903    2    3    3    0    0 -0.82065626556E-01 -0.98961839682E-01  0.30419950351E-01  0.13366044842E+00  0.20286185388E-01 0.  0.
         14    1    1    2    0    0  0.41551099140E-02  0.44447719253E-02 -0.20865300151E-01  0.21734343474E-01  0.00000000000E+00 0.  1.
     999901    1    3    3    0    0  0.77910516642E-01  0.94517067757E-01 -0.95546501997E-02  0.88853520810E+00  0.88000000000E+00 0.  1.
        -11    1    4    4    0    0 -0.23043219077E-01 -0.20189588781E-01  0.22039629553E-04  0.30641002714E-01  0.51100000000E-03 0.  1.
         11    1    4    4    0    0 -0.59022407479E-01 -0.78772250901E-01  0.30397910721E-01  0.10301944571E+00  0.51100000000E-03 0. -1.
</event>
<event>
 8    1  0.1052028E+005  0.1043930E+01  0.7957747E-01            NaN
         13   -1    0    0    0    0  0.00000000000E+00  0.00000000000E+00  0.74505805969E-08  0.10566000000E+00  0.10566000000E+00 0.  1.
     999900   -1    0    0    0    0 -0.00000000000E+00 -0.00000000000E+00 -0.74505805969E-08  0.93827000000E+00  0.93827000000E+00 0.  1.
     999902    2    1    2    0    0 -0.59470490225E-02 -0.26202661371E-01 -0.62820023654E-02  0.10163363339E+01  0.10159616790E+01 0.  0.
     999903    2    3    3    0    0  0.46099138144E-01  0.80251817657E-01 -0.81812796258E-01  0.12518748970E+00  0.20324595202E-01 0.  0.
         14    1    1    2    0    0  0.59470490225E-02  0.26202661371E-01  0.62820023654E-02  0.27593666097E-01  0.00000000000E+00 0. -1.
     999901    1    3    3    0    0 -0.52046187167E-01 -0.10645447903E+00  0.75530793893E-01  0.89114884421E+00  0.88000000000E+00 0. -1.
        -11    1    4    4    0    0  0.34398873629E-01  0.41056006561E-01 -0.41563665811E-01  0.67798802485E-01  0.51100000000E-03 0. -1.
         11    1    4    4    0    0  0.11700264515E-01  0.39195811095E-01 -0.40249130447E-01  0.57388687212E-01  0.51100000000E-03 0.  1.
</event>
<event>
 8    1  0.1052028E+005  0.1043930E+01  0.7957747E-01            NaN
         13   -1    0    0    0    0  0.00000000000E+00  0.00000000000E+00  0.74505805969E-08  0.10566000000E+00  0.10566000000E+00 0.  1.
     999900   -1    0    0    0    0 -0.00000000000E+00 -0.00000000000E+00 -0.74505805969E-08  0.93827000000E+00  0.93827000000E+00 0.  1.
     999902    2    1    2    0    0  0.21308386096E-01  0.11089247564E-01 -0.25466243267E-02  0.10197741720E+01  0.10194880372E+01 0.  0.
     999903    2    3    3    0    0  0.85543344153E-01 -0.95563371801E-01 -0.16531660550E-01  0.13090045080E+00  0.20288185235E-01 0.  0.
         14    1    1    2    0    0 -0.21308386096E-01 -0.11089247564E-01  0.25466243267E-02  0.24155827972E-01  0.00000000000E+00 0. -1.
     999901    1    3    3    0    0 -0.64234958057E-01  0.10665261936E+00  0.13985036223E-01  0.88887372123E+00  0.88000000000E+00 0. -1.
        -11    1    4    4    0    0  0.32568542778E-01 -0.49279119573E-01 -0.22281523929E-02  0.59113174409E-01  0.51100000000E-03 0. -1.
         11    1    4    4    0    0  0.52974801374E-01 -0.46284252227E-01 -0.14303508157E-01  0.71787276390E-01  0.51100000000E-03 0.  1.
</event>
<event>
 8    1  0.1052028E+005  0.1043930E+01  0.7957747E-01            NaN
         13   -1    0    0    0    0  0.00000000000E+00  0.00000000000E+00  0.74505805969E-08  0.10566000000E+00  0.10566000000E+00 0. -1.
     999900   -1    0    0    0    0 -0.00000000000E+00 -0.00000000000E+00 -0.74505805969E-08  0.93827000000E+00  0.93827000000E+00 0. -1.
     999902    2    1    2    0    0 -0.14272800195E-01  0.15035574905E-01 -0.11652652607E-01  0.10201483758E+01  0.10198711404E+01 0.  0.
     999903    2    3    3    0    0 -0.48753281861E-01  0.12158466872E+00 -0.11320947786E-01  0.13305101751E+00  0.20364067427E-01 0.  0.
         14    1    1    2    0    0  0.14272800195E-01 -0.15035574905E-01  0.11652652607E-01  0.23781624228E-01  0.00000000000E+00 0. -1.
     999901    1    3    3    0    0  0.34480481666E-01 -0.10654909381E+00 -0.33170482075E-03  0.88709735826E+00  0.88000000000E+00 0.  1.
        -11    1    4    4    0    0 -0.66478194558E-02  0.37173266687E-01  0.18113580405E-02  0.37809884933E-01  0.51100000000E-03 0. -1.
         11    1    4    4    0    0 -0.42105462405E-01  0.84411402031E-01 -0.13132305827E-01  0.95241132577E-01  0.51100000000E-03 0.  1.
</event>
<event>
 8    1  0.1052028E+005  0.1043930E+01  0.7957747E-01            NaN
         13   -1    0    0    0    0  0.00000000000E+00  0.00000000000E+00  0.74505805969E-08  0.10566000000E+00  0.10566000000E+00 0. -1.
     999900   -1    0    0    0    0 -0.00000000000E+00 -0.00000000000E+00 -0.74505805969E-08  0.93827000000E+00  0.93827000000E+00 0.  1.
     999902    2    1    2    0    0 -0.67325153667E-02 -0.19947155178E-01  0.10696644266E-01  0.10203157255E+01  0.10200424235E+01 0.  0.
     999903    2    3    3    0    0 -0.93641320726E-01  0.59428283301E-01  0.66311617949E-01  0.13073906999E+00  0.19876014281E-01 0.  0.
         14    1    1    2    0    0  0.67325153667E-02  0.19947155178E-01 -0.10696644266E-01  0.23614274526E-01  0.00000000000E+00 0. -1.
     999901    1    3    3    0    0  0.86908805359E-01 -0.79375438479E-01 -0.55614973682E-01  0.88957665548E+00  0.88000000000E+00 0.  1.
        -11    1    4    4    0    0 -0.65853646216E-01  0.36162487973E-01  0.53752078523E-01  0.92379517875E-01  0.51100000000E-03 0. -1.
         11    1    4    4    0    0 -0.27787674510E-01  0.23265795327E-01  0.12559539425E-01  0.38359552115E-01  0.51100000000E-03 0.  1.
</event>
<event>
 8    1  0.1052028E+005  0.1043930E+01  0.7957747E-01            NaN
         13   -1    0    0    0    0  0.00000000000E+00  0.00000000000E+00  0.74505805969E-08  0.10566000000E+00  0.10566000000E+00 0.  1.
     999900   -1    0    0    0    0 -0.00000000000E+00 -0.00000000000E+00 -0.74505805969E-08  0.93827000000E+00  0.93827000000E+00 0.  1.
     999902    2    1    2    0    0  0.54259338620E-02  0.29602315606E-02  0.22782717974E-01  0.10203237303E+01  0.10200506158E+01 0.  0.
     999903    2    3    3    0    0  0.48912488425E-01 -0.11877173641E+00  0.15929977895E-01  0.13085382500E+00  0.19230247713E-01 0.  0.
         14    1    1    2    0    0 -0.54259338620E-02 -0.29602315606E-02 -0.22782717974E-01  0.23606269664E-01  0.00000000000E+00 0. -1.
     999901    1    3    3    0    0 -0.43486554563E-01  0.12173196797E+00  0.68527400785E-02  0.88946990534E+00  0.88000000000E+00 0.  1.
        -11    1    4    4    0    0  0.37481487477E-01 -0.10363393715E+00  0.18357425630E-01  0.11172336832E+00  0.51100000000E-03 0.  1.
         11    1    4    4    0    0  0.11431000948E-01 -0.15137799263E-01 -0.24274477341E-02  0.19130456677E-01  0.51100000000E-03 0. -1.
</event>
<event>
 8    1  0.1052028E+005  0.1043930E+01  0.7957747E-01            NaN
         13   -1    0    0    0    0  0.00000000000E+00  0.00000000000E+00  0.74505805969E-08  0.10566000000E+00  0.10566000000E+00 0. -1.
     999900   -1    0    0    0    0 -0.00000000000E+00 -0.00000000000E+00 -0.74505805969E-08  0.93827000000E+00  0.93827000000E+00 0. -1.
     999902    2    1    2    0    0  0.20859932027E-01  0.10648936382E-01 -0.86014836378E-03  0.10204933521E+01  0.10202241936E+01 0.  0.
     999903    2    3    3    0    0 -0.66564001628E-01  0.94057309299E-01  0.55416471755E-01  0.13045573557E+00  0.25887639038E-01 0.  0.
         14    1    1    2    0    0 -0.20859932027E-01 -0.10648936382E-01  0.86014836378E-03  0.23436647914E-01  0.00000000000E+00 0. -1.
     999901    1    3    3    0    0  0.87423933655E-01 -0.83408372917E-01 -0.56276620119E-01  0.89003761652E+00  0.88000000000E+00 0. -1.
        -11    1    4    4    0    0 -0.95087142958E-02  0.67640556842E-02  0.14033698423E-01  0.18258529768E-01  0.51100000000E-03 0.  1.
         11    1    4    4    0    0 -0.57055287333E-01  0.87293253615E-01  0.41382773332E-01  0.11219720580E+00  0.51100000000E-03 0. -1.
</event>
<event>
 8    1  0.1052028E+005  0.1043930E+01  0.7957747E-01            NaN
         13   -1    0    0    0    0  0.00000000000E+00  0.00000000000E+00  0.74505805969E-08  0.10566000000E+00  0.10566000000E+00 0.  1.
     999900   -1    0    0    0    0 -0.00000000000E+00 -0.00000000000E+00 -0.74505805969E-08  0.93827000000E+00  0.93827000000E+00 0.  1.
     999902    2    1    2    0    0  0.70670047825E-02  0.22661934596E-02  0.22271557391E-01  0.10204544711E+01  0.10201844084E+01 0.  0.
     999903    2    3    3    0    0  0.10684018877E+00 -0.28530295000E-01 -0.65301658605E-01  0.12996461707E+00  0.19942201588E-01 0.  0.
         14    1    1    2    0    0 -0.70670047825E-02 -0.22661934596E-02 -0.22271557391E-01  0.23475528919E-01  0.00000000000E+00 0. -1.
     999901    1    3    3    0    0 -0.99773183983E-01  0.30796488460E-01  0.87573215997E-01  0.89048985401E+00  0.88000000000E+00 0. -1.
        -11    1    4    4    0    0  0.19636320342E-01 -0.10428348582E-01 -0.62456159940E-02  0.23099878156E-01  0.51100000000E-03 0. -1.
         11    1    4    4    0    0  0.87203868424E-01 -0.18101946418E-01 -0.59056042611E-01  0.10686473891E+00  0.51100000000E-03 0.  1.
</event>
<event>
 8    1  0.1052028E+005  0.1043930E+01  0.7957747E-01            NaN
         13   -1    0    0    0    0  0.00000000000E+00  0.00000000000E+00  0.74505805969E-08  0.10566000000E+00  0.10566000000E+00 0. -1.
     999900   -1    0    0    0    0 -0.00000000000E+00 -0.00000000000E+00 -0.74505805969E-08  0.93827000000E+00  0.93827000000E+00 0. -1.
     999902    2    1    2    0    0 -0.10397451817E-01  0.21088562317E-01  0.38289083616E-02  0.10201078464E+01  0.10198296540E+01 0.  0.
     999903    2    3    3    0    0 -0.98247471060E-02 -0.29129443684E-01 -0.12414224815E+00  0.12943462176E+00  0.19924191057E-01 0.  0.
         14    1    1    2    0    0  0.10397451817E-01 -0.21088562317E-01 -0.38289083616E-02  0.23822153642E-01  0.00000000000E+00 0.  1.
     999901    1    3    3    0    0 -0.57270471113E-03  0.50218006002E-01  0.12797115651E+00  0.89067322460E+00  0.88000000000E+00 0.  1.
        -11    1    4    4    0    0 -0.46220073052E-03 -0.13566302364E-01 -0.87356569385E-01  0.88406388486E-01  0.51100000000E-03 0. -1.
         11    1    4    4    0    0 -0.93625463755E-02 -0.15563141320E-01 -0.36785678765E-01  0.41028233274E-01  0.51100000000E-03 0.  1.
</event>
<event>
 8    1  0.1052028E+005  0.1043930E+01  0.7957747E-01            NaN
         13   -1    0    0    0    0  0.00000000000E+00  0.00000000000E+00  0.74505805969E-08  0.10566000000E+00  0.10566000000E+00 0. -1.
     999900   -1    0    0    0    0 -0.00000000000E+00 -0.00000000000E+00 -0.74505805969E-08  0.93827000000E+00  0.93827000000E+00 0. -1.
     999902    2    1    2    0    0 -0.15153952618E-01  0.19290355461E-01  0.10530584305E-02  0.10193766087E+01  0.10190808610E+01 0.  0.
     999903    2    3    3    0    0 -0.55228387473E-01  0.73034608312E-01 -0.92860146994E-01  0.13184402043E+00  0.19380661185E-01 0.  0.
         14    1    1    2    0    0  0.15153952618E-01 -0.19290355461E-01 -0.10530584305E-02  0.24553391330E-01  0.00000000000E+00 0.  1.
     999901    1    3    3    0    0  0.40074434856E-01 -0.53744252851E-01  0.93913205424E-01  0.88753258824E+00  0.88000000000E+00 0.  1.
        -11    1    4    4    0    0 -0.17718042997E-01  0.12604738517E-01 -0.15205144248E-01  0.26538010727E-01  0.51100000000E-03 0.  1.
         11    1    4    4    0    0 -0.37510344476E-01  0.60429869794E-01 -0.77655002746E-01  0.10530600970E+00  0.51100000000E-03 0. -1.
</event>
<event>
 8    1  0.1052028E+005  0.1043930E+01  0.7957747E-01            NaN
         13   -1    0    0    0    0  0.00000000000E+00  0.00000000000E+00  0.74505805969E-08  0.10566000000E+00  0.10566000000E+00 0. -1.
     999900   -1    0    0    0    0 -0.00000000000E+00 -0.00000000000E+00 -0.74505805969E-08  0.93827000000E+00  0.93827000000E+00 0.  1.
     999902    2    1    2    0    0 -0.27852340079E-02  0.12376657933E-01  0.20242429407E-01  0.10200407736E+01  0.10197609939E+01 0.  0.
     999903    2    3    3    0    0 -0.79892736215E-01  0.88252747846E-01 -0.49406041083E-01  0.13068501949E+00  0.21592142569E-01 0.  0.
         14    1    1    2    0    0  0.27852340079E-02 -0.12376657933E-01 -0.20242429407E-01  0.23889226408E-01  0.00000000000E+00 0. -1.
     999901    1    3    3    0    0  0.77107502207E-01 -0.75876089913E-01  0.69648470490E-01  0.88935575410E+00  0.88000000000E+00 0. -1.
        -11    1    4    4    0    0 -0.26452302235E-01  0.15688362802E-01 -0.10205024117E-01  0.32407601873E-01  0.51100000000E-03 0. -1.
         11    1    4    4    0    0 -0.53440433979E-01  0.72564385045E-01 -0.39201016966E-01  0.98277417615E-01  0.51100000000E-03 0.  1.
</event>
<event>
 8    1  0.1052028E+005  0.1043930E+01  0.7957747E-01            NaN
         13   -1    0    0    0    0  0.00000000000E+00  0.00000000000E+00  0.74505805969E-08  0.10566000000E+00  0.10566000000E+00 0. -1.
     999900   -1    0    0    0    0 -0.00000000000E+00 -0.00000000000E+00 -0.74505805969E-08  0.93827000000E+00  0.93827000000E+00 0. -1.
     999902    2    1    2    0    0 -0.87786326306E-02 -0.18097930730E-01  0.12014873235E-01  0.10205001757E+01  0.10202311757E+01 0.  0.
     999903    2    3    3    0    0  0.74133362729E-01  0.31161213845E-02  0.10642972604E+00  0.13132156631E+00  0.20312594873E-01 0.  0.
         14    1    1    2    0    0  0.87786326306E-02  0.18097930730E-01 -0.12014873235E-01  0.23429824294E-01  0.00000000000E+00 0.  1.
     999901    1    3    3    0    0 -0.82911995360E-01 -0.21214052115E-01 -0.94414852805E-01  0.88917860940E+00  0.88000000000E+00 0. -1.
        -11    1    4    4    0    0  0.69606225492E-01  0.13153752047E-02  0.87769609539E-01  0.11202911371E+00  0.51100000000E-03 0. -1.
         11    1    4    4    0    0  0.45271372375E-02  0.18007461798E-02  0.18660116501E-01  0.19292452597E-01  0.51100000000E-03 0.  1.
</event>
<event>
 8    1  0.1052028E+005  0.1043930E+01  0.7957747E-01            NaN
         13   -1    0    0    0    0  0.00000000000E+00  0.00000000000E+00  0.74505805969E-08  0.10566000000E+00  0.10566000000E+00 0.  1.
     999900   -1    0    0    0    0 -0.00000000000E+00 -0.00000000000E+00 -0.74505805969E-08  0.93827000000E+00  0.93827000000E+00 0. -1.
     999902    2    1    2    0    0 -0.79879077147E-02 -0.12768947864E-01 -0.16601987601E-01  0.10215139635E+01  0.10212679859E+01 0.  0.
     999903    2    3    3    0    0 -0.24901883546E-01  0.15470308067E-01 -0.12899943788E+00  0.13375457890E+00  0.19748371262E-01 0.  0.
         14    1    1    2    0    0  0.79879077147E-02  0.12768947864E-01  0.16601987601E-01  0.22416036481E-01  0.00000000000E+00 0.  1.
     999901    1    3    3    0    0  0.16913975831E-01 -0.28239255931E-01  0.11239745028E+00  0.88775938462E+00  0.88000000000E+00 0.  1.
        -11    1    4    4    0    0 -0.19317445421E-02 -0.11112802020E-02 -0.45908320371E-01  0.45965221428E-01  0.51100000000E-03 0. -1.
         11    1    4    4    0    0 -0.22970139004E-01  0.16581588269E-01 -0.83091117507E-01  0.87789357470E-01  0.51100000000E-03 0.  1.
</event>
<event>
 8    1  0.1052028E+005  0.1043930E+01  0.7957747E-01            NaN
         13   -1    0    0    0    0  0.00000000000E+00  0.00000000000E+00  0.74505805969E-08  0.10566000000E+00  0.10566000000E+00 0. -1.
     999900   -1    0    0    0    0 -0.00000000000E+00 -0.00000000000E+00 -0.74505805969E-08  0.93827000000E+00  0.93827000000E+00 0.  1.
     999902    2    1    2    0    0  0.18062166588E-01  0.15355216233E-01 -0.41753994880E-02  0.10198580560E+01  0.10195739286E+01 0.  0.
     999903    2    3    3    0    0  0.65696974872E-01 -0.10792670926E+00  0.20862403596E-01  0.12963651070E+00  0.20152368204E-01 0.  0.
         14    1    1    2    0    0 -0.18062166588E-01 -0.15355216233E-01  0.41753994880E-02  0.24071944007E-01  0.00000000000E+00 0.  1.
     999901    1    3    3    0    0 -0.47634808285E-01  0.12328192549E+00 -0.25037803084E-01  0.89022154529E+00  0.88000000000E+00 0.  1.
        -11    1    4    4    0    0  0.27332346066E-01 -0.38650755282E-01 -0.14447707586E-02  0.47363345626E-01  0.51100000000E-03 0. -1.
         11    1    4    4    0    0  0.38364628806E-01 -0.69275953979E-01  0.22307174354E-01  0.82273165077E-01  0.51100000000E-03 0.  1.
</event>
<event>
 8    1  0.1052028E+005  0.1043930E+01  0.7957747E-01            NaN
         13   -1    0    0    0    0  0.00000000000E+00  0.00000000000E+00  0.74505805969E-08  0.10566000000E+00  0.10566000000E+00 0.  1.
     999900   -1    0    0    0    0 -0.00000000000E+00 -0.00000000000E+00 -0.74505805969E-08  0.93827000000E+00  0.93827000000E+00 0. -1.
     999902    2    1    2    0    0  0.26791257510E-02 -0.22914753540E-01 -0.60044768839E-02  0.10200905917E+01  0.10198119915E+01 0.  0.
     999903    2    3    3    0    0 -0.55045106386E-01  0.51417016662E-01 -0.10397957692E+00  0.12966573848E+00  0.18104639730E-01 0.  0.
         14    1    1    2    0    0 -0.26791257510E-02  0.22914753540E-01  0.60044768839E-02  0.23839408282E-01  0.00000000000E+00 0.  1.
     999901    1    3    3    0    0  0.57724232137E-01 -0.74331770202E-01  0.97975100035E-01  0.89042485324E+00  0.88000000000E+00 0.  1.
        -11    1    4    4    0    0 -0.21067302000E-01  0.23897465409E-01 -0.58248159681E-01  0.66392991300E-01  0.51100000000E-03 0.  1.
         11    1    4    4    0    0 -0.33977804386E-01  0.27519551253E-01 -0.45731417238E-01  0.63272747180E-01  0.51100000000E-03 0. -1.
</event>
<event>
 8    1  0.1052028E+005  0.1043930E+01  0.7957747E-01            NaN
         13   -1    0    0    0    0  0.00000000000E+00  0.00000000000E+00  0.74505805969E-08  0.10566000000E+00  0.10566000000E+00 0. -1.
     999900   -1    0    0    0    0 -0.00000000000E+00 -0.00000000000E+00 -0.74505805969E-08  0.93827000000E+00  0.93827000000E+00 0.  1.
     999902    2    1    2    0    0 -0.67660776745E-02 -0.12200897061E-01  0.18950541555E-01  0.10203977940E+01  0.10201264104E+01 0.  0.
     999903    2    3    3    0    0 -0.11522853988E+00  0.29947481960E-01  0.53404157380E-01  0.13206922681E+00  0.20391384586E-01 0.  0.
         14    1    1    2    0    0  0.67660776745E-02  0.12200897061E-01 -0.18950541555E-01  0.23532206047E-01  0.00000000000E+00 0. -1.
     999901    1    3    3    0    0  0.10846246221E+00 -0.42148379021E-01 -0.34453615824E-01  0.88832856714E+00  0.88000000000E+00 0.  1.
        -11    1    4    4    0    0 -0.64741806009E-01  0.10687675120E-01  0.38216677589E-01  0.75937496744E-01  0.51100000000E-03 0.  1.
         11    1    4    4    0    0 -0.50486733873E-01  0.19259806840E-01  0.15187479790E-01  0.56131730064E-01  0.51100000000E-03 0. -1.
</event>
<event>
 8    1  0.1052028E+005  0.1043930E+01  0.7957747E-01            NaN
         13   -1    0    0    0    0  0.00000000000E+00  0.00000000000E+00  0.74505805969E-08  0.10566000000E+00  0.10566000000E+00 0.  1.
     999900   -1    0    0    0    0 -0.00000000000E+00 -0.00000000000E+00 -0.74505805969E-08  0.93827000000E+00  0.93827000000E+00 0.  1.
     999902    2    1    2    0    0 -0.32820315247E-02  0.16716840804E-01  0.16535706279E-01  0.10201885999E+01  0.10199123125E+01 0.  0.
     999903    2    3    3    0    0  0.12559587835E+00  0.23251280912E-02 -0.24702287579E-01  0.12972961195E+00  0.20972322858E-01 0.  0.
         14    1    1    2    0    0  0.32820315247E-02 -0.16716840804E-01 -0.16535706279E-01  0.23741400118E-01  0.00000000000E+00 0. -1.
     999901    1    3    3    0    0 -0.12887790988E+00  0.14391712713E-01  0.41237993859E-01  0.89045898793E+00  0.88000000000E+00 0. -1.
        -11    1    4    4    0    0  0.84133844651E-01 -0.60949620674E-02 -0.22765725794E-01  0.87373862055E-01  0.51100000000E-03 0. -1.
         11    1    4    4    0    0  0.41462033700E-01  0.84200901586E-02 -0.19365617855E-02  0.42355749897E-01  0.51100000000E-03 0.  1.
</event>
<event>
 8    1  0.1052028E+005  0.1043930E+01  0.7957747E-01            NaN
         13   -1    0    0    0    0  0.00000000000E+00  0.00000000000E+00  0.74505805969E-08  0.10566000000E+00  0.10566000000E+00 0. -1.
     999900   -1    0    0    0    0 -0.00000000000E+00 -0.00000000000E+00 -0.74505805969E-08  0.93827000000E+00  0.93827000000E+00 0. -1.
     999902    2    1    2    0    0 -0.12339110335E-01 -0.12994581332E-01  0.14951575133E-01  0.10205919969E+01  0.10203251256E+01 0.  0.
     999903    2    3    3    0    0  0.10724923485E+00 -0.42839289658E-01 -0.53887216513E-01  0.12933958704E+00  0.22074726690E-01 0.  0.
         14    1    1    2    0    0  0.12339110335E-01  0.12994581332E-01 -0.14951575133E-01  0.23338003060E-01  0.00000000000E+00 0.  1.
     999901    1    3    3    0    0 -0.11958834518E+00  0.29844708326E-01  0.68838791646E-01  0.89125240990E+00  0.88000000000E+00 0.  1.
        -11    1    4    4    0    0  0.75823301339E-01 -0.39257332372E-01 -0.33590584824E-01  0.91754562180E-01  0.51100000000E-03 0.  1.
         11    1    4    4    0    0  0.31425933507E-01 -0.35819572866E-02 -0.20296631689E-01  0.37585024860E-01  0.51100000000E-03 0. -1.
</event>
<event>
 8    1  0.1052028E+005  0.1043930E+01  0.7957747E-01            NaN
         13   -1    0    0    0    0  0.00000000000E+00  0.00000000000E+00  0.74505805969E-08  0.10566000000E+00  0.10566000000E+00 0.  1.
     999900   -1    0    0    0    0 -0.00000000000E+00 -0.00000000000E+00 -0.74505805969E-08  0.93827000000E+00  0.93827000000E+00 0.  1.
     999902    2    1    2    0    0 -0.16052658543E-02  0.18548539662E-01 -0.13523267405E-01  0.10209190469E+01  0.10206596868E+01 0.  0.
     999903    2    3    3    0    0 -0.33108003982E-01 -0.11576647698E+00 -0.43566145710E-01  0.12966402123E+00  0.20414020436E-01 0.  0.
         14    1    1    2    0    0  0.16052658543E-02 -0.18548539662E-01  0.13523267405E-01  0.23010953117E-01  0.00000000000E+00 0. -1.
     999901    1    3    3    0    0  0.31502738128E-01  0.13431501664E+00  0.30042878306E-01  0.89125502565E+00  0.88000000000E+00 0. -1.
        -11    1    4    4    0    0 -0.44334567832E-02 -0.37304429849E-01 -0.21385200585E-01  0.43230359129E-01  0.51100000000E-03 0.  1.
         11    1    4    4    0    0 -0.28674547199E-01 -0.78462047133E-01 -0.22180945125E-01  0.86433662106E-01  0.51100000000E-03 0. -1.
</event>
<event>
 8    1  0.1052028E+005  0.1043930E+01  0.7957747E-01            NaN
         13   -1    0    0    0    0  0.00000000000E+00  0.00000000000E+00  0.74505805969E-08  0.10566000000E+00  0.10566000000E+00 0. -1.
     999900   -1    0    0    0    0 -0.00000000000E+00 -0.00000000000E+00 -0.74505805969E-08  0.93827000000E+00  0.93827000000E+00 0.  1.
     999902    2    1    2    0    0 -0.74799981631E-02  0.21760211796E-02 -0.22652382154E-01  0.10199755462E+01  0.10196942184E+01 0.  0.
     999903    2    3    3    0    0  0.47998523263E-01  0.11682838249E+00 -0.27213316687E-01  0.13079399418E+00  0.20341463004E-01 0.  0.
         14    1    1    2    0    0  0.74799981631E-02 -0.21760211796E-02  0.22652382154E-01  0.23954453823E-01  0.00000000000E+00 0. -1.
     999901    1    3    3    0    0 -0.55478521426E-01 -0.11465236131E+00  0.45609345327E-02  0.88918155200E+00  0.88000000000E+00 0.  1.
        -11    1    4    4    0    0  0.15382046926E-01  0.29785025717E-01 -0.16052840011E-01  0.37171358840E-01  0.51100000000E-03 0.  1.
         11    1    4    4    0    0  0.32616476338E-01  0.87043356772E-01 -0.11160476676E-01  0.93622635337E-01  0.51100000000E-03 0. -1.
</event>
<event>
 8    1  0.1052028E+005  0.1043930E+01  0.7957747E-01            NaN
         13   -1    0    0    0    0  0.00000000000E+00  0.00000000000E+00  0.74505805969E-08  0.10566000000E+00  0.10566000000E+00 0. -1.
     999900   -1    0    0    0    0 -0.00000000000E+00 -0.00000000000E+00 -0.74505805969E-08  0.93827000000E+00  0.93827000000E+00 0.  1.
     999902    2    1    2    0    0  0.96848386976E-02 -0.48780149067E-02 -0.21271416692E-01  0.10200539807E+01  0.10197745139E+01 0.  0.
     999903    2    3    3    0    0 -0.16045149853E-01 -0.12652970458E+00  0.18154794971E-01  0.13043856261E+00  0.20430591283E-01 0.  0.
         14    1    1    2    0    0 -0.96848386976E-02  0.48780149067E-02  0.21271416692E-01  0.23876019310E-01  0.00000000000E+00 0. -1.
     999901    1    3    3    0    0  0.25729988551E-01  0.12165168968E+00 -0.39426211662E-01  0.88961541808E+00  0.88000000000E+00 0.  1.
        -11    1    4    4    0    0 -0.16994677809E-01 -0.60073498022E-01  0.45757372042E-02  0.62600660783E-01  0.51100000000E-03 0. -1.
         11    1    4    4    0    0  0.94952795546E-03 -0.66456206563E-01  0.13579057766E-01  0.67837901831E-01  0.51100000000E-03 0.  1.
</event>
<event>
 8    1  0.1052028E+005  0.1043930E+01  0.7957747E-01            NaN
         13   -1    0    0    0    0  0.00000000000E+00  0.00000000000E+00  0.74505805969E-08  0.10566000000E+00  0.10566000000E+00 0. -1.
     999900   -1    0    0    0    0 -0.00000000000E+00 -0.00000000000E+00 -0.74505805969E-08  0.93827000000E+00  0.93827000000E+00 0. -1.
     999902    2    1    2    0    0  0.15666228785E-01 -0.17565313701E-01  0.70963157804E-02  0.10193469028E+01  0.10190504304E+01 0.  0.
     999903    2    3    3    0    0 -0.20919961018E-01 -0.97989952915E-01  0.83414838121E-01  0.13163569486E+00  0.18172652527E-01 0.  0.
         14    1    1    2    0    0 -0.15666228785E-01  0.17565313701E-01 -0.70963157804E-02  0.24583097190E-01  0.00000000000E+00 0.  1.
     999901    1    3    3    0    0  0.36586189803E-01  0.80424639214E-01 -0.76318522341E-01  0.88771120796E+00  0.88000000000E+00 0. -1.
        -11    1    4    4    0    0 -0.15937807184E-01 -0.94135991049E-01  0.77361346511E-01  0.12288465146E+00  0.51100000000E-03 0. -1.
         11    1    4    4    0    0 -0.49821538335E-02 -0.38539618665E-02  0.60534916102E-02  0.87510433986E-02  0.51100000000E-03 0.  1.
</event>
<event>
 8    1  0.1052028E+005  0.1043930E+01  0.7957747E-01            NaN
         13   -1    0    0    0    0  0.00000000000E+00  0.00000000000E+00  0.74505805969E-08  0.10566000000E+00  0.10566000000E+00 0.  1.
     999900   -1    0    0    0    0 -0.00000000000E+00 -0.00000000000E+00 -0.74505805969E-08  0.93827000000E+00  0.93827000000E+00 0. -1.
     999902    2    1    2    0    0  0.19511436974E-01 -0.11916278793E-01  0.37163499314E-02  0.10207674196E+01  0.10205045908E+01 0.  0.
     999903    2    3    3    0    0  0.11321704538E+00  0.43031757821E-01  0.50325344000E-01  0.13286403180E+00  0.21222138246E-01 0.  0.
         14    1    1    2    0    0 -0.19511436974E-01  0.11916278793E-01 -0.37163499314E-02  0.23162580381E-01  0.00000000000E+00 0.  1.
     999901    1    3    3    0    0 -0.93705608405E-01 -0.54948036614E-01 -0.46608994068E-01  0.88790338782E+00  0.88000000000E+00 0. -1.
        -11    1    4    4    0    0  0.87867970851E-01  0.23939512119E-01  0.40193765102E-01  0.99547377745E-01  0.51100000000E-03 0.  1.
         11    1    4    4    0    0  0.25349074529E-01  0.19092245702E-01  0.10131578898E-01  0.33316654054E-01  0.51100000000E-03 0. -1.
</event>
<event>
 8    1  0.1052028E+005  0.1043930E+01  0.7957747E-01            NaN
         13   -1    0    0    0    0  0.00000000000E+00  0.00000000000E+00  0.74505805969E-08  0.10566000000E+00  0.10566000000E+00 0.  1.
     999900   -1    0    0    0    0 -0.00000000000E+00 -0.00000000000E+00 -0.74505805969E-08  0.93827000000E+00  0.93827000000E+00 0.  1.
     999902    2    1    2    0    0  0.41144734674E-03  0.20500649218E-01  0.11190225471E-01  0.10205704826E+01  0.10203031132E+01 0.  0.
     999903    2    3    3    0    0 -0.68116584194E-01  0.11056428476E+00 -0.20034406638E-01  0.13277403791E+00  0.19058792870E-01 0.  0.
         14    1    1    2    0    0 -0.41144734674E-03 -0.20500649218E-01 -0.11190225471E-01  0.23359517404E-01  0.00000000000E+00 0. -1.
     999901    1    3    3    0    0  0.68528031541E-01 -0.90063635542E-01  0.31224632109E-01  0.88779644469E+00  0.88000000000E+00 0. -1.
        -11    1    4    4    0    0 -0.41071551224E-01  0.76123150331E-01 -0.20840268397E-01  0.88972941079E-01  0.51100000000E-03 0.  1.
         11    1    4    4    0    0 -0.27045032970E-01  0.34441134428E-01  0.80586175879E-03  0.43801096827E-01  0.51100000000E-03 0. -1.
</event>
<event>
 8    1  0.1052028E+005  0.1043930E+01  0.7957747E-01            NaN
         13   -1    0    0    0    0  0.00000000000E+00  0.00000000000E+00  0.74505805969E-08  0.10566000000E+00  0.10566000000E+00 0.  1.
     999900   -1    0    0    0    0 -0.00000000000E+00 -0.00000000000E+00 -0.74505805969E-08  0.93827000000E+00  0.93827000000E+00 0.  1.
     999902    2    1    2    0    0  0.19036927413E-02  0.93663696933E-02  0.21034247549E-01  0.10208260502E+01  0.10205645654E+01 0.  0.
     999903    2    3    3    0    0  0.12248258825E+00  0.42494786179E-01  0.14424500480E-01  0.13196135250E+00  0.19948460167E-01 0.  0.
         14    1    1    2    0    0 -0.19036927413E-02 -0.93663696933E-02 -0.21034247549E-01  0.23103949819E-01  0.00000000000E+00 0. -1.
     999901    1    3    3    0    0 -0.12057889551E+00 -0.33128416486E-01  0.66097470685E-02  0.88886469768E+00  0.88000000000E+00 0.  1.
        -11    1    4    4    0    0  0.51203005976E-01  0.27135967341E-01  0.10835864696E-01  0.58955793856E-01  0.51100000000E-03 0.  1.
         11    1    4    4    0    0  0.71279582276E-01  0.15358818838E-01  0.35886357845E-02  0.73005558647E-01  0.51100000000E-03 0. -1.
</event>
<event>
 8    1  0.1052028E+005  0.1043930E+01  0.7957747E-01            NaN
         13   -1    0    0    0    0  0.00000000000E+00  0.00000000000E+00  0.74505805969E-08  0.10566000000E+00  0.10566000000E+00 0. -1.
     999900   -1    0    0    0    0 -0.00000000000E+00 -0.00000000000E+00 -0.74505805969E-08  0.93827000000E+00  0.93827000000E+00 0.  1.
     999902    2    1    2    0    0  0.42707955157E-02 -0.23789046830E-01 -0.64153559366E-02  0.10189236961E+01  0.10186167990E+01 0.  0.
     999903    2    3    3    0    0  0.48082472840E-02 -0.67731735829E-01  0.10941009807E+00  0.13024671059E+00  0.19568566081E-01 0.  0.
         14    1    1    2    0    0 -0.42707955157E-02  0.23789046830E-01  0.64153559366E-02  0.25006303909E-01  0.00000000000E+00 0. -1.
     999901    1    3    3    0    0 -0.53745176836E-03  0.43942688999E-01 -0.11582545401E+00  0.88867698551E+00  0.88000000000E+00 0. -1.
        -11    1    4    4    0    0 -0.39663363019E-02 -0.83011781563E-02  0.72228629314E-02  0.11707785972E-01  0.51100000000E-03 0. -1.
         11    1    4    4    0    0  0.87745835859E-02 -0.59430557673E-01  0.10218723514E+00  0.11853892461E+00  0.51100000000E-03 0.  1.
</event>
<event>
 8    1  0.1052028E+005  0.1043930E+01  0.7957747E-01            NaN
         13   -1    0    0    0    0  0.00000000000E+00  0.00000000000E+00  0.74505805969E-08  0.10566000000E+00  0.10566000000E+00 0. -1.
     999900   -1    0    0    0    0 -0.00000000000E+00 -0.00000000000E+00 -0.74505805969E-08  0.93827000000E+00  0.93827000000E+00 0. -1.
     999902    2    1    2    0    0  0.11275956190E-01 -0.10996437015E-01 -0.17699894249E-01  0.10202370671E+01  0.10199619198E+01 0.  0.
     999903    2    3    3    0    0 -0.11040955230E+00  0.35788148952E-01 -0.52523506878E-01  0.12995124528E+00  0.25642670137E-01 0.  0.
         14    1    1    2    0    0 -0.11275956190E-01  0.10996437015E-01  0.17699894249E-01  0.23692932943E-01  0.00000000000E+00 0. -1.
     999901    1    3    3    0    0  0.12168550849E+00 -0.46784585967E-01  0.34823612630E-01  0.89028582178E+00  0.88000000000E+00 0.  1.
        -11    1    4    4    0    0 -0.42166385517E-01  0.19304948199E-01 -0.33500815074E-01  0.57212331050E-01  0.51100000000E-03 0. -1.
         11    1    4    4    0    0 -0.68243166778E-01  0.16483200753E-01 -0.19022691804E-01  0.72738914231E-01  0.51100000000E-03 0.  1.
</event>
<event>
 8    1  0.1052028E+005  0.1043930E+01  0.7957747E-01            NaN
         13   -1    0    0    0    0  0.00000000000E+00  0.00000000000E+00  0.74505805969E-08  0.10566000000E+00  0.10566000000E+00 0. -1.
     999900   -1    0    0    0    0 -0.00000000000E+00 -0.00000000000E+00 -0.74505805969E-08  0.93827000000E+00  0.93827000000E+00 0.  1.
     999902    2    1    2    0    0 -0.54522398414E-02 -0.20447834851E-01  0.11792172160E-01  0.10197040595E+01  0.10194162412E+01 0.  0.
     999903    2    3    3    0    0  0.78873011423E-01 -0.15791124418E-01  0.10164512133E+00  0.13110629592E+00  0.19667704443E-01 0.  0.
         14    1    1    2    0    0  0.54522398414E-02  0.20447834851E-01 -0.11792172160E-01  0.24225940511E-01  0.00000000000E+00 0. -1.
     999901    1    3    3    0    0 -0.84325251265E-01 -0.46567104326E-02 -0.89852949166E-01  0.88859776357E+00  0.88000000000E+00 0.  1.
        -11    1    4    4    0    0  0.58669626933E-01 -0.13820493310E-01  0.61478584526E-01  0.86098830631E-01  0.51100000000E-03 0. -1.
         11    1    4    4    0    0  0.20203384491E-01 -0.19706311085E-02  0.40166536800E-01  0.45007465285E-01  0.51100000000E-03 0.  1.
</event>
<event>
 8    1  0.1052028E+005  0.1043930E+01  0.7957747E-01            NaN
         13   -1    0    0    0    0  0.00000000000E+00  0.00000000000E+00  0.74505805969E-08  0.10566000000E+00  0.10566000000E+00 0.  1.
     999900   -1    0    0    0    0 -0.00000000000E+00 -0.00000000000E+00 -0.74505805969E-08  0.93827000000E+00  0.93827000000E+00 0.  1.
     999902    2    1    2    0    0 -0.19787044171E-01 -0.37144773845E-02  0.13046510952E-01  0.10199396705E+01  0.10196574894E+01 0.  0.
     999903    2    3    3    0    0  0.87738403985E-01  0.35826560201E-01 -0.82546303820E-01  0.12737975553E+00  0.20739814254E-01 0.  0.
         14    1    1    2    0    0  0.19787044171E-01  0.37144773845E-02 -0.13046510952E-01  0.23990329453E-01  0.00000000000E+00 0.  1.
     999901    1    3    3    0    0 -0.10752544816E+00 -0.39541037585E-01  0.95592814772E-01  0.89255991501E+00  0.88000000000E+00 0.  1.
        -11    1    4    4    0    0  0.45964584586E-01  0.29110853422E-01 -0.41515694928E-01  0.68439746270E-01  0.51100000000E-03 0. -1.
         11    1    4    4    0    0  0.41773819399E-01  0.67157067785E-02 -0.41030608893E-01  0.58940009262E-01  0.51100000000E-03 0.  1.
</event>
<event>
 8    1  0.1052028E+005  0.1043930E+01  0.7957747E-01            NaN
         13   -1    0    0    0    0  0.00000000000E+00  0.00000000000E+00  0.74505805969E-08  0.10566000000E+00  0.10566000000E+00 0.  1.
     999900   -1    0    0    0    0 -0.00000000000E+00 -0.00000000000E+00 -0.74505805969E-08  0.93827000000E+00  0.93827000000E+00 0. -1.
     999902    2    1    2    0    0 -0.98371723515E-02  0.66521772273E-02  0.20812348688E-01  0.10199680452E+01  0.10196865390E+01 0.  0.
     999903    2    3    3    0    0 -0.84371625408E-02 -0.54886970256E-01 -0.11326816686E+00  0.12768635682E+00  0.19757603056E-01 0.  0.
         14    1    1    2    0    0  0.98371723515E-02 -0.66521772273E-02 -0.20812348688E-01  0.23961954838E-01  0.00000000000E+00 0. -1.
     999901    1    3    3    0    0 -0.14000098106E-02  0.61539147484E-01  0.13408051555E+00  0.89228168834E+00  0.88000000000E+00 0.  1.
        -11    1    4    4    0    0  0.25929333658E-02 -0.18922176265E-01 -0.55968461255E-01  0.59139680708E-01  0.51100000000E-03 0.  1.
         11    1    4    4    0    0 -0.11030095907E-01 -0.35964793992E-01 -0.57299705606E-01  0.68546676113E-01  0.51100000000E-03 0. -1.
</event>
<event>
 8    1  0.1052028E+005  0.1043930E+01  0.7957747E-01            NaN
         13   -1    0    0    0    0  0.00000000000E+00  0.00000000000E+00  0.74505805969E-08  0.10566000000E+00  0.10566000000E+00 0. -1.
     999900   -1    0    0    0    0 -0.00000000000E+00 -0.00000000000E+00 -0.74505805969E-08  0.93827000000E+00  0.93827000000E+00 0.  1.
     999902    2    1    2    0    0 -0.65535258146E-02 -0.19669338101E-01  0.12683837159E-01  0.10196254472E+01  0.10193357353E+01 0.  0.
     999903    2    3    3    0    0  0.10981194169E-02 -0.12756301035E+00 -0.27874062891E-01  0.13207571031E+00  0.19836894850E-01 0.  0.
         14    1    1    2    0    0  0.65535258146E-02  0.19669338101E-01 -0.12683837159E-01  0.24304552804E-01  0.00000000000E+00 0.  1.
     999901    1    3    3    0    0 -0.76516452314E-02  0.10789367225E+00  0.40557900050E-01  0.88754973688E+00  0.88000000000E+00 0. -1.
        -11    1    4    4    0    0  0.67721087489E-02 -0.16062112172E-01 -0.44710573138E-02  0.18002899178E-01  0.51100000000E-03 0.  1.
         11    1    4    4    0    0 -0.56739893321E-02 -0.11150089818E+00 -0.23403005577E-01  0.11407281113E+00  0.51100000000E-03 0. -1.
</event>
<event>
 8    1  0.1052028E+005  0.1043930E+01  0.7957747E-01            NaN
         13   -1    0    0    0    0  0.00000000000E+00  0.00000000000E+00  0.74505805969E-08  0.10566000000E+00  0.10566000000E+00 0.  1.
     999900   -1    0    0    0    0 -0.00000000000E+00 -0.00000000000E+00 -0.74505805969E-08  0.93827000000E+00  0.93827000000E+00 0.  1.
     999902    2    1    2    0    0 -0.89885991074E-02  0.13605115877E-01 -0.15467070548E-01  0.10214550281E+01  0.10212077409E+01 0.  0.
     999903    2    3    3    0    0  0.27954347831E-01 -0.50176312566E-01 -0.11768528935E+00  0.13247729145E+00  0.20032411666E-01 0.  0.
         14    1    1    2    0    0  0.89885991074E-02 -0.13605115877E-01  0.15467070548E-01  0.22474971930E-01  0.00000000000E+00 0.  1.
     999901    1    3    3    0    0 -0.36942946939E-01  0.63781428443E-01  0.10221821880E+00  0.88897773662E+00  0.88000000000E+00 0. -1.
        -11    1    4    4    0    0 -0.28454750539E-02 -0.81693288144E-02 -0.19177273887E-01  0.21044325037E-01  0.51100000000E-03 0.  1.
         11    1    4    4    0    0  0.30799822885E-01 -0.42006983751E-01 -0.98508015460E-01  0.11143296642E+00  0.51100000000E-03 0. -1.
</event>
<event>
 8    1  0.1052028E+005  0.1043930E+01  0.7957747E-01            NaN
         13   -1    0    0    0    0  0.00000000000E+00  0.00000000000E+00  0.74505805969E-08  0.10566000000E+00  0.10566000000E+00 0. -1.
     999900   -1    0    0    0    0 -0.00000000000E+00 -0.00000000000E+00 -0.74505805969E-08  0.93827000000E+00  0.93827000000E+00 0. -1.
     999902    2    1    2    0    0  0.20443894584E-01  0.11680651078E-01 -0.96449379027E-04  0.10203843053E+01  0.10201126069E+01 0.  0.
     999903    2    3    3    0    0 -0.13473738360E-01  0.70451558329E-01 -0.10800957044E+00  0.13119947242E+00  0.20056683666E-01 0.  0.
         14    1    1    2    0    0 -0.20443894584E-01 -0.11680651078E-01  0.96449379027E-04  0.23545694677E-01  0.00000000000E+00 0.  1.
     999901    1    3    3    0    0  0.33917632944E-01 -0.58770907251E-01  0.10791312107E+00  0.88918483290E+00  0.88000000000E+00 0.  1.
        -11    1    4    4    0    0 -0.27599697641E-02  0.31088878551E-01 -0.63889888386E-01  0.71107768645E-01  0.51100000000E-03 0. -1.
         11    1    4    4    0    0 -0.10713768596E-01  0.39362679778E-01 -0.44119682058E-01  0.60091703776E-01  0.51100000000E-03 0.  1.
</event>
<event>
 8    1  0.1052028E+005  0.1043930E+01  0.7957747E-01            NaN
         13   -1    0    0    0    0  0.00000000000E+00  0.00000000000E+00  0.74505805969E-08  0.10566000000E+00  0.10566000000E+00 0. -1.
     999900   -1    0    0    0    0 -0.00000000000E+00 -0.00000000000E+00 -0.74505805969E-08  0.93827000000E+00  0.93827000000E+00 0. -1.
     999902    2    1    2    0    0 -0.69972730597E-02 -0.23664796042E-01 -0.92869694970E-02  0.10175627437E+01  0.10172210700E+01 0.  0.
     999903    2    3    3    0    0  0.11500785565E+00  0.37993184560E-01 -0.31463589179E-01  0.12673236678E+00  0.20021149047E-01 0.  0.
         14    1    1    2    0    0  0.69972730597E-02  0.23664796042E-01  0.92869694970E-02  0.26367256293E-01  0.00000000000E+00 0.  1.
     999901    1    3    3    0    0 -0.12200512871E+00 -0.61657980602E-01  0.22176619682E-01  0.89083037693E+00  0.88000000000E+00 0.  1.
        -11    1    4    4    0    0  0.80157319759E-01  0.17560200651E-01 -0.16874154478E-01  0.83776815218E-01  0.51100000000E-03 0.  1.
         11    1    4    4    0    0  0.34850535896E-01  0.20432983909E-01 -0.14589434701E-01  0.42955551557E-01  0.51100000000E-03 0. -1.
</event>
<event>
 8    1  0.1052028E+005  0.1043930E+01  0.7957747E-01            NaN
         13   -1    0    0    0    0  0.00000000000E+00  0.00000000000E+00  0.74505805969E-08  0.10566000000E+00  0.10566000000E+00 0. -1.
     999900   -1    0    0    0    0 -0.00000000000E+00 -0.00000000000E+00 -0.74505805969E-08  0.93827000000E+00  0.93827000000E+00 0.  1.
     999902    2    1    2    0    0 -0.31799684765E-02  0.73211086942E-02 -0.21899611504E-01  0.10206211215E+01  0.10203549235E+01 0.  0.
     999903    2    3    3    0    0  0.10792884376E+00  0.40347439422E-01  0.55952816552E-01  0.12961219495E+00  0.19800308467E-01 0.  0.
         14    1    1    2    0    0  0.31799684765E-02 -0.73211086942E-02  0.21899611504E-01  0.23308878481E-01  0.00000000000E+00 0. -1.
     999901    1    3    3    0    0 -0.11110881224E+00 -0.33026330728E-01 -0.77852428056E-01  0.89100892657E+00  0.88000000000E+00 0.  1.
        -11    1    4    4    0    0  0.20707964977E-01  0.14276594099E-01  0.63770953655E-02  0.25953215963E-01  0.51100000000E-03 0. -1.
         11    1    4    4    0    0  0.87220878783E-01  0.26070845323E-01  0.49575721186E-01  0.10365897898E+00  0.51100000000E-03 0.  1.
</event>
<event>
 8    1  0.1052028E+005  0.1043930E+01  0.7957747E-01            NaN
         13   -1    0    0    0    0  0.00000000000E+00  0.00000000000E+00  0.74505805969E-08  0.10566000000E+00  0.10566000000E+00 0.  1.
     999900   -1    0    0    0    0 -0.00000000000E+00 -0.00000000000E+00 -0.74505805969E-08  0.93827000000E+00  0.93827000000E+00 0.  1.
     999902    2    1    2    0    0 -0.14762760908E-01 -0.82550950800E-02  0.15914927092E-01  0.10207056462E+01  0.10204413974E+01 0.  0.
     999903    2    3    3    0    0 -0.61037281669E-01  0.11315843727E+00 -0.13100727703E-01  0.13069189052E+00  0.19451465263E-01 0.  0.
         14    1    1    2    0    0  0.14762760908E-01  0.82550950800E-02 -0.15914927092E-01  0.23224353786E-01  0.00000000000E+00 0. -1.
     999901    1    3    3    0    0  0.46274520762E-01 -0.12141353235E+00  0.29015654795E-01  0.89001375570E+00  0.88000000000E+00 0. -1.
        -11    1    4    4    0    0 -0.38583390855E-01  0.86022193496E-01 -0.42709499853E-02  0.94376893138E-01  0.51100000000E-03 0. -1.
         11    1    4    4    0    0 -0.22453890815E-01  0.27136243776E-01 -0.88297777175E-02  0.36314997377E-01  0.51100000000E-03 0.  1.
</event>
<event>
 8    1  0.1052028E+005  0.1043930E+01  0.7957747E-01            NaN
         13   -1    0    0    0    0  0.00000000000E+00  0.00000000000E+00  0.74505805969E-08  0.10566000000E+00  0.10566000000E+00 0. -1.
     999900   -1    0    0    0    0 -0.00000000000E+00 -0.00000000000E+00 -0.74505805969E-08  0.93827000000E+00  0.93827000000E+00 0. -1.
     999902    2    1    2    0    0  0.13014787982E-01 -0.15326904806E-01 -0.11931714220E-01  0.10205491420E+01  0.10202812782E+01 0.  0.
     999903    2    3    3    0    0 -0.75658227862E-01  0.53411084099E-01 -0.89015789075E-01  0.13008310139E+00  0.20515633435E-01 0.  0.
         14    1    1    2    0    0 -0.13014787982E-01  0.15326904806E-01  0.11931714220E-01  0.23380858012E-01  0.00000000000E+00 0.  1.
     999901    1    3    3    0    0  0.88673015844E-01 -0.68737988905E-01  0.77084074855E-01  0.89046604060E+00  0.88000000000E+00 0.  1.
        -11    1    4    4    0    0 -0.25285219204E-01  0.24655999169E-01 -0.22732560323E-01  0.42003464442E-01  0.51100000000E-03 0. -1.
         11    1    4    4    0    0 -0.50373008658E-01  0.28755084930E-01 -0.66283228752E-01  0.88079636951E-01  0.51100000000E-03 0.  1.
</event>
<event>
 8    1  0.1052028E+005  0.1043930E+01  0.7957747E-01            NaN
         13   -1    0    0    0    0  0.00000000000E+00  0.00000000000E+00  0.74505805969E-08  0.10566000000E+00  0.10566000000E+00 0. -1.
     999900   -1    0    0    0    0 -0.00000000000E+00 -0.00000000000E+00 -0.74505805969E-08  0.93827000000E+00  0.93827000000E+00 0. -1.
     999902    2    1    2    0    0  0.16257323527E-01  0.59323739232E-02  0.15720031177E-01  0.10205502436E+01  0.10202824054E+01 0.  0.
     999903    2    3    3    0    0  0.36776817837E-01 -0.12353663616E+00  0.10360278483E-01  0.13082444250E+00  0.19846021753E-01 0.  0.
         14    1    1    2    0    0 -0.16257323527E-01 -0.59323739232E-02 -0.15720031177E-01  0.23379756389E-01  0.00000000000E+00 0.  1.
     999901    1    3    3    0    0 -0.20519494310E-01  0.12946901009E+00  0.53597526941E-02  0.88972580111E+00  0.88000000000E+00 0.  1.
        -11    1    4    4    0    0  0.86183692827E-02 -0.52706421909E-01  0.11316497565E-01  0.54594573336E-01  0.51100000000E-03 0.  1.
         11    1    4    4    0    0  0.28158448554E-01 -0.70830214255E-01 -0.95621908281E-03  0.76229869161E-01  0.51100000000E-03 0. -1.
</event>
<event>
 8    1  0.1052028E+005  0.1043930E+01  0.7957747E-01            NaN
         13   -1    0    0    0    0  0.00000000000E+00  0.00000000000E+00  0.74505805969E-08  0.10566000000E+00  0.10566000000E+00 0.  1.
     999900   -1    0    0    0    0 -0.00000000000E+00 -0.00000000000E+00 -0.74505805969E-08  0.93827000000E+00  0.93827000000E+00 0.  1.
     999902    2    1    2    0    0 -0.98917187430E-02  0.20599183244E-01  0.66578300873E-02  0.10201287574E+01  0.10198510589E+01 0.  0.
     999903    2    3    3    0    0  0.92946006596E-01  0.62249192237E-01 -0.64286361918E-01  0.13032911733E+00  0.18412507163E-01 0.  0.
         14    1    1    2    0    0  0.98917187430E-02 -0.20599183244E-01 -0.66578300873E-02  0.23801242646E-01  0.00000000000E+00 0.  1.
     999901    1    3    3    0    0 -0.10283772534E+00 -0.41650008993E-01  0.70944192005E-01  0.88979964002E+00  0.88000000000E+00 0. -1.
        -11    1    4    4    0    0  0.22396986212E-01  0.95956780880E-02 -0.21272934223E-01  0.32349665853E-01  0.51100000000E-03 0.  1.
         11    1    4    4    0    0  0.70549020384E-01  0.52653514149E-01 -0.43013427695E-01  0.97979451481E-01  0.51100000000E-03 0. -1.
</event>
<event>
 8    1  0.1052028E+005  0.1043930E+01  0.7957747E-01            NaN
         13   -1    0    0    0    0  0.00000000000E+00  0.00000000000E+00  0.74505805969E-08  0.10566000000E+00  0.10566000000E+00 0. -1.
     999900   -1    0    0    0    0 -0.00000000000E+00 -0.00000000000E+00 -0.74505805969E-08  0.93827000000E+00  0.93827000000E+00 0.  1.
     999902    2    1    2    0    0  0.12183336801E-01 -0.13298857510E-01  0.15201536475E-01  0.10203422910E+01  0.10200696107E+01 0.  0.
     999903    2    3    3    0    0  0.32024833662E-01  0.11333496330E+00 -0.48004357299E-01  0.12881282169E+00  0.20443112116E-01 0.  0.
         14    1    1    2    0    0 -0.12183336801E-01  0.13298857510E-01 -0.15201536475E-01  0.23587709042E-01  0.00000000000E+00 0.  1.
     999901    1    3    3    0    0 -0.19841496861E-01 -0.12663382081E+00  0.63205893774E-01  0.89152946927E+00  0.88000000000E+00 0. -1.
        -11    1    4    4    0    0  0.12696627242E-02  0.24285085062E-01 -0.16821857994E-01  0.29573863922E-01  0.51100000000E-03 0.  1.
         11    1    4    4    0    0  0.30755170938E-01  0.89049878242E-01 -0.31182499305E-01  0.99238957765E-01  0.51100000000E-03 0. -1.
</event>
<event>
 8    1  0.1052028E+005  0.1043930E+01  0.7957747E-01            NaN
         13   -1    0    0    0    0  0.00000000000E+00  0.00000000000E+00  0.74505805969E-08  0.10566000000E+00  0.10566000000E+00 0. -1.
     999900   -1    0    0    0    0 -0.00000000000E+00 -0.00000000000E+00 -0.74505805969E-08  0.93827000000E+00  0.93827000000E+00 0. -1.
     999902    2    1    2    0    0 -0.17733302535E-01  0.11281931647E-01 -0.15220593317E-01  0.10179796925E+01  0.10176488765E+01 0.  0.
     999903    2    3    3    0    0 -0.29639087195E-01  0.11705702106E+00 -0.46623457528E-01  0.13100942400E+00  0.20221293626E-01 0.  0.
         14    1    1    2    0    0  0.17733302535E-01 -0.11281931647E-01  0.15220593317E-01  0.25950307540E-01  0.00000000000E+00 0. -1.
     999901    1    3    3    0    0  0.11905784660E-01 -0.10577508941E+00  0.31402864211E-01  0.88697026846E+00  0.88000000000E+00 0.  1.
        -11    1    4    4    0    0 -0.53170927469E-02  0.11914142007E-01 -0.11829561116E-01  0.17618680207E-01  0.51100000000E-03 0.  1.
         11    1    4    4    0    0 -0.24321994448E-01  0.10514287905E+00 -0.34793896412E-01  0.11339074379E+00  0.51100000000E-03 0. -1.
</event>
<event>
 8    1  0.1052028E+005  0.1043930E+01  0.7957747E-01            NaN
         13   -1    0    0    0    0  0.00000000000E+00  0.00000000000E+00  0.74505805969E-08  0.10566000000E+00  0.10566000000E+00 0. -1.
     999900   -1    0    0    0    0 -0.00000000000E+00 -0.00000000000E+00 -0.74505805969E-08  0.93827000000E+00  0.93827000000E+00 0. -1.
     999902    2    1    2    0    0 -0.79879227498E-02 -0.20585374768E-01  0.78760212177E-02  0.10204865302E+01  0.10202172132E+01 0.  0.
     999903    2    3    3    0    0 -0.11407045719E+00 -0.73274734555E-02 -0.61605730976E-01  0.13129757960E+00  0.19442922832E-01 0.  0.
         14    1    1    2    0    0  0.79879227498E-02  0.20585374768E-01 -0.78760212177E-02  0.23443469760E-01  0.00000000000E+00 0. -1.
     999901    1    3    3    0    0  0.10608253444E+00 -0.13257901312E-01  0.69481752194E-01  0.88918895064E+00  0.88000000000E+00 0.  1.
        -11    1    4    4    0    0 -0.51922689099E-01  0.62470189486E-02 -0.26246596293E-01  0.58516115960E-01  0.51100000000E-03 0.  1.
         11    1    4    4    0    0 -0.62147768089E-01 -0.13574492404E-01 -0.35359134683E-01  0.72781463636E-01  0.51100000000E-03 0. -1.
</event>
<event>
 8    1  0.1052028E+005  0.1043930E+01  0.7957747E-01            NaN
         13   -1    0    0    0    0  0.00000000000E+00  0.00000000000E+00  0.74505805969E-08  0.10566000000E+00  0.10566000000E+00 0. -1.
     999900   -1    0    0    0    0 -0.00000000000E+00 -0.00000000000E+00 -0.74505805969E-08  0.93827000000E+00  0.93827000000E+00 0. -1.
     999902    2    1    2    0    0 -0.60882090789E-02 -0.21918996942E-01  0.22891106730E-03  0.10211800304E+01  0.10209265857E+01 0.  0.
     999903    2    3    3    0    0  0.57938509993E-01  0.11249681289E+00 -0.99334289150E-02  0.12861613697E+00  0.20761354241E-01 0.  0.
         14    1    1    2    0    0  0.60882090789E-02  0.21918996942E-01 -0.22891106730E-03  0.22749969605E-01  0.00000000000E+00 0. -1.
     999901    1    3    3    0    0 -0.64026719072E-01 -0.13441580983E+00  0.10162339982E-01  0.89256389342E+00  0.88000000000E+00 0.  1.
        -11    1    4    4    0    0  0.44628076090E-01  0.94755214332E-01 -0.11251277377E-02  0.10474608753E+00  0.51100000000E-03 0. -1.
         11    1    4    4    0    0  0.13310433903E-01  0.17741598555E-01 -0.88083011773E-02  0.23870049447E-01  0.51100000000E-03 0.  1.
</event>
<event>
 7    1  0.1052028E+005  0.1043930E+01  0.7957747E-01            NaN
         13   -1    0    0    0    0  0.00000000000E+00  0.00000000000E+00  0.74505805969E-08  0.10566000000E+00  0.10566000000E+00 0.  1.
     999900   -1    0    0    0    0 -0.00000000000E+00 -0.00000000000E+00 -0.74505805969E-08  0.93827000000E+00  0.93827000000E+00 0.  1.
     999902    2    1    2    0    0 -0.17879732143E-01 -0.15015524074E-01  0.28781243298E-03  0.10205797619E+01  0.10203126073E+01 0.  0.
         14    1    1    2    0    0  0.17879732143E-01  0.15015524074E-01 -0.28781243298E-03  0.23350238130E-01  0.00000000000E+00 0.  1.
     999901    1    3    3    0    0 -0.77286444650E-01  0.56763938667E-01  0.58569089619E-01  0.88714467677E+00  0.88000000000E+00 0.  1.
        -11    1    3    3    0    0  0.41405938605E-01 -0.31114518187E-01 -0.70342254135E-01  0.87354787114E-01  0.51100000000E-03 0.  1.
         11    1    3    3    0    0  0.18000773901E-01 -0.40664944555E-01  0.12060976949E-01  0.46080297988E-01  0.51100000000E-03 0. -1.
</event>
<event>
 8    1  0.1052028E+005  0.1043930E+01  0.7957747E-01            NaN
         13   -1    0    0    0    0  0.00000000000E+00  0.00000000000E+00  0.74505805969E-08  0.10566000000E+00  0.10566000000E+00 0. -1.
     999900   -1    0    0    0    0 -0.00000000000E+00 -0.00000000000E+00 -0.74505805969E-08  0.93827000000E+00  0.93827000000E+00 0.  1.
     999902    2    1    2    0    0  0.19815883999E-01 -0.27109395295E-02 -0.24734212010E-01  0.10121212010E+01  0.10116212363E+01 0.  0.
     999903    2    3    3    0    0 -0.36494887427E-01  0.91231667698E-01 -0.73358703244E-01  0.12399933007E+00  0.18418483012E-01 0.  0.
         14    1    1    2    0    0 -0.19815883999E-01  0.27109395295E-02  0.24734212010E-01  0.31808799027E-01  0.00000000000E+00 0. -1.
     999901    1    3    3    0    0  0.56310771426E-01 -0.93942607227E-01  0.48624491234E-01  0.88812187090E+00  0.88000000000E+00 0. -1.
        -11    1    4    4    0    0 -0.16435074662E-01  0.54845371810E-01 -0.51682210655E-01  0.77132603400E-01  0.51100000000E-03 0.  1.
         11    1    4    4    0    0 -0.20059812765E-01  0.36386295888E-01 -0.21676492589E-01  0.46866726668E-01  0.51100000000E-03 0. -1.
</event>
<event>
 8    1  0.1052028E+005  0.1043930E+01  0.7957747E-01            NaN
         13   -1    0    0    0    0  0.00000000000E+00  0.00000000000E+00  0.74505805969E-08  0.10566000000E+00  0.10566000000E+00 0.  1.
     999900   -1    0    0    0    0 -0.00000000000E+00 -0.00000000000E+00 -0.74505805969E-08  0.93827000000E+00  0.93827000000E+00 0.  1.
     999902    2    1    2    0    0  0.16631184422E-01  0.13980672679E-01  0.69304542753E-02  0.10211245905E+01  0.10208698951E+01 0.  0.
     999903    2    3    3    0    0  0.10474264073E+00  0.81389485637E-01 -0.94064439805E-03  0.13412429123E+00  0.19828553323E-01 0.  0.
         14    1    1    2    0    0 -0.16631184422E-01 -0.13980672679E-01 -0.69304542753E-02  0.22805409452E-01  0.00000000000E+00 0. -1.
     999901    1    3    3    0    0 -0.88111456307E-01 -0.67408812958E-01  0.78710986734E-02  0.88700029932E+00  0.88000000000E+00 0.  1.
        -11    1    4    4    0    0  0.92309902327E-01  0.66592929922E-01  0.48948356062E-02  0.11392961388E+00  0.51100000000E-03 0. -1.
         11    1    4    4    0    0  0.12432738401E-01  0.14796555715E-01 -0.58354800043E-02  0.20194677345E-01  0.51100000000E-03 0.  1.
</event>
<event>
 8    1  0.1052028E+005  0.1043930E+01  0.7957747E-01            NaN
         13   -1    0    0    0    0  0.00000000000E+00  0.00000000000E+00  0.74505805969E-08  0.10566000000E+00  0.10566000000E+00 0. -1.
     999900   -1    0    0    0    0 -0.00000000000E+00 -0.00000000000E+00 -0.74505805969E-08  0.93827000000E+00  0.93827000000E+00 0.  1.
     999902    2    1    2    0    0 -0.73312977817E-02 -0.13358667176E-01 -0.18031418767E-01  0.10203220781E+01  0.10200489248E+01 0.  0.
     999903    2    3    3    0    0 -0.10612478469E+00  0.72864449307E-01 -0.85409789572E-02  0.13055545285E+00  0.20002001164E-01 0.  0.
         14    1    1    2    0    0  0.73312977817E-02  0.13358667176E-01  0.18031418767E-01  0.23607921946E-01  0.00000000000E+00 0. -1.
     999901    1    3    3    0    0  0.98793486906E-01 -0.86223116483E-01 -0.94904398098E-02  0.88976662520E+00  0.88000000000E+00 0.  1.
        -11    1    4    4    0    0 -0.44433782121E-01  0.29993807832E-01 -0.13436003438E-01  0.55270035382E-01  0.51100000000E-03 0. -1.
         11    1    4    4    0    0 -0.61691002567E-01  0.42870641475E-01  0.48950244805E-02  0.75285417472E-01  0.51100000000E-03 0.  1.
</event>
<event>
 8    1  0.1052028E+005  0.1043930E+01  0.7957747E-01            NaN
         13   -1    0    0    0    0  0.00000000000E+00  0.00000000000E+00  0.74505805969E-08  0.10566000000E+00  0.10566000000E+00 0.  1.
     999900   -1    0    0    0    0 -0.00000000000E+00 -0.00000000000E+00 -0.74505805969E-08  0.93827000000E+00  0.93827000000E+00 0.  1.
     999902    2    1    2    0    0  0.16802019917E-01 -0.19732095863E-01 -0.19815753186E-01  0.10113059666E+01  0.10107796152E+01 0.  0.
     999903    2    3    3    0    0 -0.71037441856E-01 -0.89403011958E-01  0.38435707192E-01  0.12228232225E+00  0.20891291359E-01 0.  0.
         14    1    1    2    0    0 -0.16802019917E-01  0.19732095863E-01  0.19815753186E-01  0.32624033392E-01  0.00000000000E+00 0.  1.
     999901    1    3    3    0    0  0.87839461773E-01  0.69670916095E-01 -0.58251460378E-01  0.88902364436E+00  0.88000000000E+00 0.  1.
        -11    1    4    4    0    0 -0.15610601195E-01 -0.14560384207E-01  0.15444390030E-01  0.26353101569E-01  0.51100000000E-03 0. -1.
         11    1    4    4    0    0 -0.55426840661E-01 -0.74842627751E-01  0.22991317162E-01  0.95929220679E-01  0.51100000000E-03 0.  1.
</event>
<event>
 8    1  0.1052028E+005  0.1043930E+01  0.7957747E-01            NaN
         13   -1    0    0    0    0  0.00000000000E+00  0.00000000000E+00  0.74505805969E-08  0.10566000000E+00  0.10566000000E+00 0. -1.
     999900   -1    0    0    0    0 -0.00000000000E+00 -0.00000000000E+00 -0.74505805969E-08  0.93827000000E+00  0.93827000000E+00 0. -1.
     999902    2    1    2    0    0 -0.77512112078E-02 -0.37672836003E-02  0.19417029710E-01  0.10226863011E+01  0.10224656355E+01 0.  0.
     999903    2    3    3    0    0  0.76062379486E-01 -0.10337945246E+00 -0.24251559295E-01  0.13203808330E+00  0.19316328556E-01 0.  0.
         14    1    1    2    0    0  0.77512112078E-02  0.37672836003E-02 -0.19417029710E-01  0.21243698917E-01  0.00000000000E+00 0. -1.
     999901    1    3    3    0    0 -0.83813590694E-01  0.99612168864E-01  0.43668589005E-01  0.89064821778E+00  0.88000000000E+00 0. -1.
        -11    1    4    4    0    0  0.13325940490E-01 -0.30543270323E-01 -0.10408368619E-01  0.34915144426E-01  0.51100000000E-03 0.  1.
         11    1    4    4    0    0  0.62736438996E-01 -0.72836182141E-01 -0.13843190676E-01  0.97122938876E-01  0.51100000000E-03 0. -1.
</event>
<event>
 8    1  0.1052028E+005  0.1043930E+01  0.7957747E-01            NaN
         13   -1    0    0    0    0  0.00000000000E+00  0.00000000000E+00  0.74505805969E-08  0.10566000000E+00  0.10566000000E+00 0. -1.
     999900   -1    0    0    0    0 -0.00000000000E+00 -0.00000000000E+00 -0.74505805969E-08  0.93827000000E+00  0.93827000000E+00 0. -1.
     999902    2    1    2    0    0  0.25385367514E-02 -0.12495786841E-01 -0.19160646155E-01  0.10209143701E+01  0.10206549034E+01 0.  0.
     999903    2    3    3    0    0  0.66144987527E-01 -0.11356418743E+00  0.65873141540E-02  0.13247553732E+00  0.15309841195E-01 0.  0.
         14    1    1    2    0    0 -0.25385367514E-02  0.12495786841E-01  0.19160646155E-01  0.23015629878E-01  0.00000000000E+00 0. -1.
     999901    1    3    3    0    0 -0.63606450775E-01  0.10106840059E+00 -0.25747960309E-01  0.88843883281E+00  0.88000000000E+00 0.  1.
        -11    1    4    4    0    0  0.17675437128E-01 -0.20385174210E-01  0.49126727451E-02  0.27429398093E-01  0.51100000000E-03 0. -1.
         11    1    4    4    0    0  0.48469550399E-01 -0.93179013221E-01  0.16746414089E-02  0.10504613922E+00  0.51100000000E-03 0.  1.
</event>
<event>
 8    1  0.1052028E+005  0.1043930E+01  0.7957747E-01            NaN
         13   -1    0    0    0    0  0.00000000000E+00  0.00000000000E+00  0.74505805969E-08  0.10566000000E+00  0.10566000000E+00 0. -1.
     999900   -1    0    0    0    0 -0.00000000000E+00 -0.00000000000E+00 -0.74505805969E-08  0.93827000000E+00  0.93827000000E+00 0.  1.
     999902    2    1    2    0    0  0.20775553023E-02  0.17184732833E-01  0.15286659492E-01  0.10208364243E+01  0.10205751771E+01 0.  0.
     999903    2    3    3    0    0 -0.76573195005E-01 -0.78313124794E-01 -0.64430674548E-01  0.12861412318E+00  0.19846439223E-01 0.  0.
         14    1    1    2    0    0 -0.20775553023E-02 -0.17184732833E-01 -0.15286659492E-01  0.23093575665E-01  0.00000000000E+00 0.  1.
     999901    1    3    3    0    0  0.78650750307E-01  0.95497857627E-01  0.79717334040E-01  0.89222230116E+00  0.88000000000E+00 0. -1.
        -11    1    4    4    0    0 -0.57185182868E-02 -0.12019549487E-01 -0.13744303612E-01  0.19139958831E-01  0.51100000000E-03 0. -1.
         11    1    4    4    0    0 -0.70854676718E-01 -0.66293575307E-01 -0.50686370936E-01  0.10947416435E+00  0.51100000000E-03 0.  1.
</event>
<event>
 8    1  0.1052028E+005  0.1043930E+01  0.7957747E-01            NaN
         13   -1    0    0    0    0  0.00000000000E+00  0.00000000000E+00  0.74505805969E-08  0.10566000000E+00  0.10566000000E+00 0. -1.
     999900   -1    0    0    0    0 -0.00000000000E+00 -0.00000000000E+00 -0.74505805969E-08  0.93827000000E+00  0.93827000000E+00 0.  1.
     999902    2    1    2    0    0  0.11941201519E-01  0.18626649328E-01 -0.10749012781E-01  0.10193315115E+01  0.10190346632E+01 0.  0.
     999903    2    3    3    0    0  0.42851420476E-01 -0.11892711741E+00 -0.53672280941E-02  0.12809335931E+00  0.19979941676E-01 0.  0.
         14    1    1    2    0    0 -0.11941201519E-01 -0.18626649328E-01  0.10749012781E-01  0.24598488463E-01  0.00000000000E+00 0.  1.
     999901    1    3    3    0    0 -0.30910218957E-01  0.13755376674E+00 -0.53817846870E-02  0.89123815223E+00  0.88000000000E+00 0. -1.
        -11    1    4    4    0    0  0.13323915190E-01 -0.24217856917E-01 -0.82314842086E-02  0.28845272800E-01  0.51100000000E-03 0. -1.
         11    1    4    4    0    0  0.29527505285E-01 -0.94709260493E-01  0.28642561145E-02  0.99248086509E-01  0.51100000000E-03 0.  1.
</event>
<event>
 8    1  0.1052028E+005  0.1043930E+01  0.7957747E-01            NaN
         13   -1    0    0    0    0  0.00000000000E+00  0.00000000000E+00  0.74505805969E-08  0.10566000000E+00  0.10566000000E+00 0.  1.
     999900   -1    0    0    0    0 -0.00000000000E+00 -0.00000000000E+00 -0.74505805969E-08  0.93827000000E+00  0.93827000000E+00 0. -1.
     999902    2    1    2    0    0  0.21589687810E-01  0.81920356016E-02  0.91852566602E-02  0.10190785814E+01  0.10187755209E+01 0.  0.
     999903    2    3    3    0    0  0.85292713698E-01  0.59370061049E-01  0.80060222228E-01  0.13245547852E+00  0.18307469740E-01 0.  0.
         14    1    1    2    0    0 -0.21589687810E-01 -0.81920356016E-02 -0.91852566602E-02  0.24851418610E-01  0.00000000000E+00 0.  1.
     999901    1    3    3    0    0 -0.63703025888E-01 -0.51178025447E-01 -0.70874965568E-01  0.88662310287E+00  0.88000000000E+00 0. -1.
        -11    1    4    4    0    0  0.73961261784E-01  0.43343630321E-01  0.62224974612E-01  0.10592991608E+00  0.51100000000E-03 0.  1.
         11    1    4    4    0    0  0.11331451914E-01  0.16026430728E-01  0.17835247616E-01  0.26525562443E-01  0.51100000000E-03 0. -1.
</event>
<event>
 8    1  0.1052028E+005  0.1043930E+01  0.7957747E-01            NaN
         13   -1    0    0    0    0  0.00000000000E+00  0.00000000000E+00  0.74505805969E-08  0.10566000000E+00  0.10566000000E+00 0.  1.
     999900   -1    0    0    0    0 -0.00000000000E+00 -0.00000000000E+00 -0.74505805969E-08  0.93827000000E+00  0.93827000000E+00 0. -1.
     999902    2    1    2    0    0  0.51027020739E-02  0.18100176222E-01  0.23653817605E-01  0.10137115117E+01  0.10132610088E+01 0.  0.
     999903    2    3    3    0    0  0.22443557955E-01 -0.11890582746E+00  0.16532671086E-02  0.12266977612E+00  0.20070664751E-01 0.  0.
         14    1    1    2    0    0 -0.51027020739E-02 -0.18100176222E-01 -0.23653817605E-01  0.30218488298E-01  0.00000000000E+00 0. -1.
     999901    1    3    3    0    0 -0.17340855881E-01  0.13700600368E+00  0.22000550497E-01  0.89104173558E+00  0.88000000000E+00 0.  1.
        -11    1    4    4    0    0  0.33735818578E-02 -0.71145665543E-01  0.13091665328E-02  0.71239468120E-01  0.51100000000E-03 0. -1.
         11    1    4    4    0    0  0.19069976097E-01 -0.47760161917E-01  0.34410057579E-03  0.51430307999E-01  0.51100000000E-03 0.  1.
</event>
<event>
 8    1  0.1052028E+005  0.1043930E+01  0.7957747E-01            NaN
         13   -1    0    0    0    0  0.00000000000E+00  0.00000000000E+00  0.74505805969E-08  0.10566000000E+00  0.10566000000E+00 0.  1.
     999900   -1    0    0    0    0 -0.00000000000E+00 -0.00000000000E+00 -0.74505805969E-08  0.93827000000E+00  0.93827000000E+00 0.  1.
     999902    2    1    2    0    0  0.18116700576E-01 -0.15829297875E-01 -0.31890324638E-02  0.10196616783E+01  0.10193728399E+01 0.  0.
     999903    2    3    3    0    0  0.48600442861E-01  0.11336024593E+00  0.32242977384E-01  0.12900202157E+00  0.19732297791E-01 0.  0.
         14    1    1    2    0    0 -0.18116700576E-01  0.15829297875E-01  0.31890324638E-02  0.24268321718E-01  0.00000000000E+00 0. -1.
     999901    1    3    3    0    0 -0.30483742285E-01 -0.12918954380E+00 -0.35432009848E-01  0.89065965671E+00  0.88000000000E+00 0.  1.
        -11    1    4    4    0    0  0.14431802167E-01  0.52178095174E-01  0.20787906979E-01  0.57993350717E-01  0.51100000000E-03 0.  1.
         11    1    4    4    0    0  0.34168640693E-01  0.61182150752E-01  0.11455070405E-01  0.71008670854E-01  0.51100000000E-03 0. -1.
</event>
<event>
 8    1  0.1052028E+005  0.1043930E+01  0.7957747E-01            NaN
         13   -1    0    0    0    0  0.00000000000E+00  0.00000000000E+00  0.74505805969E-08  0.10566000000E+00  0.10566000000E+00 0. -1.
     999900   -1    0    0    0    0 -0.00000000000E+00 -0.00000000000E+00 -0.74505805969E-08  0.93827000000E+00  0.93827000000E+00 0.  1.
     999902    2    1    2    0    0  0.18288785627E-01  0.10450902340E-01  0.10319054516E-01  0.10204740002E+01  0.10202043919E+01 0.  0.
     999903    2    3    3    0    0 -0.18752495370E-02  0.65627231214E-01  0.11336102369E+00  0.13251642072E+00  0.19985745668E-01 0.  0.
         14    1    1    2    0    0 -0.18288785627E-01 -0.10450902340E-01 -0.10319054516E-01  0.23455999777E-01  0.00000000000E+00 0.  1.
     999901    1    3    3    0    0  0.20164035164E-01 -0.55176328874E-01 -0.10304196918E+00  0.88795757950E+00  0.88000000000E+00 0.  1.
        -11    1    4    4    0    0  0.10923655098E-02  0.48826688697E-01  0.65516136058E-01  0.81718198686E-01  0.51100000000E-03 0. -1.
         11    1    4    4    0    0 -0.29676150467E-02  0.16800542517E-01  0.47844887637E-01  0.50798222035E-01  0.51100000000E-03 0.  1.
</event>
<event>
 8    1  0.1052028E+005  0.1043930E+01  0.7957747E-01            NaN
         13   -1    0    0    0    0  0.00000000000E+00  0.00000000000E+00  0.74505805969E-08  0.10566000000E+00  0.10566000000E+00 0. -1.
     999900   -1    0    0    0    0 -0.00000000000E+00 -0.00000000000E+00 -0.74505805969E-08  0.93827000000E+00  0.93827000000E+00 0. -1.
     999902    2    1    2    0    0  0.89112407039E-02  0.48148398494E-02 -0.22193276984E-01  0.10195346226E+01  0.10192427151E+01 0.  0.
     999903    2    3    3    0    0 -0.49934426564E-01  0.10070970469E+00 -0.64959704987E-01  0.13134117241E+00  0.19870800729E-01 0.  0.
         14    1    1    2    0    0 -0.89112407039E-02 -0.48148398494E-02  0.22193276984E-01  0.24395377369E-01  0.00000000000E+00 0.  1.
     999901    1    3    3    0    0  0.58845667268E-01 -0.95894864842E-01  0.42766428003E-01  0.88819345023E+00  0.88000000000E+00 0. -1.
        -11    1    4    4    0    0 -0.92242981755E-02  0.10261041033E-01 -0.14618640308E-01  0.20108267090E-01  0.51100000000E-03 0.  1.
         11    1    4    4    0    0 -0.40710128389E-01  0.90448663658E-01 -0.50341064680E-01  0.11123290532E+00  0.51100000000E-03 0. -1.
</event>
<event>
 8    1  0.1052028E+005  0.1043930E+01  0.7957747E-01            NaN
         13   -1    0    0    0    0  0.00000000000E+00  0.00000000000E+00  0.74505805969E-08  0.10566000000E+00  0.10566000000E+00 0. -1.
     999900   -1    0    0    0    0 -0.00000000000E+00 -0.00000000000E+00 -0.74505805969E-08  0.93827000000E+00  0.93827000000E+00 0.  1.
     999902    2    1    2    0    0 -0.80946750441E-02 -0.17042952573E-01  0.14316051061E-01  0.10202459270E+01  0.10199709879E+01 0.  0.
     999903    2    3    3    0    0 -0.30795047004E-01 -0.32179099215E-01  0.12345461392E+00  0.13308436576E+00  0.22058498690E-01 0.  0.
         14    1    1    2    0    0  0.80946750441E-02  0.17042952573E-01 -0.14316051061E-01  0.23684073012E-01  0.00000000000E+00 0.  1.
     999901    1    3    3    0    0  0.22700371959E-01  0.15136146641E-01 -0.10913856286E+00  0.88716156123E+00  0.88000000000E+00 0.  1.
        -11    1    4    4    0    0 -0.28541921334E-01 -0.17690979920E-01  0.69784628359E-01  0.77445254988E-01  0.51100000000E-03 0.  1.
         11    1    4    4    0    0 -0.22531256697E-02 -0.14488119295E-01  0.53669985562E-01  0.55639110769E-01  0.51100000000E-03 0. -1.
</event>
<event>
 8    1  0.1052028E+005  0.1043930E+01  0.7957747E-01            NaN
         13   -1    0    0    0    0  0.00000000000E+00  0.00000000000E+00  0.74505805969E-08  0.10566000000E+00  0.10566000000E+00 0. -1.
     999900   -1    0    0    0    0 -0.00000000000E+00 -0.00000000000E+00 -0.74505805969E-08  0.93827000000E+00  0.93827000000E+00 0.  1.
     999902    2    1    2    0    0 -0.14690382253E-01  0.11983843737E-01 -0.14144132132E-01  0.10202767483E+01  0.10200025328E+01 0.  0.
     999903    2    3    3    0    0  0.80869474766E-01 -0.27439491789E-01 -0.96368260184E-01  0.13041906706E+00  0.20724232755E-01 0.  0.
         14    1    1    2    0    0  0.14690382253E-01 -0.11983843737E-01  0.14144132132E-01  0.23653251684E-01  0.00000000000E+00 0. -1.
     999901    1    3    3    0    0 -0.95559857019E-01  0.39423335526E-01  0.82224128052E-01  0.88985768126E+00  0.88000000000E+00 0. -1.
        -11    1    4    4    0    0  0.40822639367E-01 -0.13251533227E-01 -0.33078731617E-01  0.54189986383E-01  0.51100000000E-03 0.  1.
         11    1    4    4    0    0  0.40046835398E-01 -0.14187958562E-01 -0.63289528567E-01  0.76229080677E-01  0.51100000000E-03 0. -1.
</event>
<event>
 8    1  0.1052028E+005  0.1043930E+01  0.7957747E-01            NaN
         13   -1    0    0    0    0  0.00000000000E+00  0.00000000000E+00  0.74505805969E-08  0.10566000000E+00  0.10566000000E+00 0.  1.
     999900   -1    0    0    0    0 -0.00000000000E+00 -0.00000000000E+00 -0.74505805969E-08  0.93827000000E+00  0.93827000000E+00 0.  1.
     999902    2    1    2    0    0 -0.19419573259E-01 -0.17329757214E-02  0.14114483264E-01  0.10198604826E+01  0.10195764132E+01 0.  0.
     999903    2    3    3    0    0  0.63320547439E-01 -0.33218627184E-01 -0.10377424047E+00  0.12759649419E+00  0.19970063190E-01 0.  0.
         14    1    1    2    0    0  0.19419573259E-01  0.17329757214E-02 -0.14114483264E-01  0.24069517408E-01  0.00000000000E+00 0. -1.
     999901    1    3    3    0    0 -0.82740120699E-01  0.31485651462E-01  0.11788872373E+00  0.89226398841E+00  0.88000000000E+00 0. -1.
        -11    1    4    4    0    0  0.48328625441E-01 -0.15669726949E-01 -0.76885405748E-01  0.92156514244E-01  0.51100000000E-03 0. -1.
         11    1    4    4    0    0  0.14991921999E-01 -0.17548900234E-01 -0.26888834722E-01  0.35439979943E-01  0.51100000000E-03 0.  1.
</event>
<event>
 8    1  0.1052028E+005  0.1043930E+01  0.7957747E-01            NaN
         13   -1    0    0    0    0  0.00000000000E+00  0.00000000000E+00  0.74505805969E-08  0.10566000000E+00  0.10566000000E+00 0.  1.
     999900   -1    0    0    0    0 -0.00000000000E+00 -0.00000000000E+00 -0.74505805969E-08  0.93827000000E+00  0.93827000000E+00 0.  1.
     999902    2    1    2    0    0 -0.15030792113E-01  0.12228664537E-01  0.13596104173E-01  0.10202589418E+01  0.10199843084E+01 0.  0.
     999903    2    3    3    0    0 -0.75336320289E-01  0.23114017331E-01 -0.10226317462E+00  0.13055190006E+00  0.19396462929E-01 0.  0.
         14    1    1    2    0    0  0.15030792113E-01 -0.12228664537E-01 -0.13596104173E-01  0.23671058206E-01  0.00000000000E+00 0. -1.
     999901    1    3    3    0    0  0.60305528176E-01 -0.10885352794E-01  0.11585927879E+00  0.88970704174E+00  0.88000000000E+00 0. -1.
        -11    1    4    4    0    0 -0.16088327777E-01 -0.16238195887E-02 -0.28385055102E-01  0.32671754695E-01  0.51100000000E-03 0. -1.
         11    1    4    4    0    0 -0.59247992512E-01  0.24737836920E-01 -0.73878119514E-01  0.97880145362E-01  0.51100000000E-03 0.  1.
</event>
<event>
 8    1  0.1052028E+005  0.1043930E+01  0.7957747E-01            NaN
         13   -1    0    0    0    0  0.00000000000E+00  0.00000000000E+00  0.74505805969E-08  0.10566000000E+00  0.10566000000E+00 0. -1.
     999900   -1    0    0    0    0 -0.00000000000E+00 -0.00000000000E+00 -0.74505805969E-08  0.93827000000E+00  0.93827000000E+00 0.  1.
     999902    2    1    2    0    0 -0.12948742615E-01 -0.19789511873E-01  0.24517727762E-02  0.10201538375E+01  0.10198767309E+01 0.  0.
     999903    2    3    3    0    0  0.76376606543E-01 -0.45292911638E-01  0.94949785425E-01  0.13044302840E+00  0.10727909182E-01 0.  0.
         14    1    1    2    0    0  0.12948742615E-01  0.19789511873E-01 -0.24517727762E-02  0.23776162542E-01  0.00000000000E+00 0.  1.
     999901    1    3    3    0    0 -0.89325349158E-01  0.25503399765E-01 -0.92498012649E-01  0.88971080905E+00  0.88000000000E+00 0.  1.
        -11    1    4    4    0    0  0.49604082566E-01 -0.26241168987E-01  0.66129355708E-01  0.86732443551E-01  0.51100000000E-03 0.  1.
         11    1    4    4    0    0  0.26772523978E-01 -0.19051742651E-01  0.28820429717E-01  0.43710584853E-01  0.51100000000E-03 0. -1.
</event>
<event>
 8    1  0.1052028E+005  0.1043930E+01  0.7957747E-01            NaN
         13   -1    0    0    0    0  0.00000000000E+00  0.00000000000E+00  0.74505805969E-08  0.10566000000E+00  0.10566000000E+00 0.  1.
     999900   -1    0    0    0    0 -0.00000000000E+00 -0.00000000000E+00 -0.74505805969E-08  0.93827000000E+00  0.93827000000E+00 0.  1.
     999902    2    1    2    0    0 -0.26269436452E-01 -0.18301106846E-01 -0.12248776616E-01  0.10096510512E+01  0.10090689762E+01 0.  0.
     999903    2    3    3    0    0 -0.25207817279E-01  0.10476831698E+00  0.46984285681E-01  0.11911426599E+00  0.19205493147E-01 0.  0.
         14    1    1    2    0    0  0.26269436452E-01  0.18301106846E-01  0.12248776616E-01  0.34278948815E-01  0.00000000000E+00 0.  1.
     999901    1    3    3    0    0 -0.10616191732E-02 -0.12306942382E+00 -0.59233062297E-01  0.89053678519E+00  0.88000000000E+00 0. -1.
        -11    1    4    4    0    0  0.22027266027E-02  0.24020177472E-01  0.88126755281E-02  0.25685507611E-01  0.51100000000E-03 0.  1.
         11    1    4    4    0    0 -0.27410543882E-01  0.80748139506E-01  0.38171610153E-01  0.93428758379E-01  0.51100000000E-03 0. -1.
</event>
<event>
 8    1  0.1052028E+005  0.1043930E+01  0.7957747E-01            NaN
         13   -1    0    0    0    0  0.00000000000E+00  0.00000000000E+00  0.74505805969E-08  0.10566000000E+00  0.10566000000E+00 0. -1.
     999900   -1    0    0    0    0 -0.00000000000E+00 -0.00000000000E+00 -0.74505805969E-08  0.93827000000E+00  0.93827000000E+00 0. -1.
     999902    2    1    2    0    0 -0.17097291578E-01  0.15457038125E-01  0.50793254578E-02  0.10203283697E+01  0.10200553637E+01 0.  0.
     999903    2    3    3    0    0 -0.14616504030E-01 -0.12629284834E+00 -0.83536915676E-02  0.12888031703E+00  0.19412012344E-01 0.  0.
         14    1    1    2    0    0  0.17097291578E-01 -0.15457038125E-01 -0.50793254578E-02  0.23601630326E-01  0.00000000000E+00 0. -1.
     999901    1    3    3    0    0 -0.24807875487E-02  0.14174988646E+00  0.13433017025E-01  0.89144805265E+00  0.88000000000E+00 0. -1.
        -11    1    4    4    0    0 -0.67630789084E-03 -0.12847269237E-02  0.21659841969E-02  0.26571646868E-02  0.51100000000E-03 0. -1.
         11    1    4    4    0    0 -0.13940196139E-01 -0.12500812141E+00 -0.10519675765E-01  0.12622315234E+00  0.51100000000E-03 0.  1.
</event>
<event>
 8    1  0.1052028E+005  0.1043930E+01  0.7957747E-01            NaN
         13   -1    0    0    0    0  0.00000000000E+00  0.00000000000E+00  0.74505805969E-08  0.10566000000E+00  0.10566000000E+00 0.  1.
     999900   -1    0    0    0    0 -0.00000000000E+00 -0.00000000000E+00 -0.74505805969E-08  0.93827000000E+00  0.93827000000E+00 0.  1.
     999902    2    1    2    0    0  0.17701172156E-01  0.11480758147E-01 -0.12789806122E-01  0.10192577799E+01  0.10189591275E+01 0.  0.
     999903    2    3    3    0    0  0.67354508742E-01 -0.10844033586E+00 -0.16137975339E-01  0.12973108956E+00  0.16546451597E-01 0.  0.
         14    1    1    2    0    0 -0.17701172156E-01 -0.11480758147E-01  0.12789806122E-01  0.24672220086E-01  0.00000000000E+00 0.  1.
     999901    1    3    3    0    0 -0.49653336586E-01  0.11992109401E+00  0.33481692168E-02  0.88952669036E+00  0.88000000000E+00 0.  1.
        -11    1    4    4    0    0  0.63151784404E-01 -0.99228933675E-01 -0.10395409574E-01  0.11807986625E+00  0.51100000000E-03 0.  1.
         11    1    4    4    0    0  0.42027243383E-02 -0.92114021833E-02 -0.57425657643E-02  0.11651223309E-01  0.51100000000E-03 0. -1.
</event>
<event>
 8    1  0.1052028E+005  0.1043930E+01  0.7957747E-01            NaN
         13   -1    0    0    0    0  0.00000000000E+00  0.00000000000E+00  0.74505805969E-08  0.10566000000E+00  0.10566000000E+00 0. -1.
     999900   -1    0    0    0    0 -0.00000000000E+00 -0.00000000000E+00 -0.74505805969E-08  0.93827000000E+00  0.93827000000E+00 0.  1.
     999902    2    1    2    0    0 -0.20282877193E-01 -0.10556923157E-01  0.78306625282E-02  0.10197605356E+01  0.10194740737E+01 0.  0.
     999903    2    3    3    0    0 -0.47607808276E-01  0.80331675689E-01 -0.87627562568E-01  0.12952480165E+00  0.19452583210E-01 0.  0.
         14    1    1    2    0    0  0.20282877193E-01  0.10556923157E-01 -0.78306625282E-02  0.24169464400E-01  0.00000000000E+00 0.  1.
     999901    1    3    3    0    0  0.27324931084E-01 -0.90888598846E-01  0.95458225096E-01  0.89023573395E+00  0.88000000000E+00 0. -1.
        -11    1    4    4    0    0 -0.82987610871E-02  0.25695183579E-01 -0.16752326602E-01  0.31780708965E-01  0.51100000000E-03 0.  1.
         11    1    4    4    0    0 -0.39309047189E-01  0.54636492110E-01 -0.70875235966E-01  0.97744092687E-01  0.51100000000E-03 0. -1.
</event>
<event>
 8    1  0.1052028E+005  0.1043930E+01  0.7957747E-01            NaN
         13   -1    0    0    0    0  0.00000000000E+00  0.00000000000E+00  0.74505805969E-08  0.10566000000E+00  0.10566000000E+00 0.  1.
     999900   -1    0    0    0    0 -0.00000000000E+00 -0.00000000000E+00 -0.74505805969E-08  0.93827000000E+00  0.93827000000E+00 0.  1.
     999902    2    1    2    0    0 -0.75028863949E-02 -0.69150581742E-03 -0.22808926501E-01  0.10199087883E+01  0.10196258715E+01 0.  0.
     999903    2    3    3    0    0  0.31345489026E-01 -0.69264274579E-01  0.10086318102E+00  0.12777303007E+00  0.19299909679E-01 0.  0.
         14    1    1    2    0    0  0.75028863949E-02  0.69150581742E-03  0.22808926501E-01  0.24021211724E-01  0.00000000000E+00 0.  1.
     999901    1    3    3    0    0 -0.38848375421E-01  0.68572768762E-01 -0.12367210752E+00  0.89213575820E+00  0.88000000000E+00 0.  1.
        -11    1    4    4    0    0  0.33531915391E-01 -0.58752859450E-01  0.85601732012E-01  0.10910639527E+00  0.51100000000E-03 0.  1.
         11    1    4    4    0    0 -0.21864263649E-02 -0.10511415129E-01  0.15261449005E-01  0.18666634807E-01  0.51100000000E-03 0. -1.
</event>
<event>
 8    1  0.1052028E+005  0.1043930E+01  0.7957747E-01            NaN
         13   -1    0    0    0    0  0.00000000000E+00  0.00000000000E+00  0.74505805969E-08  0.10566000000E+00  0.10566000000E+00 0. -1.
     999900   -1    0    0    0    0 -0.00000000000E+00 -0.00000000000E+00 -0.74505805969E-08  0.93827000000E+00  0.93827000000E+00 0. -1.
     999902    2    1    2    0    0 -0.15043525722E-01 -0.16407853261E-01 -0.87215057637E-02  0.10200220520E+01  0.10197418284E+01 0.  0.
     999903    2    3    3    0    0 -0.10957397149E+00 -0.66233686372E-01  0.29129485394E-01  0.13275021296E+00  0.19512449407E-01 0.  0.
         14    1    1    2    0    0  0.15043525722E-01  0.16407853261E-01  0.87215057637E-02  0.23907948000E-01  0.00000000000E+00 0. -1.
     999901    1    3    3    0    0  0.94530445772E-01  0.49825833111E-01 -0.37850991157E-01  0.88727183904E+00  0.88000000000E+00 0. -1.
        -11    1    4    4    0    0 -0.94555515925E-01 -0.52676967030E-01  0.30530394702E-01  0.11246321429E+00  0.51100000000E-03 0.  1.
         11    1    4    4    0    0 -0.15018455569E-01 -0.13556719342E-01 -0.14009093079E-02  0.20286998667E-01  0.51100000000E-03 0. -1.
</event>
<event>
 8    1  0.1052028E+005  0.1043930E+01  0.7957747E-01            NaN
         13   -1    0    0    0    0  0.00000000000E+00  0.00000000000E+00  0.74505805969E-08  0.10566000000E+00  0.10566000000E+00 0. -1.
     999900   -1    0    0    0    0 -0.00000000000E+00 -0.00000000000E+00 -0.74505805969E-08  0.93827000000E+00  0.93827000000E+00 0. -1.
     999902    2    1    2    0    0  0.15748651491E-01  0.15259146920E-01  0.77396980798E-02  0.10206756560E+01  0.10204107164E+01 0.  0.
     999903    2    3    3    0    0 -0.10428915417E+00 -0.71922244447E-01  0.65224726805E-02  0.12825694742E+00  0.18927889136E-01 0.  0.
         14    1    1    2    0    0 -0.15748651491E-01 -0.15259146920E-01 -0.77396980798E-02  0.23254344001E-01  0.00000000000E+00 0. -1.
     999901    1    3    3    0    0  0.12003780566E+00  0.87181391367E-01  0.12172253993E-02  0.89241870858E+00  0.88000000000E+00 0. -1.
        -11    1    4    4    0    0 -0.44538450821E-01 -0.42080712640E-01  0.43880852740E-02  0.61432698062E-01  0.51100000000E-03 0. -1.
         11    1    4    4    0    0 -0.59750703350E-01 -0.29841531807E-01  0.21343874066E-02  0.66824249356E-01  0.51100000000E-03 0.  1.
</event>
<event>
 8    1  0.1052028E+005  0.1043930E+01  0.7957747E-01            NaN
         13   -1    0    0    0    0  0.00000000000E+00  0.00000000000E+00  0.74505805969E-08  0.10566000000E+00  0.10566000000E+00 0. -1.
     999900   -1    0    0    0    0 -0.00000000000E+00 -0.00000000000E+00 -0.74505805969E-08  0.93827000000E+00  0.93827000000E+00 0. -1.
     999902    2    1    2    0    0 -0.12472201693E-01  0.54208092974E-02 -0.20146671964E-01  0.10196230179E+01  0.10193332474E+01 0.  0.
     999903    2    3    3    0    0 -0.70407773326E-02  0.54405449468E-02  0.12540655151E+00  0.12765034923E+00  0.22105122063E-01 0.  0.
         14    1    1    2    0    0  0.12472201693E-01 -0.54208092974E-02  0.20146671964E-01  0.24306982119E-01  0.00000000000E+00 0. -1.
     999901    1    3    3    0    0 -0.54314243602E-02 -0.19735649402E-04 -0.14555322347E+00  0.89197266865E+00  0.88000000000E+00 0. -1.
        -11    1    4    4    0    0 -0.12575082883E-01  0.51790211438E-02  0.44065948849E-01  0.46119669757E-01  0.51100000000E-03 0. -1.
         11    1    4    4    0    0  0.55343055506E-02  0.26152380300E-03  0.81340602662E-01  0.81530679471E-01  0.51100000000E-03 0.  1.
</event>
<event>
 8    1  0.1052028E+005  0.1043930E+01  0.7957747E-01            NaN
         13   -1    0    0    0    0  0.00000000000E+00  0.00000000000E+00  0.74505805969E-08  0.10566000000E+00  0.10566000000E+00 0. -1.
     999900   -1    0    0    0    0 -0.00000000000E+00 -0.00000000000E+00 -0.74505805969E-08  0.93827000000E+00  0.93827000000E+00 0. -1.
     999902    2    1    2    0    0  0.18521977812E-01 -0.17761669121E-01  0.10513099164E-02  0.10182464293E+01  0.10179224651E+01 0.  0.
     999903    2    3    3    0    0 -0.56502516668E-01  0.11012235866E+00 -0.11426398832E-01  0.12575626545E+00  0.19094696724E-01 0.  0.
         14    1    1    2    0    0 -0.18521977812E-01  0.17761669121E-01 -0.10513099164E-02  0.25683570713E-01  0.00000000000E+00 0.  1.
     999901    1    3    3    0    0  0.75024494480E-01 -0.12788402778E+00  0.12477708748E-01  0.89249016384E+00  0.88000000000E+00 0. -1.
        -11    1    4    4    0    0 -0.13879287824E-01  0.45753879745E-01 -0.79771202431E-02  0.48476259247E-01  0.51100000000E-03 0. -1.
         11    1    4    4    0    0 -0.42623228844E-01  0.64368478914E-01 -0.34492785885E-02  0.77280006202E-01  0.51100000000E-03 0.  1.
</event>
<event>
 8    1  0.1052028E+005  0.1043930E+01  0.7957747E-01            NaN
         13   -1    0    0    0    0  0.00000000000E+00  0.00000000000E+00  0.74505805969E-08  0.10566000000E+00  0.10566000000E+00 0.  1.
     999900   -1    0    0    0    0 -0.00000000000E+00 -0.00000000000E+00 -0.74505805969E-08  0.93827000000E+00  0.93827000000E+00 0.  1.
     999902    2    1    2    0    0 -0.74101695711E-02 -0.10517491533E-01 -0.18491030014E-01  0.10214034283E+01  0.10211549916E+01 0.  0.
     999903    2    3    3    0    0  0.39974605553E-01 -0.12464876887E+00 -0.59872955136E-02  0.13268096952E+00  0.20811230031E-01 0.  0.
         14    1    1    2    0    0  0.74101695711E-02  0.10517491533E-01  0.18491030014E-01  0.22526571692E-01  0.00000000000E+00 0.  1.
     999901    1    3    3    0    0 -0.47384775124E-01  0.11413127734E+00 -0.12503734500E-01  0.88872245879E+00  0.88000000000E+00 0. -1.
        -11    1    4    4    0    0  0.10562568746E-01 -0.50950328306E-01 -0.10941835498E-01  0.53174135612E-01  0.51100000000E-03 0. -1.
         11    1    4    4    0    0  0.29412036807E-01 -0.73698440562E-01  0.49545399844E-02  0.79506833907E-01  0.51100000000E-03 0.  1.
</event>
<event>
 8    1  0.1052028E+005  0.1043930E+01  0.7957747E-01            NaN
         13   -1    0    0    0    0  0.00000000000E+00  0.00000000000E+00  0.74505805969E-08  0.10566000000E+00  0.10566000000E+00 0. -1.
     999900   -1    0    0    0    0 -0.00000000000E+00 -0.00000000000E+00 -0.74505805969E-08  0.93827000000E+00  0.93827000000E+00 0.  1.
     999902    2    1    2    0    0  0.22630319009E-01  0.30349613012E-03  0.78321562877E-02  0.10199807595E+01  0.10196995556E+01 0.  0.
     999903    2    3    3    0    0 -0.62885238802E-01  0.10680737320E+00 -0.29505514513E-01  0.12866146311E+00  0.17911685424E-01 0.  0.
         14    1    1    2    0    0 -0.22630319009E-01 -0.30349613012E-03 -0.78321562877E-02  0.23949240499E-01  0.00000000000E+00 0.  1.
     999901    1    3    3    0    0  0.85515557811E-01 -0.10650387707E+00  0.37337670801E-01  0.89131929639E+00  0.88000000000E+00 0. -1.
        -11    1    4    4    0    0 -0.34915494413E-01  0.74330455275E-01 -0.23184174808E-01  0.85333905419E-01  0.51100000000E-03 0.  1.
         11    1    4    4    0    0 -0.27969744389E-01  0.32476917921E-01 -0.63213397058E-02  0.43327557691E-01  0.51100000000E-03 0. -1.
</event>
<event>
 8    1  0.1052028E+005  0.1043930E+01  0.7957747E-01            NaN
         13   -1    0    0    0    0  0.00000000000E+00  0.00000000000E+00  0.74505805969E-08  0.10566000000E+00  0.10566000000E+00 0.  1.
     999900   -1    0    0    0    0 -0.00000000000E+00 -0.00000000000E+00 -0.74505805969E-08  0.93827000000E+00  0.93827000000E+00 0.  1.
     999902    2    1    2    0    0  0.20623805246E-01 -0.10887008064E-01  0.28192770508E-02  0.10204392229E+01  0.10201688051E+01 0.  0.
     999903    2    3    3    0    0 -0.82177759846E-01 -0.11771686617E-01 -0.96427824327E-01  0.12891304177E+00  0.20700005192E-01 0.  0.
         14    1    1    2    0    0 -0.20623805246E-01  0.10887008064E-01 -0.28192770508E-02  0.23490777137E-01  0.00000000000E+00 0. -1.
     999901    1    3    3    0    0  0.10280156509E+00  0.88467855305E-03  0.99247101377E-01  0.89152618109E+00  0.88000000000E+00 0. -1.
        -11    1    4    4    0    0 -0.50794198501E-01 -0.10284512967E-01 -0.73843530697E-01  0.90216129129E-01  0.51100000000E-03 0.  1.
         11    1    4    4    0    0 -0.31383561345E-01 -0.14871736507E-02 -0.22584293630E-01  0.38696912641E-01  0.51100000000E-03 0. -1.
</event>
<event>
 8    1  0.1052028E+005  0.1043930E+01  0.7957747E-01            NaN
         13   -1    0    0    0    0  0.00000000000E+00  0.00000000000E+00  0.74505805969E-08  0.10566000000E+00  0.10566000000E+00 0. -1.
     999900   -1    0    0    0    0 -0.00000000000E+00 -0.00000000000E+00 -0.74505805969E-08  0.93827000000E+00  0.93827000000E+00 0.  1.
     999902    2    1    2    0    0 -0.17157169857E-01  0.47820996151E-02  0.17289374788E-01  0.10191074410E+01  0.10188050927E+01 0.  0.
     999903    2    3    3    0    0  0.19689447385E-01 -0.10747506144E+00 -0.62508269964E-01  0.12763281573E+00  0.21078156162E-01 0.  0.
         14    1    1    2    0    0  0.17157169857E-01 -0.47820996151E-02 -0.17289374788E-01  0.24822558990E-01  0.00000000000E+00 0.  1.
     999901    1    3    3    0    0 -0.36846617243E-01  0.11225716106E+00  0.79797644752E-01  0.89147462528E+00  0.88000000000E+00 0. -1.
        -11    1    4    4    0    0  0.83292365426E-03 -0.61506387579E-01 -0.32234675842E-01  0.69448289557E-01  0.51100000000E-03 0. -1.
         11    1    4    4    0    0  0.18856523731E-01 -0.45968673862E-01 -0.30273594122E-01  0.58184526173E-01  0.51100000000E-03 0.  1.
</event>
<event>
 8    1  0.1052028E+005  0.1043930E+01  0.7957747E-01            NaN
         13   -1    0    0    0    0  0.00000000000E+00  0.00000000000E+00  0.74505805969E-08  0.10566000000E+00  0.10566000000E+00 0.  1.
     999900   -1    0    0    0    0 -0.00000000000E+00 -0.00000000000E+00 -0.74505805969E-08  0.93827000000E+00  0.93827000000E+00 0.  1.
     999902    2    1    2    0    0 -0.22350837318E-01  0.48030662435E-03  0.10460910075E-01  0.10192475920E+01  0.10189486899E+01 0.  0.
     999903    2    3    3    0    0 -0.33666951126E-01 -0.12380440390E+00  0.12815082203E-01  0.13043924046E+00  0.19727521285E-01 0.  0.
         14    1    1    2    0    0  0.22350837318E-01 -0.48030662435E-03 -0.10460910075E-01  0.24682407963E-01  0.00000000000E+00 0. -1.
     999901    1    3    3    0    0  0.11316113809E-01  0.12428471053E+00 -0.23541721273E-02  0.88880835158E+00  0.88000000000E+00 0. -1.
        -11    1    4    4    0    0 -0.39518925059E-02 -0.39606062021E-01 -0.23313693116E-02  0.39874227354E-01  0.51100000000E-03 0.  1.
         11    1    4    4    0    0 -0.29715058621E-01 -0.84198341883E-01  0.15146451514E-01  0.90565013108E-01  0.51100000000E-03 0. -1.
</event>
<event>
 7    1  0.1526199E+005  0.1043930E+01  0.7957747E-01            NaN
         13   -1    0    0    0    0  0.00000000000E+00  0.00000000000E+00  0.74505805969E-08  0.10566000000E+00  0.10566000000E+00 0. -1.
     999900   -1    0    0    0    0 -0.00000000000E+00 -0.00000000000E+00 -0.74505805969E-08  0.93827000000E+00  0.93827000000E+00 0.  1.
     999903    2    1    2    0    0 -0.78216163814E-01 -0.31106477494E-01  0.29843538696E-01  0.91612128134E-01  0.20414798442E-01 0.  0.
         14    1    1    2    0    0 -0.68431318367E-02 -0.62367214828E-01  0.10894457822E-02  0.62750974741E-01  0.00000000000E+00 0.  1.
     999901    1    1    2    0    0  0.85059295651E-01  0.93473692323E-01 -0.30932984478E-01  0.88956689713E+00  0.88000000000E+00 0.  1.
        -11    1    3    3    0    0 -0.41737232150E-01 -0.59202760250E-02  0.17005996202E-01  0.45458896199E-01  0.51100000000E-03 0. -1.
         11    1    3    3    0    0 -0.36478931664E-01 -0.25186201469E-01  0.12837542494E-01  0.46153231935E-01  0.51100000000E-03 0.  1.
</event>
<event>
 8    1  0.1052028E+005  0.1043930E+01  0.7957747E-01            NaN
         13   -1    0    0    0    0  0.00000000000E+00  0.00000000000E+00  0.74505805969E-08  0.10566000000E+00  0.10566000000E+00 0. -1.
     999900   -1    0    0    0    0 -0.00000000000E+00 -0.00000000000E+00 -0.74505805969E-08  0.93827000000E+00  0.93827000000E+00 0. -1.
     999902    2    1    2    0    0  0.10890217956E-01 -0.48350565896E-02  0.20597944834E-01  0.10201339930E+01  0.10198564182E+01 0.  0.
     999903    2    3    3    0    0  0.34275960797E-01  0.27679540256E-01 -0.11876847228E+00  0.12826679983E+00  0.20135130792E-01 0.  0.
         14    1    1    2    0    0 -0.10890217956E-01  0.48350565896E-02 -0.20597944834E-01  0.23796007033E-01  0.00000000000E+00 0.  1.
     999901    1    3    3    0    0 -0.23385742840E-01 -0.32514596846E-01  0.13936641712E+00  0.89186719314E+00  0.88000000000E+00 0.  1.
        -11    1    4    4    0    0  0.21239674653E-01  0.19889101615E-01 -0.99832011083E-01  0.10398745934E+00  0.51100000000E-03 0.  1.
         11    1    4    4    0    0  0.13036286143E-01  0.77904386405E-02 -0.18936461202E-01  0.24279340487E-01  0.51100000000E-03 0. -1.
</event>
<event>
 8    1  0.1052028E+005  0.1043930E+01  0.7957747E-01            NaN
         13   -1    0    0    0    0  0.00000000000E+00  0.00000000000E+00  0.74505805969E-08  0.10566000000E+00  0.10566000000E+00 0. -1.
     999900   -1    0    0    0    0 -0.00000000000E+00 -0.00000000000E+00 -0.74505805969E-08  0.93827000000E+00  0.93827000000E+00 0.  1.
     999902    2    1    2    0    0  0.18890059652E-01 -0.11732185940E-01 -0.28631467490E-02  0.10215095596E+01  0.10212634842E+01 0.  0.
     999903    2    3    3    0    0 -0.49938374317E-01  0.39423623768E-01  0.11181454959E+00  0.12993497253E+00  0.18235686002E-01 0.  0.
         14    1    1    2    0    0 -0.18890059652E-01  0.11732185940E-01  0.28631467490E-02  0.22420440449E-01  0.00000000000E+00 0. -1.
     999901    1    3    3    0    0  0.68828433970E-01 -0.51155809708E-01 -0.11467769634E+00  0.89157458702E+00  0.88000000000E+00 0.  1.
        -11    1    4    4    0    0 -0.12485441240E-01  0.17510344075E-02  0.27860226141E-01  0.30584402660E-01  0.51100000000E-03 0. -1.
         11    1    4    4    0    0 -0.37452933078E-01  0.37672589361E-01  0.83954323453E-01  0.99350569866E-01  0.51100000000E-03 0.  1.
</event>
<event>
 8    1  0.1052028E+005  0.1043930E+01  0.7957747E-01            NaN
         13   -1    0    0    0    0  0.00000000000E+00  0.00000000000E+00  0.74505805969E-08  0.10566000000E+00  0.10566000000E+00 0.  1.
     999900   -1    0    0    0    0 -0.00000000000E+00 -0.00000000000E+00 -0.74505805969E-08  0.93827000000E+00  0.93827000000E+00 0.  1.
     999902    2    1    2    0    0  0.11535353334E-01 -0.79969297800E-02 -0.18586309972E-01  0.10206390966E+01  0.10203733137E+01 0.  0.
     999903    2    3    3    0    0  0.41114779569E-01  0.11432611084E+00 -0.45547366752E-01  0.13127709646E+00  0.19955668822E-01 0.  0.
         14    1    1    2    0    0 -0.11535353334E-01  0.79969297800E-02  0.18586309972E-01  0.23290903392E-01  0.00000000000E+00 0.  1.
     999901    1    3    3    0    0 -0.29579426235E-01 -0.12232304062E+00  0.26961056780E-01  0.88936200015E+00  0.88000000000E+00 0.  1.
        -11    1    4    4    0    0  0.10459550036E-01  0.55386017481E-01 -0.25611284954E-01  0.61912940145E-01  0.51100000000E-03 0.  1.
         11    1    4    4    0    0  0.30655229533E-01  0.58940093360E-01 -0.19936081797E-01  0.69364156316E-01  0.51100000000E-03 0. -1.
</event>
<event>
 8    1  0.1052028E+005  0.1043930E+01  0.7957747E-01            NaN
         13   -1    0    0    0    0  0.00000000000E+00  0.00000000000E+00  0.74505805969E-08  0.10566000000E+00  0.10566000000E+00 0. -1.
     999900   -1    0    0    0    0 -0.00000000000E+00 -0.00000000000E+00 -0.74505805969E-08  0.93827000000E+00  0.93827000000E+00 0. -1.
     999902    2    1    2    0    0  0.12745736569E-01  0.19507015642E-01 -0.33217860019E-02  0.10203925464E+01  0.10201210404E+01 0.  0.
     999903    2    3    3    0    0  0.72797493667E-01 -0.96341419156E-01 -0.43338823246E-01  0.12987110553E+00  0.20176875909E-01 0.  0.
         14    1    1    2    0    0 -0.12745736569E-01 -0.19507015642E-01  0.33217860019E-02  0.23537453605E-01  0.00000000000E+00 0.  1.
     999901    1    3    3    0    0 -0.60051757097E-01  0.11584843480E+00  0.40017037244E-01  0.89052144087E+00  0.88000000000E+00 0.  1.
        -11    1    4    4    0    0  0.28765106149E-01 -0.37722761915E-01 -0.27595790221E-01  0.54883757681E-01  0.51100000000E-03 0. -1.
         11    1    4    4    0    0  0.44032387517E-01 -0.58618657241E-01 -0.15743033025E-01  0.74987347847E-01  0.51100000000E-03 0.  1.
</event>
<event>
 8    1  0.1052028E+005  0.1043930E+01  0.7957747E-01            NaN
         13   -1    0    0    0    0  0.00000000000E+00  0.00000000000E+00  0.74505805969E-08  0.10566000000E+00  0.10566000000E+00 0. -1.
     999900   -1    0    0    0    0 -0.00000000000E+00 -0.00000000000E+00 -0.74505805969E-08  0.93827000000E+00  0.93827000000E+00 0.  1.
     999902    2    1    2    0    0  0.98042226710E-02 -0.19755996885E-01 -0.74952433145E-02  0.10206362054E+01  0.10203703557E+01 0.  0.
     999903    2    3    3    0    0 -0.54097151043E-01  0.10243678451E+00 -0.52500779116E-01  0.12876179739E+00  0.20086614640E-01 0.  0.
         14    1    1    2    0    0 -0.98042226710E-02  0.19755996885E-01  0.74952433145E-02  0.23293794613E-01  0.00000000000E+00 0. -1.
     999901    1    3    3    0    0  0.63901373714E-01 -0.12219278140E+00  0.45005535801E-01  0.89187440800E+00  0.88000000000E+00 0. -1.
        -11    1    4    4    0    0 -0.36621482718E-01  0.66024217346E-01 -0.44320865185E-01  0.87549588716E-01  0.51100000000E-03 0. -1.
         11    1    4    4    0    0 -0.17475668325E-01  0.36412567164E-01 -0.81799139307E-02  0.41212208674E-01  0.51100000000E-03 0.  1.
</event>
<event>
 8    1  0.1052028E+005  0.1043930E+01  0.7957747E-01            NaN
         13   -1    0    0    0    0  0.00000000000E+00  0.00000000000E+00  0.74505805969E-08  0.10566000000E+00  0.10566000000E+00 0.  1.
     999900   -1    0    0    0    0 -0.00000000000E+00 -0.00000000000E+00 -0.74505805969E-08  0.93827000000E+00  0.93827000000E+00 0. -1.
     999902    2    1    2    0    0 -0.43298556217E-02  0.63008137911E-02  0.22514949704E-01  0.10201524714E+01  0.10198753326E+01 0.  0.
     999903    2    3    3    0    0 -0.84308091122E-01 -0.84668755560E-01 -0.43730209934E-01  0.12938852860E+00  0.23503354538E-01 0.  0.
         14    1    1    2    0    0  0.43298556217E-02 -0.63008137911E-02 -0.22514949704E-01  0.23777528557E-01  0.00000000000E+00 0. -1.
     999901    1    3    3    0    0  0.79978235501E-01  0.90969569351E-01  0.66245159637E-01  0.89076394285E+00  0.88000000000E+00 0. -1.
        -11    1    4    4    0    0 -0.30894161743E-01 -0.42553350998E-01 -0.10267030478E-01  0.53580872957E-01  0.51100000000E-03 0. -1.
         11    1    4    4    0    0 -0.53413929380E-01 -0.42115404561E-01 -0.33463179456E-01  0.75807655639E-01  0.51100000000E-03 0.  1.
</event>
<event>
 8    1  0.1052028E+005  0.1043930E+01  0.7957747E-01            NaN
         13   -1    0    0    0    0  0.00000000000E+00  0.00000000000E+00  0.74505805969E-08  0.10566000000E+00  0.10566000000E+00 0.  1.
     999900   -1    0    0    0    0 -0.00000000000E+00 -0.00000000000E+00 -0.74505805969E-08  0.93827000000E+00  0.93827000000E+00 0.  1.
     999902    2    1    2    0    0  0.21234988913E-01  0.60617131976E-02 -0.86252525429E-02  0.10202221089E+01  0.10199466100E+01 0.  0.
     999903    2    3    3    0    0  0.44724354153E-01  0.10293810653E+00 -0.67812093237E-01  0.13261866814E+00  0.19816899855E-01 0.  0.
         14    1    1    2    0    0 -0.21234988913E-01 -0.60617131976E-02  0.86252525429E-02  0.23707891143E-01  0.00000000000E+00 0.  1.
     999901    1    3    3    0    0 -0.23489365240E-01 -0.96876393329E-01  0.59186840695E-01  0.88760344072E+00  0.88000000000E+00 0.  1.
        -11    1    4    4    0    0  0.13296290059E-01  0.28812113764E-01 -0.92435339149E-02  0.33055003693E-01  0.51100000000E-03 0. -1.
         11    1    4    4    0    0  0.31428064093E-01  0.74125992763E-01 -0.58568559323E-01  0.99563664446E-01  0.51100000000E-03 0.  1.
</event>
<event>
 8    1  0.1052028E+005  0.1043930E+01  0.7957747E-01            NaN
         13   -1    0    0    0    0  0.00000000000E+00  0.00000000000E+00  0.74505805969E-08  0.10566000000E+00  0.10566000000E+00 0. -1.
     999900   -1    0    0    0    0 -0.00000000000E+00 -0.00000000000E+00 -0.74505805969E-08  0.93827000000E+00  0.93827000000E+00 0.  1.
     999902    2    1    2    0    0 -0.11334901859E-01 -0.35304409727E-02  0.19429996230E-01  0.10211600908E+01  0.10209061966E+01 0.  0.
     999903    2    3    3    0    0 -0.60548972187E-01  0.90440857430E-01 -0.68594914159E-01  0.13042948362E+00  0.21467678550E-01 0.  0.
         14    1    1    2    0    0  0.11334901859E-01  0.35304409727E-02 -0.19429996230E-01  0.22769909247E-01  0.00000000000E+00 0.  1.
     999901    1    3    3    0    0  0.49214070328E-01 -0.93971298403E-01  0.88024910389E-01  0.89073060714E+00  0.88000000000E+00 0.  1.
        -11    1    4    4    0    0 -0.36743994667E-01  0.39816704666E-01 -0.41614335512E-01  0.68319141942E-01  0.51100000000E-03 0.  1.
         11    1    4    4    0    0 -0.23804977520E-01  0.50624152764E-01 -0.26980578647E-01  0.62110341675E-01  0.51100000000E-03 0. -1.
</event>
<event>
 8    1  0.1052028E+005  0.1043930E+01  0.7957747E-01            NaN
         13   -1    0    0    0    0  0.00000000000E+00  0.00000000000E+00  0.74505805969E-08  0.10566000000E+00  0.10566000000E+00 0. -1.
     999900   -1    0    0    0    0 -0.00000000000E+00 -0.00000000000E+00 -0.74505805969E-08  0.93827000000E+00  0.93827000000E+00 0.  1.
     999902    2    1    2    0    0 -0.49385163246E-02  0.21264437623E-01  0.75152139503E-02  0.10208422610E+01  0.10205811473E+01 0.  0.
     999903    2    3    3    0    0  0.49287390565E-02 -0.12588629008E+00  0.67241802966E-02  0.12856913852E+00  0.24762032999E-01 0.  0.
         14    1    1    2    0    0  0.49385163246E-02 -0.21264437623E-01 -0.75152139503E-02  0.23087738989E-01  0.00000000000E+00 0.  1.
     999901    1    3    3    0    0 -0.98672553811E-02  0.14715072771E+00  0.79103365373E-03  0.89227312250E+00  0.88000000000E+00 0. -1.
        -11    1    4    4    0    0 -0.81500591754E-02 -0.85933985163E-01  0.58340882992E-02  0.86518038454E-01  0.51100000000E-03 0.  1.
         11    1    4    4    0    0  0.13078798232E-01 -0.39952304921E-01  0.89009199741E-03  0.42051100062E-01  0.51100000000E-03 0. -1.
</event>
<event>
 8    1  0.1052028E+005  0.1043930E+01  0.7957747E-01            NaN
         13   -1    0    0    0    0  0.00000000000E+00  0.00000000000E+00  0.74505805969E-08  0.10566000000E+00  0.10566000000E+00 0. -1.
     999900   -1    0    0    0    0 -0.00000000000E+00 -0.00000000000E+00 -0.74505805969E-08  0.93827000000E+00  0.93827000000E+00 0. -1.
     999902    2    1    2    0    0 -0.16126573935E-01  0.74012005229E-02  0.15055792163E-01  0.10206593955E+01  0.10203940810E+01 0.  0.
     999903    2    3    3    0    0 -0.85970855723E-01 -0.56287885106E-01  0.82139791722E-01  0.13305881736E+00  0.19959695606E-01 0.  0.
         14    1    1    2    0    0  0.16126573935E-01 -0.74012005229E-02 -0.15055792163E-01  0.23270604498E-01  0.00000000000E+00 0. -1.
     999901    1    3    3    0    0  0.69844281789E-01  0.63689085629E-01 -0.67083999558E-01  0.88760057815E+00  0.88000000000E+00 0. -1.
        -11    1    4    4    0    0 -0.35956205325E-01 -0.35406578146E-01  0.40643801066E-01  0.64797022798E-01  0.51100000000E-03 0. -1.
         11    1    4    4    0    0 -0.50014650399E-01 -0.20881306960E-01  0.41495990655E-01  0.68261794558E-01  0.51100000000E-03 0.  1.
</event>
<event>
 8    1  0.1052028E+005  0.1043930E+01  0.7957747E-01            NaN
         13   -1    0    0    0    0  0.00000000000E+00  0.00000000000E+00  0.74505805969E-08  0.10566000000E+00  0.10566000000E+00 0.  1.
     999900   -1    0    0    0    0 -0.00000000000E+00 -0.00000000000E+00 -0.74505805969E-08  0.93827000000E+00  0.93827000000E+00 0. -1.
     999902    2    1    2    0    0  0.16979075937E-01 -0.14276104280E-01 -0.16868178254E-03  0.10217461179E+01  0.10215052642E+01 0.  0.
     999903    2    3    3    0    0 -0.39545475199E-02 -0.15482684905E-02  0.12986708805E+00  0.13185313788E+00  0.22399862221E-01 0.  0.
         14    1    1    2    0    0 -0.16979075937E-01  0.14276104280E-01  0.16868178254E-03  0.22183882136E-01  0.00000000000E+00 0. -1.
     999901    1    3    3    0    0  0.20933623457E-01 -0.12727835789E-01 -0.13003576983E+00  0.88989297999E+00  0.88000000000E+00 0. -1.
        -11    1    4    4    0    0 -0.88902284904E-02  0.74011292008E-02  0.49448087619E-01  0.50785700411E-01  0.51100000000E-03 0. -1.
         11    1    4    4    0    0  0.49356809705E-02 -0.89493976913E-02  0.80419000432E-01  0.81067437465E-01  0.51100000000E-03 0.  1.
</event>
<event>
 8    1  0.1052028E+005  0.1043930E+01  0.7957747E-01            NaN
         13   -1    0    0    0    0  0.00000000000E+00  0.00000000000E+00  0.74505805969E-08  0.10566000000E+00  0.10566000000E+00 0. -1.
     999900   -1    0    0    0    0 -0.00000000000E+00 -0.00000000000E+00 -0.74505805969E-08  0.93827000000E+00  0.93827000000E+00 0.  1.
     999902    2    1    2    0    0  0.42666609483E-02 -0.23432541101E-02 -0.23089196799E-01  0.10203332578E+01  0.10200603662E+01 0.  0.
     999903    2    3    3    0    0  0.12796434188E+00  0.18702679063E-01 -0.15351416180E-02  0.13117150371E+00  0.21884783030E-01 0.  0.
         14    1    1    2    0    0 -0.42666609483E-02  0.23432541101E-02  0.23089196799E-01  0.23596742240E-01  0.00000000000E+00 0. -1.
     999901    1    3    3    0    0 -0.12369768093E+00 -0.21045933173E-01 -0.21554055181E-01  0.88916175405E+00  0.88000000000E+00 0. -1.
        -11    1    4    4    0    0  0.95505275516E-01  0.43408319839E-02  0.63187188996E-03  0.95607326376E-01  0.51100000000E-03 0.  1.
         11    1    4    4    0    0  0.32459066366E-01  0.14361847079E-01 -0.21670135080E-02  0.35564177334E-01  0.51100000000E-03 0. -1.
</event>
<event>
 8    1  0.1052028E+005  0.1043930E+01  0.7957747E-01            NaN
         13   -1    0    0    0    0  0.00000000000E+00  0.00000000000E+00  0.74505805969E-08  0.10566000000E+00  0.10566000000E+00 0.  1.
     999900   -1    0    0    0    0 -0.00000000000E+00 -0.00000000000E+00 -0.74505805969E-08  0.93827000000E+00  0.93827000000E+00 0.  1.
     999902    2    1    2    0    0  0.11050763289E-01 -0.14209595680E-02  0.20539308693E-01  0.10205633208E+01  0.10202957856E+01 0.  0.
     999903    2    3    3    0    0  0.12590050289E+00 -0.29213165002E-01 -0.16636115531E-01  0.13188740600E+00  0.20326875901E-01 0.  0.
         14    1    1    2    0    0 -0.11050763289E-01  0.14209595680E-02 -0.20539308693E-01  0.23366679202E-01  0.00000000000E+00 0. -1.
     999901    1    3    3    0    0 -0.11484973960E+00  0.27792205434E-01  0.37175424224E-01  0.88867591479E+00  0.88000000000E+00 0. -1.
        -11    1    4    4    0    0  0.52280981282E-01 -0.16627651707E-01 -0.16168359583E-01  0.57196650057E-01  0.51100000000E-03 0. -1.
         11    1    4    4    0    0  0.73619521611E-01 -0.12585513295E-01 -0.46775594887E-03  0.74690755946E-01  0.51100000000E-03 0.  1.
</event>
<event>
 8    1  0.1052028E+005  0.1043930E+01  0.7957747E-01            NaN
         13   -1    0    0    0    0  0.00000000000E+00  0.00000000000E+00  0.74505805969E-08  0.10566000000E+00  0.10566000000E+00 0. -1.
     999900   -1    0    0    0    0 -0.00000000000E+00 -0.00000000000E+00 -0.74505805969E-08  0.93827000000E+00  0.93827000000E+00 0. -1.
     999902    2    1    2    0    0  0.34740456147E-02 -0.22586392580E-01 -0.56390030597E-02  0.10203925303E+01  0.10201210239E+01 0.  0.
     999903    2    3    3    0    0  0.10044071530E+00 -0.73500644421E-01  0.41499389114E-01  0.13235152673E+00  0.17436895105E-01 0.  0.
         14    1    1    2    0    0 -0.34740456147E-02  0.22586392580E-01  0.56390030597E-02  0.23537469664E-01  0.00000000000E+00 0.  1.
     999901    1    3    3    0    0 -0.96966669683E-01  0.50914251841E-01 -0.47138392174E-01  0.88804100361E+00  0.88000000000E+00 0.  1.
        -11    1    4    4    0    0  0.41855383902E-01 -0.21117776388E-01  0.19158976361E-01  0.50647419849E-01  0.51100000000E-03 0. -1.
         11    1    4    4    0    0  0.58585331395E-01 -0.52382868033E-01  0.22340412753E-01  0.81704106880E-01  0.51100000000E-03 0.  1.
</event>
<event>
 8    1  0.1052028E+005  0.1043930E+01  0.7957747E-01            NaN
         13   -1    0    0    0    0  0.00000000000E+00  0.00000000000E+00  0.74505805969E-08  0.10566000000E+00  0.10566000000E+00 0. -1.
     999900   -1    0    0    0    0 -0.00000000000E+00 -0.00000000000E+00 -0.74505805969E-08  0.93827000000E+00  0.93827000000E+00 0.  1.
     999902    2    1    2    0    0 -0.41928755311E-02 -0.23007412512E-01 -0.44734368878E-02  0.10201196478E+01  0.10198417342E+01 0.  0.
     999903    2    3    3    0    0 -0.19700500480E-01  0.10816910528E+00  0.62093617039E-01  0.12777501820E+00  0.19549244024E-01 0.  0.
         14    1    1    2    0    0  0.41928755311E-02  0.23007412512E-01  0.44734368878E-02  0.23810352230E-01  0.00000000000E+00 0.  1.
     999901    1    3    3    0    0  0.15507624949E-01 -0.13117651780E+00 -0.66567053927E-01  0.89234462957E+00  0.88000000000E+00 0. -1.
        -11    1    4    4    0    0 -0.12125669901E-01  0.54721454949E-01  0.20714004100E-01  0.59756176159E-01  0.51100000000E-03 0.  1.
         11    1    4    4    0    0 -0.75748305792E-02  0.53447650335E-01  0.41379612939E-01  0.68018842041E-01  0.51100000000E-03 0. -1.
</event>
<event>
 8    1  0.1052028E+005  0.1043930E+01  0.7957747E-01            NaN
         13   -1    0    0    0    0  0.00000000000E+00  0.00000000000E+00  0.74505805969E-08  0.10566000000E+00  0.10566000000E+00 0.  1.
     999900   -1    0    0    0    0 -0.00000000000E+00 -0.00000000000E+00 -0.74505805969E-08  0.93827000000E+00  0.93827000000E+00 0.  1.
     999902    2    1    2    0    0  0.23584952668E-02 -0.21811497214E-01 -0.75791167436E-02  0.10207190775E+01  0.10204551378E+01 0.  0.
     999903    2    3    3    0    0  0.83096426821E-01 -0.92670009948E-01  0.42009489790E-01  0.13280096628E+00  0.19456426122E-01 0.  0.
         14    1    1    2    0    0 -0.23584952668E-02  0.21811497214E-01  0.75791167436E-02  0.23210922456E-01  0.00000000000E+00 0. -1.
     999901    1    3    3    0    0 -0.80737931554E-01  0.70858512734E-01 -0.49588606534E-01  0.88791811127E+00  0.88000000000E+00 0.  1.
        -11    1    4    4    0    0  0.31835937980E-01 -0.43968038465E-01  0.26509122439E-01  0.60412830152E-01  0.51100000000E-03 0.  1.
         11    1    4    4    0    0  0.51260488841E-01 -0.48701971484E-01  0.15500367351E-01  0.72388136125E-01  0.51100000000E-03 0. -1.
</event>
<event>
 8    1  0.1052028E+005  0.1043930E+01  0.7957747E-01            NaN
         13   -1    0    0    0    0  0.00000000000E+00  0.00000000000E+00  0.74505805969E-08  0.10566000000E+00  0.10566000000E+00 0.  1.
     999900   -1    0    0    0    0 -0.00000000000E+00 -0.00000000000E+00 -0.74505805969E-08  0.93827000000E+00  0.93827000000E+00 0.  1.
     999902    2    1    2    0    0  0.13741372419E-01  0.63201770857E-02  0.18387931586E-01  0.10201206325E+01  0.10198427422E+01 0.  0.
     999903    2    3    3    0    0  0.80255307572E-01 -0.18200040788E-01  0.10293018514E+00  0.13323127224E+00  0.19590635781E-01 0.  0.
         14    1    1    2    0    0 -0.13741372419E-01 -0.63201770857E-02 -0.18387931586E-01  0.23809367534E-01  0.00000000000E+00 0.  1.
     999901    1    3    3    0    0 -0.66513935153E-01  0.24520217874E-01 -0.84542253555E-01  0.88688936023E+00  0.88000000000E+00 0.  1.
        -11    1    4    4    0    0  0.83003458274E-02  0.35154931997E-02  0.73762311975E-02  0.11658659484E-01  0.51100000000E-03 0. -1.
         11    1    4    4    0    0  0.71954961744E-01 -0.21715533988E-01  0.95553953943E-01  0.12157261275E+00  0.51100000000E-03 0.  1.
</event>
<event>
 8    1  0.1052028E+005  0.1043930E+01  0.7957747E-01            NaN
         13   -1    0    0    0    0  0.00000000000E+00  0.00000000000E+00  0.74505805969E-08  0.10566000000E+00  0.10566000000E+00 0.  1.
     999900   -1    0    0    0    0 -0.00000000000E+00 -0.00000000000E+00 -0.74505805969E-08  0.93827000000E+00  0.93827000000E+00 0. -1.
     999902    2    1    2    0    0  0.34015066376E-02  0.21884938218E-01  0.84156942780E-02  0.10202372864E+01  0.10199621443E+01 0.  0.
     999903    2    3    3    0    0  0.33771468042E-02  0.12854711447E+00  0.30332845398E-01  0.13352584406E+00  0.19321070454E-01 0.  0.
         14    1    1    2    0    0 -0.34015066376E-02 -0.21884938218E-01 -0.84156942780E-02  0.23692713614E-01  0.00000000000E+00 0. -1.
     999901    1    3    3    0    0  0.24359833390E-04 -0.10666217625E+00 -0.21917151120E-01  0.88671144232E+00  0.88000000000E+00 0.  1.
        -11    1    4    4    0    0 -0.24872975464E-02  0.38802432873E-01  0.90396351073E-03  0.38895934453E-01  0.51100000000E-03 0. -1.
         11    1    4    4    0    0  0.58644443505E-02  0.89744681596E-01  0.29428881888E-01  0.94629909608E-01  0.51100000000E-03 0.  1.
</event>
<event>
 8    1  0.1052028E+005  0.1043930E+01  0.7957747E-01            NaN
         13   -1    0    0    0    0  0.00000000000E+00  0.00000000000E+00  0.74505805969E-08  0.10566000000E+00  0.10566000000E+00 0.  1.
     999900   -1    0    0    0    0 -0.00000000000E+00 -0.00000000000E+00 -0.74505805969E-08  0.93827000000E+00  0.93827000000E+00 0. -1.
     999902    2    1    2    0    0 -0.23354438971E-01  0.26748133389E-02  0.33204103364E-02  0.10201895373E+01  0.10199132720E+01 0.  0.
     999903    2    3    3    0    0 -0.15230070812E-01  0.88037970214E-01  0.94420437678E-01  0.13134079373E+00  0.18776202729E-01 0.  0.
         14    1    1    2    0    0  0.23354438971E-01 -0.26748133389E-02 -0.33204103364E-02  0.23740462735E-01  0.00000000000E+00 0. -1.
     999901    1    3    3    0    0 -0.81243681595E-02 -0.85363156875E-01 -0.91100027341E-01  0.88884874354E+00  0.88000000000E+00 0. -1.
        -11    1    4    4    0    0  0.40828642530E-02  0.96938641346E-02  0.92552346995E-02  0.14020031124E-01  0.51100000000E-03 0. -1.
         11    1    4    4    0    0 -0.19312935065E-01  0.78344106080E-01  0.85165202978E-01  0.11732076260E+00  0.51100000000E-03 0.  1.
</event>
<event>
 8    1  0.1052028E+005  0.1043930E+01  0.7957747E-01            NaN
         13   -1    0    0    0    0  0.00000000000E+00  0.00000000000E+00  0.74505805969E-08  0.10566000000E+00  0.10566000000E+00 0.  1.
     999900   -1    0    0    0    0 -0.00000000000E+00 -0.00000000000E+00 -0.74505805969E-08  0.93827000000E+00  0.93827000000E+00 0. -1.
     999902    2    1    2    0    0  0.72732723116E-02  0.17070733298E-01  0.13779078593E-01  0.10208178077E+01  0.10205561342E+01 0.  0.
     999903    2    3    3    0    0  0.89339233833E-01  0.94006548021E-01 -0.21178917272E-01  0.13296871969E+00  0.20332341395E-01 0.  0.
         14    1    1    2    0    0 -0.72732723116E-02 -0.17070733298E-01 -0.13779078593E-01  0.23112192287E-01  0.00000000000E+00 0. -1.
     999901    1    3    3    0    0 -0.82065961521E-01 -0.76935814723E-01  0.34957995866E-01  0.88784908802E+00  0.88000000000E+00 0. -1.
        -11    1    4    4    0    0  0.26105158318E-01  0.40534962012E-01 -0.11693264267E-01  0.49614070447E-01  0.51100000000E-03 0.  1.
         11    1    4    4    0    0  0.63234075514E-01  0.53471586009E-01 -0.94856530050E-02  0.83354649243E-01  0.51100000000E-03 0. -1.
</event>
<event>
 8    1  0.1052028E+005  0.1043930E+01  0.7957747E-01            NaN
         13   -1    0    0    0    0  0.00000000000E+00  0.00000000000E+00  0.74505805969E-08  0.10566000000E+00  0.10566000000E+00 0. -1.
     999900   -1    0    0    0    0 -0.00000000000E+00 -0.00000000000E+00 -0.74505805969E-08  0.93827000000E+00  0.93827000000E+00 0.  1.
     999902    2    1    2    0    0 -0.21651842641E-01 -0.38555602990E-02  0.10373690667E-01  0.10196137278E+01  0.10193237331E+01 0.  0.
     999903    2    3    3    0    0  0.87823695983E-01  0.71137915407E-01 -0.55111099395E-01  0.12725888097E+00  0.19595533289E-01 0.  0.
         14    1    1    2    0    0  0.21651842641E-01  0.38555602990E-02 -0.10373690667E-01  0.24316272186E-01  0.00000000000E+00 0. -1.
     999901    1    3    3    0    0 -0.10947553862E+00 -0.74993475706E-01  0.65484790062E-01  0.89235484684E+00  0.88000000000E+00 0.  1.
        -11    1    4    4    0    0  0.67647509891E-02  0.13864839026E-01 -0.82075347720E-02  0.17482001178E-01  0.51100000000E-03 0. -1.
         11    1    4    4    0    0  0.81058944994E-01  0.57273076380E-01 -0.46903564623E-01  0.10977687979E+00  0.51100000000E-03 0.  1.
</event>
<event>
 8    1  0.1052028E+005  0.1043930E+01  0.7957747E-01            NaN
         13   -1    0    0    0    0  0.00000000000E+00  0.00000000000E+00  0.74505805969E-08  0.10566000000E+00  0.10566000000E+00 0. -1.
     999900   -1    0    0    0    0 -0.00000000000E+00 -0.00000000000E+00 -0.74505805969E-08  0.93827000000E+00  0.93827000000E+00 0. -1.
     999902    2    1    2    0    0 -0.21647439101E-01  0.10193831497E-01  0.62629084610E-02  0.10191964228E+01  0.10188962648E+01 0.  0.
     999903    2    3    3    0    0 -0.52268079880E-01  0.51201642773E-01 -0.10677857762E+00  0.13049082371E+00  0.16511512239E-01 0.  0.
         14    1    1    2    0    0  0.21647439101E-01 -0.10193831497E-01 -0.62629084610E-02  0.24733577231E-01  0.00000000000E+00 0.  1.
     999901    1    3    3    0    0  0.30620640779E-01 -0.41007811276E-01  0.11304148608E+00  0.88870559906E+00  0.88000000000E+00 0.  1.
        -11    1    4    4    0    0 -0.33686534554E-01  0.42116523415E-01 -0.71017710088E-01  0.89176008108E-01  0.51100000000E-03 0. -1.
         11    1    4    4    0    0 -0.18581545326E-01  0.90851193574E-02 -0.35760867532E-01  0.41314815600E-01  0.51100000000E-03 0.  1.
</event>
<event>
 8    1  0.1052028E+005  0.1043930E+01  0.7957747E-01            NaN
         13   -1    0    0    0    0  0.00000000000E+00  0.00000000000E+00  0.74505805969E-08  0.10566000000E+00  0.10566000000E+00 0.  1.
     999900   -1    0    0    0    0 -0.00000000000E+00 -0.00000000000E+00 -0.74505805969E-08  0.93827000000E+00  0.93827000000E+00 0.  1.
     999902    2    1    2    0    0  0.22916738621E-01 -0.96326526052E-02 -0.12441647919E-02  0.10190399849E+01  0.10187359707E+01 0.  0.
     999903    2    3    3    0    0 -0.52234718987E-01 -0.11555805298E+00 -0.16986534474E-01  0.12936827342E+00  0.19117487730E-01 0.  0.
         14    1    1    2    0    0 -0.22916738621E-01  0.96326526052E-02  0.12441647919E-02  0.24890015092E-01  0.00000000000E+00 0. -1.
     999901    1    3    3    0    0  0.75151457609E-01  0.10592540037E+00  0.15742369682E-01  0.88967171149E+00  0.88000000000E+00 0. -1.
        -11    1    4    4    0    0 -0.17258864416E-02 -0.19785174679E-01 -0.75068452224E-03  0.19881058054E-01  0.51100000000E-03 0. -1.
         11    1    4    4    0    0 -0.50508832546E-01 -0.95772878301E-01 -0.16235849951E-01  0.10948721536E+00  0.51100000000E-03 0.  1.
</event>
<event>
 8    1  0.1052028E+005  0.1043930E+01  0.7957747E-01            NaN
         13   -1    0    0    0    0  0.00000000000E+00  0.00000000000E+00  0.74505805969E-08  0.10566000000E+00  0.10566000000E+00 0.  1.
     999900   -1    0    0    0    0 -0.00000000000E+00 -0.00000000000E+00 -0.74505805969E-08  0.93827000000E+00  0.93827000000E+00 0.  1.
     999902    2    1    2    0    0 -0.87374185212E-02 -0.13428387741E-01 -0.16220962348E-01  0.10211312347E+01  0.10208766893E+01 0.  0.
     999903    2    3    3    0    0 -0.34806614978E-02 -0.11251412515E+00  0.65675238496E-01  0.13177607248E+00  0.19497511714E-01 0.  0.
         14    1    1    2    0    0  0.87374185212E-02  0.13428387741E-01  0.16220962348E-01  0.22798765301E-01  0.00000000000E+00 0.  1.
     999901    1    3    3    0    0 -0.52567570234E-02  0.99085737413E-01 -0.81896200844E-01  0.88935516222E+00  0.88000000000E+00 0. -1.
        -11    1    4    4    0    0  0.21006312302E-02 -0.89622105847E-01  0.58853537778E-01  0.10724054522E+00  0.51100000000E-03 0.  1.
         11    1    4    4    0    0 -0.55812927280E-02 -0.22892019307E-01  0.68217007176E-02  0.24535527265E-01  0.51100000000E-03 0. -1.
</event>
<event>
 8    1  0.1052028E+005  0.1043930E+01  0.7957747E-01            NaN
         13   -1    0    0    0    0  0.00000000000E+00  0.00000000000E+00  0.74505805969E-08  0.10566000000E+00  0.10566000000E+00 0.  1.
     999900   -1    0    0    0    0 -0.00000000000E+00 -0.00000000000E+00 -0.74505805969E-08  0.93827000000E+00  0.93827000000E+00 0. -1.
     999902    2    1    2    0    0  0.13389778485E-01 -0.14899740994E-01  0.11801611455E-01  0.10206799144E+01  0.10204150729E+01 0.  0.
     999903    2    3    3    0    0  0.45557762419E-01  0.27682477620E-01 -0.11652231241E+00  0.12977304270E+00  0.20536894578E-01 0.  0.
         14    1    1    2    0    0 -0.13389778485E-01  0.14899740994E-01 -0.11801611455E-01  0.23250085645E-01  0.00000000000E+00 0.  1.
     999901    1    3    3    0    0 -0.32167983935E-01 -0.42582218614E-01  0.12832392386E+00  0.89090687166E+00  0.88000000000E+00 0.  1.
        -11    1    4    4    0    0  0.23325949714E-01  0.13741861810E-01 -0.82332374241E-01  0.86670754383E-01  0.51100000000E-03 0.  1.
         11    1    4    4    0    0  0.22231812705E-01  0.13940615810E-01 -0.34189938164E-01  0.43102288315E-01  0.51100000000E-03 0. -1.
</event>
<event>
 8    1  0.1052028E+005  0.1043930E+01  0.7957747E-01            NaN
         13   -1    0    0    0    0  0.00000000000E+00  0.00000000000E+00  0.74505805969E-08  0.10566000000E+00  0.10566000000E+00 0.  1.
     999900   -1    0    0    0    0 -0.00000000000E+00 -0.00000000000E+00 -0.74505805969E-08  0.93827000000E+00  0.93827000000E+00 0.  1.
     999902    2    1    2    0    0 -0.94256542761E-02  0.13708808724E-01  0.17541516575E-01  0.10197539954E+01  0.10194673766E+01 0.  0.
     999903    2    3    3    0    0  0.11367649615E+00 -0.28580039780E-02  0.59638879329E-01  0.13003449652E+00  0.20534371037E-01 0.  0.
         14    1    1    2    0    0  0.94256542761E-02 -0.13708808724E-01 -0.17541516575E-01  0.24176004610E-01  0.00000000000E+00 0. -1.
     999901    1    3    3    0    0 -0.12310215042E+00  0.16566812702E-01 -0.42097362754E-01  0.88971949887E+00  0.88000000000E+00 0.  1.
        -11    1    4    4    0    0  0.16118755207E-01 -0.45979984655E-02  0.24833062084E-02  0.16952397766E-01  0.51100000000E-03 0. -1.
         11    1    4    4    0    0  0.97557740941E-01  0.17399944875E-02  0.57155573120E-01  0.11308209875E+00  0.51100000000E-03 0.  1.
</event>
<event>
 8    1  0.1052028E+005  0.1043930E+01  0.7957747E-01            NaN
         13   -1    0    0    0    0  0.00000000000E+00  0.00000000000E+00  0.74505805969E-08  0.10566000000E+00  0.10566000000E+00 0.  1.
     999900   -1    0    0    0    0 -0.00000000000E+00 -0.00000000000E+00 -0.74505805969E-08  0.93827000000E+00  0.93827000000E+00 0.  1.
     999902    2    1    2    0    0 -0.13772507686E-01  0.38945861467E-02  0.18850471120E-01  0.10202616661E+01  0.10199870966E+01 0.  0.
     999903    2    3    3    0    0 -0.80931190937E-01  0.77246492507E-01 -0.64667742780E-01  0.13073028217E+00  0.19789175048E-01 0.  0.
         14    1    1    2    0    0  0.13772507686E-01 -0.38945861467E-02 -0.18850471120E-01  0.23668333922E-01  0.00000000000E+00 0. -1.
     999901    1    3    3    0    0  0.67158683251E-01 -0.73351906360E-01  0.83518213900E-01  0.88953138391E+00  0.88000000000E+00 0.  1.
        -11    1    4    4    0    0 -0.29864833986E-01  0.31631010925E-01 -0.14548881564E-01  0.45873306366E-01  0.51100000000E-03 0.  1.
         11    1    4    4    0    0 -0.51066356951E-01  0.45615481581E-01 -0.50118861216E-01  0.84856975805E-01  0.51100000000E-03 0. -1.
</event>
<event>
 8    1  0.1052028E+005  0.1043930E+01  0.7957747E-01            NaN
         13   -1    0    0    0    0  0.00000000000E+00  0.00000000000E+00  0.74505805969E-08  0.10566000000E+00  0.10566000000E+00 0.  1.
     999900   -1    0    0    0    0 -0.00000000000E+00 -0.00000000000E+00 -0.74505805969E-08  0.93827000000E+00  0.93827000000E+00 0. -1.
     999902    2    1    2    0    0  0.45308648096E-02 -0.28741480901E-01  0.68293464063E-02  0.10140428551E+01  0.10136023236E+01 0.  0.
     999903    2    3    3    0    0  0.83129076453E-01 -0.15903318550E-01 -0.90153758541E-01  0.12514003701E+00  0.19208586404E-01 0.  0.
         14    1    1    2    0    0 -0.45308648096E-02  0.28741480901E-01 -0.68293464063E-02  0.29887144940E-01  0.00000000000E+00 0. -1.
     999901    1    3    3    0    0 -0.78598211644E-01 -0.12838162352E-01  0.96983104948E-01  0.88890281805E+00  0.88000000000E+00 0.  1.
        -11    1    4    4    0    0  0.27327208755E-01  0.38267043956E-02 -0.28384982192E-01  0.39590255618E-01  0.51100000000E-03 0. -1.
         11    1    4    4    0    0  0.55801867698E-01 -0.19730022945E-01 -0.61768776350E-01  0.85549781395E-01  0.51100000000E-03 0.  1.
</event>
<event>
 8    1  0.1052028E+005  0.1043930E+01  0.7957747E-01            NaN
         13   -1    0    0    0    0  0.00000000000E+00  0.00000000000E+00  0.74505805969E-08  0.10566000000E+00  0.10566000000E+00 0.  1.
     999900   -1    0    0    0    0 -0.00000000000E+00 -0.00000000000E+00 -0.74505805969E-08  0.93827000000E+00  0.93827000000E+00 0.  1.
     999902    2    1    2    0    0 -0.12379459665E-01  0.15781099133E-01  0.10190900531E-01  0.10214322542E+01  0.10211844600E+01 0.  0.
     999903    2    3    3    0    0 -0.16966830738E-01  0.53435687748E-01 -0.11714738828E+00  0.13145812437E+00  0.20358826354E-01 0.  0.
         14    1    1    2    0    0  0.12379459665E-01 -0.15781099133E-01 -0.10190900531E-01  0.22497745778E-01  0.00000000000E+00 0. -1.
     999901    1    3    3    0    0  0.45873710729E-02 -0.37654588615E-01  0.12733828881E+00  0.88997412986E+00  0.88000000000E+00 0. -1.
        -11    1    4    4    0    0 -0.37936779606E-02  0.22258627145E-01 -0.27213290852E-01  0.35364711152E-01  0.51100000000E-03 0.  1.
         11    1    4    4    0    0 -0.13173152778E-01  0.31177060603E-01 -0.89934097427E-01  0.96093413213E-01  0.51100000000E-03 0. -1.
</event>
<event>
 8    1  0.1052028E+005  0.1043930E+01  0.7957747E-01            NaN
         13   -1    0    0    0    0  0.00000000000E+00  0.00000000000E+00  0.74505805969E-08  0.10566000000E+00  0.10566000000E+00 0. -1.
     999900   -1    0    0    0    0 -0.00000000000E+00 -0.00000000000E+00 -0.74505805969E-08  0.93827000000E+00  0.93827000000E+00 0. -1.
     999902    2    1    2    0    0  0.14365587889E-01 -0.49482445100E-02 -0.17292260584E-01  0.10209109315E+01  0.10206513864E+01 0.  0.
     999903    2    3    3    0    0 -0.49966844075E-01 -0.10045858003E+00  0.62333728566E-01  0.12984349064E+00  0.19627188675E-01 0.  0.
         14    1    1    2    0    0 -0.14365587889E-01  0.49482445100E-02  0.17292260584E-01  0.23019068513E-01  0.00000000000E+00 0. -1.
     999901    1    3    3    0    0  0.64332431963E-01  0.95510335521E-01 -0.79625989150E-01  0.89106744085E+00  0.88000000000E+00 0. -1.
        -11    1    4    4    0    0 -0.15264875956E-02 -0.39781569544E-02  0.77762612756E-02  0.88818498951E-02  0.51100000000E-03 0. -1.
         11    1    4    4    0    0 -0.48440356479E-01 -0.96480423077E-01  0.54557467290E-01  0.12096164074E+00  0.51100000000E-03 0.  1.
</event>
<event>
 8    1  0.1052028E+005  0.1043930E+01  0.7957747E-01            NaN
         13   -1    0    0    0    0  0.00000000000E+00  0.00000000000E+00  0.74505805969E-08  0.10566000000E+00  0.10566000000E+00 0. -1.
     999900   -1    0    0    0    0 -0.00000000000E+00 -0.00000000000E+00 -0.74505805969E-08  0.93827000000E+00  0.93827000000E+00 0.  1.
     999902    2    1    2    0    0  0.16394648886E-01  0.57287284000E-02  0.16432606616E-01  0.10200211439E+01  0.10197408987E+01 0.  0.
     999903    2    3    3    0    0 -0.15794505554E-01 -0.11604389406E+00  0.53347346072E-01  0.13028668279E+00  0.20323105696E-01 0.  0.
         14    1    1    2    0    0 -0.16394648886E-01 -0.57287284000E-02 -0.16432606616E-01  0.23908856129E-01  0.00000000000E+00 0.  1.
     999901    1    3    3    0    0  0.32189154441E-01  0.12177262246E+00 -0.36914739457E-01  0.88973446108E+00  0.88000000000E+00 0.  1.
        -11    1    4    4    0    0  0.15695503130E-02 -0.26864887198E-01  0.19888667145E-01  0.33466488525E-01  0.51100000000E-03 0. -1.
         11    1    4    4    0    0 -0.17364055867E-01 -0.89179006863E-01  0.33458678927E-01  0.96820194267E-01  0.51100000000E-03 0.  1.
</event>
<event>
 8    1  0.1052028E+005  0.1043930E+01  0.7957747E-01            NaN
         13   -1    0    0    0    0  0.00000000000E+00  0.00000000000E+00  0.74505805969E-08  0.10566000000E+00  0.10566000000E+00 0. -1.
     999900   -1    0    0    0    0 -0.00000000000E+00 -0.00000000000E+00 -0.74505805969E-08  0.93827000000E+00  0.93827000000E+00 0. -1.
     999902    2    1    2    0    0 -0.51282382287E-02  0.17626092953E-01  0.15747471371E-01  0.10197440364E+01  0.10194571786E+01 0.  0.
     999903    2    3    3    0    0 -0.47100066028E-01 -0.38033642248E-01 -0.11086659724E+00  0.12795327462E+00  0.20387838011E-01 0.  0.
         14    1    1    2    0    0  0.51282382287E-02 -0.17626092953E-01 -0.15747471371E-01  0.24185963589E-01  0.00000000000E+00 0.  1.
     999901    1    3    3    0    0  0.41971827799E-01  0.55659735202E-01  0.12661406861E+00  0.89179076179E+00  0.88000000000E+00 0.  1.
        -11    1    4    4    0    0 -0.11870377288E-01 -0.19663379511E-01 -0.29390074600E-01  0.37304047458E-01  0.51100000000E-03 0.  1.
         11    1    4    4    0    0 -0.35229688740E-01 -0.18370262737E-01 -0.81476522641E-01  0.90649227159E-01  0.51100000000E-03 0. -1.
</event>
<event>
 8    1  0.1052028E+005  0.1043930E+01  0.7957747E-01            NaN
         13   -1    0    0    0    0  0.00000000000E+00  0.00000000000E+00  0.74505805969E-08  0.10566000000E+00  0.10566000000E+00 0.  1.
     999900   -1    0    0    0    0 -0.00000000000E+00 -0.00000000000E+00 -0.74505805969E-08  0.93827000000E+00  0.93827000000E+00 0. -1.
     999902    2    1    2    0    0  0.16980482567E-01  0.12713110745E-01  0.93888662000E-02  0.10207327850E+01  0.10204691606E+01 0.  0.
     999903    2    3    3    0    0 -0.11809736105E+00 -0.63472397902E-02 -0.46157190609E-01  0.12849140222E+00  0.19806061220E-01 0.  0.
         14    1    1    2    0    0 -0.16980482567E-01 -0.12713110745E-01 -0.93888662000E-02  0.23197214952E-01  0.00000000000E+00 0. -1.
     999901    1    3    3    0    0  0.13507784361E+00  0.19060350536E-01  0.55546056809E-01  0.89224138282E+00  0.88000000000E+00 0.  1.
        -11    1    4    4    0    0 -0.60150834810E-01 -0.18835452132E-02 -0.33966911621E-01  0.69106315753E-01  0.51100000000E-03 0.  1.
         11    1    4    4    0    0 -0.57946526237E-01 -0.44636945770E-02 -0.12190278988E-01  0.59385086470E-01  0.51100000000E-03 0. -1.
</event>
<event>
 8    1  0.1052028E+005  0.1043930E+01  0.7957747E-01            NaN
         13   -1    0    0    0    0  0.00000000000E+00  0.00000000000E+00  0.74505805969E-08  0.10566000000E+00  0.10566000000E+00 0.  1.
     999900   -1    0    0    0    0 -0.00000000000E+00 -0.00000000000E+00 -0.74505805969E-08  0.93827000000E+00  0.93827000000E+00 0.  1.
     999902    2    1    2    0    0  0.50254046082E-02  0.26413905765E-01  0.90522405238E-02  0.10155593784E+01  0.10151630209E+01 0.  0.
     999903    2    3    3    0    0 -0.25222283913E-01 -0.11733798673E+00  0.20079338485E-01  0.12331438622E+00  0.19972262699E-01 0.  0.
         14    1    1    2    0    0 -0.50254046082E-02 -0.26413905765E-01 -0.90522405238E-02  0.28370621561E-01  0.00000000000E+00 0. -1.
     999901    1    3    3    0    0  0.30247688522E-01  0.14375189250E+00 -0.11027097962E-01  0.89224499222E+00  0.88000000000E+00 0. -1.
        -11    1    4    4    0    0 -0.15908217085E-02 -0.25764287391E-01  0.11770813889E-01  0.28375031262E-01  0.51100000000E-03 0.  1.
         11    1    4    4    0    0 -0.23631462205E-01 -0.91573699342E-01  0.83085245962E-02  0.94939354954E-01  0.51100000000E-03 0. -1.
</event>
<event>
 8    1  0.1052028E+005  0.1043930E+01  0.7957747E-01            NaN
         13   -1    0    0    0    0  0.00000000000E+00  0.00000000000E+00  0.74505805969E-08  0.10566000000E+00  0.10566000000E+00 0. -1.
     999900   -1    0    0    0    0 -0.00000000000E+00 -0.00000000000E+00 -0.74505805969E-08  0.93827000000E+00  0.93827000000E+00 0.  1.
     999902    2    1    2    0    0  0.50186809802E-02 -0.21851576441E-01 -0.77779091308E-02  0.10201987037E+01  0.10199226543E+01 0.  0.
     999903    2    3    3    0    0 -0.55723112507E-02 -0.83154451643E-01 -0.10167421529E+00  0.13301961926E+00  0.20269671231E-01 0.  0.
         14    1    1    2    0    0 -0.50186809802E-02  0.21851576441E-01  0.77779091308E-02  0.23731296261E-01  0.00000000000E+00 0.  1.
     999901    1    3    3    0    0  0.10590992231E-01  0.61302875202E-01  0.93896306164E-01  0.88717908448E+00  0.88000000000E+00 0. -1.
        -11    1    4    4    0    0 -0.28939707684E-02 -0.40142825955E-01 -0.33510842982E-01  0.52374223248E-01  0.51100000000E-03 0. -1.
         11    1    4    4    0    0 -0.26783404822E-02 -0.43011625688E-01 -0.68163372313E-01  0.80645396014E-01  0.51100000000E-03 0.  1.
</event>
<event>
 7    1  0.1052028E+005  0.1043930E+01  0.7957747E-01            NaN
         13   -1    0    0    0    0  0.00000000000E+00  0.00000000000E+00  0.74505805969E-08  0.10566000000E+00  0.10566000000E+00 0.  1.
     999900   -1    0    0    0    0 -0.00000000000E+00 -0.00000000000E+00 -0.74505805969E-08  0.93827000000E+00  0.93827000000E+00 0. -1.
     999902    2    1    2    0    0  0.15487025968E-01 -0.67135431187E-02  0.17449956374E-01  0.10196520138E+01  0.10193629426E+01 0.  0.
         14    1    1    2    0    0 -0.15487025968E-01  0.67135431187E-02 -0.17449956374E-01  0.24277986160E-01  0.00000000000E+00 0. -1.
     999901    1    3    3    0    0 -0.87688319790E-01  0.63219746971E-01 -0.99026791866E-02  0.88667019849E+00  0.88000000000E+00 0.  1.
        -11    1    3    3    0    0  0.53893197465E-01 -0.33804695649E-01  0.32897339661E-01  0.71622135257E-01  0.51100000000E-03 0.  1.
         11    1    3    3    0    0  0.49282148293E-01 -0.36128594440E-01 -0.55447041004E-02  0.61359680094E-01  0.51100000000E-03 0. -1.
</event>
<event>
 8    1  0.1052028E+005  0.1043930E+01  0.7957747E-01            NaN
         13   -1    0    0    0    0  0.00000000000E+00  0.00000000000E+00  0.74505805969E-08  0.10566000000E+00  0.10566000000E+00 0. -1.
     999900   -1    0    0    0    0 -0.00000000000E+00 -0.00000000000E+00 -0.74505805969E-08  0.93827000000E+00  0.93827000000E+00 0. -1.
     999902    2    1    2    0    0  0.26029367190E-01  0.24980526860E-01  0.56608994980E-02  0.10074115052E+01  0.10067493930E+01 0.  0.
     999903    2    3    3    0    0  0.77185400175E-01  0.89493619853E-02  0.91035712651E-01  0.12165601035E+00  0.21794650628E-01 0.  0.
         14    1    1    2    0    0 -0.26029367190E-01 -0.24980526860E-01 -0.56608994980E-02  0.36518494789E-01  0.00000000000E+00 0. -1.
     999901    1    3    3    0    0 -0.51156032985E-01  0.16031164874E-01 -0.85374813153E-01  0.88575549486E+00  0.88000000000E+00 0. -1.
        -11    1    4    4    0    0  0.69527461830E-01  0.49502849268E-02  0.69440211315E-01  0.98390941340E-01  0.51100000000E-03 0. -1.
         11    1    4    4    0    0  0.76579383456E-02  0.39990770585E-02  0.21595501336E-01  0.23265069009E-01  0.51100000000E-03 0.  1.
</event>
<event>
 8    1  0.1052028E+005  0.1043930E+01  0.7957747E-01            NaN
         13   -1    0    0    0    0  0.00000000000E+00  0.00000000000E+00  0.74505805969E-08  0.10566000000E+00  0.10566000000E+00 0.  1.
     999900   -1    0    0    0    0 -0.00000000000E+00 -0.00000000000E+00 -0.74505805969E-08  0.93827000000E+00  0.93827000000E+00 0. -1.
     999902    2    1    2    0    0  0.84028313609E-02 -0.21324961444E-01 -0.94080720375E-03  0.10209899330E+01  0.10207321865E+01 0.  0.
     999903    2    3    3    0    0  0.10027211484E+00  0.11056801002E-01  0.82288333127E-01  0.13171177990E+00  0.19996833079E-01 0.  0.
         14    1    1    2    0    0 -0.84028313609E-02  0.21324961444E-01  0.94080720375E-03  0.22940066993E-01  0.00000000000E+00 0.  1.
     999901    1    3    3    0    0 -0.91869283481E-01 -0.32381762446E-01 -0.83229140331E-01  0.88927815310E+00  0.88000000000E+00 0. -1.
        -11    1    4    4    0    0  0.41340814535E-01  0.38289011770E-02  0.21577186656E-01  0.46792729516E-01  0.51100000000E-03 0.  1.
         11    1    4    4    0    0  0.58931300308E-01  0.72278998252E-02  0.60711146471E-01  0.84919050387E-01  0.51100000000E-03 0. -1.
</event>
<event>
 8    1  0.1052028E+005  0.1043930E+01  0.7957747E-01            NaN
         13   -1    0    0    0    0  0.00000000000E+00  0.00000000000E+00  0.74505805969E-08  0.10566000000E+00  0.10566000000E+00 0.  1.
     999900   -1    0    0    0    0 -0.00000000000E+00 -0.00000000000E+00 -0.74505805969E-08  0.93827000000E+00  0.93827000000E+00 0.  1.
     999902    2    1    2    0    0  0.21286208022E-01  0.45846380276E-02  0.10140652472E-01  0.10199101251E+01  0.10196272402E+01 0.  0.
     999903    2    3    3    0    0  0.58541118311E-01 -0.93846170949E-01  0.68553611158E-01  0.13171609999E+00  0.20380555892E-01 0.  0.
         14    1    1    2    0    0 -0.21286208022E-01 -0.45846380276E-02 -0.10140652472E-01  0.24019874903E-01  0.00000000000E+00 0. -1.
     999901    1    3    3    0    0 -0.37254910288E-01  0.98430808976E-01 -0.58412958686E-01  0.88819402511E+00  0.88000000000E+00 0.  1.
        -11    1    4    4    0    0  0.28250115837E-01 -0.35260114552E-01  0.18095063263E-01  0.48672755814E-01  0.51100000000E-03 0. -1.
         11    1    4    4    0    0  0.30291002473E-01 -0.58586056397E-01  0.50458547894E-01  0.83043344174E-01  0.51100000000E-03 0.  1.
</event>
<event>
 8    1  0.1052028E+005  0.1043930E+01  0.7957747E-01            NaN
         13   -1    0    0    0    0  0.00000000000E+00  0.00000000000E+00  0.74505805969E-08  0.10566000000E+00  0.10566000000E+00 0.  1.
     999900   -1    0    0    0    0 -0.00000000000E+00 -0.00000000000E+00 -0.74505805969E-08  0.93827000000E+00  0.93827000000E+00 0.  1.
     999902    2    1    2    0    0  0.22898413560E-01 -0.75270715138E-02 -0.21899936297E-02  0.10197268965E+01  0.10194396270E+01 0.  0.
     999903    2    3    3    0    0 -0.10345980428E+00 -0.47641654523E-01  0.52903235189E-01  0.12809309110E+00  0.25207723960E-01 0.  0.
         14    1    1    2    0    0 -0.22898413560E-01  0.75270715138E-02  0.21899936297E-02  0.24203103545E-01  0.00000000000E+00 0.  1.
     999901    1    3    3    0    0  0.12635821784E+00  0.40114583009E-01 -0.55093228819E-01  0.89163380535E+00  0.88000000000E+00 0.  1.
        -11    1    4    4    0    0 -0.35201313363E-01 -0.36016520529E-02  0.17501237623E-01  0.39479853081E-01  0.51100000000E-03 0.  1.
         11    1    4    4    0    0 -0.68258490917E-01 -0.44040002470E-01  0.35401997566E-01  0.88613238021E-01  0.51100000000E-03 0. -1.
</event>
<event>
 8    1  0.1052028E+005  0.1043930E+01  0.7957747E-01            NaN
         13   -1    0    0    0    0  0.00000000000E+00  0.00000000000E+00  0.74505805969E-08  0.10566000000E+00  0.10566000000E+00 0. -1.
     999900   -1    0    0    0    0 -0.00000000000E+00 -0.00000000000E+00 -0.74505805969E-08  0.93827000000E+00  0.93827000000E+00 0. -1.
     999902    2    1    2    0    0 -0.12491571172E-01 -0.82725524446E-02  0.17935543032E-01  0.10205599727E+01  0.10202923599E+01 0.  0.
     999903    2    3    3    0    0 -0.49281374695E-01 -0.39589017785E-01 -0.11083963051E+00  0.12987638351E+00  0.24217908300E-01 0.  0.
         14    1    1    2    0    0  0.12491571172E-01  0.82725524446E-02 -0.17935543032E-01  0.23370027346E-01  0.00000000000E+00 0.  1.
     999901    1    3    3    0    0  0.36789803522E-01  0.31316465340E-01  0.12877517354E+00  0.89068358914E+00  0.88000000000E+00 0.  1.
        -11    1    4    4    0    0 -0.28521056534E-01 -0.28156232255E-01 -0.89149008089E-01  0.97744722849E-01  0.51100000000E-03 0. -1.
         11    1    4    4    0    0 -0.20760318161E-01 -0.11432785530E-01 -0.21690622418E-01  0.32131660664E-01  0.51100000000E-03 0.  1.
</event>
<event>
 8    1  0.1052028E+005  0.1043930E+01  0.7957747E-01            NaN
         13   -1    0    0    0    0  0.00000000000E+00  0.00000000000E+00  0.74505805969E-08  0.10566000000E+00  0.10566000000E+00 0.  1.
     999900   -1    0    0    0    0 -0.00000000000E+00 -0.00000000000E+00 -0.74505805969E-08  0.93827000000E+00  0.93827000000E+00 0.  1.
     999902    2    1    2    0    0 -0.12478492093E-01  0.40671199691E-02  0.17204267275E-01  0.10222911220E+01  0.10220620808E+01 0.  0.
     999903    2    3    3    0    0  0.83375284893E-01 -0.90660145741E-01 -0.37977302738E-01  0.13032351769E+00  0.19267682317E-01 0.  0.
         14    1    1    2    0    0  0.12478492093E-01 -0.40671199691E-02 -0.17204267275E-01  0.21638878026E-01  0.00000000000E+00 0. -1.
     999901    1    3    3    0    0 -0.95853776986E-01  0.94727265710E-01  0.55181570013E-01  0.89196760429E+00  0.88000000000E+00 0.  1.
        -11    1    4    4    0    0  0.51922392503E-01 -0.53773700995E-01 -0.13299712658E-01  0.75925550638E-01  0.51100000000E-03 0. -1.
         11    1    4    4    0    0  0.31452892390E-01 -0.36886444746E-01 -0.24677590081E-01  0.54397967048E-01  0.51100000000E-03 0.  1.
</event>
<event>
 8    1  0.1052028E+005  0.1043930E+01  0.7957747E-01            NaN
         13   -1    0    0    0    0  0.00000000000E+00  0.00000000000E+00  0.74505805969E-08  0.10566000000E+00  0.10566000000E+00 0. -1.
     999900   -1    0    0    0    0 -0.00000000000E+00 -0.00000000000E+00 -0.74505805969E-08  0.93827000000E+00  0.93827000000E+00 0.  1.
     999902    2    1    2    0    0 -0.30186134482E-02  0.18073072337E-01 -0.16050057226E-01  0.10195711760E+01  0.10192801531E+01 0.  0.
     999903    2    3    3    0    0  0.10463976052E+00  0.72573285260E-01  0.21698678173E-01  0.13053486304E+00  0.18765836477E-01 0.  0.
         14    1    1    2    0    0  0.30186134482E-02 -0.18073072337E-01  0.16050057226E-01  0.24358824024E-01  0.00000000000E+00 0. -1.
     999901    1    3    3    0    0 -0.10765837397E+00 -0.54500212923E-01 -0.37748735399E-01  0.88903631294E+00  0.88000000000E+00 0.  1.
        -11    1    4    4    0    0  0.40137358528E-01  0.38116404195E-01  0.54619848701E-02  0.55623396319E-01  0.51100000000E-03 0.  1.
         11    1    4    4    0    0  0.64502401996E-01  0.34456881065E-01  0.16236693303E-01  0.74911466722E-01  0.51100000000E-03 0. -1.
</event>
<event>
 8    1  0.1052028E+005  0.1043930E+01  0.7957747E-01            NaN
         13   -1    0    0    0    0  0.00000000000E+00  0.00000000000E+00  0.74505805969E-08  0.10566000000E+00  0.10566000000E+00 0.  1.
     999900   -1    0    0    0    0 -0.00000000000E+00 -0.00000000000E+00 -0.74505805969E-08  0.93827000000E+00  0.93827000000E+00 0. -1.
     999902    2    1    2    0    0 -0.17059590389E-01 -0.13297603804E-01  0.16006200223E-02  0.10222408812E+01  0.10220107638E+01 0.  0.
     999903    2    3    3    0    0 -0.97764309431E-01 -0.35031549076E-01 -0.82788427882E-01  0.13426164298E+00  0.19677280173E-01 0.  0.
         14    1    1    2    0    0  0.17059590389E-01  0.13297603804E-01 -0.16006200223E-02  0.21689118830E-01  0.00000000000E+00 0. -1.
     999901    1    3    3    0    0  0.80704719042E-01  0.21733945273E-01  0.84389047905E-01  0.88797923819E+00  0.88000000000E+00 0.  1.
        -11    1    4    4    0    0 -0.63582455328E-01 -0.32285032423E-01 -0.53258711846E-01  0.89004513664E-01  0.51100000000E-03 0.  1.
         11    1    4    4    0    0 -0.34181854102E-01 -0.27465166533E-02 -0.29529716037E-01  0.45257129315E-01  0.51100000000E-03 0. -1.
</event>
<event>
 8    1  0.1052028E+005  0.1043930E+01  0.7957747E-01            NaN
         13   -1    0    0    0    0  0.00000000000E+00  0.00000000000E+00  0.74505805969E-08  0.10566000000E+00  0.10566000000E+00 0. -1.
     999900   -1    0    0    0    0 -0.00000000000E+00 -0.00000000000E+00 -0.74505805969E-08  0.93827000000E+00  0.93827000000E+00 0.  1.
     999902    2    1    2    0    0 -0.72390395464E-02  0.22078132870E-01 -0.32080644313E-02  0.10204749510E+01  0.10202053648E+01 0.  0.
     999903    2    3    3    0    0 -0.35850526705E-01  0.12415036077E+00 -0.27995887726E-01  0.13376654739E+00  0.20276763250E-01 0.  0.
         14    1    1    2    0    0  0.72390395464E-02 -0.22078132870E-01  0.32080644313E-02  0.23455048966E-01  0.00000000000E+00 0. -1.
     999901    1    3    3    0    0  0.28611487159E-01 -0.10207222790E+00  0.24787823295E-01  0.88670840364E+00  0.88000000000E+00 0.  1.
        -11    1    4    4    0    0 -0.15521620656E-01  0.24684649414E-01 -0.86213854527E-02  0.30411215573E-01  0.51100000000E-03 0.  1.
         11    1    4    4    0    0 -0.20328906050E-01  0.99465711354E-01 -0.19374502273E-01  0.10335533182E+00  0.51100000000E-03 0. -1.
</event>
<event>
 8    1  0.1052028E+005  0.1043930E+01  0.7957747E-01            NaN
         13   -1    0    0    0    0  0.00000000000E+00  0.00000000000E+00  0.74505805969E-08  0.10566000000E+00  0.10566000000E+00 0. -1.
     999900   -1    0    0    0    0 -0.00000000000E+00 -0.00000000000E+00 -0.74505805969E-08  0.93827000000E+00  0.93827000000E+00 0. -1.
     999902    2    1    2    0    0 -0.49262285939E-02 -0.90039510349E-02  0.20666830760E-01  0.10208549755E+01  0.10205941526E+01 0.  0.
     999903    2    3    3    0    0 -0.92258211765E-01  0.59748865080E-01 -0.66098652200E-01  0.12962993430E+00  0.18798498037E-01 0.  0.
         14    1    1    2    0    0  0.49262285939E-02  0.90039510349E-02 -0.20666830760E-01  0.23075024508E-01  0.00000000000E+00 0.  1.
     999901    1    3    3    0    0  0.87331983171E-01 -0.68752816115E-01  0.86765482960E-01  0.89122504119E+00  0.88000000000E+00 0.  1.
        -11    1    4    4    0    0 -0.46657038531E-01  0.39300685840E-01 -0.30034997203E-01  0.67998421526E-01  0.51100000000E-03 0.  1.
         11    1    4    4    0    0 -0.45601173234E-01  0.20448179239E-01 -0.36063654997E-01  0.61631512778E-01  0.51100000000E-03 0. -1.
</event>
<event>
 8    1  0.1164495E+005  0.1043930E+01  0.7957747E-01            NaN
         13   -1    0    0    0    0  0.00000000000E+00  0.00000000000E+00  0.74505805969E-08  0.10566000000E+00  0.10566000000E+00 0.  1.
     999900   -1    0    0    0    0 -0.00000000000E+00 -0.00000000000E+00 -0.74505805969E-08  0.93827000000E+00  0.93827000000E+00 0. -1.
     999902    2    1    2    0    0  0.11661321383E-01  0.16276234369E-01 -0.13415136769E-01  0.10198287943E+01  0.10195439675E+01 0.  0.
     999903    2    3    3    0    0  0.52416878359E-01 -0.23191853350E-01 -0.11711804312E+00  0.13192506182E+00  0.20054792726E-01 0.  0.
         14    1    1    2    0    0 -0.11661321383E-01 -0.16276234369E-01  0.13415136769E-01  0.24101205699E-01  0.00000000000E+00 0.  1.
     999901    1    3    3    0    0 -0.40755556976E-01  0.39468087718E-01  0.10370290636E+00  0.88790373248E+00  0.88000000000E+00 0.  1.
        -11    1    4    4    0    0  0.33462491618E-01 -0.16593689798E-01 -0.53770605822E-01  0.65472345749E-01  0.51100000000E-03 0.  1.
         11    1    4    4    0    0  0.18954386741E-01 -0.65981635516E-02 -0.63347437302E-01  0.66452716067E-01  0.51100000000E-03 0. -1.
</event>
<event>
 8    1  0.1052028E+005  0.1043930E+01  0.7957747E-01            NaN
         13   -1    0    0    0    0  0.00000000000E+00  0.00000000000E+00  0.74505805969E-08  0.10566000000E+00  0.10566000000E+00 0. -1.
     999900   -1    0    0    0    0 -0.00000000000E+00 -0.00000000000E+00 -0.74505805969E-08  0.93827000000E+00  0.93827000000E+00 0. -1.
     999902    2    1    2    0    0 -0.73928245215E-02  0.16800152043E-01 -0.15189972788E-01  0.10201049242E+01  0.10198266628E+01 0.  0.
     999903    2    3    3    0    0 -0.41176410680E-01  0.11754189144E+00 -0.42689709777E-01  0.13328675554E+00  0.20769083773E-01 0.  0.
         14    1    1    2    0    0  0.73928245215E-02 -0.16800152043E-01  0.15189972788E-01  0.23825075789E-01  0.00000000000E+00 0.  1.
     999901    1    3    3    0    0  0.33783586159E-01 -0.10074173940E+00  0.27499736989E-01  0.88681816867E+00  0.88000000000E+00 0. -1.
        -11    1    4    4    0    0 -0.89399638688E-02  0.32408035257E-01 -0.23181990752E-02  0.33702208698E-01  0.51100000000E-03 0. -1.
         11    1    4    4    0    0 -0.32236446811E-01  0.85133856186E-01 -0.40371510702E-01  0.99584546841E-01  0.51100000000E-03 0.  1.
</event>
<event>
 8    1  0.1052028E+005  0.1043930E+01  0.7957747E-01            NaN
         13   -1    0    0    0    0  0.00000000000E+00  0.00000000000E+00  0.74505805969E-08  0.10566000000E+00  0.10566000000E+00 0.  1.
     999900   -1    0    0    0    0 -0.00000000000E+00 -0.00000000000E+00 -0.74505805969E-08  0.93827000000E+00  0.93827000000E+00 0.  1.
     999902    2    1    2    0    0 -0.10894747840E-01 -0.20009692707E-01 -0.69574014941E-02  0.10201079772E+01  0.10198297880E+01 0.  0.
     999903    2    3    3    0    0 -0.94139402035E-01 -0.78117337398E-01  0.46960508046E-01  0.13263216811E+00  0.20529424835E-01 0.  0.
         14    1    1    2    0    0  0.10894747840E-01  0.20009692707E-01  0.69574014941E-02  0.23822022758E-01  0.00000000000E+00 0.  1.
     999901    1    3    3    0    0  0.83244654196E-01  0.58107644691E-01 -0.53917909540E-01  0.88747580913E+00  0.88000000000E+00 0.  1.
        -11    1    4    4    0    0 -0.35709113219E-01 -0.38017105801E-01  0.28321416386E-01  0.59353221037E-01  0.51100000000E-03 0.  1.
         11    1    4    4    0    0 -0.58430288816E-01 -0.40100231597E-01  0.18639091660E-01  0.73278947074E-01  0.51100000000E-03 0. -1.
</event>
<event>
 7    1  0.1052028E+005  0.1043930E+01  0.7957747E-01            NaN
         13   -1    0    0    0    0  0.00000000000E+00  0.00000000000E+00  0.74505805969E-08  0.10566000000E+00  0.10566000000E+00 0.  1.
     999900   -1    0    0    0    0 -0.00000000000E+00 -0.00000000000E+00 -0.74505805969E-08  0.93827000000E+00  0.93827000000E+00 0.  1.
     999903    2    1    2    0    0  0.22384962097E-01  0.99588221744E-02  0.81775570062E-01  0.87956578209E-01  0.21186106864E-01 0.  0.
         14    1    1    2    0    0  0.44105633885E-01 -0.12943844584E-01 -0.56850185240E-01  0.73108095413E-01  0.00000000000E+00 0.  1.
     999901    1    1    2    0    0 -0.66490595982E-01  0.29850224095E-02 -0.24925384822E-01  0.88286532638E+00  0.88000000000E+00 0.  1.
        -11    1    3    3    0    0  0.14600703685E-01  0.97971435372E-02  0.76599128471E-01  0.78592952439E-01  0.51100000000E-03 0.  1.
         11    1    3    3    0    0  0.77842584125E-02  0.16167863721E-03  0.51764415912E-02  0.93636257701E-02  0.51100000000E-03 0. -1.
</event>
<event>
 8    1  0.1442133E+005  0.1043930E+01  0.7957747E-01            NaN
         13   -1    0    0    0    0  0.00000000000E+00  0.00000000000E+00  0.74505805969E-08  0.10566000000E+00  0.10566000000E+00 0. -1.
     999900   -1    0    0    0    0 -0.00000000000E+00 -0.00000000000E+00 -0.74505805969E-08  0.93827000000E+00  0.93827000000E+00 0.  1.
     999902    2    1    2    0    0  0.29799629654E-02  0.72292219754E-02 -0.22544355189E-01  0.10200681103E+01  0.10197889781E+01 0.  0.
     999903    2    3    3    0    0 -0.72515032558E-03 -0.76136619692E-01  0.10031285008E+00  0.12762344293E+00  0.20682470645E-01 0.  0.
         14    1    1    2    0    0 -0.29799629654E-02 -0.72292219754E-02  0.22544355189E-01  0.23861889710E-01  0.00000000000E+00 0. -1.
     999901    1    3    3    0    0  0.37051132910E-02  0.83365841667E-01 -0.12285720527E+00  0.89244466736E+00  0.88000000000E+00 0. -1.
        -11    1    4    4    0    0  0.44408231123E-02 -0.27447701878E-01  0.51241219044E-01  0.58301122617E-01  0.51100000000E-03 0. -1.
         11    1    4    4    0    0 -0.51659734378E-02 -0.48688917814E-01  0.49071631035E-01  0.69322320308E-01  0.51100000000E-03 0.  1.
</event>
<event>
 8    1  0.1095937E+005  0.1043930E+01  0.7957747E-01            NaN
         13   -1    0    0    0    0  0.00000000000E+00  0.00000000000E+00  0.74505805969E-08  0.10566000000E+00  0.10566000000E+00 0. -1.
     999900   -1    0    0    0    0 -0.00000000000E+00 -0.00000000000E+00 -0.74505805969E-08  0.93827000000E+00  0.93827000000E+00 0. -1.
     999902    2    1    2    0    0  0.85948153393E-02 -0.23767914054E-02 -0.21984565699E-01  0.10202057273E+01  0.10199298431E+01 0.  0.
     999903    2    3    3    0    0 -0.39744030800E-01 -0.88378555808E-01  0.82133815725E-01  0.12859281524E+00  0.19994782697E-01 0.  0.
         14    1    1    2    0    0 -0.85948153393E-02  0.23767914054E-02  0.21984565699E-01  0.23724272741E-01  0.00000000000E+00 0. -1.
     999901    1    3    3    0    0  0.48338846139E-01  0.86001764403E-01 -0.10411838142E+00  0.89161291202E+00  0.88000000000E+00 0. -1.
        -11    1    4    4    0    0 -0.38881130106E-01 -0.67356681204E-01  0.67224926722E-01  0.10280134569E+00  0.51100000000E-03 0.  1.
         11    1    4    4    0    0 -0.86290069364E-03 -0.21021874604E-01  0.14908889003E-01  0.25791469555E-01  0.51100000000E-03 0. -1.
</event>
<event>
 8    1  0.1052028E+005  0.1043930E+01  0.7957747E-01            NaN
         13   -1    0    0    0    0  0.00000000000E+00  0.00000000000E+00  0.74505805969E-08  0.10566000000E+00  0.10566000000E+00 0.  1.
     999900   -1    0    0    0    0 -0.00000000000E+00 -0.00000000000E+00 -0.74505805969E-08  0.93827000000E+00  0.93827000000E+00 0. -1.
     999902    2    1    2    0    0  0.14181721302E-01 -0.20526536331E-03  0.18815361460E-01  0.10203677170E+01  0.10200956312E+01 0.  0.
     999903    2    3    3    0    0 -0.62974014071E-01 -0.10252624689E+00  0.46741251679E-01  0.13064728558E+00  0.20164594474E-01 0.  0.
         14    1    1    2    0    0 -0.14181721302E-01  0.20526536331E-03 -0.18815361460E-01  0.23562282992E-01  0.00000000000E+00 0. -1.
     999901    1    3    3    0    0  0.77155735372E-01  0.10232098153E+00 -0.27925890219E-01  0.88972043143E+00  0.88000000000E+00 0.  1.
        -11    1    4    4    0    0 -0.24442940800E-01 -0.53740301902E-01  0.30198450442E-01  0.66315043041E-01  0.51100000000E-03 0.  1.
         11    1    4    4    0    0 -0.38531073271E-01 -0.48785944989E-01  0.16542801237E-01  0.64332242535E-01  0.51100000000E-03 0. -1.
</event>
<event>
 8    1  0.1052028E+005  0.1043930E+01  0.7957747E-01            NaN
         13   -1    0    0    0    0  0.00000000000E+00  0.00000000000E+00  0.74505805969E-08  0.10566000000E+00  0.10566000000E+00 0.  1.
     999900   -1    0    0    0    0 -0.00000000000E+00 -0.00000000000E+00 -0.74505805969E-08  0.93827000000E+00  0.93827000000E+00 0.  1.
     999902    2    1    2    0    0  0.72649038804E-02 -0.22966380046E-01  0.22077239616E-01  0.10112552705E+01  0.10107272551E+01 0.  0.
     999903    2    3    3    0    0  0.10083886593E+00 -0.32125729149E-01  0.63720195113E-01  0.12526762056E+00  0.20764733062E-01 0.  0.
         14    1    1    2    0    0 -0.72649038804E-02  0.22966380046E-01 -0.22077239616E-01  0.32674729530E-01  0.00000000000E+00 0. -1.
     999901    1    3    3    0    0 -0.93573962055E-01  0.91593491038E-02 -0.41642955497E-01  0.88598764991E+00  0.88000000000E+00 0.  1.
        -11    1    4    4    0    0  0.40893756384E-01 -0.11043834544E-01  0.37317634307E-01  0.56454694614E-01  0.51100000000E-03 0. -1.
         11    1    4    4    0    0  0.59945109551E-01 -0.21081894605E-01  0.26402560805E-01  0.68812925946E-01  0.51100000000E-03 0.  1.
</event>
<event>
 8    1  0.1054262E+005  0.1043930E+01  0.7957747E-01            NaN
         13   -1    0    0    0    0  0.00000000000E+00  0.00000000000E+00  0.74505805969E-08  0.10566000000E+00  0.10566000000E+00 0. -1.
     999900   -1    0    0    0    0 -0.00000000000E+00 -0.00000000000E+00 -0.74505805969E-08  0.93827000000E+00  0.93827000000E+00 0.  1.
     999902    2    1    2    0    0  0.89966894265E-02  0.19566947750E-01 -0.18747653428E-02  0.10223124005E+01  0.10220838143E+01 0.  0.
     999903    2    3    3    0    0 -0.63891726895E-01 -0.81316061886E-01  0.76294366709E-01  0.13012379031E+00  0.20418514326E-01 0.  0.
         14    1    1    2    0    0 -0.89966894265E-02 -0.19566947750E-01  0.18747653428E-02  0.21617599543E-01  0.00000000000E+00 0.  1.
     999901    1    3    3    0    0  0.72888416322E-01  0.10088300964E+00 -0.78169132052E-01  0.89218861015E+00  0.88000000000E+00 0.  1.
        -11    1    4    4    0    0 -0.36257217743E-01 -0.32918205323E-01  0.43200316858E-01  0.65304843448E-01  0.51100000000E-03 0.  1.
         11    1    4    4    0    0 -0.27634509152E-01 -0.48397856563E-01  0.33094049852E-01  0.64818946864E-01  0.51100000000E-03 0. -1.
</event>
<event>
 8    1  0.1052028E+005  0.1043930E+01  0.7957747E-01            NaN
         13   -1    0    0    0    0  0.00000000000E+00  0.00000000000E+00  0.74505805969E-08  0.10566000000E+00  0.10566000000E+00 0. -1.
     999900   -1    0    0    0    0 -0.00000000000E+00 -0.00000000000E+00 -0.74505805969E-08  0.93827000000E+00  0.93827000000E+00 0.  1.
     999902    2    1    2    0    0 -0.21054728558E-01  0.42897585009E-02 -0.98126513102E-02  0.10203081510E+01  0.10200346716E+01 0.  0.
     999903    2    3    3    0    0 -0.36121763103E-01  0.12507690710E+00 -0.87954940159E-02  0.13192896094E+00  0.19464726036E-01 0.  0.
         14    1    1    2    0    0  0.21054728558E-01 -0.42897585009E-02  0.98126513102E-02  0.23621848962E-01  0.00000000000E+00 0. -1.
     999901    1    3    3    0    0  0.15067034546E-01 -0.12078714860E+00 -0.10171572943E-02  0.88837919010E+00  0.88000000000E+00 0. -1.
        -11    1    4    4    0    0  0.34068882889E-03  0.20540445534E-01 -0.50025567468E-02  0.21149767531E-01  0.51100000000E-03 0. -1.
         11    1    4    4    0    0 -0.36462451932E-01  0.10453646156E+00 -0.37929372691E-02  0.11077919341E+00  0.51100000000E-03 0.  1.
</event>
<event>
 8    1  0.1052028E+005  0.1043930E+01  0.7957747E-01            NaN
         13   -1    0    0    0    0  0.00000000000E+00  0.00000000000E+00  0.74505805969E-08  0.10566000000E+00  0.10566000000E+00 0.  1.
     999900   -1    0    0    0    0 -0.00000000000E+00 -0.00000000000E+00 -0.74505805969E-08  0.93827000000E+00  0.93827000000E+00 0.  1.
     999902    2    1    2    0    0  0.15200625632E-01 -0.14666336847E-01  0.13615405499E-01  0.10187995459E+01  0.10184895557E+01 0.  0.
     999903    2    3    3    0    0  0.92189818455E-02  0.48438517095E-01 -0.11508022274E+00  0.12718271824E+00  0.22376473961E-01 0.  0.
         14    1    1    2    0    0 -0.15200625632E-01  0.14666336847E-01 -0.13615405499E-01  0.25130454095E-01  0.00000000000E+00 0.  1.
     999901    1    3    3    0    0  0.59816437863E-02 -0.63104853942E-01  0.12869562824E+00  0.89161682767E+00  0.88000000000E+00 0. -1.
        -11    1    4    4    0    0  0.12492564069E-01  0.48485704225E-01 -0.10116555599E+00  0.11287895513E+00  0.51100000000E-03 0.  1.
         11    1    4    4    0    0 -0.32735822236E-02 -0.47187130434E-04 -0.13914666754E-01  0.14303763109E-01  0.51100000000E-03 0. -1.
</event>
<event>
 8    1  0.1052028E+005  0.1043930E+01  0.7957747E-01            NaN
         13   -1    0    0    0    0  0.00000000000E+00  0.00000000000E+00  0.74505805969E-08  0.10566000000E+00  0.10566000000E+00 0.  1.
     999900   -1    0    0    0    0 -0.00000000000E+00 -0.00000000000E+00 -0.74505805969E-08  0.93827000000E+00  0.93827000000E+00 0.  1.
     999902    2    1    2    0    0 -0.18406585094E-01 -0.76957104919E-02 -0.12219235141E-01  0.10205347859E+01  0.10202665893E+01 0.  0.
     999903    2    3    3    0    0 -0.11308557481E+00 -0.48796710824E-01  0.44927068431E-01  0.13266142595E+00  0.20276741368E-01 0.  0.
         14    1    1    2    0    0  0.18406585094E-01  0.76957104919E-02  0.12219235141E-01  0.23395214089E-01  0.00000000000E+00 0.  1.
     999901    1    3    3    0    0  0.94678989711E-01  0.41101000332E-01 -0.57146303572E-01  0.88787335996E+00  0.88000000000E+00 0.  1.
        -11    1    4    4    0    0 -0.71199904926E-01 -0.22713243644E-01  0.34065634304E-01  0.82134319622E-01  0.51100000000E-03 0.  1.
         11    1    4    4    0    0 -0.41885669879E-01 -0.26083467180E-01  0.10861434127E-01  0.50527106326E-01  0.51100000000E-03 0. -1.
</event>
<event>
 8    1  0.1052028E+005  0.1043930E+01  0.7957747E-01            NaN
         13   -1    0    0    0    0  0.00000000000E+00  0.00000000000E+00  0.74505805969E-08  0.10566000000E+00  0.10566000000E+00 0. -1.
     999900   -1    0    0    0    0 -0.00000000000E+00 -0.00000000000E+00 -0.74505805969E-08  0.93827000000E+00  0.93827000000E+00 0.  1.
     999902    2    1    2    0    0  0.17386151732E-01  0.45638483905E-02 -0.15248407186E-01  0.10203583877E+01  0.10200860839E+01 0.  0.
     999903    2    3    3    0    0  0.16316644481E-01  0.12647590895E+00 -0.26562322221E-01  0.13188120791E+00  0.20608435287E-01 0.  0.
         14    1    1    2    0    0 -0.17386151732E-01 -0.45638483905E-02  0.15248407186E-01  0.23571612289E-01  0.00000000000E+00 0. -1.
     999901    1    3    3    0    0  0.10695072517E-02 -0.12191206056E+00  0.11313915035E-01  0.88847717980E+00  0.88000000000E+00 0.  1.
        -11    1    4    4    0    0  0.18690610444E-01  0.91658521072E-01 -0.25515584636E-01  0.96963547709E-01  0.51100000000E-03 0. -1.
         11    1    4    4    0    0 -0.23739659635E-02  0.34817387881E-01 -0.10467375844E-02  0.34917660200E-01  0.51100000000E-03 0.  1.
</event>
<event>
 8    1  0.1052028E+005  0.1043930E+01  0.7957747E-01            NaN
         13   -1    0    0    0    0  0.00000000000E+00  0.00000000000E+00  0.74505805969E-08  0.10566000000E+00  0.10566000000E+00 0.  1.
     999900   -1    0    0    0    0 -0.00000000000E+00 -0.00000000000E+00 -0.74505805969E-08  0.93827000000E+00  0.93827000000E+00 0. -1.
     999902    2    1    2    0    0 -0.91634261876E-02  0.24354567672E-01  0.11124973090E-01  0.10156302054E+01  0.10152358523E+01 0.  0.
     999903    2    3    3    0    0 -0.74543405590E-01 -0.71958153230E-01  0.68823364378E-01  0.12609111902E+00  0.20678967034E-01 0.  0.
         14    1    1    2    0    0  0.91634261876E-02 -0.24354567672E-01 -0.11124973090E-01  0.28299794562E-01  0.00000000000E+00 0. -1.
     999901    1    3    3    0    0  0.65379979402E-01  0.96312720901E-01 -0.57698391287E-01  0.88953908642E+00  0.88000000000E+00 0.  1.
        -11    1    4    4    0    0 -0.61059858799E-01 -0.50495385399E-01  0.44108783186E-01  0.90685920507E-01  0.51100000000E-03 0. -1.
         11    1    4    4    0    0 -0.13483546790E-01 -0.21462767831E-01  0.24714581192E-01  0.35405198510E-01  0.51100000000E-03 0.  1.
</event>
<event>
 8    1  0.1052028E+005  0.1043930E+01  0.7957747E-01            NaN
         13   -1    0    0    0    0  0.00000000000E+00  0.00000000000E+00  0.74505805969E-08  0.10566000000E+00  0.10566000000E+00 0. -1.
     999900   -1    0    0    0    0 -0.00000000000E+00 -0.00000000000E+00 -0.74505805969E-08  0.93827000000E+00  0.93827000000E+00 0.  1.
     999902    2    1    2    0    0 -0.16784851051E-01 -0.21215273820E-02  0.16060815475E-01  0.10206022934E+01  0.10203356601E+01 0.  0.
     999903    2    3    3    0    0  0.20232183383E-01  0.61103901534E-01  0.11352080255E+00  0.13219576211E+00  0.21112055301E-01 0.  0.
         14    1    1    2    0    0  0.16784851051E-01  0.21215273820E-02 -0.16060815475E-01  0.23327706637E-01  0.00000000000E+00 0. -1.
     999901    1    3    3    0    0 -0.37017034434E-01 -0.63225428916E-01 -0.97459987079E-01  0.88840653126E+00  0.88000000000E+00 0.  1.
        -11    1    4    4    0    0  0.25199001197E-03  0.32399607879E-01  0.47830285157E-01  0.57773656530E-01  0.51100000000E-03 0. -1.
         11    1    4    4    0    0  0.19980193371E-01  0.28704293655E-01  0.65690517397E-01  0.74422105575E-01  0.51100000000E-03 0.  1.
</event>
<event>
 8    1  0.1052028E+005  0.1043930E+01  0.7957747E-01            NaN
         13   -1    0    0    0    0  0.00000000000E+00  0.00000000000E+00  0.74505805969E-08  0.10566000000E+00  0.10566000000E+00 0. -1.
     999900   -1    0    0    0    0 -0.00000000000E+00 -0.00000000000E+00 -0.74505805969E-08  0.93827000000E+00  0.93827000000E+00 0. -1.
     999902    2    1    2    0    0 -0.17320232741E-01 -0.14889111394E-01 -0.56275437004E-02  0.10204067063E+01  0.10201355306E+01 0.  0.
     999903    2    3    3    0    0  0.43604010065E-01  0.88121133388E-01  0.80071810444E-01  0.12818069611E+00  0.18765718297E-01 0.  0.
         14    1    1    2    0    0  0.17320232741E-01  0.14889111394E-01  0.56275437004E-02  0.23523293741E-01  0.00000000000E+00 0. -1.
     999901    1    3    3    0    0 -0.60924242807E-01 -0.10301024478E+00 -0.85699354145E-01  0.89222601015E+00  0.88000000000E+00 0. -1.
        -11    1    4    4    0    0  0.31959093846E-01  0.48547978551E-01  0.54270933221E-01  0.79522859698E-01  0.51100000000E-03 0.  1.
         11    1    4    4    0    0  0.11644916220E-01  0.39573154837E-01  0.25800877224E-01  0.48657836409E-01  0.51100000000E-03 0. -1.
</event>
<event>
 8    1  0.1052028E+005  0.1043930E+01  0.7957747E-01            NaN
         13   -1    0    0    0    0  0.00000000000E+00  0.00000000000E+00  0.74505805969E-08  0.10566000000E+00  0.10566000000E+00 0.  1.
     999900   -1    0    0    0    0 -0.00000000000E+00 -0.00000000000E+00 -0.74505805969E-08  0.93827000000E+00  0.93827000000E+00 0.  1.
     999902    2    1    2    0    0 -0.16652275168E-01 -0.14025029087E-01 -0.72653494210E-02  0.10209782024E+01  0.10207201893E+01 0.  0.
     999903    2    3    3    0    0  0.66287768990E-01  0.10828728485E+00  0.20296485380E-02  0.12860734340E+00  0.20384428534E-01 0.  0.
         14    1    1    2    0    0  0.16652275168E-01  0.14025029087E-01  0.72653494210E-02  0.22951797563E-01  0.00000000000E+00 0. -1.
     999901    1    3    3    0    0 -0.82940044158E-01 -0.12231231393E+00 -0.92949979590E-02  0.89237085903E+00  0.88000000000E+00 0. -1.
        -11    1    4    4    0    0  0.38448339995E-01  0.61922932518E-01 -0.88988819120E-02  0.73431434960E-01  0.51100000000E-03 0.  1.
         11    1    4    4    0    0  0.27839428996E-01  0.46364352330E-01  0.10928530450E-01  0.55175908444E-01  0.51100000000E-03 0. -1.
</event>
<event>
 8    1  0.1052028E+005  0.1043930E+01  0.7957747E-01            NaN
         13   -1    0    0    0    0  0.00000000000E+00  0.00000000000E+00  0.74505805969E-08  0.10566000000E+00  0.10566000000E+00 0.  1.
     999900   -1    0    0    0    0 -0.00000000000E+00 -0.00000000000E+00 -0.74505805969E-08  0.93827000000E+00  0.93827000000E+00 0.  1.
     999902    2    1    2    0    0 -0.16081138657E-01  0.17091750495E-01  0.20623921198E-02  0.10203718928E+01  0.10200999045E+01 0.  0.
     999903    2    3    3    0    0 -0.14187664076E-01 -0.59015567513E-01  0.11352574678E+00  0.13007981230E+00  0.18669101863E-01 0.  0.
         14    1    1    2    0    0  0.16081138657E-01 -0.17091750495E-01 -0.20623921198E-02  0.23558107240E-01  0.00000000000E+00 0. -1.
     999901    1    3    3    0    0 -0.18934745810E-02  0.76107318008E-01 -0.11146335466E+00  0.89029208046E+00  0.88000000000E+00 0.  1.
        -11    1    4    4    0    0 -0.33638951161E-02 -0.17655177276E-01  0.18096844555E-01  0.25510350426E-01  0.51100000000E-03 0.  1.
         11    1    4    4    0    0 -0.10823768960E-01 -0.41360390237E-01  0.95428902227E-01  0.10456946187E+00  0.51100000000E-03 0. -1.
</event>
<event>
 8    1  0.1052028E+005  0.1043930E+01  0.7957747E-01            NaN
         13   -1    0    0    0    0  0.00000000000E+00  0.00000000000E+00  0.74505805969E-08  0.10566000000E+00  0.10566000000E+00 0. -1.
     999900   -1    0    0    0    0 -0.00000000000E+00 -0.00000000000E+00 -0.74505805969E-08  0.93827000000E+00  0.93827000000E+00 0.  1.
     999902    2    1    2    0    0 -0.15485289043E-01  0.99570207985E-02 -0.11350757843E-01  0.10223018669E+01  0.10220730555E+01 0.  0.
     999903    2    3    3    0    0 -0.66719070620E-01  0.10602217040E+00 -0.48632470037E-01  0.13480914045E+00  0.10782031677E-01 0.  0.
         14    1    1    2    0    0  0.15485289043E-01 -0.99570207985E-02  0.11350757843E-01  0.21628133150E-01  0.00000000000E+00 0. -1.
     999901    1    3    3    0    0  0.51233781577E-01 -0.96065149603E-01  0.37281712193E-01  0.88749272640E+00  0.88000000000E+00 0.  1.
        -11    1    4    4    0    0 -0.21267438769E-01  0.26228272327E-01 -0.15795496278E-01  0.37282503198E-01  0.51100000000E-03 0.  1.
         11    1    4    4    0    0 -0.45451631851E-01  0.79793898074E-01 -0.32836973758E-01  0.97526637256E-01  0.51100000000E-03 0. -1.
</event>
<event>
 8    1  0.1052028E+005  0.1043930E+01  0.7957747E-01            NaN
         13   -1    0    0    0    0  0.00000000000E+00  0.00000000000E+00  0.74505805969E-08  0.10566000000E+00  0.10566000000E+00 0. -1.
     999900   -1    0    0    0    0 -0.00000000000E+00 -0.00000000000E+00 -0.74505805969E-08  0.93827000000E+00  0.93827000000E+00 0. -1.
     999902    2    1    2    0    0  0.12659911805E-01  0.97025953520E-02 -0.17692790120E-01  0.10201088215E+01  0.10198306522E+01 0.  0.
     999903    2    3    3    0    0  0.10521663716E+00 -0.43221474474E-01 -0.64772685554E-01  0.13242406825E+00  0.20049849552E-01 0.  0.
         14    1    1    2    0    0 -0.12659911805E-01 -0.97025953520E-02  0.17692790120E-01  0.23821178512E-01  0.00000000000E+00 0. -1.
     999901    1    3    3    0    0 -0.92556725355E-01  0.52924069826E-01  0.47079895435E-01  0.88768475324E+00  0.88000000000E+00 0.  1.
        -11    1    4    4    0    0  0.47422800860E-01 -0.14401091714E-01 -0.18199675742E-01  0.52799647745E-01  0.51100000000E-03 0. -1.
         11    1    4    4    0    0  0.57793836301E-01 -0.28820382760E-01 -0.46573009812E-01  0.79624420505E-01  0.51100000000E-03 0.  1.
</event>
<event>
 8    1  0.1052028E+005  0.1043930E+01  0.7957747E-01            NaN
         13   -1    0    0    0    0  0.00000000000E+00  0.00000000000E+00  0.74505805969E-08  0.10566000000E+00  0.10566000000E+00 0. -1.
     999900   -1    0    0    0    0 -0.00000000000E+00 -0.00000000000E+00 -0.74505805969E-08  0.93827000000E+00  0.93827000000E+00 0.  1.
     999902    2    1    2    0    0 -0.79923807881E-02 -0.23305323631E-01 -0.33083330134E-02  0.10190711720E+01  0.10187679286E+01 0.  0.
     999903    2    3    3    0    0  0.11010629664E+00  0.57635734027E-01  0.18675230377E-01  0.12722924127E+00  0.19830310296E-01 0.  0.
         14    1    1    2    0    0  0.79923807881E-02  0.23305323631E-01  0.33083330134E-02  0.24858827960E-01  0.00000000000E+00 0.  1.
     999901    1    3    3    0    0 -0.11809867743E+00 -0.80941057658E-01 -0.21983563391E-01  0.89184193077E+00  0.88000000000E+00 0. -1.
        -11    1    4    4    0    0  0.62801536879E-01  0.24305880377E-01  0.16419774702E-01  0.69315791690E-01  0.51100000000E-03 0.  1.
         11    1    4    4    0    0  0.47304759764E-01  0.33329853650E-01  0.22554556751E-02  0.57913449578E-01  0.51100000000E-03 0. -1.
</event>
<event>
 8    1  0.1052028E+005  0.1043930E+01  0.7957747E-01            NaN
         13   -1    0    0    0    0  0.00000000000E+00  0.00000000000E+00  0.74505805969E-08  0.10566000000E+00  0.10566000000E+00 0. -1.
     999900   -1    0    0    0    0 -0.00000000000E+00 -0.00000000000E+00 -0.74505805969E-08  0.93827000000E+00  0.93827000000E+00 0.  1.
     999902    2    1    2    0    0  0.23034174003E-01 -0.48433154556E-02 -0.53913444772E-03  0.10203859659E+01  0.10201143063E+01 0.  0.
     999903    2    3    3    0    0 -0.12021242963E+00  0.11744604104E-01 -0.36882416380E-01  0.12790874899E+00  0.20282294437E-01 0.  0.
         14    1    1    2    0    0 -0.23034174003E-01  0.48433154556E-02  0.53913444772E-03  0.23544034118E-01  0.00000000000E+00 0.  1.
     999901    1    3    3    0    0  0.14324660363E+00 -0.16587919560E-01  0.36343281933E-01  0.89247721689E+00  0.88000000000E+00 0.  1.
        -11    1    4    4    0    0 -0.31352873073E-01  0.70724033237E-02 -0.18356966689E-01  0.37017035075E-01  0.51100000000E-03 0.  1.
         11    1    4    4    0    0 -0.88859556555E-01  0.46722007804E-02 -0.18525449691E-01  0.90891713916E-01  0.51100000000E-03 0. -1.
</event>
<event>
 8    1  0.1052028E+005  0.1043930E+01  0.7957747E-01            NaN
         13   -1    0    0    0    0  0.00000000000E+00  0.00000000000E+00  0.74505805969E-08  0.10566000000E+00  0.10566000000E+00 0.  1.
     999900   -1    0    0    0    0 -0.00000000000E+00 -0.00000000000E+00 -0.74505805969E-08  0.93827000000E+00  0.93827000000E+00 0. -1.
     999902    2    1    2    0    0  0.85281076691E-03 -0.12701877787E-01 -0.20562118990E-01  0.10197460028E+01  0.10194591921E+01 0.  0.
     999903    2    3    3    0    0  0.93035042634E-02 -0.84827439955E-01 -0.10012179669E+00  0.13317775763E+00  0.20728994066E-01 0.  0.
         14    1    1    2    0    0 -0.85281076691E-03  0.12701877787E-01  0.20562118990E-01  0.24183997247E-01  0.00000000000E+00 0. -1.
     999901    1    3    3    0    0 -0.84506934965E-02  0.72125562169E-01  0.79559677699E-01  0.88656824512E+00  0.88000000000E+00 0. -1.
        -11    1    4    4    0    0 -0.21564331279E-02 -0.41778293123E-01 -0.36579471195E-01  0.55573328261E-01  0.51100000000E-03 0.  1.
         11    1    4    4    0    0  0.11459937391E-01 -0.43049146833E-01 -0.63542325494E-01  0.77604429372E-01  0.51100000000E-03 0. -1.
</event>
<event>
 8    1  0.1052028E+005  0.1043930E+01  0.7957747E-01            NaN
         13   -1    0    0    0    0  0.00000000000E+00  0.00000000000E+00  0.74505805969E-08  0.10566000000E+00  0.10566000000E+00 0. -1.
     999900   -1    0    0    0    0 -0.00000000000E+00 -0.00000000000E+00 -0.74505805969E-08  0.93827000000E+00  0.93827000000E+00 0. -1.
     999902    2    1    2    0    0 -0.18342824681E-02  0.63055819308E-02  0.22371123312E-01  0.10206149380E+01  0.10203485971E+01 0.  0.
     999903    2    3    3    0    0  0.12457619362E+00  0.29257748172E-01  0.21020786482E-01  0.13128472164E+00  0.20458759163E-01 0.  0.
         14    1    1    2    0    0  0.18342824681E-02 -0.63055819308E-02 -0.22371123312E-01  0.23315061953E-01  0.00000000000E+00 0.  1.
     999901    1    3    3    0    0 -0.12641047609E+00 -0.22952166241E-01  0.13503368293E-02  0.88933021640E+00  0.88000000000E+00 0.  1.
        -11    1    4    4    0    0  0.88426192319E-01  0.17477317724E-01  0.23588474862E-01  0.93173630337E-01  0.51100000000E-03 0. -1.
         11    1    4    4    0    0  0.36150001304E-01  0.11780430448E-01 -0.25676883796E-02  0.38111091305E-01  0.51100000000E-03 0.  1.
</event>
<event>
 8    1  0.1052028E+005  0.1043930E+01  0.7957747E-01            NaN
         13   -1    0    0    0    0  0.00000000000E+00  0.00000000000E+00  0.74505805969E-08  0.10566000000E+00  0.10566000000E+00 0.  1.
     999900   -1    0    0    0    0 -0.00000000000E+00 -0.00000000000E+00 -0.74505805969E-08  0.93827000000E+00  0.93827000000E+00 0. -1.
     999902    2    1    2    0    0  0.14938311450E-01 -0.80156842208E-02  0.17286736320E-01  0.10197176974E+01  0.10194302070E+01 0.  0.
     999903    2    3    3    0    0 -0.11701917924E+00  0.18719597241E-01  0.46971965033E-01  0.12898273831E+00  0.19653743950E-01 0.  0.
         14    1    1    2    0    0 -0.14938311450E-01  0.80156842208E-02 -0.17286736320E-01  0.24212302557E-01  0.00000000000E+00 0. -1.
     999901    1    3    3    0    0  0.13195749069E+00 -0.26735281462E-01 -0.29685228713E-01  0.89073495914E+00  0.88000000000E+00 0.  1.
        -11    1    4    4    0    0 -0.69908286358E-01  0.13687115572E-01  0.18112336862E-01  0.73503901269E-01  0.51100000000E-03 0.  1.
         11    1    4    4    0    0 -0.47110892882E-01  0.50324816688E-02  0.28859628171E-01  0.55478837038E-01  0.51100000000E-03 0. -1.
</event>
<event>
 8    1  0.1052028E+005  0.1043930E+01  0.7957747E-01            NaN
         13   -1    0    0    0    0  0.00000000000E+00  0.00000000000E+00  0.74505805969E-08  0.10566000000E+00  0.10566000000E+00 0. -1.
     999900   -1    0    0    0    0 -0.00000000000E+00 -0.00000000000E+00 -0.74505805969E-08  0.93827000000E+00  0.93827000000E+00 0.  1.
     999902    2    1    2    0    0  0.13238837447E-01  0.22743676830E-01 -0.65642986866E-02  0.10168074693E+01  0.10164456690E+01 0.  0.
     999903    2    3    3    0    0  0.11932900710E+00  0.10572983128E-01  0.44282413364E-01  0.12889495224E+00  0.17371720453E-01 0.  0.
         14    1    1    2    0    0 -0.13238837447E-01 -0.22743676830E-01  0.65642986866E-02  0.27122530670E-01  0.00000000000E+00 0.  1.
     999901    1    3    3    0    0 -0.10609016965E+00  0.12170693702E-01 -0.50846712051E-01  0.88791251709E+00  0.88000000000E+00 0.  1.
        -11    1    4    4    0    0  0.29474554504E-01  0.76961770864E-02  0.17275809201E-01  0.35024208906E-01  0.51100000000E-03 0.  1.
         11    1    4    4    0    0  0.89854452596E-01  0.28768060414E-02  0.27006604164E-01  0.93870743333E-01  0.51100000000E-03 0. -1.
</event>
<event>
 8    1  0.1052028E+005  0.1043930E+01  0.7957747E-01            NaN
         13   -1    0    0    0    0  0.00000000000E+00  0.00000000000E+00  0.74505805969E-08  0.10566000000E+00  0.10566000000E+00 0.  1.
     999900   -1    0    0    0    0 -0.00000000000E+00 -0.00000000000E+00 -0.74505805969E-08  0.93827000000E+00  0.93827000000E+00 0.  1.
     999902    2    1    2    0    0 -0.61655601184E-02  0.23201525235E-02 -0.22073848507E-01  0.10208941144E+01  0.10206341855E+01 0.  0.
     999903    2    3    3    0    0  0.31153221743E-01 -0.11975386351E+00  0.36571470247E-01  0.12975213337E+00  0.13661355239E-01 0.  0.
         14    1    1    2    0    0  0.61655601184E-02 -0.23201525235E-02  0.22073848507E-01  0.23035885640E-01  0.00000000000E+00 0.  1.
     999901    1    3    3    0    0 -0.37318781862E-01  0.12207401604E+00 -0.58645318754E-01  0.89114198099E+00  0.88000000000E+00 0. -1.
        -11    1    4    4    0    0  0.24726499250E-01 -0.10570291563E+00  0.28151394010E-01  0.11214842060E+00  0.51100000000E-03 0.  1.
         11    1    4    4    0    0  0.64267224932E-02 -0.14050947886E-01  0.84200762371E-02  0.17603712771E-01  0.51100000000E-03 0. -1.
</event>
<event>
 8    1  0.1052028E+005  0.1043930E+01  0.7957747E-01            NaN
         13   -1    0    0    0    0  0.00000000000E+00  0.00000000000E+00  0.74505805969E-08  0.10566000000E+00  0.10566000000E+00 0. -1.
     999900   -1    0    0    0    0 -0.00000000000E+00 -0.00000000000E+00 -0.74505805969E-08  0.93827000000E+00  0.93827000000E+00 0. -1.
     999902    2    1    2    0    0 -0.23733723991E-01 -0.22017793496E-02  0.32593766129E-02  0.10198725475E+01  0.10195887661E+01 0.  0.
     999903    2    3    3    0    0  0.68441690128E-01 -0.70693311135E-01 -0.79806316596E-01  0.12853237318E+00  0.21672877068E-01 0.  0.
         14    1    1    2    0    0  0.23733723991E-01  0.22017793496E-02 -0.32593766129E-02  0.24057452540E-01  0.00000000000E+00 0.  1.
     999901    1    3    3    0    0 -0.92175414119E-01  0.68491531785E-01  0.83065693209E-01  0.89134017428E+00  0.88000000000E+00 0.  1.
        -11    1    4    4    0    0  0.21452224315E-01 -0.19819326632E-01 -0.36899096301E-01  0.47061747365E-01  0.51100000000E-03 0.  1.
         11    1    4    4    0    0  0.46989465813E-01 -0.50873984502E-01 -0.42907220295E-01  0.81470625817E-01  0.51100000000E-03 0. -1.
</event>
<event>
 8    1  0.1052028E+005  0.1043930E+01  0.7957747E-01            NaN
         13   -1    0    0    0    0  0.00000000000E+00  0.00000000000E+00  0.74505805969E-08  0.10566000000E+00  0.10566000000E+00 0. -1.
     999900   -1    0    0    0    0 -0.00000000000E+00 -0.00000000000E+00 -0.74505805969E-08  0.93827000000E+00  0.93827000000E+00 0. -1.
     999902    2    1    2    0    0 -0.86388993274E-02  0.15255088921E-01  0.15720460820E-01  0.10203825753E+01  0.10201108366E+01 0.  0.
     999903    2    3    3    0    0 -0.54007734926E-02 -0.18501652777E-01  0.12958732870E+00  0.13239852894E+00  0.19105370892E-01 0.  0.
         14    1    1    2    0    0  0.86388993274E-02 -0.15255088921E-01 -0.15720460820E-01  0.23547424657E-01  0.00000000000E+00 0.  1.
     999901    1    3    3    0    0 -0.32381258348E-02  0.33756741698E-01 -0.11386686788E+00  0.88798404640E+00  0.88000000000E+00 0. -1.
        -11    1    4    4    0    0 -0.26229709638E-02 -0.22124324710E-01  0.99700014567E-01  0.10216026501E+00  0.51100000000E-03 0. -1.
         11    1    4    4    0    0 -0.27778025288E-02  0.36226719329E-02  0.29887314128E-01  0.30238263932E-01  0.51100000000E-03 0.  1.
</event>
<event>
 8    1  0.1052028E+005  0.1043930E+01  0.7957747E-01            NaN
         13   -1    0    0    0    0  0.00000000000E+00  0.00000000000E+00  0.74505805969E-08  0.10566000000E+00  0.10566000000E+00 0. -1.
     999900   -1    0    0    0    0 -0.00000000000E+00 -0.00000000000E+00 -0.74505805969E-08  0.93827000000E+00  0.93827000000E+00 0.  1.
     999902    2    1    2    0    0  0.13559373864E-01  0.12147845572E-01  0.15715075968E-01  0.10198802519E+01  0.10195966545E+01 0.  0.
     999903    2    3    3    0    0 -0.10490917186E+00  0.76259614622E-02 -0.69836795026E-01  0.12781838946E+00  0.19906609886E-01 0.  0.
         14    1    1    2    0    0 -0.13559373864E-01 -0.12147845572E-01 -0.15715075968E-01  0.24049748113E-01  0.00000000000E+00 0.  1.
     999901    1    3    3    0    0  0.11846854572E+00  0.45218841102E-02  0.85551870993E-01  0.89206186242E+00  0.88000000000E+00 0.  1.
        -11    1    4    4    0    0 -0.24303181727E-01 -0.57975307424E-02 -0.20823057608E-01  0.32528708150E-01  0.51100000000E-03 0. -1.
         11    1    4    4    0    0 -0.80605990132E-01  0.13423492205E-01 -0.49013737418E-01  0.95289681313E-01  0.51100000000E-03 0.  1.
</event>
<event>
 8    1  0.1052028E+005  0.1043930E+01  0.7957747E-01            NaN
         13   -1    0    0    0    0  0.00000000000E+00  0.00000000000E+00  0.74505805969E-08  0.10566000000E+00  0.10566000000E+00 0.  1.
     999900   -1    0    0    0    0 -0.00000000000E+00 -0.00000000000E+00 -0.74505805969E-08  0.93827000000E+00  0.93827000000E+00 0.  1.
     999902    2    1    2    0    0 -0.69488819130E-02 -0.56152518585E-02 -0.22071327264E-01  0.10201190466E+01  0.10198411189E+01 0.  0.
     999903    2    3    3    0    0 -0.82698910104E-01 -0.29974773258E-01 -0.98166476188E-01  0.13325833336E+00  0.19583911706E-01 0.  0.
         14    1    1    2    0    0  0.69488819130E-02  0.56152518585E-02  0.22071327264E-01  0.23810953372E-01  0.00000000000E+00 0.  1.
     999901    1    3    3    0    0  0.75750028191E-01  0.24359521400E-01  0.76095148923E-01  0.88686071327E+00  0.88000000000E+00 0. -1.
        -11    1    4    4    0    0 -0.39315300315E-01 -0.22440271960E-01 -0.58660992488E-01  0.74098797596E-01  0.51100000000E-03 0. -1.
         11    1    4    4    0    0 -0.43383609788E-01 -0.75345012989E-02 -0.39505483700E-01  0.59159535761E-01  0.51100000000E-03 0.  1.
</event>
<event>
 8    1  0.1052028E+005  0.1043930E+01  0.7957747E-01            NaN
         13   -1    0    0    0    0  0.00000000000E+00  0.00000000000E+00  0.74505805969E-08  0.10566000000E+00  0.10566000000E+00 0.  1.
     999900   -1    0    0    0    0 -0.00000000000E+00 -0.00000000000E+00 -0.74505805969E-08  0.93827000000E+00  0.93827000000E+00 0.  1.
     999902    2    1    2    0    0  0.62771418652E-02 -0.90682582839E-02  0.20484796716E-01  0.10206649465E+01  0.10203997600E+01 0.  0.
     999903    2    3    3    0    0 -0.11890214969E+00 -0.12191464128E-01 -0.44989047827E-01  0.12939257860E+00  0.20786341018E-01 0.  0.
         14    1    1    2    0    0 -0.62771418652E-02  0.90682582839E-02 -0.20484796716E-01  0.23265053509E-01  0.00000000000E+00 0. -1.
     999901    1    3    3    0    0  0.12517929156E+00  0.31232058436E-02  0.65473844543E-01  0.89127236789E+00  0.88000000000E+00 0. -1.
        -11    1    4    4    0    0 -0.62263051324E-01 -0.14565779097E-01 -0.16993020237E-01  0.66165499610E-01  0.51100000000E-03 0.  1.
         11    1    4    4    0    0 -0.56639098368E-01  0.23743149699E-02 -0.27996027590E-01  0.63227078988E-01  0.51100000000E-03 0. -1.
</event>
<event>
 8    1  0.1052028E+005  0.1043930E+01  0.7957747E-01            NaN
         13   -1    0    0    0    0  0.00000000000E+00  0.00000000000E+00  0.74505805969E-08  0.10566000000E+00  0.10566000000E+00 0.  1.
     999900   -1    0    0    0    0 -0.00000000000E+00 -0.00000000000E+00 -0.74505805969E-08  0.93827000000E+00  0.93827000000E+00 0. -1.
     999902    2    1    2    0    0 -0.13288628476E-01 -0.80896482233E-02  0.16622524216E-01  0.10211629544E+01  0.10209091248E+01 0.  0.
     999903    2    3    3    0    0 -0.12501641224E+00 -0.41069489639E-01 -0.38940139993E-02  0.13324871530E+00  0.20597341508E-01 0.  0.
         14    1    1    2    0    0  0.13288628476E-01  0.80896482233E-02 -0.16622524216E-01  0.22767045624E-01  0.00000000000E+00 0. -1.
     999901    1    3    3    0    0  0.11172778376E+00  0.32979841415E-01  0.20516538215E-01  0.88791423907E+00  0.88000000000E+00 0.  1.
        -11    1    4    4    0    0 -0.19916983097E-01 -0.38861266543E-02 -0.76719067289E-02  0.21700402529E-01  0.51100000000E-03 0.  1.
         11    1    4    4    0    0 -0.10509942914E+00 -0.37183362984E-01  0.37778927295E-02  0.11154831278E+00  0.51100000000E-03 0. -1.
</event>
<event>
 8    1  0.1052028E+005  0.1043930E+01  0.7957747E-01            NaN
         13   -1    0    0    0    0  0.00000000000E+00  0.00000000000E+00  0.74505805969E-08  0.10566000000E+00  0.10566000000E+00 0.  1.
     999900   -1    0    0    0    0 -0.00000000000E+00 -0.00000000000E+00 -0.74505805969E-08  0.93827000000E+00  0.93827000000E+00 0. -1.
     999902    2    1    2    0    0 -0.19779111380E-01  0.13684382317E-01  0.11605863642E-01  0.10172247264E+01  0.10168741183E+01 0.  0.
     999903    2    3    3    0    0 -0.78140124057E-01  0.66874471857E-01  0.78938479794E-01  0.13112717274E+00  0.19620852817E-01 0.  0.
         14    1    1    2    0    0  0.19779111380E-01 -0.13684382317E-01 -0.11605863642E-01  0.26705273586E-01  0.00000000000E+00 0. -1.
     999901    1    3    3    0    0  0.58361012677E-01 -0.53190089540E-01 -0.67332616152E-01  0.88609755367E+00  0.88000000000E+00 0. -1.
        -11    1    4    4    0    0 -0.29427622921E-01  0.18308573673E-01  0.36325233715E-01  0.50209287847E-01  0.51100000000E-03 0.  1.
         11    1    4    4    0    0 -0.48712501136E-01  0.48565898184E-01  0.42613246079E-01  0.80917884895E-01  0.51100000000E-03 0. -1.
</event>
<event>
 8    1  0.1052028E+005  0.1043930E+01  0.7957747E-01            NaN
         13   -1    0    0    0    0  0.00000000000E+00  0.00000000000E+00  0.74505805969E-08  0.10566000000E+00  0.10566000000E+00 0.  1.
     999900   -1    0    0    0    0 -0.00000000000E+00 -0.00000000000E+00 -0.74505805969E-08  0.93827000000E+00  0.93827000000E+00 0.  1.
     999902    2    1    2    0    0 -0.13379037401E-02 -0.65550131546E-02  0.30106282156E-01  0.10130893384E+01  0.10126198009E+01 0.  0.
     999903    2    3    3    0    0 -0.39635389109E-01  0.96083122202E-01 -0.60328017050E-01  0.12169736697E+00  0.19179391158E-01 0.  0.
         14    1    1    2    0    0  0.13379037401E-02  0.65550131546E-02 -0.30106282156E-01  0.30840661619E-01  0.00000000000E+00 0. -1.
     999901    1    3    3    0    0  0.38297485369E-01 -0.10263813536E+00  0.90434299206E-01  0.89139197141E+00  0.88000000000E+00 0. -1.
        -11    1    4    4    0    0 -0.30853105317E-01  0.59361421517E-01 -0.46540336678E-01  0.81498199559E-01  0.51100000000E-03 0. -1.
         11    1    4    4    0    0 -0.87822837926E-02  0.36721700685E-01 -0.13787680372E-01  0.40199167415E-01  0.51100000000E-03 0.  1.
</event>
<event>
 8    1  0.1052028E+005  0.1043930E+01  0.7957747E-01            NaN
         13   -1    0    0    0    0  0.00000000000E+00  0.00000000000E+00  0.74505805969E-08  0.10566000000E+00  0.10566000000E+00 0.  1.
     999900   -1    0    0    0    0 -0.00000000000E+00 -0.00000000000E+00 -0.74505805969E-08  0.93827000000E+00  0.93827000000E+00 0. -1.
     999902    2    1    2    0    0  0.47002687051E-02  0.14165281128E-01 -0.17322881071E-01  0.10210645255E+01  0.10208084714E+01 0.  0.
     999903    2    3    3    0    0 -0.22877398459E-01  0.12660754402E+00  0.24882145496E-01  0.13247853953E+00  0.19457561722E-01 0.  0.
         14    1    1    2    0    0 -0.47002687051E-02 -0.14165281128E-01  0.17322881071E-01  0.22865474496E-01  0.00000000000E+00 0.  1.
     999901    1    3    3    0    0  0.27577667164E-01 -0.11244226289E+00 -0.42205026567E-01  0.88858598598E+00  0.88000000000E+00 0. -1.
        -11    1    4    4    0    0 -0.11222213807E-01  0.43425166079E-01  0.17538468943E-01  0.48161625239E-01  0.51100000000E-03 0. -1.
         11    1    4    4    0    0 -0.11655184652E-01  0.83182377937E-01  0.73436765534E-02  0.84316914287E-01  0.51100000000E-03 0.  1.
</event>
<event>
 8    1  0.1052028E+005  0.1043930E+01  0.7957747E-01            NaN
         13   -1    0    0    0    0  0.00000000000E+00  0.00000000000E+00  0.74505805969E-08  0.10566000000E+00  0.10566000000E+00 0.  1.
     999900   -1    0    0    0    0 -0.00000000000E+00 -0.00000000000E+00 -0.74505805969E-08  0.93827000000E+00  0.93827000000E+00 0.  1.
     999902    2    1    2    0    0  0.19541280046E-02  0.14445940047E-01  0.35459743886E-02  0.10289274091E+01  0.10288180283E+01 0.  0.
     999903    2    3    3    0    0 -0.14782332341E-01  0.40627856528E-02 -0.13547357209E+00  0.13779646847E+00  0.19993859330E-01 0.  0.
         14    1    1    2    0    0 -0.19541280046E-02 -0.14445940047E-01 -0.35459743886E-02  0.15002590925E-01  0.00000000000E+00 0.  1.
     999901    1    3    3    0    0  0.16736460345E-01  0.10383154395E-01  0.13901954648E+00  0.89113094060E+00  0.88000000000E+00 0. -1.
        -11    1    4    4    0    0  0.41048834714E-02  0.40102674225E-02 -0.21084955311E-01  0.21857922467E-01  0.51100000000E-03 0. -1.
         11    1    4    4    0    0 -0.18887215812E-01  0.52518230275E-04 -0.11438861678E+00  0.11593854600E+00  0.51100000000E-03 0.  1.
</event>
<event>
 8    1  0.1052028E+005  0.1043930E+01  0.7957747E-01            NaN
         13   -1    0    0    0    0  0.00000000000E+00  0.00000000000E+00  0.74505805969E-08  0.10566000000E+00  0.10566000000E+00 0. -1.
     999900   -1    0    0    0    0 -0.00000000000E+00 -0.00000000000E+00 -0.74505805969E-08  0.93827000000E+00  0.93827000000E+00 0. -1.
     999902    2    1    2    0    0 -0.49556598973E-02  0.18523891206E-02  0.22618773703E-01  0.10207007332E+01  0.10204363714E+01 0.  0.
     999903    2    3    3    0    0  0.61085091150E-01  0.86629382117E-01 -0.71141637650E-01  0.12921908223E+00  0.20010007470E-01 0.  0.
         14    1    1    2    0    0  0.49556598973E-02 -0.18523891206E-02 -0.22618773703E-01  0.23229266762E-01  0.00000000000E+00 0.  1.
     999901    1    3    3    0    0 -0.66040751047E-01 -0.84776992997E-01  0.93760411353E-01  0.89148165100E+00  0.88000000000E+00 0.  1.
        -11    1    4    4    0    0  0.90558788065E-02  0.16083070793E-01 -0.22013358932E-01  0.28731919525E-01  0.51100000000E-03 0.  1.
         11    1    4    4    0    0  0.52029212343E-01  0.70546311324E-01 -0.49128278718E-01  0.10048716271E+00  0.51100000000E-03 0. -1.
</event>
<event>
 8    1  0.1052028E+005  0.1043930E+01  0.7957747E-01            NaN
         13   -1    0    0    0    0  0.00000000000E+00  0.00000000000E+00  0.74505805969E-08  0.10566000000E+00  0.10566000000E+00 0. -1.
     999900   -1    0    0    0    0 -0.00000000000E+00 -0.00000000000E+00 -0.74505805969E-08  0.93827000000E+00  0.93827000000E+00 0. -1.
     999902    2    1    2    0    0 -0.20679233092E-01  0.10537745263E-01  0.36971837672E-02  0.10204280017E+01  0.10201573225E+01 0.  0.
     999903    2    3    3    0    0  0.51528284126E-01  0.85501375558E-02  0.11758939448E+00  0.13015314987E+00  0.19603770308E-01 0.  0.
         14    1    1    2    0    0  0.20679233092E-01 -0.10537745263E-01 -0.36971837672E-02  0.23501998305E-01  0.00000000000E+00 0. -1.
     999901    1    3    3    0    0 -0.72207517219E-01  0.19876077073E-02 -0.11389221071E+00  0.89027485182E+00  0.88000000000E+00 0. -1.
        -11    1    4    4    0    0  0.31476860798E-01 -0.13577164319E-02  0.51447738357E-01  0.60330482036E-01  0.51100000000E-03 0.  1.
         11    1    4    4    0    0  0.20051423328E-01  0.99078539877E-02  0.66141656123E-01  0.69822667836E-01  0.51100000000E-03 0. -1.
</event>
<event>
 8    1  0.1052028E+005  0.1043930E+01  0.7957747E-01            NaN
         13   -1    0    0    0    0  0.00000000000E+00  0.00000000000E+00  0.74505805969E-08  0.10566000000E+00  0.10566000000E+00 0. -1.
     999900   -1    0    0    0    0 -0.00000000000E+00 -0.00000000000E+00 -0.74505805969E-08  0.93827000000E+00  0.93827000000E+00 0.  1.
     999902    2    1    2    0    0  0.11599157347E-02  0.14012604253E-01 -0.19504605332E-01  0.10198857052E+01  0.10196022379E+01 0.  0.
     999903    2    3    3    0    0  0.12812711320E+00 -0.24979074362E-02 -0.14736668438E-01  0.13060734640E+00  0.20452698090E-01 0.  0.
         14    1    1    2    0    0 -0.11599157347E-02 -0.14012604253E-01  0.19504605332E-01  0.24044294783E-01  0.00000000000E+00 0. -1.
     999901    1    3    3    0    0 -0.12696719747E+00  0.16510511689E-01 -0.47679368945E-02  0.88927835881E+00  0.88000000000E+00 0. -1.
        -11    1    4    4    0    0  0.10907099676E+00 -0.70226457997E-02 -0.69325500099E-02  0.10951767556E+00  0.51100000000E-03 0.  1.
         11    1    4    4    0    0  0.19056116438E-01  0.45247383636E-02 -0.78041184277E-02  0.21089670846E-01  0.51100000000E-03 0. -1.
</event>
<event>
 8    1  0.1052028E+005  0.1043930E+01  0.7957747E-01            NaN
         13   -1    0    0    0    0  0.00000000000E+00  0.00000000000E+00  0.74505805969E-08  0.10566000000E+00  0.10566000000E+00 0. -1.
     999900   -1    0    0    0    0 -0.00000000000E+00 -0.00000000000E+00 -0.74505805969E-08  0.93827000000E+00  0.93827000000E+00 0. -1.
     999902    2    1    2    0    0 -0.18117179143E-01 -0.13723883308E-01 -0.52443561752E-02  0.10206044684E+01  0.10203378854E+01 0.  0.
     999903    2    3    3    0    0  0.65062624197E-02  0.64771212731E-01  0.11006245026E+00  0.12927767446E+00  0.19008753396E-01 0.  0.
         14    1    1    2    0    0  0.18117179143E-01  0.13723883308E-01  0.52443561752E-02  0.23325531609E-01  0.00000000000E+00 0. -1.
     999901    1    3    3    0    0 -0.24623441562E-01 -0.78495096039E-01 -0.11530680644E+00  0.89132679394E+00  0.88000000000E+00 0. -1.
        -11    1    4    4    0    0  0.23007266908E-02  0.52429686483E-01  0.72418404804E-01  0.89436300479E-01  0.51100000000E-03 0.  1.
         11    1    4    4    0    0  0.42055357289E-02  0.12341526248E-01  0.37644045458E-01  0.39841373976E-01  0.51100000000E-03 0. -1.
</event>
<event>
 8    1  0.1052028E+005  0.1043930E+01  0.7957747E-01            NaN
         13   -1    0    0    0    0  0.00000000000E+00  0.00000000000E+00  0.74505805969E-08  0.10566000000E+00  0.10566000000E+00 0. -1.
     999900   -1    0    0    0    0 -0.00000000000E+00 -0.00000000000E+00 -0.74505805969E-08  0.93827000000E+00  0.93827000000E+00 0. -1.
     999902    2    1    2    0    0  0.23276586584E-02  0.14144150212E-01  0.18865460826E-01  0.10202365285E+01  0.10199613686E+01 0.  0.
     999903    2    3    3    0    0 -0.32095307565E-01  0.12625188587E+00 -0.94725699286E-02  0.13200450419E+00  0.19126214772E-01 0.  0.
         14    1    1    2    0    0 -0.23276586584E-02 -0.14144150212E-01 -0.18865460826E-01  0.23693471510E-01  0.00000000000E+00 0. -1.
     999901    1    3    3    0    0  0.34422966224E-01 -0.11210773566E+00  0.28338030754E-01  0.88823202430E+00  0.88000000000E+00 0. -1.
        -11    1    4    4    0    0 -0.63388060003E-03  0.35861137929E-01 -0.46715754560E-02  0.36173301707E-01  0.51100000000E-03 0. -1.
         11    1    4    4    0    0 -0.31461426965E-01  0.90390747946E-01 -0.48009944727E-02  0.95831202486E-01  0.51100000000E-03 0.  1.
</event>
<event>
 8    1  0.1052028E+005  0.1043930E+01  0.7957747E-01            NaN
         13   -1    0    0    0    0  0.00000000000E+00  0.00000000000E+00  0.74505805969E-08  0.10566000000E+00  0.10566000000E+00 0. -1.
     999900   -1    0    0    0    0 -0.00000000000E+00 -0.00000000000E+00 -0.74505805969E-08  0.93827000000E+00  0.93827000000E+00 0.  1.
     999902    2    1    2    0    0  0.11707396431E-02 -0.11894218948E-01 -0.21651476191E-01  0.10191988557E+01  0.10188987575E+01 0.  0.
     999903    2    3    3    0    0 -0.10855989012E+00  0.44990448970E-01  0.46430125544E-01  0.12795714831E+00  0.20196163090E-01 0.  0.
         14    1    1    2    0    0 -0.11707396431E-02  0.11894218948E-01  0.21651476191E-01  0.24731144271E-01  0.00000000000E+00 0. -1.
     999901    1    3    3    0    0  0.10973062976E+00 -0.56884667919E-01 -0.68081601735E-01  0.89124170742E+00  0.88000000000E+00 0.  1.
        -11    1    4    4    0    0 -0.23758459039E-01  0.15024383521E-01  0.18972091604E-01  0.33917515489E-01  0.51100000000E-03 0.  1.
         11    1    4    4    0    0 -0.84801431081E-01  0.29966065449E-01  0.27458033941E-01  0.94039632819E-01  0.51100000000E-03 0. -1.
</event>
<event>
 8    1  0.1052028E+005  0.1043930E+01  0.7957747E-01            NaN
         13   -1    0    0    0    0  0.00000000000E+00  0.00000000000E+00  0.74505805969E-08  0.10566000000E+00  0.10566000000E+00 0.  1.
     999900   -1    0    0    0    0 -0.00000000000E+00 -0.00000000000E+00 -0.74505805969E-08  0.93827000000E+00  0.93827000000E+00 0. -1.
     999902    2    1    2    0    0  0.86134102976E-02  0.18309422699E-01 -0.11896329326E-01  0.10204577089E+01  0.10201877216E+01 0.  0.
     999903    2    3    3    0    0  0.39087164687E-01 -0.50007525244E-01  0.11052701916E+00  0.12883933130E+00  0.18835931089E-01 0.  0.
         14    1    1    2    0    0 -0.86134102976E-02 -0.18309422699E-01  0.11896329326E-01  0.23472291067E-01  0.00000000000E+00 0.  1.
     999901    1    3    3    0    0 -0.30473754390E-01  0.68316947943E-01 -0.12242334849E+00  0.89161837764E+00  0.88000000000E+00 0. -1.
        -11    1    4    4    0    0  0.15755834886E-01 -0.31098166853E-01  0.71909126022E-01  0.79915742134E-01  0.51100000000E-03 0. -1.
         11    1    4    4    0    0  0.23331329801E-01 -0.18909358391E-01  0.38617893139E-01  0.48923589163E-01  0.51100000000E-03 0.  1.
</event>
<event>
 8    1  0.1052028E+005  0.1043930E+01  0.7957747E-01            NaN
         13   -1    0    0    0    0  0.00000000000E+00  0.00000000000E+00  0.74505805969E-08  0.10566000000E+00  0.10566000000E+00 0.  1.
     999900   -1    0    0    0    0 -0.00000000000E+00 -0.00000000000E+00 -0.74505805969E-08  0.93827000000E+00  0.93827000000E+00 0. -1.
     999902    2    1    2    0    0 -0.12022769837E-01 -0.81287861581E-02  0.19253934876E-01  0.10198190447E+01  0.10195339846E+01 0.  0.
     999903    2    3    3    0    0 -0.10359780543E+00  0.72729117575E-01  0.28651096379E-01  0.13133027468E+00  0.20117800362E-01 0.  0.
         14    1    1    2    0    0  0.12022769837E-01  0.81287861581E-02 -0.19253934876E-01  0.24110955335E-01  0.00000000000E+00 0. -1.
     999901    1    3    3    0    0  0.91575035593E-01 -0.80857903733E-01 -0.93971615031E-02  0.88848876998E+00  0.88000000000E+00 0. -1.
        -11    1    4    4    0    0 -0.26342612684E-01  0.14970982742E-01  0.15309438954E-01  0.33951489060E-01  0.51100000000E-03 0.  1.
         11    1    4    4    0    0 -0.77255192745E-01  0.57758134833E-01  0.13341657425E-01  0.97378785622E-01  0.51100000000E-03 0. -1.
</event>
<event>
 8    1  0.1052028E+005  0.1043930E+01  0.7957747E-01            NaN
         13   -1    0    0    0    0  0.00000000000E+00  0.00000000000E+00  0.74505805969E-08  0.10566000000E+00  0.10566000000E+00 0.  1.
     999900   -1    0    0    0    0 -0.00000000000E+00 -0.00000000000E+00 -0.74505805969E-08  0.93827000000E+00  0.93827000000E+00 0. -1.
     999902    2    1    2    0    0 -0.20642368447E-01  0.93091922045E-02  0.92090140512E-02  0.10194846656E+01  0.10191915468E+01 0.  0.
     999903    2    3    3    0    0 -0.62489048667E-01  0.83373678429E-01 -0.77234589829E-01  0.13116648531E+00  0.19580948510E-01 0.  0.
         14    1    1    2    0    0  0.20642368447E-01 -0.93091922045E-02 -0.92090140512E-02  0.24445334410E-01  0.00000000000E+00 0. -1.
     999901    1    3    3    0    0  0.41846680220E-01 -0.74064486224E-01  0.86443603880E-01  0.88831818028E+00  0.88000000000E+00 0.  1.
        -11    1    4    4    0    0 -0.18653592139E-01  0.40997452292E-01 -0.32897887766E-01  0.55778846659E-01  0.51100000000E-03 0. -1.
         11    1    4    4    0    0 -0.43835456528E-01  0.42376226137E-01 -0.44336702063E-01  0.75387638651E-01  0.51100000000E-03 0.  1.
</event>
<event>
 8    1  0.1052028E+005  0.1043930E+01  0.7957747E-01            NaN
         13   -1    0    0    0    0  0.00000000000E+00  0.00000000000E+00  0.74505805969E-08  0.10566000000E+00  0.10566000000E+00 0. -1.
     999900   -1    0    0    0    0 -0.00000000000E+00 -0.00000000000E+00 -0.74505805969E-08  0.93827000000E+00  0.93827000000E+00 0.  1.
     999902    2    1    2    0    0  0.37282869162E-02 -0.22199041251E-01 -0.60462600841E-02  0.10206221726E+01  0.10203559989E+01 0.  0.
     999903    2    3    3    0    0 -0.40217389599E-02  0.53806924902E-01 -0.11701455866E+00  0.13036887548E+00  0.19805989068E-01 0.  0.
         14    1    1    2    0    0 -0.37282869162E-02  0.22199041251E-01  0.60462600841E-02  0.23307827372E-01  0.00000000000E+00 0. -1.
     999901    1    3    3    0    0  0.77500258761E-02 -0.76005966153E-01  0.11096829858E+00  0.89025329715E+00  0.88000000000E+00 0. -1.
        -11    1    4    4    0    0  0.32252034972E-03  0.30362334497E-01 -0.43266582681E-01  0.52860511475E-01  0.51100000000E-03 0.  1.
         11    1    4    4    0    0 -0.43442593096E-02  0.23444590405E-01 -0.73747975984E-01  0.77508364006E-01  0.51100000000E-03 0. -1.
</event>
<event>
 8    1  0.1052028E+005  0.1043930E+01  0.7957747E-01            NaN
         13   -1    0    0    0    0  0.00000000000E+00  0.00000000000E+00  0.74505805969E-08  0.10566000000E+00  0.10566000000E+00 0.  1.
     999900   -1    0    0    0    0 -0.00000000000E+00 -0.00000000000E+00 -0.74505805969E-08  0.93827000000E+00  0.93827000000E+00 0. -1.
     999902    2    1    2    0    0  0.23015435926E-01 -0.32989060902E-02 -0.19974630748E-02  0.10205936993E+01  0.10203268673E+01 0.  0.
     999903    2    3    3    0    0  0.27023092997E-01 -0.46598325947E-02  0.12691233734E+00  0.13119184968E+00  0.18777605233E-01 0.  0.
         14    1    1    2    0    0 -0.23015435926E-01  0.32989060902E-02  0.19974630748E-02  0.23336300714E-01  0.00000000000E+00 0.  1.
     999901    1    3    3    0    0 -0.40076570703E-02  0.13609265045E-02 -0.12890980042E+00  0.88940184960E+00  0.88000000000E+00 0. -1.
        -11    1    4    4    0    0  0.13238042592E-01 -0.88397939124E-02  0.92839351524E-01  0.94195509662E-01  0.51100000000E-03 0.  1.
         11    1    4    4    0    0  0.13785050405E-01  0.41799613177E-02  0.34072985818E-01  0.36996340020E-01  0.51100000000E-03 0. -1.
</event>
<event>
 8    1  0.1052028E+005  0.1043930E+01  0.7957747E-01            NaN
         13   -1    0    0    0    0  0.00000000000E+00  0.00000000000E+00  0.74505805969E-08  0.10566000000E+00  0.10566000000E+00 0. -1.
     999900   -1    0    0    0    0 -0.00000000000E+00 -0.00000000000E+00 -0.74505805969E-08  0.93827000000E+00  0.93827000000E+00 0. -1.
     999902    2    1    2    0    0  0.22775769197E-01  0.10999800884E-01 -0.15397675429E-02  0.10185902651E+01  0.10182750247E+01 0.  0.
     999903    2    3    3    0    0  0.94366461310E-01  0.84703492872E-01 -0.30789887105E-01  0.13212930660E+00  0.20746705500E-01 0.  0.
         14    1    1    2    0    0 -0.22775769197E-01 -0.10999800884E-01  0.15397675429E-02  0.25339734925E-01  0.00000000000E+00 0.  1.
     999901    1    3    3    0    0 -0.71590692114E-01 -0.73703691988E-01  0.29250119562E-01  0.88646095848E+00  0.88000000000E+00 0. -1.
        -11    1    4    4    0    0  0.64225745995E-01  0.54432127802E-01 -0.10526101844E-01  0.84846113209E-01  0.51100000000E-03 0. -1.
         11    1    4    4    0    0  0.30140715316E-01  0.30271365070E-01 -0.20263785261E-01  0.47283193389E-01  0.51100000000E-03 0.  1.
</event>
<event>
 8    1  0.1052028E+005  0.1043930E+01  0.7957747E-01            NaN
         13   -1    0    0    0    0  0.00000000000E+00  0.00000000000E+00  0.74505805969E-08  0.10566000000E+00  0.10566000000E+00 0.  1.
     999900   -1    0    0    0    0 -0.00000000000E+00 -0.00000000000E+00 -0.74505805969E-08  0.93827000000E+00  0.93827000000E+00 0.  1.
     999902    2    1    2    0    0 -0.18450809716E-01  0.82119937543E-02 -0.11326563521E-01  0.10207748653E+01  0.10205122074E+01 0.  0.
     999903    2    3    3    0    0 -0.60409815632E-01  0.11685893827E+00 -0.18362178706E-02  0.13305036787E+00  0.19841154592E-01 0.  0.
         14    1    1    2    0    0  0.18450809716E-01 -0.82119937543E-02  0.11326563521E-01  0.23155134675E-01  0.00000000000E+00 0.  1.
     999901    1    3    3    0    0  0.41959005916E-01 -0.10864694451E+00 -0.94903456507E-02  0.88772449746E+00  0.88000000000E+00 0.  1.
        -11    1    4    4    0    0 -0.30577163491E-01  0.45368717376E-01  0.66683934842E-02  0.55118164303E-01  0.51100000000E-03 0.  1.
         11    1    4    4    0    0 -0.29832652141E-01  0.71490220891E-01 -0.85046113548E-02  0.77932203562E-01  0.51100000000E-03 0. -1.
</event>
<event>
 8    1  0.1052028E+005  0.1043930E+01  0.7957747E-01            NaN
         13   -1    0    0    0    0  0.00000000000E+00  0.00000000000E+00  0.74505805969E-08  0.10566000000E+00  0.10566000000E+00 0. -1.
     999900   -1    0    0    0    0 -0.00000000000E+00 -0.00000000000E+00 -0.74505805969E-08  0.93827000000E+00  0.93827000000E+00 0.  1.
     999902    2    1    2    0    0 -0.13645505812E-01 -0.16870667472E-01  0.10269342144E-01  0.10199241957E+01  0.10196416461E+01 0.  0.
     999903    2    3    3    0    0  0.10980463538E+00 -0.58552565070E-01 -0.29852881457E-01  0.12942595837E+00  0.19350021758E-01 0.  0.
         14    1    1    2    0    0  0.13645505812E-01  0.16870667472E-01 -0.10269342144E-01  0.24005804254E-01  0.00000000000E+00 0.  1.
     999901    1    3    3    0    0 -0.12345014119E+00  0.41681897598E-01  0.40122223601E-01  0.89049823738E+00  0.88000000000E+00 0.  1.
        -11    1    4    4    0    0  0.78336658719E-01 -0.51257308025E-01 -0.22976574945E-01  0.96395683734E-01  0.51100000000E-03 0.  1.
         11    1    4    4    0    0  0.31467976656E-01 -0.72952570450E-02 -0.68763065122E-02  0.33030274634E-01  0.51100000000E-03 0. -1.
</event>
<event>
 8    1  0.1052028E+005  0.1043930E+01  0.7957747E-01            NaN
         13   -1    0    0    0    0  0.00000000000E+00  0.00000000000E+00  0.74505805969E-08  0.10566000000E+00  0.10566000000E+00 0. -1.
     999900   -1    0    0    0    0 -0.00000000000E+00 -0.00000000000E+00 -0.74505805969E-08  0.93827000000E+00  0.93827000000E+00 0.  1.
     999902    2    1    2    0    0 -0.55270840934E-02 -0.11392835185E-02  0.20699988445E-01  0.10224745544E+01  0.10222494207E+01 0.  0.
     999903    2    3    3    0    0 -0.48862470170E-02  0.25613155324E-01  0.13078922091E+00  0.13521149149E+00  0.22280439554E-01 0.  0.
         14    1    1    2    0    0  0.55270840934E-02  0.11392835185E-02 -0.20699988445E-01  0.21455445629E-01  0.00000000000E+00 0.  1.
     999901    1    3    3    0    0 -0.64083707643E-03 -0.26752438842E-01 -0.11008923247E+00  0.88726306289E+00  0.88000000000E+00 0.  1.
        -11    1    4    4    0    0  0.32540373342E-02  0.13953437565E-01  0.10298047961E+00  0.10397368648E+00  0.51100000000E-03 0. -1.
         11    1    4    4    0    0 -0.81402843512E-02  0.11659717758E-01  0.27808741306E-01  0.31237805006E-01  0.51100000000E-03 0.  1.
</event>
<event>
 8    1  0.1052028E+005  0.1043930E+01  0.7957747E-01            NaN
         13   -1    0    0    0    0  0.00000000000E+00  0.00000000000E+00  0.74505805969E-08  0.10566000000E+00  0.10566000000E+00 0.  1.
     999900   -1    0    0    0    0 -0.00000000000E+00 -0.00000000000E+00 -0.74505805969E-08  0.93827000000E+00  0.93827000000E+00 0.  1.
     999902    2    1    2    0    0  0.22556434120E-01  0.15526063699E-01 -0.43463003769E-03  0.10165431368E+01  0.10161741527E+01 0.  0.
     999903    2    3    3    0    0  0.10854631749E+00  0.67721789594E-01  0.17245901387E-01  0.13063611285E+00  0.19995725508E-01 0.  0.
         14    1    1    2    0    0 -0.22556434120E-01 -0.15526063699E-01  0.43463003769E-03  0.27386863228E-01  0.00000000000E+00 0. -1.
     999901    1    3    3    0    0 -0.85989883373E-01 -0.52195725895E-01 -0.17680531424E-01  0.88590702392E+00  0.88000000000E+00 0.  1.
        -11    1    4    4    0    0  0.74700356323E-01  0.35400398730E-01  0.97869229865E-02  0.83242876257E-01  0.51100000000E-03 0.  1.
         11    1    4    4    0    0  0.33845961171E-01  0.32321390864E-01  0.74589784002E-02  0.47393236592E-01  0.51100000000E-03 0. -1.
</event>
<event>
 8    1  0.1052028E+005  0.1043930E+01  0.7957747E-01            NaN
         13   -1    0    0    0    0  0.00000000000E+00  0.00000000000E+00  0.74505805969E-08  0.10566000000E+00  0.10566000000E+00 0.  1.
     999900   -1    0    0    0    0 -0.00000000000E+00 -0.00000000000E+00 -0.74505805969E-08  0.93827000000E+00  0.93827000000E+00 0.  1.
     999902    2    1    2    0    0  0.16222230114E-01  0.16196773224E-01  0.55931695501E-02  0.10203338190E+01  0.10200609405E+01 0.  0.
     999903    2    3    3    0    0  0.42021911627E-01  0.11661152929E+00 -0.43357295496E-01  0.13289655651E+00  0.20434036285E-01 0.  0.
         14    1    1    2    0    0 -0.16222230114E-01 -0.16196773224E-01 -0.55931695501E-02  0.23596181012E-01  0.00000000000E+00 0. -1.
     999901    1    3    3    0    0 -0.25799681513E-01 -0.10041475607E+00  0.48950465046E-01  0.88743726248E+00  0.88000000000E+00 0.  1.
        -11    1    4    4    0    0  0.11309071360E-01  0.17717710071E-01 -0.14003717902E-01  0.25262176891E-01  0.51100000000E-03 0. -1.
         11    1    4    4    0    0  0.30712840266E-01  0.98893819223E-01 -0.29353577594E-01  0.10763437962E+00  0.51100000000E-03 0.  1.
</event>
<event>
 8    1  0.1052028E+005  0.1043930E+01  0.7957747E-01            NaN
         13   -1    0    0    0    0  0.00000000000E+00  0.00000000000E+00  0.74505805969E-08  0.10566000000E+00  0.10566000000E+00 0. -1.
     999900   -1    0    0    0    0 -0.00000000000E+00 -0.00000000000E+00 -0.74505805969E-08  0.93827000000E+00  0.93827000000E+00 0. -1.
     999902    2    1    2    0    0 -0.21212549671E-02 -0.23553641430E-02  0.23431103338E-01  0.10202854643E+01  0.10200114532E+01 0.  0.
     999903    2    3    3    0    0  0.85162834855E-01 -0.74717070643E-01  0.64772432021E-01  0.13204910258E+00  0.20153125204E-01 0.  0.
         14    1    1    2    0    0  0.21212549671E-02  0.23553641430E-02 -0.23431103338E-01  0.23644535658E-01  0.00000000000E+00 0.  1.
     999901    1    3    3    0    0 -0.87284089822E-01  0.72361706500E-01 -0.41341328683E-01  0.88823636176E+00  0.88000000000E+00 0. -1.
        -11    1    4    4    0    0  0.17915513835E-01 -0.22900730273E-01  0.88807501040E-02  0.30406215260E-01  0.51100000000E-03 0.  1.
         11    1    4    4    0    0  0.67247321020E-01 -0.51816340369E-01  0.55891681917E-01  0.10164288732E+00  0.51100000000E-03 0. -1.
</event>
<event>
 8    1  0.1052028E+005  0.1043930E+01  0.7957747E-01            NaN
         13   -1    0    0    0    0  0.00000000000E+00  0.00000000000E+00  0.74505805969E-08  0.10566000000E+00  0.10566000000E+00 0.  1.
     999900   -1    0    0    0    0 -0.00000000000E+00 -0.00000000000E+00 -0.74505805969E-08  0.93827000000E+00  0.93827000000E+00 0. -1.
     999902    2    1    2    0    0  0.21694473667E-01 -0.92307089573E-02  0.26230213645E-02  0.10202079340E+01  0.10199321017E+01 0.  0.
     999903    2    3    3    0    0 -0.27469103575E-01  0.10221490294E+00  0.71357421792E-01  0.12916270530E+00  0.19715089680E-01 0.  0.
         14    1    1    2    0    0 -0.21694473667E-01  0.92307089573E-02 -0.26230213645E-02  0.23722066028E-01  0.00000000000E+00 0. -1.
     999901    1    3    3    0    0  0.49163577242E-01 -0.11144561190E+00 -0.68734400427E-01  0.89104522867E+00  0.88000000000E+00 0. -1.
        -11    1    4    4    0    0 -0.12547697301E-01  0.38029488125E-01  0.16107248309E-01  0.43167015692E-01  0.51100000000E-03 0.  1.
         11    1    4    4    0    0 -0.14921406273E-01  0.64185414816E-01  0.55250173483E-01  0.85995689608E-01  0.51100000000E-03 0. -1.
</event>
<event>
 8    1  0.1052028E+005  0.1043930E+01  0.7957747E-01            NaN
         13   -1    0    0    0    0  0.00000000000E+00  0.00000000000E+00  0.74505805969E-08  0.10566000000E+00  0.10566000000E+00 0. -1.
     999900   -1    0    0    0    0 -0.00000000000E+00 -0.00000000000E+00 -0.74505805969E-08  0.93827000000E+00  0.93827000000E+00 0. -1.
     999902    2    1    2    0    0 -0.12161769478E-01  0.80274864551E-02 -0.18104945524E-01  0.10206891259E+01  0.10204244967E+01 0.  0.
     999903    2    3    3    0    0  0.48942259066E-01 -0.11347187228E+00  0.31212442517E-01  0.12887748592E+00  0.19078241238E-01 0.  0.
         14    1    1    2    0    0  0.12161769478E-01 -0.80274864551E-02  0.18104945524E-01  0.23240874081E-01  0.00000000000E+00 0. -1.
     999901    1    3    3    0    0 -0.61104028544E-01  0.12149935873E+00 -0.49317388042E-01  0.89181164000E+00  0.88000000000E+00 0.  1.
        -11    1    4    4    0    0  0.23891007270E-01 -0.72912575380E-01  0.12893916625E-01  0.77804486271E-01  0.51100000000E-03 0.  1.
         11    1    4    4    0    0  0.25051251796E-01 -0.40559296895E-01  0.18318525892E-01  0.51072999648E-01  0.51100000000E-03 0. -1.
</event>
<event>
 8    1  0.1052028E+005  0.1043930E+01  0.7957747E-01            NaN
         13   -1    0    0    0    0  0.00000000000E+00  0.00000000000E+00  0.74505805969E-08  0.10566000000E+00  0.10566000000E+00 0.  1.
     999900   -1    0    0    0    0 -0.00000000000E+00 -0.00000000000E+00 -0.74505805969E-08  0.93827000000E+00  0.93827000000E+00 0.  1.
     999902    2    1    2    0    0 -0.23499767024E-01 -0.57965431239E-02  0.42381046300E-02  0.10193576478E+01  0.10190614376E+01 0.  0.
     999903    2    3    3    0    0  0.45568130596E-01  0.15021883371E-01 -0.11677760272E+00  0.12815139624E+00  0.21992279461E-01 0.  0.
         14    1    1    2    0    0  0.23499767024E-01  0.57965431239E-02 -0.42381046300E-02  0.24572352212E-01  0.00000000000E+00 0. -1.
     999901    1    3    3    0    0 -0.69067897621E-01 -0.20818426495E-01  0.12101570735E+00  0.89120625154E+00  0.88000000000E+00 0. -1.
        -11    1    4    4    0    0  0.78641798293E-02  0.12458007385E-01 -0.27461990394E-01  0.31168402426E-01  0.51100000000E-03 0. -1.
         11    1    4    4    0    0  0.37703950767E-01  0.25638759861E-02 -0.89315612328E-01  0.96982993818E-01  0.51100000000E-03 0.  1.
</event>
<event>
 8    1  0.1052028E+005  0.1043930E+01  0.7957747E-01            NaN
         13   -1    0    0    0    0  0.00000000000E+00  0.00000000000E+00  0.74505805969E-08  0.10566000000E+00  0.10566000000E+00 0. -1.
     999900   -1    0    0    0    0 -0.00000000000E+00 -0.00000000000E+00 -0.74505805969E-08  0.93827000000E+00  0.93827000000E+00 0. -1.
     999902    2    1    2    0    0  0.16732232480E-01 -0.83188190056E-02 -0.13391301179E-01  0.10209409308E+01  0.10206820695E+01 0.  0.
     999903    2    3    3    0    0  0.23924222217E-01  0.30657306169E-01 -0.12530513769E+00  0.13296820049E+00  0.21608470106E-01 0.  0.
         14    1    1    2    0    0 -0.16732232480E-01  0.83188190056E-02  0.13391301179E-01  0.22989069157E-01  0.00000000000E+00 0. -1.
     999901    1    3    3    0    0 -0.71919897370E-02 -0.38976125174E-01  0.11191383651E+00  0.88797273035E+00  0.88000000000E+00 0.  1.
        -11    1    4    4    0    0  0.17451466758E-01  0.29311014165E-01 -0.77125814610E-01  0.84334700116E-01  0.51100000000E-03 0.  1.
         11    1    4    4    0    0  0.64727554588E-02  0.13462920042E-02 -0.48179323078E-01  0.48633500374E-01  0.51100000000E-03 0. -1.
</event>
<event>
 8    1  0.1052028E+005  0.1043930E+01  0.7957747E-01            NaN
         13   -1    0    0    0    0  0.00000000000E+00  0.00000000000E+00  0.74505805969E-08  0.10566000000E+00  0.10566000000E+00 0. -1.
     999900   -1    0    0    0    0 -0.00000000000E+00 -0.00000000000E+00 -0.74505805969E-08  0.93827000000E+00  0.93827000000E+00 0. -1.
     999902    2    1    2    0    0 -0.98826777694E-02  0.19724887791E-01  0.82313226141E-02  0.10203823209E+01  0.10201105762E+01 0.  0.
     999903    2    3    3    0    0  0.20186629280E-01 -0.26014582471E-01  0.12517744192E+00  0.13095966706E+00  0.19919435983E-01 0.  0.
         14    1    1    2    0    0  0.98826777694E-02 -0.19724887791E-01 -0.82313226141E-02  0.23547679084E-01  0.00000000000E+00 0. -1.
     999901    1    3    3    0    0 -0.30069307050E-01  0.45739470262E-01 -0.11694611930E+00  0.88942265385E+00  0.88000000000E+00 0. -1.
        -11    1    4    4    0    0  0.20986586249E-01 -0.13490639414E-01  0.68402728622E-01  0.72812283017E-01  0.51100000000E-03 0. -1.
         11    1    4    4    0    0 -0.79995696885E-03 -0.12523943057E-01  0.56774713294E-01  0.58147384046E-01  0.51100000000E-03 0.  1.
</event>
<event>
 7    1  0.1052028E+005  0.1043930E+01  0.7957747E-01            NaN
         13   -1    0    0    0    0  0.00000000000E+00  0.00000000000E+00  0.74505805969E-08  0.10566000000E+00  0.10566000000E+00 0. -1.
     999900   -1    0    0    0    0 -0.00000000000E+00 -0.00000000000E+00 -0.74505805969E-08  0.93827000000E+00  0.93827000000E+00 0.  1.
     999903    2    1    2    0    0  0.81972310578E-01 -0.39226946731E-01  0.72098203782E-02  0.92731751450E-01  0.16999504873E-01 0.  0.
         14    1    1    2    0    0  0.50504805713E-01  0.17914898262E-01  0.27738356101E-01  0.60341489699E-01  0.00000000000E+00 0. -1.
     999901    1    1    2    0    0 -0.13247711629E+00  0.21312048469E-01 -0.34948176479E-01  0.89085675885E+00  0.88000000000E+00 0.  1.
        -11    1    3    3    0    0  0.57721193196E-01 -0.20418362307E-01  0.11624755867E-03  0.61228427203E-01  0.51100000000E-03 0.  1.
         11    1    3    3    0    0  0.24251117381E-01 -0.18808584424E-01  0.70935728196E-02  0.31503324247E-01  0.51100000000E-03 0. -1.
</event>
<event>
 8    1  0.1052028E+005  0.1043930E+01  0.7957747E-01            NaN
         13   -1    0    0    0    0  0.00000000000E+00  0.00000000000E+00  0.74505805969E-08  0.10566000000E+00  0.10566000000E+00 0. -1.
     999900   -1    0    0    0    0 -0.00000000000E+00 -0.00000000000E+00 -0.74505805969E-08  0.93827000000E+00  0.93827000000E+00 0.  1.
     999902    2    1    2    0    0  0.19787799669E-01 -0.97002482546E-02  0.71026739658E-02  0.10207761707E+01  0.10205135428E+01 0.  0.
     999903    2    3    3    0    0 -0.12072180328E+00  0.36422516462E-01  0.12184033982E-01  0.12842193717E+00  0.21056822436E-01 0.  0.
         14    1    1    2    0    0 -0.19787799669E-01  0.97002482546E-02 -0.71026739658E-02  0.23153829260E-01  0.00000000000E+00 0.  1.
     999901    1    3    3    0    0  0.14050960295E+00 -0.46122764717E-01 -0.50813600165E-02  0.89235423357E+00  0.88000000000E+00 0. -1.
        -11    1    4    4    0    0 -0.42000565077E-01  0.19718219484E-01 -0.31104585080E-02  0.46505824577E-01  0.51100000000E-03 0. -1.
         11    1    4    4    0    0 -0.78721238201E-01  0.16704296978E-01  0.15294492490E-01  0.81916112596E-01  0.51100000000E-03 0.  1.
</event>
<event>
 8    1  0.1052028E+005  0.1043930E+01  0.7957747E-01            NaN
         13   -1    0    0    0    0  0.00000000000E+00  0.00000000000E+00  0.74505805969E-08  0.10566000000E+00  0.10566000000E+00 0.  1.
     999900   -1    0    0    0    0 -0.00000000000E+00 -0.00000000000E+00 -0.74505805969E-08  0.93827000000E+00  0.93827000000E+00 0.  1.
     999902    2    1    2    0    0  0.81646283568E-02  0.40236046594E-02  0.21729209733E-01  0.10203713688E+01  0.10200993682E+01 0.  0.
     999903    2    3    3    0    0 -0.12158532783E+00  0.39896854640E-01 -0.71951624790E-02  0.12966459293E+00  0.19656686971E-01 0.  0.
         14    1    1    2    0    0 -0.81646283568E-02 -0.40236046594E-02 -0.21729209733E-01  0.23558631248E-01  0.00000000000E+00 0. -1.
     999901    1    3    3    0    0  0.12974995618E+00 -0.35873249981E-01  0.28924372212E-01  0.89070677583E+00  0.88000000000E+00 0. -1.
        -11    1    4    4    0    0 -0.10554460531E+00  0.27210569565E-01 -0.54589538473E-02  0.10913358834E+00  0.51100000000E-03 0.  1.
         11    1    4    4    0    0 -0.16040722519E-01  0.12686285075E-01 -0.17362086317E-02  0.20531004587E-01  0.51100000000E-03 0. -1.
</event>
<event>
 8    1  0.1052028E+005  0.1043930E+01  0.7957747E-01            NaN
         13   -1    0    0    0    0  0.00000000000E+00  0.00000000000E+00  0.74505805969E-08  0.10566000000E+00  0.10566000000E+00 0. -1.
     999900   -1    0    0    0    0 -0.00000000000E+00 -0.00000000000E+00 -0.74505805969E-08  0.93827000000E+00  0.93827000000E+00 0. -1.
     999902    2    1    2    0    0 -0.31391844094E-02 -0.21091942855E-01 -0.87882036414E-02  0.10208658058E+01  0.10206052304E+01 0.  0.
     999903    2    3    3    0    0  0.29046522921E-01 -0.12801202340E+00  0.12979199324E-01  0.13354306674E+00  0.20844961738E-01 0.  0.
         14    1    1    2    0    0  0.31391844094E-02  0.21091942855E-01  0.87882036414E-02  0.23064194228E-01  0.00000000000E+00 0. -1.
     999901    1    3    3    0    0 -0.32185707330E-01  0.10692008054E+00 -0.21767402965E-01  0.88732273904E+00  0.88000000000E+00 0.  1.
        -11    1    4    4    0    0  0.20990409011E-02 -0.36253718934E-01 -0.35471477184E-02  0.36490841142E-01  0.51100000000E-03 0.  1.
         11    1    4    4    0    0  0.26947482020E-01 -0.91758304463E-01  0.16526347042E-01  0.97052225594E-01  0.51100000000E-03 0. -1.
</event>
<event>
 8    1  0.1052028E+005  0.1043930E+01  0.7957747E-01            NaN
         13   -1    0    0    0    0  0.00000000000E+00  0.00000000000E+00  0.74505805969E-08  0.10566000000E+00  0.10566000000E+00 0. -1.
     999900   -1    0    0    0    0 -0.00000000000E+00 -0.00000000000E+00 -0.74505805969E-08  0.93827000000E+00  0.93827000000E+00 0.  1.
     999902    2    1    2    0    0 -0.91362229314E-02 -0.47009429740E-02  0.21194751679E-01  0.10203760845E+01  0.10201041942E+01 0.  0.
     999903    2    3    3    0    0 -0.19193327217E-01  0.11622254799E+00 -0.49628753728E-01  0.12923097575E+00  0.19014926451E-01 0.  0.
         14    1    1    2    0    0  0.91362229314E-02  0.47009429740E-02 -0.21194751679E-01  0.23553915450E-01  0.00000000000E+00 0.  1.
     999901    1    3    3    0    0  0.10057104286E-01 -0.12092349096E+00  0.70823505407E-01  0.89114510880E+00  0.88000000000E+00 0. -1.
        -11    1    4    4    0    0 -0.23673293853E-02  0.24490092377E-01 -0.25024849830E-02  0.24736459430E-01  0.51100000000E-03 0.  1.
         11    1    4    4    0    0 -0.16825997832E-01  0.91732455608E-01 -0.47126268745E-01  0.10449451632E+00  0.51100000000E-03 0. -1.
</event>
<event>
 8    1  0.1052028E+005  0.1043930E+01  0.7957747E-01            NaN
         13   -1    0    0    0    0  0.00000000000E+00  0.00000000000E+00  0.74505805969E-08  0.10566000000E+00  0.10566000000E+00 0.  1.
     999900   -1    0    0    0    0 -0.00000000000E+00 -0.00000000000E+00 -0.74505805969E-08  0.93827000000E+00  0.93827000000E+00 0. -1.
     999902    2    1    2    0    0 -0.27791693820E-04 -0.31435028733E-03 -0.24122564386E-01  0.10198053715E+01  0.10195199841E+01 0.  0.
     999903    2    3    3    0    0 -0.82426420223E-01 -0.89638101711E-01 -0.44638116274E-01  0.13121707850E+00  0.19906185908E-01 0.  0.
         14    1    1    2    0    0  0.27791693820E-04  0.31435028733E-03  0.24122564386E-01  0.24124628516E-01  0.00000000000E+00 0.  1.
     999901    1    3    3    0    0  0.82398628529E-01  0.89323751424E-01  0.20515551888E-01  0.88858829298E+00  0.88000000000E+00 0.  1.
        -11    1    4    4    0    0 -0.56770430516E-01 -0.50969718853E-01 -0.34402301706E-01  0.83693330108E-01  0.51100000000E-03 0.  1.
         11    1    4    4    0    0 -0.25655989707E-01 -0.38668382858E-01 -0.10235814569E-01  0.47523748396E-01  0.51100000000E-03 0. -1.
</event>
<event>
 8    1  0.1052028E+005  0.1043930E+01  0.7957747E-01            NaN
         13   -1    0    0    0    0  0.00000000000E+00  0.00000000000E+00  0.74505805969E-08  0.10566000000E+00  0.10566000000E+00 0. -1.
     999900   -1    0    0    0    0 -0.00000000000E+00 -0.00000000000E+00 -0.74505805969E-08  0.93827000000E+00  0.93827000000E+00 0.  1.
     999902    2    1    2    0    0  0.31593551357E-02 -0.24166894028E-01  0.72968897296E-03  0.10195465479E+01  0.10192549291E+01 0.  0.
     999903    2    3    3    0    0  0.84671432427E-01 -0.90570333938E-01 -0.41689022868E-01  0.13227376981E+00  0.19650412012E-01 0.  0.
         14    1    1    2    0    0 -0.31593551357E-02  0.24166894028E-01 -0.72968897296E-03  0.24383452131E-01  0.00000000000E+00 0. -1.
     999901    1    3    3    0    0 -0.81512077291E-01  0.66403439910E-01  0.42418711841E-01  0.88727277806E+00  0.88000000000E+00 0. -1.
        -11    1    4    4    0    0  0.27916695552E-01 -0.44015297435E-01 -0.17277892578E-01  0.54913340745E-01  0.51100000000E-03 0.  1.
         11    1    4    4    0    0  0.56754736875E-01 -0.46555036503E-01 -0.24411130290E-01  0.77360429062E-01  0.51100000000E-03 0. -1.
</event>
<event>
 8    1  0.1052028E+005  0.1043930E+01  0.7957747E-01            NaN
         13   -1    0    0    0    0  0.00000000000E+00  0.00000000000E+00  0.74505805969E-08  0.10566000000E+00  0.10566000000E+00 0. -1.
     999900   -1    0    0    0    0 -0.00000000000E+00 -0.00000000000E+00 -0.74505805969E-08  0.93827000000E+00  0.93827000000E+00 0.  1.
     999902    2    1    2    0    0 -0.17467860298E-01 -0.11159664388E-01  0.12820546951E-01  0.10195572555E+01  0.10192658959E+01 0.  0.
     999903    2    3    3    0    0 -0.95159001138E-01  0.53996373581E-01 -0.66996561076E-01  0.13014621809E+00  0.21878186159E-01 0.  0.
         14    1    1    2    0    0  0.17467860298E-01  0.11159664388E-01 -0.12820546951E-01  0.24372744547E-01  0.00000000000E+00 0. -1.
     999901    1    3    3    0    0  0.77691140840E-01 -0.65156037968E-01  0.79817108027E-01  0.88941103736E+00  0.88000000000E+00 0. -1.
        -11    1    4    4    0    0 -0.49370010429E-01  0.22430750876E-01 -0.21671217667E-01  0.58398966693E-01  0.51100000000E-03 0.  1.
         11    1    4    4    0    0 -0.45788990709E-01  0.31565622705E-01 -0.45325343408E-01  0.71747251397E-01  0.51100000000E-03 0. -1.
</event>
<event>
 8    1  0.1052028E+005  0.1043930E+01  0.7957747E-01            NaN
         13   -1    0    0    0    0  0.00000000000E+00  0.00000000000E+00  0.74505805969E-08  0.10566000000E+00  0.10566000000E+00 0.  1.
     999900   -1    0    0    0    0 -0.00000000000E+00 -0.00000000000E+00 -0.74505805969E-08  0.93827000000E+00  0.93827000000E+00 0. -1.
     999902    2    1    2    0    0 -0.48250205880E-02 -0.53886844210E-02 -0.17480187953E-01  0.10250123967E+01  0.10248378104E+01 0.  0.
     999903    2    3    3    0    0  0.62465711125E-01  0.58219705441E-01  0.96626562339E-01  0.13282720276E+00  0.31857088313E-01 0.  0.
         14    1    1    2    0    0  0.48250205880E-02  0.53886844210E-02  0.17480187953E-01  0.18917603293E-01  0.00000000000E+00 0.  1.
     999901    1    3    3    0    0 -0.67290731713E-01 -0.63608389863E-01 -0.11410675029E+00  0.89218519395E+00  0.88000000000E+00 0. -1.
        -11    1    4    4    0    0  0.39788793478E-01  0.50285764319E-01  0.53736332467E-01  0.83663975088E-01  0.51100000000E-03 0.  1.
         11    1    4    4    0    0  0.22676917647E-01  0.79339411224E-02  0.42890229872E-01  0.49163227672E-01  0.51100000000E-03 0. -1.
</event>
<event>
 8    1  0.1052028E+005  0.1043930E+01  0.7957747E-01            NaN
         13   -1    0    0    0    0  0.00000000000E+00  0.00000000000E+00  0.74505805969E-08  0.10566000000E+00  0.10566000000E+00 0. -1.
     999900   -1    0    0    0    0 -0.00000000000E+00 -0.00000000000E+00 -0.74505805969E-08  0.93827000000E+00  0.93827000000E+00 0.  1.
     999902    2    1    2    0    0  0.92282850635E-02 -0.22436703097E-02 -0.22039318801E-01  0.10199315235E+01  0.10196491483E+01 0.  0.
     999903    2    3    3    0    0 -0.47130942996E-01 -0.76313718309E-01  0.89275123029E-01  0.12804944633E+00  0.19532120299E-01 0.  0.
         14    1    1    2    0    0 -0.92282850635E-02  0.22436703097E-02  0.22039318801E-01  0.23998476512E-01  0.00000000000E+00 0. -1.
     999901    1    3    3    0    0  0.56359228060E-01  0.74070047999E-01 -0.11131444183E+00  0.89188207716E+00  0.88000000000E+00 0.  1.
        -11    1    4    4    0    0 -0.28432534822E-01 -0.56092373776E-01  0.51429963870E-01  0.81240788628E-01  0.51100000000E-03 0.  1.
         11    1    4    4    0    0 -0.18698408175E-01 -0.20221344533E-01  0.37845159159E-01  0.46808657701E-01  0.51100000000E-03 0. -1.
</event>
<event>
 8    1  0.1052028E+005  0.1043930E+01  0.7957747E-01            NaN
         13   -1    0    0    0    0  0.00000000000E+00  0.00000000000E+00  0.74505805969E-08  0.10566000000E+00  0.10566000000E+00 0.  1.
     999900   -1    0    0    0    0 -0.00000000000E+00 -0.00000000000E+00 -0.74505805969E-08  0.93827000000E+00  0.93827000000E+00 0. -1.
     999902    2    1    2    0    0  0.19778775222E-01 -0.63819057215E-02  0.11764109765E-01  0.10200485648E+01  0.10197689697E+01 0.  0.
     999903    2    3    3    0    0 -0.11791320750E+00  0.26106994736E-01 -0.35870158304E-01  0.12747720390E+00  0.19459434207E-01 0.  0.
         14    1    1    2    0    0 -0.19778775222E-01  0.63819057215E-02 -0.11764109765E-01  0.23881435227E-01  0.00000000000E+00 0. -1.
     999901    1    3    3    0    0  0.13769198272E+00 -0.32488900458E-01  0.47634268069E-01  0.89257136087E+00  0.88000000000E+00 0.  1.
        -11    1    4    4    0    0 -0.11030349065E+00  0.19122874756E-01 -0.33676779011E-01  0.11690564979E+00  0.51100000000E-03 0. -1.
         11    1    4    4    0    0 -0.76097168551E-02  0.69841199800E-02 -0.21933792927E-02  0.10571554107E-01  0.51100000000E-03 0.  1.
</event>
<event>
 8    1  0.1052028E+005  0.1043930E+01  0.7957747E-01            NaN
         13   -1    0    0    0    0  0.00000000000E+00  0.00000000000E+00  0.74505805969E-08  0.10566000000E+00  0.10566000000E+00 0.  1.
     999900   -1    0    0    0    0 -0.00000000000E+00 -0.00000000000E+00 -0.74505805969E-08  0.93827000000E+00  0.93827000000E+00 0. -1.
     999902    2    1    2    0    0 -0.35127395924E-02 -0.24679165313E-01  0.49683713300E-02  0.10185117929E+01  0.10181945723E+01 0.  0.
     999903    2    3    3    0    0 -0.19582620076E-01  0.57312673641E-01  0.11076254141E+00  0.12824592857E+00  0.22593274339E-01 0.  0.
         14    1    1    2    0    0  0.35127395924E-02  0.24679165313E-01 -0.49683713300E-02  0.25418207129E-01  0.00000000000E+00 0. -1.
     999901    1    3    3    0    0  0.16069880484E-01 -0.81991838954E-01 -0.10579417008E+00  0.89026586430E+00  0.88000000000E+00 0. -1.
        -11    1    4    4    0    0 -0.42493868588E-02  0.65488826002E-02  0.34378652879E-01  0.35257595590E-01  0.51100000000E-03 0. -1.
         11    1    4    4    0    0 -0.15333233217E-01  0.50763791041E-01  0.76383888536E-01  0.92988332981E-01  0.51100000000E-03 0.  1.
</event>
<event>
 8    1  0.1052028E+005  0.1043930E+01  0.7957747E-01            NaN
         13   -1    0    0    0    0  0.00000000000E+00  0.00000000000E+00  0.74505805969E-08  0.10566000000E+00  0.10566000000E+00 0. -1.
     999900   -1    0    0    0    0 -0.00000000000E+00 -0.00000000000E+00 -0.74505805969E-08  0.93827000000E+00  0.93827000000E+00 0. -1.
     999902    2    1    2    0    0  0.12790428632E-01 -0.22516667935E-01 -0.21005572352E-02  0.10179490889E+01  0.10176174821E+01 0.  0.
     999903    2    3    3    0    0  0.67205447546E-01  0.76908148394E-01  0.73817359220E-01  0.12743810167E+00  0.18974503051E-01 0.  0.
         14    1    1    2    0    0 -0.12790428632E-01  0.22516667935E-01  0.21005572352E-02  0.25980911073E-01  0.00000000000E+00 0. -1.
     999901    1    3    3    0    0 -0.54415018914E-01 -0.99424816328E-01 -0.75917916456E-01  0.89051098726E+00  0.88000000000E+00 0. -1.
        -11    1    4    4    0    0  0.43642443932E-01  0.61583409670E-01  0.57910917944E-01  0.95137347015E-01  0.51100000000E-03 0.  1.
         11    1    4    4    0    0  0.23563003614E-01  0.15324738724E-01  0.15906441276E-01  0.32300754656E-01  0.51100000000E-03 0. -1.
</event>
<event>
 8    1  0.1052028E+005  0.1043930E+01  0.7957747E-01            NaN
         13   -1    0    0    0    0  0.00000000000E+00  0.00000000000E+00  0.74505805969E-08  0.10566000000E+00  0.10566000000E+00 0.  1.
     999900   -1    0    0    0    0 -0.00000000000E+00 -0.00000000000E+00 -0.74505805969E-08  0.93827000000E+00  0.93827000000E+00 0.  1.
     999902    2    1    2    0    0 -0.18453136769E-01 -0.48373546303E-02  0.14224955063E-01  0.10201336221E+01  0.10198560385E+01 0.  0.
     999903    2    3    3    0    0 -0.23815779209E-01  0.12425972825E+00 -0.22193444346E-01  0.12995323890E+00  0.19688167125E-01 0.  0.
         14    1    1    2    0    0  0.18453136769E-01  0.48373546303E-02 -0.14224955063E-01  0.23796377938E-01  0.00000000000E+00 0. -1.
     999901    1    3    3    0    0  0.53626424397E-02 -0.12909708288E+00  0.36418399409E-01  0.89018038316E+00  0.88000000000E+00 0. -1.
        -11    1    4    4    0    0 -0.54715420262E-02  0.63689844047E-01 -0.18532261101E-01  0.66558544376E-01  0.51100000000E-03 0.  1.
         11    1    4    4    0    0 -0.18344237182E-01  0.60569884207E-01 -0.36611832445E-02  0.63394694528E-01  0.51100000000E-03 0. -1.
</event>
<event>
 8    1  0.1052028E+005  0.1043930E+01  0.7957747E-01            NaN
         13   -1    0    0    0    0  0.00000000000E+00  0.00000000000E+00  0.74505805969E-08  0.10566000000E+00  0.10566000000E+00 0.  1.
     999900   -1    0    0    0    0 -0.00000000000E+00 -0.00000000000E+00 -0.74505805969E-08  0.93827000000E+00  0.93827000000E+00 0.  1.
     999902    2    1    2    0    0  0.18973732384E-01  0.78414708021E-02  0.84084109958E-02  0.10217445868E+01  0.10215036995E+01 0.  0.
     999903    2    3    3    0    0  0.81247178449E-01  0.10223545312E+00  0.25290470560E-01  0.13434771393E+00  0.18881431525E-01 0.  0.
         14    1    1    2    0    0 -0.18973732384E-01 -0.78414708021E-02 -0.84084109958E-02  0.22185413234E-01  0.00000000000E+00 0. -1.
     999901    1    3    3    0    0 -0.62273446065E-01 -0.94393982319E-01 -0.16882059564E-01  0.88739687284E+00  0.88000000000E+00 0. -1.
        -11    1    4    4    0    0  0.38874071490E-01  0.49588924807E-01  0.21794932427E-01  0.66674846068E-01  0.51100000000E-03 0.  1.
         11    1    4    4    0    0  0.42373106959E-01  0.52646528314E-01  0.34955381330E-02  0.67672867862E-01  0.51100000000E-03 0. -1.
</event>
<event>
 8    1  0.1052028E+005  0.1043930E+01  0.7957747E-01            NaN
         13   -1    0    0    0    0  0.00000000000E+00  0.00000000000E+00  0.74505805969E-08  0.10566000000E+00  0.10566000000E+00 0.  1.
     999900   -1    0    0    0    0 -0.00000000000E+00 -0.00000000000E+00 -0.74505805969E-08  0.93827000000E+00  0.93827000000E+00 0.  1.
     999902    2    1    2    0    0  0.15039869578E-01 -0.16609076564E-01  0.83637684628E-02  0.10200132334E+01  0.10197328006E+01 0.  0.
     999903    2    3    3    0    0 -0.21081480361E-01 -0.10083274360E+00 -0.77429350759E-01  0.13110444320E+00  0.24112230748E-01 0.  0.
         14    1    1    2    0    0 -0.15039869578E-01  0.16609076564E-01 -0.83637684628E-02  0.23916766590E-01  0.00000000000E+00 0. -1.
     999901    1    3    3    0    0  0.36121349939E-01  0.84223667035E-01  0.85793119221E-01  0.88890879021E+00  0.88000000000E+00 0. -1.
        -11    1    4    4    0    0 -0.36356401240E-02 -0.62935178953E-01 -0.37494786302E-01  0.73349674504E-01  0.51100000000E-03 0.  1.
         11    1    4    4    0    0 -0.17445840237E-01 -0.37897564645E-01 -0.39934564457E-01  0.57754768694E-01  0.51100000000E-03 0. -1.
</event>
<event>
 8    1  0.1052028E+005  0.1043930E+01  0.7957747E-01            NaN
         13   -1    0    0    0    0  0.00000000000E+00  0.00000000000E+00  0.74505805969E-08  0.10566000000E+00  0.10566000000E+00 0.  1.
     999900   -1    0    0    0    0 -0.00000000000E+00 -0.00000000000E+00 -0.74505805969E-08  0.93827000000E+00  0.93827000000E+00 0. -1.
     999902    2    1    2    0    0 -0.18589851007E-01  0.13688483595E-01  0.41244012812E-02  0.10204786071E+01  0.10202091059E+01 0.  0.
     999903    2    3    3    0    0 -0.10262929857E+00  0.81945252985E-01 -0.14765306570E-01  0.13364241231E+00  0.19861587993E-01 0.  0.
         14    1    1    2    0    0  0.18589851007E-01 -0.13688483595E-01 -0.41244012812E-02  0.23451392912E-01  0.00000000000E+00 0. -1.
     999901    1    3    3    0    0  0.84039447560E-01 -0.68256769390E-01  0.18889707851E-01  0.88683619478E+00  0.88000000000E+00 0.  1.
        -11    1    4    4    0    0 -0.33695581277E-01  0.29750818668E-01  0.41090663587E-02  0.45140325169E-01  0.51100000000E-03 0.  1.
         11    1    4    4    0    0 -0.68933717290E-01  0.52194434316E-01 -0.18874372928E-01  0.88502087136E-01  0.51100000000E-03 0. -1.
</event>
<event>
 8    1  0.1338563E+005  0.1043930E+01  0.7957747E-01            NaN
         13   -1    0    0    0    0  0.00000000000E+00  0.00000000000E+00  0.74505805969E-08  0.10566000000E+00  0.10566000000E+00 0. -1.
     999900   -1    0    0    0    0 -0.00000000000E+00 -0.00000000000E+00 -0.74505805969E-08  0.93827000000E+00  0.93827000000E+00 0. -1.
     999902    2    1    2    0    0 -0.17064055325E-01  0.19251667706E-02 -0.16877138069E-01  0.10198524993E+01  0.10195682391E+01 0.  0.
     999903    2    3    3    0    0 -0.44479455922E-01  0.54574127817E-01  0.10646852484E+00  0.12926972950E+00  0.20453820098E-01 0.  0.
         14    1    1    2    0    0  0.17064055325E-01 -0.19251667706E-02  0.16877138069E-01  0.24077500714E-01  0.00000000000E+00 0. -1.
     999901    1    3    3    0    0  0.27415400598E-01 -0.52648961047E-01 -0.12334566291E+00  0.89058276979E+00  0.88000000000E+00 0. -1.
        -11    1    4    4    0    0 -0.17882471568E-01  0.35983221411E-01  0.50088613417E-01  0.64216083091E-01  0.51100000000E-03 0. -1.
         11    1    4    4    0    0 -0.26596984354E-01  0.18590906406E-01  0.56379911421E-01  0.65053646405E-01  0.51100000000E-03 0.  1.
</event>
<event>
 8    1  0.1052028E+005  0.1043930E+01  0.7957747E-01            NaN
         13   -1    0    0    0    0  0.00000000000E+00  0.00000000000E+00  0.74505805969E-08  0.10566000000E+00  0.10566000000E+00 0.  1.
     999900   -1    0    0    0    0 -0.00000000000E+00 -0.00000000000E+00 -0.74505805969E-08  0.93827000000E+00  0.93827000000E+00 0. -1.
     999902    2    1    2    0    0 -0.16542184041E-01  0.21867953306E-02  0.14589140694E-01  0.10217654122E+01  0.10215249819E+01 0.  0.
     999903    2    3    3    0    0  0.38003384901E-01  0.84608673897E-01  0.92668783732E-01  0.13279689991E+00  0.21086208433E-01 0.  0.
         14    1    1    2    0    0  0.16542184041E-01 -0.21867953306E-02 -0.14589140694E-01  0.22164587811E-01  0.00000000000E+00 0.  1.
     999901    1    3    3    0    0 -0.54545568942E-01 -0.82421878567E-01 -0.78079643038E-01  0.88896851227E+00  0.88000000000E+00 0. -1.
        -11    1    4    4    0    0  0.30001875029E-01  0.47919255347E-01  0.65005174691E-01  0.86152779386E-01  0.51100000000E-03 0.  1.
         11    1    4    4    0    0  0.80015098721E-02  0.36689418550E-01  0.27663609040E-01  0.46644120529E-01  0.51100000000E-03 0. -1.
</event>
<event>
 8    1  0.1052028E+005  0.1043930E+01  0.7957747E-01            NaN
         13   -1    0    0    0    0  0.00000000000E+00  0.00000000000E+00  0.74505805969E-08  0.10566000000E+00  0.10566000000E+00 0. -1.
     999900   -1    0    0    0    0 -0.00000000000E+00 -0.00000000000E+00 -0.74505805969E-08  0.93827000000E+00  0.93827000000E+00 0.  1.
     999902    2    1    2    0    0 -0.41438395766E-02 -0.12091443699E-01 -0.19683592558E-01  0.10204604829E+01  0.10201905601E+01 0.  0.
     999903    2    3    3    0    0  0.32479542305E-03 -0.11050228428E+00  0.66833776593E-01  0.13074709230E+00  0.20425183663E-01 0.  0.
         14    1    1    2    0    0  0.41438395766E-02  0.12091443699E-01  0.19683592558E-01  0.23469517105E-01  0.00000000000E+00 0. -1.
     999901    1    3    3    0    0 -0.44686349996E-02  0.98410840580E-01 -0.86517369151E-01  0.88971339060E+00  0.88000000000E+00 0.  1.
        -11    1    4    4    0    0 -0.77221567530E-02 -0.19213202908E-01  0.13204669125E-01  0.24564268331E-01  0.51100000000E-03 0. -1.
         11    1    4    4    0    0  0.80469521761E-02 -0.91289081371E-01  0.53629107468E-01  0.10618282397E+00  0.51100000000E-03 0.  1.
</event>
<event>
 8    1  0.1052028E+005  0.1043930E+01  0.7957747E-01            NaN
         13   -1    0    0    0    0  0.00000000000E+00  0.00000000000E+00  0.74505805969E-08  0.10566000000E+00  0.10566000000E+00 0.  1.
     999900   -1    0    0    0    0 -0.00000000000E+00 -0.00000000000E+00 -0.74505805969E-08  0.93827000000E+00  0.93827000000E+00 0. -1.
     999902    2    1    2    0    0 -0.20358742104E-01 -0.27298187686E-02  0.92821687202E-02  0.10213891716E+01  0.10211404168E+01 0.  0.
     999903    2    3    3    0    0  0.69216244410E-01  0.26646655808E-01 -0.10139075196E+00  0.12946139935E+00  0.31292756069E-01 0.  0.
         14    1    1    2    0    0  0.20358742104E-01  0.27298187686E-02 -0.92821687202E-02  0.22540828439E-01  0.00000000000E+00 0. -1.
     999901    1    3    3    0    0 -0.89574986514E-01 -0.29376474577E-01  0.11067292068E+00  0.89192777221E+00  0.88000000000E+00 0.  1.
        -11    1    4    4    0    0  0.36607793007E-01 -0.75938162034E-03 -0.35517702712E-01  0.51014463599E-01  0.51100000000E-03 0. -1.
         11    1    4    4    0    0  0.32608451404E-01  0.27406037428E-01 -0.65873049250E-01  0.78446935752E-01  0.51100000000E-03 0.  1.
</event>
<event>
 8    1  0.1052028E+005  0.1043930E+01  0.7957747E-01            NaN
         13   -1    0    0    0    0  0.00000000000E+00  0.00000000000E+00  0.74505805969E-08  0.10566000000E+00  0.10566000000E+00 0.  1.
     999900   -1    0    0    0    0 -0.00000000000E+00 -0.00000000000E+00 -0.74505805969E-08  0.93827000000E+00  0.93827000000E+00 0. -1.
     999902    2    1    2    0    0  0.11132716331E-01 -0.10351320118E-01  0.22430110485E-01  0.10168339291E+01  0.10164728439E+01 0.  0.
     999903    2    3    3    0    0  0.87819946094E-01  0.89493240093E-01 -0.88228155793E-02  0.12732473141E+00  0.20306703314E-01 0.  0.
         14    1    1    2    0    0 -0.11132716331E-01  0.10351320118E-01 -0.22430110485E-01  0.27096070886E-01  0.00000000000E+00 0. -1.
     999901    1    3    3    0    0 -0.76687229763E-01 -0.99844560211E-01  0.31252926065E-01  0.88950919770E+00  0.88000000000E+00 0.  1.
        -11    1    4    4    0    0  0.59024634965E-01  0.46630229426E-01 -0.83245626220E-02  0.75682529642E-01  0.51100000000E-03 0.  1.
         11    1    4    4    0    0  0.28795311129E-01  0.42863010667E-01 -0.49825295731E-03  0.51642201768E-01  0.51100000000E-03 0. -1.
</event>
<event>
 8    1  0.1052028E+005  0.1043930E+01  0.7957747E-01            NaN
         13   -1    0    0    0    0  0.00000000000E+00  0.00000000000E+00  0.74505805969E-08  0.10566000000E+00  0.10566000000E+00 0.  1.
     999900   -1    0    0    0    0 -0.00000000000E+00 -0.00000000000E+00 -0.74505805969E-08  0.93827000000E+00  0.93827000000E+00 0. -1.
     999902    2    1    2    0    0 -0.63729586157E-02 -0.17460745784E-01 -0.14191426331E-01  0.10205443457E+01  0.10202763708E+01 0.  0.
     999903    2    3    3    0    0  0.39328597071E-01 -0.11270960439E+00  0.52045753503E-01  0.13175396478E+00  0.20003832360E-01 0.  0.
         14    1    1    2    0    0  0.63729586157E-02  0.17460745784E-01  0.14191426331E-01  0.23385654282E-01  0.00000000000E+00 0.  1.
     999901    1    3    3    0    0 -0.45701555686E-01  0.95248858601E-01 -0.66237179834E-01  0.88879038094E+00  0.88000000000E+00 0. -1.
        -11    1    4    4    0    0  0.33134195921E-01 -0.84222642140E-01  0.47595728536E-01  0.10225919462E+00  0.51100000000E-03 0.  1.
         11    1    4    4    0    0  0.61944011500E-02 -0.28486962245E-01  0.44500249673E-02  0.29494770160E-01  0.51100000000E-03 0. -1.
</event>
<event>
 8    1  0.1052028E+005  0.1043930E+01  0.7957747E-01            NaN
         13   -1    0    0    0    0  0.00000000000E+00  0.00000000000E+00  0.74505805969E-08  0.10566000000E+00  0.10566000000E+00 0. -1.
     999900   -1    0    0    0    0 -0.00000000000E+00 -0.00000000000E+00 -0.74505805969E-08  0.93827000000E+00  0.93827000000E+00 0.  1.
     999902    2    1    2    0    0 -0.42243983052E-03  0.24883869501E-03  0.23116334307E-01  0.10208084670E+01  0.10205465795E+01 0.  0.
     999903    2    3    3    0    0 -0.91311733559E-01  0.73679803572E-01  0.57872572289E-01  0.13240486143E+00  0.20378090395E-01 0.  0.
         14    1    1    2    0    0  0.42243983052E-03 -0.24883869501E-03 -0.23116334307E-01  0.23121532992E-01  0.00000000000E+00 0.  1.
     999901    1    3    3    0    0  0.90889293728E-01 -0.73430964877E-01 -0.34756237981E-01  0.88840360557E+00  0.88000000000E+00 0.  1.
        -11    1    4    4    0    0 -0.46901592387E-01  0.50418702897E-01  0.36009424819E-01  0.77709360872E-01  0.51100000000E-03 0.  1.
         11    1    4    4    0    0 -0.44410141172E-01  0.23261100675E-01  0.21863147469E-01  0.54695500562E-01  0.51100000000E-03 0. -1.
</event>
<event>
 8    1  0.1052028E+005  0.1043930E+01  0.7957747E-01            NaN
         13   -1    0    0    0    0  0.00000000000E+00  0.00000000000E+00  0.74505805969E-08  0.10566000000E+00  0.10566000000E+00 0.  1.
     999900   -1    0    0    0    0 -0.00000000000E+00 -0.00000000000E+00 -0.74505805969E-08  0.93827000000E+00  0.93827000000E+00 0. -1.
     999902    2    1    2    0    0 -0.10830970034E-01 -0.28626419375E-01  0.13255231935E-01  0.10105760951E+01  0.10100255249E+01 0.  0.
     999903    2    3    3    0    0  0.14836792879E-01  0.20196077509E-01 -0.11501446402E+00  0.11956791043E+00  0.20979664010E-01 0.  0.
         14    1    1    2    0    0  0.10830970034E-01  0.28626419375E-01 -0.13255231935E-01  0.33353904895E-01  0.00000000000E+00 0.  1.
     999901    1    3    3    0    0 -0.25667762913E-01 -0.48822496884E-01  0.12826969595E+00  0.89100818467E+00  0.88000000000E+00 0.  1.
        -11    1    4    4    0    0  0.48186351508E-02  0.15111741592E-01 -0.31217593899E-01  0.35019755403E-01  0.51100000000E-03 0. -1.
         11    1    4    4    0    0  0.10018157728E-01  0.50843359171E-02 -0.83796870119E-01  0.84548155029E-01  0.51100000000E-03 0.  1.
</event>
<event>
 8    1  0.1052028E+005  0.1043930E+01  0.7957747E-01            NaN
         13   -1    0    0    0    0  0.00000000000E+00  0.00000000000E+00  0.74505805969E-08  0.10566000000E+00  0.10566000000E+00 0. -1.
     999900   -1    0    0    0    0 -0.00000000000E+00 -0.00000000000E+00 -0.74505805969E-08  0.93827000000E+00  0.93827000000E+00 0.  1.
     999902    2    1    2    0    0  0.27164018110E-01  0.11226021794E-01  0.29357088723E-02  0.10143914518E+01  0.10139612870E+01 0.  0.
     999903    2    3    3    0    0 -0.15506138479E-01 -0.11148225597E+00  0.47390106329E-01  0.12374322876E+00  0.19945695215E-01 0.  0.
         14    1    1    2    0    0 -0.27164018110E-01 -0.11226021794E-01 -0.29357088723E-02  0.29538548234E-01  0.00000000000E+00 0. -1.
     999901    1    3    3    0    0  0.42670156589E-01  0.12270827777E+00 -0.44454397457E-01  0.89064822301E+00  0.88000000000E+00 0.  1.
        -11    1    4    4    0    0 -0.12007745073E-01 -0.53150653046E-01  0.13315035632E-01  0.56095714238E-01  0.51100000000E-03 0. -1.
         11    1    4    4    0    0 -0.34983934062E-02 -0.58331602928E-01  0.34075070697E-01  0.67647514519E-01  0.51100000000E-03 0.  1.
</event>
<event>
 8    1  0.1052028E+005  0.1043930E+01  0.7957747E-01            NaN
         13   -1    0    0    0    0  0.00000000000E+00  0.00000000000E+00  0.74505805969E-08  0.10566000000E+00  0.10566000000E+00 0. -1.
     999900   -1    0    0    0    0 -0.00000000000E+00 -0.00000000000E+00 -0.74505805969E-08  0.93827000000E+00  0.93827000000E+00 0.  1.
     999902    2    1    2    0    0  0.15121606170E-01 -0.18879880775E-01 -0.43319962399E-02  0.10193560491E+01  0.10190597999E+01 0.  0.
     999903    2    3    3    0    0 -0.94401497391E-01 -0.48664970608E-01 -0.71016431453E-01  0.12956434556E+00  0.21532859335E-01 0.  0.
         14    1    1    2    0    0 -0.15121606170E-01  0.18879880775E-01  0.43319962399E-02  0.24573950896E-01  0.00000000000E+00 0. -1.
     999901    1    3    3    0    0  0.10952310356E+00  0.29785089834E-01  0.66684435213E-01  0.88979170354E+00  0.88000000000E+00 0. -1.
        -11    1    4    4    0    0 -0.60820509770E-01 -0.19626423633E-01 -0.39795377817E-01  0.75287875052E-01  0.51100000000E-03 0.  1.
         11    1    4    4    0    0 -0.33580987621E-01 -0.29038546976E-01 -0.31221053636E-01  0.54276470511E-01  0.51100000000E-03 0. -1.
</event>
<event>
 8    1  0.1052028E+005  0.1043930E+01  0.7957747E-01            NaN
         13   -1    0    0    0    0  0.00000000000E+00  0.00000000000E+00  0.74505805969E-08  0.10566000000E+00  0.10566000000E+00 0. -1.
     999900   -1    0    0    0    0 -0.00000000000E+00 -0.00000000000E+00 -0.74505805969E-08  0.93827000000E+00  0.93827000000E+00 0.  1.
     999902    2    1    2    0    0  0.15621957348E-01 -0.16719742623E-01 -0.75659034457E-02  0.10198294141E+01  0.10195446021E+01 0.  0.
     999903    2    3    3    0    0  0.10421337441E+00  0.72907162430E-02 -0.78696447471E-01  0.13220083436E+00  0.19244422860E-01 0.  0.
         14    1    1    2    0    0 -0.15621957348E-01  0.16719742623E-01  0.75659034457E-02  0.24100585879E-01  0.00000000000E+00 0.  1.
     999901    1    3    3    0    0 -0.88591417066E-01 -0.24010458866E-01  0.71130544026E-01  0.88762857976E+00  0.88000000000E+00 0. -1.
        -11    1    4    4    0    0  0.71290874601E-01  0.93999530865E-02 -0.43910214923E-01  0.84256252082E-01  0.51100000000E-03 0. -1.
         11    1    4    4    0    0  0.32922499812E-01 -0.21092368435E-02 -0.34786232549E-01  0.47944582279E-01  0.51100000000E-03 0.  1.
</event>
<event>
 8    1  0.1052028E+005  0.1043930E+01  0.7957747E-01            NaN
         13   -1    0    0    0    0  0.00000000000E+00  0.00000000000E+00  0.74505805969E-08  0.10566000000E+00  0.10566000000E+00 0. -1.
     999900   -1    0    0    0    0 -0.00000000000E+00 -0.00000000000E+00 -0.74505805969E-08  0.93827000000E+00  0.93827000000E+00 0. -1.
     999902    2    1    2    0    0 -0.11978106481E-01 -0.19619637754E-01 -0.67530208961E-02  0.10199715253E+01  0.10196901019E+01 0.  0.
     999903    2    3    3    0    0  0.40811902657E-03 -0.94419001070E-01 -0.90698538679E-01  0.13273130227E+00  0.21823367313E-01 0.  0.
         14    1    1    2    0    0  0.11978106481E-01  0.19619637754E-01  0.67530208961E-02  0.23958474736E-01  0.00000000000E+00 0.  1.
     999901    1    3    3    0    0 -0.12386225507E-01  0.74799363316E-01  0.83945517783E-01  0.88724022299E+00  0.88000000000E+00 0. -1.
        -11    1    4    4    0    0 -0.96114395737E-02 -0.43679420724E-01 -0.35650847935E-01  0.57197164658E-01  0.51100000000E-03 0.  1.
         11    1    4    4    0    0  0.10019558600E-01 -0.50739580346E-01 -0.55047690744E-01  0.75534137617E-01  0.51100000000E-03 0. -1.
</event>
<event>
 8    1  0.1052028E+005  0.1043930E+01  0.7957747E-01            NaN
         13   -1    0    0    0    0  0.00000000000E+00  0.00000000000E+00  0.74505805969E-08  0.10566000000E+00  0.10566000000E+00 0. -1.
     999900   -1    0    0    0    0 -0.00000000000E+00 -0.00000000000E+00 -0.74505805969E-08  0.93827000000E+00  0.93827000000E+00 0.  1.
     999902    2    1    2    0    0 -0.14289085941E-01  0.47386393477E-02  0.19629546547E-01  0.10191923409E+01  0.10188920826E+01 0.  0.
     999903    2    3    3    0    0 -0.83296654896E-01 -0.97285133327E-01  0.16208923141E-01  0.13060773861E+00  0.19822268107E-01 0.  0.
         14    1    1    2    0    0  0.14289085941E-01 -0.47386393477E-02 -0.19629546547E-01  0.24737659096E-01  0.00000000000E+00 0. -1.
     999901    1    3    3    0    0  0.69007568955E-01  0.10202377267E+00  0.34206234063E-02  0.88858460229E+00  0.88000000000E+00 0.  1.
        -11    1    4    4    0    0 -0.53129273374E-01 -0.47269306788E-01  0.11053411812E-01  0.71969063403E-01  0.51100000000E-03 0.  1.
         11    1    4    4    0    0 -0.30167381522E-01 -0.50015826540E-01  0.51555113287E-02  0.58638675210E-01  0.51100000000E-03 0. -1.
</event>
<event>
 8    1  0.1052028E+005  0.1043930E+01  0.7957747E-01            NaN
         13   -1    0    0    0    0  0.00000000000E+00  0.00000000000E+00  0.74505805969E-08  0.10566000000E+00  0.10566000000E+00 0. -1.
     999900   -1    0    0    0    0 -0.00000000000E+00 -0.00000000000E+00 -0.74505805969E-08  0.93827000000E+00  0.93827000000E+00 0.  1.
     999902    2    1    2    0    0  0.12558943011E-01 -0.15405868218E-01 -0.13083763793E-01  0.10201339352E+01  0.10198563590E+01 0.  0.
     999903    2    3    3    0    0 -0.12265745261E+00  0.74346860663E-02  0.31516813887E-01  0.12839721615E+00  0.19809349287E-01 0.  0.
         14    1    1    2    0    0 -0.12558943011E-01  0.15405868218E-01  0.13083763793E-01  0.23796064802E-01  0.00000000000E+00 0. -1.
     999901    1    3    3    0    0  0.13521639563E+00 -0.22840554284E-01 -0.44600577679E-01  0.89173671905E+00  0.88000000000E+00 0.  1.
        -11    1    4    4    0    0 -0.23305877078E-01 -0.54150601838E-02  0.99701837866E-02  0.25925903435E-01  0.51100000000E-03 0. -1.
         11    1    4    4    0    0 -0.99351575536E-01  0.12849746250E-01  0.21546630100E-01  0.10247131272E+00  0.51100000000E-03 0.  1.
</event>
<event>
 8    1  0.1052028E+005  0.1043930E+01  0.7957747E-01            NaN
         13   -1    0    0    0    0  0.00000000000E+00  0.00000000000E+00  0.74505805969E-08  0.10566000000E+00  0.10566000000E+00 0. -1.
     999900   -1    0    0    0    0 -0.00000000000E+00 -0.00000000000E+00 -0.74505805969E-08  0.93827000000E+00  0.93827000000E+00 0. -1.
     999902    2    1    2    0    0 -0.23344708734E-02 -0.13497592053E-01 -0.18912539440E-01  0.10205779360E+01  0.10203107392E+01 0.  0.
     999903    2    3    3    0    0 -0.10914538095E+00 -0.15793296449E-01 -0.70844593645E-01  0.13259664169E+00  0.20019254307E-01 0.  0.
         14    1    1    2    0    0  0.23344708734E-02  0.13497592053E-01  0.18912539440E-01  0.23352064011E-01  0.00000000000E+00 0. -1.
     999901    1    3    3    0    0  0.10681091008E+00  0.22957043956E-02  0.51932054204E-01  0.88798129430E+00  0.88000000000E+00 0.  1.
        -11    1    4    4    0    0 -0.48201141037E-01 -0.16385036612E-01 -0.28096504382E-01  0.58150615659E-01  0.51100000000E-03 0.  1.
         11    1    4    4    0    0 -0.60944239915E-01  0.59174016325E-03 -0.42748089263E-01  0.74446026031E-01  0.51100000000E-03 0. -1.
</event>
<event>
 8    1  0.1052028E+005  0.1043930E+01  0.7957747E-01            NaN
         13   -1    0    0    0    0  0.00000000000E+00  0.00000000000E+00  0.74505805969E-08  0.10566000000E+00  0.10566000000E+00 0.  1.
     999900   -1    0    0    0    0 -0.00000000000E+00 -0.00000000000E+00 -0.74505805969E-08  0.93827000000E+00  0.93827000000E+00 0. -1.
     999902    2    1    2    0    0  0.15162960773E-01  0.34998901871E-02  0.18522062499E-01  0.10197384434E+01  0.10194514513E+01 0.  0.
     999903    2    3    3    0    0 -0.30652992135E-01  0.12459398227E+00 -0.40841068427E-02  0.12997784664E+00  0.20354221800E-01 0.  0.
         14    1    1    2    0    0 -0.15162960773E-01 -0.34998901871E-02 -0.18522062499E-01  0.24191556584E-01  0.00000000000E+00 0. -1.
     999901    1    3    3    0    0  0.45815952908E-01 -0.12109409208E+00  0.22606169342E-01  0.88976059677E+00  0.88000000000E+00 0.  1.
        -11    1    4    4    0    0 -0.19382283810E-01  0.53581307947E-01 -0.99181226625E-02  0.57838220626E-01  0.51100000000E-03 0.  1.
         11    1    4    4    0    0 -0.11270708325E-01  0.71012674321E-01  0.58340158198E-02  0.72139626017E-01  0.51100000000E-03 0. -1.
</event>
<event>
 8    1  0.1052028E+005  0.1043930E+01  0.7957747E-01            NaN
         13   -1    0    0    0    0  0.00000000000E+00  0.00000000000E+00  0.74505805969E-08  0.10566000000E+00  0.10566000000E+00 0. -1.
     999900   -1    0    0    0    0 -0.00000000000E+00 -0.00000000000E+00 -0.74505805969E-08  0.93827000000E+00  0.93827000000E+00 0.  1.
     999902    2    1    2    0    0 -0.18774670362E-01 -0.40764671574E-02  0.15155738021E-01  0.10194595642E+01  0.10191658358E+01 0.  0.
     999903    2    3    3    0    0  0.94769621662E-01  0.68178867997E-01 -0.46186105241E-01  0.12711660245E+00  0.19895604276E-01 0.  0.
         14    1    1    2    0    0  0.18774670362E-01  0.40764671574E-02 -0.15155738021E-01  0.24470435768E-01  0.00000000000E+00 0.  1.
     999901    1    3    3    0    0 -0.11354429202E+00 -0.72255335155E-01  0.61341843263E-01  0.89234296178E+00  0.88000000000E+00 0.  1.
        -11    1    4    4    0    0  0.43938301867E-01  0.32385756375E-01 -0.11014988091E-01  0.55686647148E-01  0.51100000000E-03 0. -1.
         11    1    4    4    0    0  0.50831319795E-01  0.35793111622E-01 -0.35171117150E-01  0.71429955301E-01  0.51100000000E-03 0.  1.
</event>
<event>
 8    1  0.1052028E+005  0.1043930E+01  0.7957747E-01            NaN
         13   -1    0    0    0    0  0.00000000000E+00  0.00000000000E+00  0.74505805969E-08  0.10566000000E+00  0.10566000000E+00 0.  1.
     999900   -1    0    0    0    0 -0.00000000000E+00 -0.00000000000E+00 -0.74505805969E-08  0.93827000000E+00  0.93827000000E+00 0.  1.
     999902    2    1    2    0    0  0.87650531176E-02 -0.12831443765E-01  0.17850488465E-01  0.10202633136E+01  0.10199887828E+01 0.  0.
     999903    2    3    3    0    0 -0.91481869172E-01  0.72420158934E-01 -0.47262457991E-01  0.12809910398E+00  0.23707144429E-01 0.  0.
         14    1    1    2    0    0 -0.87650531176E-02  0.12831443765E-01 -0.17850488465E-01  0.23666686369E-01  0.00000000000E+00 0. -1.
     999901    1    3    3    0    0  0.10024692229E+00 -0.85251602699E-01  0.65112946457E-01  0.89216420965E+00  0.88000000000E+00 0. -1.
        -11    1    4    4    0    0 -0.59857068960E-02  0.87216238886E-02 -0.11523387246E-01  0.15650718352E-01  0.51100000000E-03 0.  1.
         11    1    4    4    0    0 -0.85496162276E-01  0.63698535046E-01 -0.35739070745E-01  0.11244838563E+00  0.51100000000E-03 0. -1.
</event>
<event>
 8    1  0.1052028E+005  0.1043930E+01  0.7957747E-01            NaN
         13   -1    0    0    0    0  0.00000000000E+00  0.00000000000E+00  0.74505805969E-08  0.10566000000E+00  0.10566000000E+00 0. -1.
     999900   -1    0    0    0    0 -0.00000000000E+00 -0.00000000000E+00 -0.74505805969E-08  0.93827000000E+00  0.93827000000E+00 0. -1.
     999902    2    1    2    0    0 -0.41157636617E-03 -0.22647919953E-01 -0.44571243016E-02  0.10208439949E+01  0.10205829209E+01 0.  0.
     999903    2    3    3    0    0  0.30151011841E-01 -0.12665510014E+00  0.25895552551E-01  0.13367273168E+00  0.15723283587E-01 0.  0.
         14    1    1    2    0    0  0.41157636617E-03  0.22647919953E-01  0.44571243016E-02  0.23086005075E-01  0.00000000000E+00 0.  1.
     999901    1    3    3    0    0 -0.30562588208E-01  0.10400718019E+00 -0.30352676852E-01  0.88717126324E+00  0.88000000000E+00 0.  1.
        -11    1    4    4    0    0  0.16264870494E-01 -0.37083106426E-01  0.78133874559E-02  0.41243338115E-01  0.51100000000E-03 0.  1.
         11    1    4    4    0    0  0.13886141348E-01 -0.89571993716E-01  0.18082165095E-01  0.92429393568E-01  0.51100000000E-03 0. -1.
</event>
<event>
 8    1  0.1052028E+005  0.1043930E+01  0.7957747E-01            NaN
         13   -1    0    0    0    0  0.00000000000E+00  0.00000000000E+00  0.74505805969E-08  0.10566000000E+00  0.10566000000E+00 0.  1.
     999900   -1    0    0    0    0 -0.00000000000E+00 -0.00000000000E+00 -0.74505805969E-08  0.93827000000E+00  0.93827000000E+00 0.  1.
     999902    2    1    2    0    0  0.21638484394E-01 -0.93404913888E-02 -0.29704880233E-02  0.10201751566E+01  0.10198985526E+01 0.  0.
     999903    2    3    3    0    0 -0.34235130644E-01  0.60191970268E-01 -0.10740638927E+00  0.12952175512E+00  0.21086373274E-01 0.  0.
         14    1    1    2    0    0 -0.21638484394E-01  0.93404913888E-02  0.29704880233E-02  0.23754843409E-01  0.00000000000E+00 0. -1.
     999901    1    3    3    0    0  0.55873615038E-01 -0.69532461657E-01  0.10443590125E+00  0.89065340147E+00  0.88000000000E+00 0. -1.
        -11    1    4    4    0    0 -0.86853157189E-02  0.19366666181E-01 -0.51648564899E-01  0.55842079521E-01  0.51100000000E-03 0.  1.
         11    1    4    4    0    0 -0.25549814925E-01  0.40825304088E-01 -0.55757824374E-01  0.73679675599E-01  0.51100000000E-03 0. -1.
</event>
<event>
 8    1  0.1052028E+005  0.1043930E+01  0.7957747E-01            NaN
         13   -1    0    0    0    0  0.00000000000E+00  0.00000000000E+00  0.74505805969E-08  0.10566000000E+00  0.10566000000E+00 0. -1.
     999900   -1    0    0    0    0 -0.00000000000E+00 -0.00000000000E+00 -0.74505805969E-08  0.93827000000E+00  0.93827000000E+00 0.  1.
     999902    2    1    2    0    0 -0.21790179834E-01  0.80507494119E-02 -0.29455478815E-02  0.10205141345E+01  0.10202454587E+01 0.  0.
     999903    2    3    3    0    0 -0.89813184710E-01 -0.93578107522E-01 -0.11661766738E-01  0.13201454183E+00  0.21646526206E-01 0.  0.
         14    1    1    2    0    0  0.21790179834E-01 -0.80507494119E-02  0.29455478815E-02  0.23415865468E-01  0.00000000000E+00 0.  1.
     999901    1    3    3    0    0  0.68023004877E-01  0.10162885693E+00  0.87162188568E-02  0.88849959270E+00  0.88000000000E+00 0. -1.
        -11    1    4    4    0    0 -0.32330613305E-01 -0.43850023437E-01  0.31583738556E-02  0.54574074051E-01  0.51100000000E-03 0. -1.
         11    1    4    4    0    0 -0.57482571406E-01 -0.49728084086E-01 -0.14820140594E-01  0.77440467783E-01  0.51100000000E-03 0.  1.
</event>
<event>
 8    1  0.1052028E+005  0.1043930E+01  0.7957747E-01            NaN
         13   -1    0    0    0    0  0.00000000000E+00  0.00000000000E+00  0.74505805969E-08  0.10566000000E+00  0.10566000000E+00 0. -1.
     999900   -1    0    0    0    0 -0.00000000000E+00 -0.00000000000E+00 -0.74505805969E-08  0.93827000000E+00  0.93827000000E+00 0. -1.
     999902    2    1    2    0    0  0.20281503972E-02 -0.21014155830E-01 -0.12428803937E-01  0.10194313611E+01  0.10191369470E+01 0.  0.
     999903    2    3    3    0    0  0.41799933658E-01  0.72564584933E-01 -0.96619856601E-01  0.12958479637E+00  0.21070579487E-01 0.  0.
         14    1    1    2    0    0 -0.20281503972E-02  0.21014155830E-01  0.12428803937E-01  0.24498638872E-01  0.00000000000E+00 0. -1.
     999901    1    3    3    0    0 -0.39771783261E-01 -0.93578740762E-01  0.84191052664E-01  0.88984656476E+00  0.88000000000E+00 0.  1.
        -11    1    4    4    0    0  0.30594475535E-01  0.54553313253E-01 -0.56922930493E-01  0.84572850591E-01  0.51100000000E-03 0.  1.
         11    1    4    4    0    0  0.11205458124E-01  0.18011271680E-01 -0.39696926108E-01  0.45011945778E-01  0.51100000000E-03 0. -1.
</event>
<event>
 8    1  0.1052028E+005  0.1043930E+01  0.7957747E-01            NaN
         13   -1    0    0    0    0  0.00000000000E+00  0.00000000000E+00  0.74505805969E-08  0.10566000000E+00  0.10566000000E+00 0. -1.
     999900   -1    0    0    0    0 -0.00000000000E+00 -0.00000000000E+00 -0.74505805969E-08  0.93827000000E+00  0.93827000000E+00 0. -1.
     999902    2    1    2    0    0  0.87590470422E-03 -0.73859540834E-02  0.26040340665E-01  0.10168482927E+01  0.10164875954E+01 0.  0.
     999903    2    3    3    0    0  0.93126889329E-01  0.83679618844E-01  0.12233034284E-01  0.12724510903E+00  0.19151358137E-01 0.  0.
         14    1    1    2    0    0 -0.87590470422E-03  0.73859540834E-02 -0.26040340665E-01  0.27081707271E-01  0.00000000000E+00 0.  1.
     999901    1    3    3    0    0 -0.92250984624E-01 -0.91065572927E-01  0.13807306381E-01  0.88960318370E+00  0.88000000000E+00 0.  1.
        -11    1    4    4    0    0  0.19067699915E-01  0.22742320779E-01 -0.40729914547E-02  0.29960652777E-01  0.51100000000E-03 0. -1.
         11    1    4    4    0    0  0.74059189414E-01  0.60937298065E-01  0.16306025738E-01  0.97284456253E-01  0.51100000000E-03 0.  1.
</event>
<event>
 8    1  0.1052028E+005  0.1043930E+01  0.7957747E-01            NaN
         13   -1    0    0    0    0  0.00000000000E+00  0.00000000000E+00  0.74505805969E-08  0.10566000000E+00  0.10566000000E+00 0. -1.
     999900   -1    0    0    0    0 -0.00000000000E+00 -0.00000000000E+00 -0.74505805969E-08  0.93827000000E+00  0.93827000000E+00 0.  1.
     999902    2    1    2    0    0 -0.11787397271E-01 -0.97320750090E-02  0.18583376055E-01  0.10198676251E+01  0.10195837263E+01 0.  0.
     999903    2    3    3    0    0 -0.69922949037E-01 -0.33822577395E-01  0.10648051775E+00  0.13325271313E+00  0.19621400360E-01 0.  0.
         14    1    1    2    0    0  0.11787397271E-01  0.97320750090E-02 -0.18583376055E-01  0.24062374862E-01  0.00000000000E+00 0.  1.
     999901    1    3    3    0    0  0.58135551766E-01  0.24090502385E-01 -0.87897141693E-01  0.88661491201E+00  0.88000000000E+00 0.  1.
        -11    1    4    4    0    0 -0.38541533298E-01 -0.20766569011E-01  0.43699111905E-01  0.61859305522E-01  0.51100000000E-03 0.  1.
         11    1    4    4    0    0 -0.31381415738E-01 -0.13056008384E-01  0.62781405843E-01  0.71393407603E-01  0.51100000000E-03 0. -1.
</event>
<event>
 8    1  0.1052028E+005  0.1043930E+01  0.7957747E-01            NaN
         13   -1    0    0    0    0  0.00000000000E+00  0.00000000000E+00  0.74505805969E-08  0.10566000000E+00  0.10566000000E+00 0.  1.
     999900   -1    0    0    0    0 -0.00000000000E+00 -0.00000000000E+00 -0.74505805969E-08  0.93827000000E+00  0.93827000000E+00 0.  1.
     999902    2    1    2    0    0 -0.13264553590E-01  0.98210946296E-03  0.20052152315E-01  0.10198675451E+01  0.10195836444E+01 0.  0.
     999903    2    3    3    0    0  0.94350370924E-01  0.72017117347E-01 -0.43852075067E-01  0.12817774785E+00  0.20446830390E-01 0.  0.
         14    1    1    2    0    0  0.13264553590E-01 -0.98210946296E-03 -0.20052152315E-01  0.24062454850E-01  0.00000000000E+00 0.  1.
     999901    1    3    3    0    0 -0.10761492451E+00 -0.71035007884E-01  0.63904227382E-01  0.89168979730E+00  0.88000000000E+00 0. -1.
        -11    1    4    4    0    0  0.11668844009E-01  0.60195672274E-02  0.11932904384E-02  0.13194020357E-01  0.51100000000E-03 0. -1.
         11    1    4    4    0    0  0.82681526915E-01  0.65997550119E-01 -0.45045365505E-01  0.11498372750E+00  0.51100000000E-03 0.  1.
</event>
<event>
 8    1  0.1052028E+005  0.1043930E+01  0.7957747E-01            NaN
         13   -1    0    0    0    0  0.00000000000E+00  0.00000000000E+00  0.74505805969E-08  0.10566000000E+00  0.10566000000E+00 0. -1.
     999900   -1    0    0    0    0 -0.00000000000E+00 -0.00000000000E+00 -0.74505805969E-08  0.93827000000E+00  0.93827000000E+00 0. -1.
     999902    2    1    2    0    0  0.39688751103E-02 -0.16158738548E-01  0.16605511265E-01  0.10204225585E+01  0.10201517525E+01 0.  0.
     999903    2    3    3    0    0 -0.48758441223E-01  0.49290439771E-01  0.11000493466E+00  0.13149780516E+00  0.19587089300E-01 0.  0.
         14    1    1    2    0    0 -0.39688751103E-02  0.16158738548E-01 -0.16605511265E-01  0.23507441491E-01  0.00000000000E+00 0.  1.
     999901    1    3    3    0    0  0.52727316333E-01 -0.65449178318E-01 -0.93399423399E-01  0.88892475335E+00  0.88000000000E+00 0.  1.
        -11    1    4    4    0    0 -0.26809582773E-01  0.19767412426E-01  0.37277304587E-01  0.49993628402E-01  0.51100000000E-03 0. -1.
         11    1    4    4    0    0 -0.21948858450E-01  0.29523027345E-01  0.72727630077E-01  0.81504176755E-01  0.51100000000E-03 0.  1.
</event>
<event>
 8    1  0.1052028E+005  0.1043930E+01  0.7957747E-01            NaN
         13   -1    0    0    0    0  0.00000000000E+00  0.00000000000E+00  0.74505805969E-08  0.10566000000E+00  0.10566000000E+00 0. -1.
     999900   -1    0    0    0    0 -0.00000000000E+00 -0.00000000000E+00 -0.74505805969E-08  0.93827000000E+00  0.93827000000E+00 0. -1.
     999902    2    1    2    0    0  0.13770325361E-01  0.15995925289E-01 -0.10117990382E-01  0.10205234792E+01  0.10202550203E+01 0.  0.
     999903    2    3    3    0    0 -0.74735797720E-01  0.92244270096E-01  0.49417235701E-01  0.13080915030E+00  0.23969267661E-01 0.  0.
         14    1    1    2    0    0 -0.13770325361E-01 -0.15995925289E-01  0.10117990382E-01  0.23406520796E-01  0.00000000000E+00 0.  1.
     999901    1    3    3    0    0  0.88506123081E-01 -0.76248344807E-01 -0.59535226083E-01  0.88971432890E+00  0.88000000000E+00 0.  1.
        -11    1    4    4    0    0 -0.49708581695E-01  0.64126868086E-01  0.21492026727E-01  0.83936682317E-01  0.51100000000E-03 0. -1.
         11    1    4    4    0    0 -0.25027216025E-01  0.28117402010E-01  0.27925208975E-01  0.46872467985E-01  0.51100000000E-03 0.  1.
</event>
<event>
 8    1  0.1052028E+005  0.1043930E+01  0.7957747E-01            NaN
         13   -1    0    0    0    0  0.00000000000E+00  0.00000000000E+00  0.74505805969E-08  0.10566000000E+00  0.10566000000E+00 0.  1.
     999900   -1    0    0    0    0 -0.00000000000E+00 -0.00000000000E+00 -0.74505805969E-08  0.93827000000E+00  0.93827000000E+00 0.  1.
     999902    2    1    2    0    0  0.67575279828E-02  0.22190669686E-01  0.14972803256E-02  0.10206849607E+01  0.10204202355E+01 0.  0.
     999903    2    3    3    0    0 -0.28992823566E-01 -0.11955929697E+00  0.29798226354E-01  0.12817608999E+00  0.20153571383E-01 0.  0.
         14    1    1    2    0    0 -0.67575279828E-02 -0.22190669686E-01 -0.14972803256E-02  0.23245039340E-01  0.00000000000E+00 0. -1.
     999901    1    3    3    0    0  0.35750351549E-01  0.14174996666E+00 -0.28300946029E-01  0.89250887067E+00  0.88000000000E+00 0. -1.
        -11    1    4    4    0    0 -0.89254954663E-02 -0.76352854813E-01  0.15355494461E-01  0.78393081573E-01  0.51100000000E-03 0. -1.
         11    1    4    4    0    0 -0.20067328100E-01 -0.43206442160E-01  0.14442731893E-01  0.49783008414E-01  0.51100000000E-03 0.  1.
</event>
<event>
 8    1  0.1052028E+005  0.1043930E+01  0.7957747E-01            NaN
         13   -1    0    0    0    0  0.00000000000E+00  0.00000000000E+00  0.74505805969E-08  0.10566000000E+00  0.10566000000E+00 0. -1.
     999900   -1    0    0    0    0 -0.00000000000E+00 -0.00000000000E+00 -0.74505805969E-08  0.93827000000E+00  0.93827000000E+00 0. -1.
     999902    2    1    2    0    0 -0.66057159997E-02  0.34881044640E-02 -0.19514658205E-01  0.10230344445E+01  0.10228210255E+01 0.  0.
     999903    2    3    3    0    0 -0.92319738888E-01 -0.20855168040E-01 -0.94977284203E-01  0.13532159868E+00  0.18258650883E-01 0.  0.
         14    1    1    2    0    0  0.66057159997E-02 -0.34881044640E-02  0.19514658205E-01  0.20895555544E-01  0.00000000000E+00 0. -1.
     999901    1    3    3    0    0  0.85714022888E-01  0.24343272504E-01  0.75462625998E-01  0.88771284578E+00  0.88000000000E+00 0.  1.
        -11    1    4    4    0    0 -0.60939702142E-01 -0.20675443926E-01 -0.71008591429E-01  0.95831114240E-01  0.51100000000E-03 0.  1.
         11    1    4    4    0    0 -0.31380036745E-01 -0.17972411382E-03 -0.23968692774E-01  0.39490484439E-01  0.51100000000E-03 0. -1.
</event>
<event>
 8    1  0.1052028E+005  0.1043930E+01  0.7957747E-01            NaN
         13   -1    0    0    0    0  0.00000000000E+00  0.00000000000E+00  0.74505805969E-08  0.10566000000E+00  0.10566000000E+00 0.  1.
     999900   -1    0    0    0    0 -0.00000000000E+00 -0.00000000000E+00 -0.74505805969E-08  0.93827000000E+00  0.93827000000E+00 0.  1.
     999902    2    1    2    0    0  0.16469840509E-02  0.18650539782E-01 -0.13424593298E-01  0.10208914476E+01  0.10206314579E+01 0.  0.
     999903    2    3    3    0    0 -0.85213677126E-01  0.94741090465E-01 -0.32743248349E-01  0.13313711404E+00  0.20399162466E-01 0.  0.
         14    1    1    2    0    0 -0.16469840509E-02 -0.18650539782E-01  0.13424593298E-01  0.23038552381E-01  0.00000000000E+00 0.  1.
     999901    1    3    3    0    0  0.86860661176E-01 -0.76090550683E-01  0.19318655051E-01  0.88775433358E+00  0.88000000000E+00 0.  1.
        -11    1    4    4    0    0 -0.16761907946E-01  0.31508076298E-01 -0.12102700614E-01  0.37688949483E-01  0.51100000000E-03 0. -1.
         11    1    4    4    0    0 -0.68451769180E-01  0.63233014167E-01 -0.20640547735E-01  0.95448164552E-01  0.51100000000E-03 0.  1.
</event>
<event>
 8    1  0.1052028E+005  0.1043930E+01  0.7957747E-01            NaN
         13   -1    0    0    0    0  0.00000000000E+00  0.00000000000E+00  0.74505805969E-08  0.10566000000E+00  0.10566000000E+00 0.  1.
     999900   -1    0    0    0    0 -0.00000000000E+00 -0.00000000000E+00 -0.74505805969E-08  0.93827000000E+00  0.93827000000E+00 0.  1.
     999902    2    1    2    0    0 -0.12635713427E-02 -0.21008347131E-01  0.89458296260E-02  0.10210613505E+01  0.10208052245E+01 0.  0.
     999903    2    3    3    0    0  0.12469751511E+00 -0.60092978438E-02  0.36373315010E-01  0.13154269768E+00  0.19871621297E-01 0.  0.
         14    1    1    2    0    0  0.12635713427E-02  0.21008347131E-01 -0.89458296260E-02  0.22868649488E-01  0.00000000000E+00 0. -1.
     999901    1    3    3    0    0 -0.12596108645E+00 -0.14999049287E-01 -0.27427485384E-01  0.88951865283E+00  0.88000000000E+00 0.  1.
        -11    1    4    4    0    0  0.78701290859E-01  0.58025698265E-02  0.23322077161E-01  0.82290603373E-01  0.51100000000E-03 0.  1.
         11    1    4    4    0    0  0.45996224251E-01 -0.11811867670E-01  0.13051237849E-01  0.49252094307E-01  0.51100000000E-03 0. -1.
</event>
<event>
 8    1  0.1052028E+005  0.1043930E+01  0.7957747E-01            NaN
         13   -1    0    0    0    0  0.00000000000E+00  0.00000000000E+00  0.74505805969E-08  0.10566000000E+00  0.10566000000E+00 0. -1.
     999900   -1    0    0    0    0 -0.00000000000E+00 -0.00000000000E+00 -0.74505805969E-08  0.93827000000E+00  0.93827000000E+00 0.  1.
     999902    2    1    2    0    0 -0.19156835530E-01  0.12360266226E-01 -0.77996454635E-02  0.10198344610E+01  0.10195497697E+01 0.  0.
     999903    2    3    3    0    0  0.70406315422E-01 -0.93596310512E-01 -0.47983047740E-01  0.12805923152E+00  0.19480126115E-01 0.  0.
         14    1    1    2    0    0  0.19156835530E-01 -0.12360266226E-01  0.77996454635E-02  0.24095538966E-01  0.00000000000E+00 0.  1.
     999901    1    3    3    0    0 -0.89563150952E-01  0.10595657674E+00  0.40183402277E-01  0.89177522952E+00  0.88000000000E+00 0. -1.
        -11    1    4    4    0    0  0.20379984917E-01 -0.39409100791E-01 -0.11807052832E-01  0.45913926297E-01  0.51100000000E-03 0. -1.
         11    1    4    4    0    0  0.50026330504E-01 -0.54187209721E-01 -0.36175994908E-01  0.82145305220E-01  0.51100000000E-03 0.  1.
</event>
<event>
 8    1  0.1052028E+005  0.1043930E+01  0.7957747E-01            NaN
         13   -1    0    0    0    0  0.00000000000E+00  0.00000000000E+00  0.74505805969E-08  0.10566000000E+00  0.10566000000E+00 0.  1.
     999900   -1    0    0    0    0 -0.00000000000E+00 -0.00000000000E+00 -0.74505805969E-08  0.93827000000E+00  0.93827000000E+00 0.  1.
     999902    2    1    2    0    0  0.92547229217E-02  0.92266476758E-02 -0.19168557656E-01  0.10207305490E+01  0.10204668731E+01 0.  0.
     999903    2    3    3    0    0  0.66782793027E-01 -0.84767722049E-01  0.67720072044E-01  0.12961099790E+00  0.23822142517E-01 0.  0.
         14    1    1    2    0    0 -0.92547229217E-02 -0.92266476758E-02  0.19168557656E-01  0.23199450991E-01  0.00000000000E+00 0.  1.
     999901    1    3    3    0    0 -0.57528070105E-01  0.93994369725E-01 -0.86888629700E-01  0.89111955110E+00  0.88000000000E+00 0.  1.
        -11    1    4    4    0    0  0.42662928411E-01 -0.48929188996E-01  0.53517178703E-01  0.84134062863E-01  0.51100000000E-03 0.  1.
         11    1    4    4    0    0  0.24119864616E-01 -0.35838533053E-01  0.14202893341E-01  0.45476935041E-01  0.51100000000E-03 0. -1.
</event>
<event>
 8    1  0.1052028E+005  0.1043930E+01  0.7957747E-01            NaN
         13   -1    0    0    0    0  0.00000000000E+00  0.00000000000E+00  0.74505805969E-08  0.10566000000E+00  0.10566000000E+00 0. -1.
     999900   -1    0    0    0    0 -0.00000000000E+00 -0.00000000000E+00 -0.74505805969E-08  0.93827000000E+00  0.93827000000E+00 0.  1.
     999902    2    1    2    0    0 -0.21036931307E-02  0.11414131430E-01  0.24488882384E-01  0.10168299395E+01  0.10164687464E+01 0.  0.
     999903    2    3    3    0    0 -0.12053520871E-01 -0.12456696339E+00  0.17434986701E-02  0.12603972302E+00  0.14857868571E-01 0.  0.
         14    1    1    2    0    0  0.21036931307E-02 -0.11414131430E-01 -0.24488882384E-01  0.27100060544E-01  0.00000000000E+00 0.  1.
     999901    1    3    3    0    0  0.99498277402E-02  0.13598109482E+00  0.22745383714E-01  0.89079021644E+00  0.88000000000E+00 0.  1.
        -11    1    4    4    0    0 -0.39949649860E-02 -0.23632899234E-01  0.59318718698E-02  0.24696596857E-01  0.51100000000E-03 0. -1.
         11    1    4    4    0    0 -0.80585558848E-02 -0.10093406415E+00 -0.41883731997E-02  0.10134312616E+00  0.51100000000E-03 0.  1.
</event>
<event>
 8    1  0.1052028E+005  0.1043930E+01  0.7957747E-01            NaN
         13   -1    0    0    0    0  0.00000000000E+00  0.00000000000E+00  0.74505805969E-08  0.10566000000E+00  0.10566000000E+00 0.  1.
     999900   -1    0    0    0    0 -0.00000000000E+00 -0.00000000000E+00 -0.74505805969E-08  0.93827000000E+00  0.93827000000E+00 0. -1.
     999902    2    1    2    0    0 -0.18586777716E-01 -0.18304813239E-01 -0.65807901983E-02  0.10170257012E+01  0.10166697771E+01 0.  0.
     999903    2    3    3    0    0  0.25925550175E-01 -0.76682376378E-01 -0.98793073623E-01  0.12916738345E+00  0.19282648982E-01 0.  0.
         14    1    1    2    0    0  0.18586777716E-01  0.18304813239E-01  0.65807901983E-02  0.26904298787E-01  0.00000000000E+00 0.  1.
     999901    1    3    3    0    0 -0.44512327892E-01  0.58377563138E-01  0.92212283425E-01  0.88785831777E+00  0.88000000000E+00 0.  1.
        -11    1    4    4    0    0 -0.10434324785E-02 -0.21862052110E-01 -0.30338894486E-01  0.37413202395E-01  0.51100000000E-03 0. -1.
         11    1    4    4    0    0  0.26968982654E-01 -0.54820324268E-01 -0.68454179137E-01  0.91754181052E-01  0.51100000000E-03 0.  1.
</event>
<event>
 8    1  0.1052028E+005  0.1043930E+01  0.7957747E-01            NaN
         13   -1    0    0    0    0  0.00000000000E+00  0.00000000000E+00  0.74505805969E-08  0.10566000000E+00  0.10566000000E+00 0.  1.
     999900   -1    0    0    0    0 -0.00000000000E+00 -0.00000000000E+00 -0.74505805969E-08  0.93827000000E+00  0.93827000000E+00 0. -1.
     999902    2    1    2    0    0  0.19730754246E-01 -0.50816359023E-02  0.41141204314E-02  0.10231441473E+01  0.10229329863E+01 0.  0.
     999903    2    3    3    0    0  0.11355338581E+00 -0.66617455861E-01 -0.24718982591E-01  0.13555150920E+00  0.20758773857E-01 0.  0.
         14    1    1    2    0    0 -0.19730754246E-01  0.50816359023E-02 -0.41141204314E-02  0.20785852725E-01  0.00000000000E+00 0. -1.
     999901    1    3    3    0    0 -0.93822631565E-01  0.61535819959E-01  0.28833103023E-01  0.88759263807E+00  0.88000000000E+00 0. -1.
        -11    1    4    4    0    0  0.39377556799E-01 -0.21009842581E-01  0.13530112599E-02  0.44655315755E-01  0.51100000000E-03 0. -1.
         11    1    4    4    0    0  0.74175829012E-01 -0.45607613280E-01 -0.26071993851E-01  0.90896193447E-01  0.51100000000E-03 0.  1.
</event>
<event>
 8    1  0.1052028E+005  0.1043930E+01  0.7957747E-01            NaN
         13   -1    0    0    0    0  0.00000000000E+00  0.00000000000E+00  0.74505805969E-08  0.10566000000E+00  0.10566000000E+00 0. -1.
     999900   -1    0    0    0    0 -0.00000000000E+00 -0.00000000000E+00 -0.74505805969E-08  0.93827000000E+00  0.93827000000E+00 0. -1.
     999902    2    1    2    0    0  0.97105731456E-02  0.84448207296E-02 -0.18119873664E-01  0.10217052379E+01  0.10214634860E+01 0.  0.
     999903    2    3    3    0    0 -0.69305256574E-01  0.69143015914E-01  0.83580392749E-01  0.13026218509E+00  0.19964457779E-01 0.  0.
         14    1    1    2    0    0 -0.97105731456E-02 -0.84448207296E-02  0.18119873664E-01  0.22224762081E-01  0.00000000000E+00 0. -1.
     999901    1    3    3    0    0  0.79015829720E-01 -0.60698195184E-01 -0.10170026641E+00  0.89144305283E+00  0.88000000000E+00 0. -1.
        -11    1    4    4    0    0 -0.33089085137E-01  0.39295071382E-01  0.32000200696E-01  0.60524905251E-01  0.51100000000E-03 0.  1.
         11    1    4    4    0    0 -0.36216171437E-01  0.29847944532E-01  0.51580192053E-01  0.69737279840E-01  0.51100000000E-03 0. -1.
</event>
<event>
 8    1  0.1052028E+005  0.1043930E+01  0.7957747E-01            NaN
         13   -1    0    0    0    0  0.00000000000E+00  0.00000000000E+00  0.74505805969E-08  0.10566000000E+00  0.10566000000E+00 0.  1.
     999900   -1    0    0    0    0 -0.00000000000E+00 -0.00000000000E+00 -0.74505805969E-08  0.93827000000E+00  0.93827000000E+00 0. -1.
     999902    2    1    2    0    0  0.92652149329E-02  0.61902343579E-02 -0.20859574446E-01  0.10202807917E+01  0.10200066709E+01 0.  0.
     999903    2    3    3    0    0 -0.94265269973E-02  0.10105792534E+00  0.77741984811E-01  0.12951060384E+00  0.20678893127E-01 0.  0.
         14    1    1    2    0    0 -0.92652149329E-02 -0.61902343579E-02  0.20859574446E-01  0.23649208342E-01  0.00000000000E+00 0.  1.
     999901    1    3    3    0    0  0.18691741930E-01 -0.94867690981E-01 -0.98601559257E-01  0.89077018781E+00  0.88000000000E+00 0. -1.
        -11    1    4    4    0    0 -0.54103370923E-03  0.34508147931E-01  0.15066274296E-01  0.37661103718E-01  0.51100000000E-03 0.  1.
         11    1    4    4    0    0 -0.88854932881E-02  0.66549777408E-01  0.62675710515E-01  0.91849500127E-01  0.51100000000E-03 0. -1.
</event>
<event>
 8    1  0.1052028E+005  0.1043930E+01  0.7957747E-01            NaN
         13   -1    0    0    0    0  0.00000000000E+00  0.00000000000E+00  0.74505805969E-08  0.10566000000E+00  0.10566000000E+00 0. -1.
     999900   -1    0    0    0    0 -0.00000000000E+00 -0.00000000000E+00 -0.74505805969E-08  0.93827000000E+00  0.93827000000E+00 0. -1.
     999902    2    1    2    0    0 -0.21550869520E-01  0.50855461109E-02 -0.21870788068E-01  0.10128071125E+01  0.10123288068E+01 0.  0.
     999903    2    3    3    0    0 -0.24077424494E-01 -0.11952076202E+00  0.33699759149E-04  0.12375541428E+00  0.21224196156E-01 0.  0.
         14    1    1    2    0    0  0.21550869520E-01 -0.50855461109E-02  0.21870788068E-01  0.31122887512E-01  0.00000000000E+00 0. -1.
     999901    1    3    3    0    0  0.25265549736E-02  0.12460630813E+00 -0.21904487827E-01  0.88905169821E+00  0.88000000000E+00 0.  1.
        -11    1    4    4    0    0 -0.23491421681E-01 -0.64672962770E-01 -0.23636457094E-02  0.68849741816E-01  0.51100000000E-03 0.  1.
         11    1    4    4    0    0 -0.58600281327E-03 -0.54847799252E-01  0.23973454685E-02  0.54905672461E-01  0.51100000000E-03 0. -1.
</event>
<event>
 8    1  0.1052028E+005  0.1043930E+01  0.7957747E-01            NaN
         13   -1    0    0    0    0  0.00000000000E+00  0.00000000000E+00  0.74505805969E-08  0.10566000000E+00  0.10566000000E+00 0.  1.
     999900   -1    0    0    0    0 -0.00000000000E+00 -0.00000000000E+00 -0.74505805969E-08  0.93827000000E+00  0.93827000000E+00 0. -1.
     999902    2    1    2    0    0  0.12141050285E-01  0.15910674855E-01  0.12612519876E-01  0.10202734928E+01  0.10199992008E+01 0.  0.
     999903    2    3    3    0    0  0.10016221938E+00 -0.60373726817E-01  0.56883221246E-01  0.13149515644E+00  0.19437546842E-01 0.  0.
         14    1    1    2    0    0 -0.12141050285E-01 -0.15910674855E-01 -0.12612519876E-01  0.23656507223E-01  0.00000000000E+00 0. -1.
     999901    1    3    3    0    0 -0.88021169091E-01  0.76284401672E-01 -0.44270701370E-01  0.88877833634E+00  0.88000000000E+00 0.  1.
        -11    1    4    4    0    0  0.43518315769E-01 -0.17927449023E-01  0.15790265825E-01  0.49647062871E-01  0.51100000000E-03 0.  1.
         11    1    4    4    0    0  0.56643903606E-01 -0.42446277793E-01  0.41092955421E-01  0.81848093567E-01  0.51100000000E-03 0. -1.
</event>
<event>
 8    1  0.1052028E+005  0.1043930E+01  0.7957747E-01            NaN
         13   -1    0    0    0    0  0.00000000000E+00  0.00000000000E+00  0.74505805969E-08  0.10566000000E+00  0.10566000000E+00 0.  1.
     999900   -1    0    0    0    0 -0.00000000000E+00 -0.00000000000E+00 -0.74505805969E-08  0.93827000000E+00  0.93827000000E+00 0.  1.
     999902    2    1    2    0    0 -0.69768885784E-02 -0.21616801582E-01 -0.62641654153E-02  0.10203672571E+01  0.10200951605E+01 0.  0.
     999903    2    3    3    0    0  0.24327023985E-01  0.12320342006E+00  0.12020032188E-01  0.12779393046E+00  0.20394133414E-01 0.  0.
         14    1    1    2    0    0  0.69768885784E-02  0.21616801582E-01  0.62641654153E-02  0.23562742906E-01  0.00000000000E+00 0.  1.
     999901    1    3    3    0    0 -0.31303912563E-01 -0.14482022164E+00 -0.18284197603E-01  0.89257332664E+00  0.88000000000E+00 0.  1.
        -11    1    4    4    0    0  0.21964443709E-01  0.10037146987E+00  0.20638647432E-02  0.10276862074E+00  0.51100000000E-03 0. -1.
         11    1    4    4    0    0  0.23625802763E-02  0.22831950195E-01  0.99561674445E-02  0.25025309718E-01  0.51100000000E-03 0.  1.
</event>
<event>
 8    1  0.1052028E+005  0.1043930E+01  0.7957747E-01            NaN
         13   -1    0    0    0    0  0.00000000000E+00  0.00000000000E+00  0.74505805969E-08  0.10566000000E+00  0.10566000000E+00 0.  1.
     999900   -1    0    0    0    0 -0.00000000000E+00 -0.00000000000E+00 -0.74505805969E-08  0.93827000000E+00  0.93827000000E+00 0. -1.
     999902    2    1    2    0    0 -0.16645344934E-01  0.18407285865E-01  0.33736555281E-03  0.10191104614E+01  0.10188081876E+01 0.  0.
     999903    2    3    3    0    0 -0.61147087395E-01  0.10563203925E+00  0.47374521163E-01  0.13243066762E+00  0.19910862808E-01 0.  0.
         14    1    1    2    0    0  0.16645344934E-01 -0.18407285865E-01 -0.33736555281E-03  0.24819538601E-01  0.00000000000E+00 0.  1.
     999901    1    3    3    0    0  0.44501742461E-01 -0.87224753387E-01 -0.47037155610E-01  0.88667979378E+00  0.88000000000E+00 0.  1.
        -11    1    4    4    0    0 -0.34067017882E-01  0.39268085474E-01  0.20064110713E-01  0.55725881813E-01  0.51100000000E-03 0. -1.
         11    1    4    4    0    0 -0.27080069513E-01  0.66363953778E-01  0.27310410450E-01  0.76704785808E-01  0.51100000000E-03 0.  1.
</event>
<event>
 8    1  0.1052028E+005  0.1043930E+01  0.7957747E-01            NaN
         13   -1    0    0    0    0  0.00000000000E+00  0.00000000000E+00  0.74505805969E-08  0.10566000000E+00  0.10566000000E+00 0.  1.
     999900   -1    0    0    0    0 -0.00000000000E+00 -0.00000000000E+00 -0.74505805969E-08  0.93827000000E+00  0.93827000000E+00 0.  1.
     999902    2    1    2    0    0  0.16842983709E-01 -0.13725647773E-01  0.94551668097E-02  0.10202344374E+01  0.10199592284E+01 0.  0.
     999903    2    3    3    0    0 -0.30654161465E-01 -0.12463221553E+00 -0.19731300604E-01  0.13152295698E+00  0.20882941058E-01 0.  0.
         14    1    1    2    0    0 -0.16842983709E-01  0.13725647773E-01 -0.94551668097E-02  0.23695562589E-01  0.00000000000E+00 0.  1.
     999901    1    3    3    0    0  0.47497145174E-01  0.11090656775E+00  0.29186467413E-01  0.88871148043E+00  0.88000000000E+00 0. -1.
        -11    1    4    4    0    0 -0.15472711180E-01 -0.33951890784E-01  0.76357408588E-03  0.37322645210E-01  0.51100000000E-03 0. -1.
         11    1    4    4    0    0 -0.15181450285E-01 -0.90680324742E-01 -0.20494874690E-01  0.94200311770E-01  0.51100000000E-03 0.  1.
</event>
<event>
 8    1  0.1052028E+005  0.1043930E+01  0.7957747E-01            NaN
         13   -1    0    0    0    0  0.00000000000E+00  0.00000000000E+00  0.74505805969E-08  0.10566000000E+00  0.10566000000E+00 0. -1.
     999900   -1    0    0    0    0 -0.00000000000E+00 -0.00000000000E+00 -0.74505805969E-08  0.93827000000E+00  0.93827000000E+00 0.  1.
     999902    2    1    2    0    0  0.16504704121E-01  0.85529052124E-03  0.16731677229E-01  0.10204122237E+01  0.10201411767E+01 0.  0.
     999903    2    3    3    0    0 -0.63054680185E-01 -0.89819930155E-01 -0.63845784984E-01  0.12853531587E+00  0.20038228935E-01 0.  0.
         14    1    1    2    0    0 -0.16504704121E-01 -0.85529052124E-03 -0.16731677229E-01  0.23517776317E-01  0.00000000000E+00 0.  1.
     999901    1    3    3    0    0  0.79559384306E-01  0.90675220676E-01  0.80577462213E-01  0.89187690781E+00  0.88000000000E+00 0.  1.
        -11    1    4    4    0    0 -0.25436959582E-01 -0.36447043680E-01 -0.14728762089E-01  0.46825457387E-01  0.51100000000E-03 0. -1.
         11    1    4    4    0    0 -0.37617720603E-01 -0.53372886475E-01 -0.49117022895E-01  0.81709858482E-01  0.51100000000E-03 0.  1.
</event>
<event>
 8    1  0.1126033E+005  0.1043930E+01  0.7957747E-01            NaN
         13   -1    0    0    0    0  0.00000000000E+00  0.00000000000E+00  0.74505805969E-08  0.10566000000E+00  0.10566000000E+00 0.  1.
     999900   -1    0    0    0    0 -0.00000000000E+00 -0.00000000000E+00 -0.74505805969E-08  0.93827000000E+00  0.93827000000E+00 0.  1.
     999902    2    1    2    0    0 -0.91628397976E-02  0.98251737258E-03  0.22758598598E-01  0.10193764507E+01  0.10190806992E+01 0.  0.
     999903    2    3    3    0    0 -0.18606904844E-01 -0.59920128917E-01  0.11478165581E+00  0.13243419454E+00  0.20672411951E-01 0.  0.
         14    1    1    2    0    0  0.91628397976E-02 -0.98251737258E-03 -0.22758598598E-01  0.24553549309E-01  0.00000000000E+00 0. -1.
     999901    1    3    3    0    0  0.94440650466E-02  0.60902646290E-01 -0.92023057210E-01  0.88694225615E+00  0.88000000000E+00 0.  1.
        -11    1    4    4    0    0 -0.33108574661E-02 -0.27813808407E-01  0.68924380713E-01  0.74400276162E-01  0.51100000000E-03 0.  1.
         11    1    4    4    0    0 -0.15296047378E-01 -0.32106320510E-01  0.45857275094E-01  0.58033918377E-01  0.51100000000E-03 0. -1.
</event>
<event>
 8    1  0.1052028E+005  0.1043930E+01  0.7957747E-01            NaN
         13   -1    0    0    0    0  0.00000000000E+00  0.00000000000E+00  0.74505805969E-08  0.10566000000E+00  0.10566000000E+00 0. -1.
     999900   -1    0    0    0    0 -0.00000000000E+00 -0.00000000000E+00 -0.74505805969E-08  0.93827000000E+00  0.93827000000E+00 0.  1.
     999902    2    1    2    0    0 -0.10585060730E-01 -0.52506526682E-02  0.20970374798E-01  0.10198599048E+01  0.10195758216E+01 0.  0.
     999903    2    3    3    0    0  0.43277231069E-01 -0.10991557022E+00  0.53959687604E-01  0.13140946374E+00  0.20061105856E-01 0.  0.
         14    1    1    2    0    0  0.10585060730E-01  0.52506526682E-02 -0.20970374798E-01  0.24070095207E-01  0.00000000000E+00 0.  1.
     999901    1    3    3    0    0 -0.53862291800E-01  0.10466491755E+00 -0.32989312807E-01  0.88845044105E+00  0.88000000000E+00 0.  1.
        -11    1    4    4    0    0  0.19727194978E-01 -0.69099040105E-01  0.24946769896E-01  0.76068666443E-01  0.51100000000E-03 0. -1.
         11    1    4    4    0    0  0.23550036091E-01 -0.40816530118E-01  0.29012917708E-01  0.55340797299E-01  0.51100000000E-03 0.  1.
</event>
<event>
 8    1  0.1052028E+005  0.1043930E+01  0.7957747E-01            NaN
         13   -1    0    0    0    0  0.00000000000E+00  0.00000000000E+00  0.74505805969E-08  0.10566000000E+00  0.10566000000E+00 0. -1.
     999900   -1    0    0    0    0 -0.00000000000E+00 -0.00000000000E+00 -0.74505805969E-08  0.93827000000E+00  0.93827000000E+00 0.  1.
     999902    2    1    2    0    0  0.15878396476E-01 -0.39108067872E-02  0.15382422228E-01  0.10214792361E+01  0.10212324873E+01 0.  0.
     999903    2    3    3    0    0  0.23557741202E-02 -0.11848861377E+00 -0.52233801759E-01  0.13137649549E+00  0.22052488631E-01 0.  0.
         14    1    1    2    0    0 -0.15878396476E-01  0.39108067872E-02 -0.15382422228E-01  0.22450763862E-01  0.00000000000E+00 0.  1.
     999901    1    3    3    0    0  0.13522622356E-01  0.11457780698E+00  0.67616223988E-01  0.89010274065E+00  0.88000000000E+00 0.  1.
        -11    1    4    4    0    0 -0.25125867639E-02 -0.66646698017E-01 -0.40395252993E-01  0.77975207817E-01  0.51100000000E-03 0.  1.
         11    1    4    4    0    0  0.48683608841E-02 -0.51841915755E-01 -0.11838548767E-01  0.53401287669E-01  0.51100000000E-03 0. -1.
</event>
<event>
 8    1  0.1052028E+005  0.1043930E+01  0.7957747E-01            NaN
         13   -1    0    0    0    0  0.00000000000E+00  0.00000000000E+00  0.74505805969E-08  0.10566000000E+00  0.10566000000E+00 0.  1.
     999900   -1    0    0    0    0 -0.00000000000E+00 -0.00000000000E+00 -0.74505805969E-08  0.93827000000E+00  0.93827000000E+00 0.  1.
     999902    2    1    2    0    0  0.14630830417E-01 -0.13309486093E-01 -0.15183819573E-01  0.10189950447E+01  0.10186899181E+01 0.  0.
     999903    2    3    3    0    0 -0.39774398085E-01 -0.11616880518E+00 -0.40855298122E-01  0.13096408059E+00  0.20130598112E-01 0.  0.
         14    1    1    2    0    0 -0.14630830417E-01  0.13309486093E-01  0.15183819573E-01  0.24934955295E-01  0.00000000000E+00 0.  1.
     999901    1    3    3    0    0  0.54405228501E-01  0.10285931909E+00  0.25671478548E-01  0.88803096411E+00  0.88000000000E+00 0.  1.
        -11    1    4    4    0    0 -0.26960117598E-01 -0.74707607394E-01 -0.16233991963E-01  0.81067121323E-01  0.51100000000E-03 0. -1.
         11    1    4    4    0    0 -0.12814280486E-01 -0.41461197788E-01 -0.24621306159E-01  0.49896959270E-01  0.51100000000E-03 0.  1.
</event>
<event>
 8    1  0.1052028E+005  0.1043930E+01  0.7957747E-01            NaN
         13   -1    0    0    0    0  0.00000000000E+00  0.00000000000E+00  0.74505805969E-08  0.10566000000E+00  0.10566000000E+00 0.  1.
     999900   -1    0    0    0    0 -0.00000000000E+00 -0.00000000000E+00 -0.74505805969E-08  0.93827000000E+00  0.93827000000E+00 0.  1.
     999902    2    1    2    0    0 -0.15974999770E-01 -0.74574435005E-02  0.14480478371E-01  0.10211155674E+01  0.10208606681E+01 0.  0.
     999903    2    3    3    0    0 -0.14191661399E-01 -0.11405019426E+00  0.64539933308E-01  0.13326921591E+00  0.19657844640E-01 0.  0.
         14    1    1    2    0    0  0.15974999770E-01  0.74574435005E-02 -0.14480478371E-01  0.22814432605E-01  0.00000000000E+00 0.  1.
     999901    1    3    3    0    0 -0.17833383712E-02  0.10659275076E+00 -0.50059454937E-01  0.88784635148E+00  0.88000000000E+00 0. -1.
        -11    1    4    4    0    0 -0.15423371992E-01 -0.52881501082E-01  0.25596619947E-01  0.60743572779E-01  0.51100000000E-03 0.  1.
         11    1    4    4    0    0  0.12317105927E-02 -0.61168693174E-01  0.38943313361E-01  0.72525643135E-01  0.51100000000E-03 0. -1.
</event>
<event>
 8    1  0.1052028E+005  0.1043930E+01  0.7957747E-01            NaN
         13   -1    0    0    0    0  0.00000000000E+00  0.00000000000E+00  0.74505805969E-08  0.10566000000E+00  0.10566000000E+00 0. -1.
     999900   -1    0    0    0    0 -0.00000000000E+00 -0.00000000000E+00 -0.74505805969E-08  0.93827000000E+00  0.93827000000E+00 0.  1.
     999902    2    1    2    0    0  0.23379593305E-01  0.15234128387E-02  0.15044868651E-02  0.10204525715E+01  0.10201824645E+01 0.  0.
     999903    2    3    3    0    0  0.33803362390E-01  0.84086493543E-01  0.93603584697E-01  0.13174139168E+00  0.19518132811E-01 0.  0.
         14    1    1    2    0    0 -0.23379593305E-01 -0.15234128387E-02 -0.15044868651E-02  0.23477428533E-01  0.00000000000E+00 0.  1.
     999901    1    3    3    0    0 -0.10423769085E-01 -0.82563080704E-01 -0.92099097832E-01  0.88871117979E+00  0.88000000000E+00 0.  1.
        -11    1    4    4    0    0  0.72431109072E-02  0.43755120338E-01  0.47121346105E-01  0.64712097719E-01  0.51100000000E-03 0. -1.
         11    1    4    4    0    0  0.26560251483E-01  0.40331373204E-01  0.46482238592E-01  0.67029293961E-01  0.51100000000E-03 0.  1.
</event>
<event>
 8    1  0.1052028E+005  0.1043930E+01  0.7957747E-01            NaN
         13   -1    0    0    0    0  0.00000000000E+00  0.00000000000E+00  0.74505805969E-08  0.10566000000E+00  0.10566000000E+00 0. -1.
     999900   -1    0    0    0    0 -0.00000000000E+00 -0.00000000000E+00 -0.74505805969E-08  0.93827000000E+00  0.93827000000E+00 0.  1.
     999902    2    1    2    0    0  0.10334571911E-01 -0.71143477089E-02  0.20504445508E-01  0.10198914974E+01  0.10196081683E+01 0.  0.
     999903    2    3    3    0    0  0.33036481995E-01  0.60284528898E-01  0.11040115076E+00  0.13245732923E+00  0.25117651340E-01 0.  0.
         14    1    1    2    0    0 -0.10334571911E-01  0.71143477089E-02 -0.20504445508E-01  0.24038502563E-01  0.00000000000E+00 0.  1.
     999901    1    3    3    0    0 -0.22701910084E-01 -0.67398876607E-01 -0.89896705257E-01  0.88743416821E+00  0.88000000000E+00 0.  1.
        -11    1    4    4    0    0  0.15816223979E-01  0.34834983320E-01  0.38570148509E-01  0.54328137101E-01  0.51100000000E-03 0.  1.
         11    1    4    4    0    0  0.17220258016E-01  0.25449545578E-01  0.71831002256E-01  0.78129192126E-01  0.51100000000E-03 0. -1.
</event>
<event>
 8    1  0.1052028E+005  0.1043930E+01  0.7957747E-01            NaN
         13   -1    0    0    0    0  0.00000000000E+00  0.00000000000E+00  0.74505805969E-08  0.10566000000E+00  0.10566000000E+00 0. -1.
     999900   -1    0    0    0    0 -0.00000000000E+00 -0.00000000000E+00 -0.74505805969E-08  0.93827000000E+00  0.93827000000E+00 0. -1.
     999902    2    1    2    0    0 -0.47900042566E-02 -0.15656481228E-01 -0.15854918337E-01  0.10211385985E+01  0.10208842194E+01 0.  0.
     999903    2    3    3    0    0 -0.26054692423E-01  0.28129009281E-01 -0.12575900598E+00  0.13296729489E+00  0.19871732835E-01 0.  0.
         14    1    1    2    0    0  0.47900042566E-02  0.15656481228E-01  0.15854918337E-01  0.22791401464E-01  0.00000000000E+00 0. -1.
     999901    1    3    3    0    0  0.21264688166E-01 -0.43785490509E-01  0.10990408764E+00  0.88817130365E+00  0.88000000000E+00 0.  1.
        -11    1    4    4    0    0 -0.13025095345E-01  0.19609056812E-01 -0.10106076540E+00  0.10376756546E+00  0.51100000000E-03 0. -1.
         11    1    4    4    0    0 -0.13029597078E-01  0.85199524687E-02 -0.24698240579E-01  0.29199729430E-01  0.51100000000E-03 0.  1.
</event>
<event>
 8    1  0.1052028E+005  0.1043930E+01  0.7957747E-01            NaN
         13   -1    0    0    0    0  0.00000000000E+00  0.00000000000E+00  0.74505805969E-08  0.10566000000E+00  0.10566000000E+00 0.  1.
     999900   -1    0    0    0    0 -0.00000000000E+00 -0.00000000000E+00 -0.74505805969E-08  0.93827000000E+00  0.93827000000E+00 0. -1.
     999902    2    1    2    0    0 -0.40935468992E-02  0.11703128906E-01 -0.20098494919E-01  0.10203149656E+01  0.10200416458E+01 0.  0.
     999903    2    3    3    0    0  0.98589257509E-01 -0.72716011295E-01 -0.38946688632E-01  0.13013206081E+00  0.20249659245E-01 0.  0.
         14    1    1    2    0    0  0.40935468992E-02 -0.11703128906E-01  0.20098494919E-01  0.23615034415E-01  0.00000000000E+00 0.  1.
     999901    1    3    3    0    0 -0.10268280441E+00  0.84419140202E-01  0.18848193713E-01  0.89018290478E+00  0.88000000000E+00 0.  1.
        -11    1    4    4    0    0  0.45281233788E-01 -0.27981906724E-01 -0.74758667040E-02  0.53754320210E-01  0.51100000000E-03 0. -1.
         11    1    4    4    0    0  0.53308023721E-01 -0.44734104571E-01 -0.31470821928E-01  0.76377740597E-01  0.51100000000E-03 0.  1.
</event>
<event>
 8    1  0.1052028E+005  0.1043930E+01  0.7957747E-01            NaN
         13   -1    0    0    0    0  0.00000000000E+00  0.00000000000E+00  0.74505805969E-08  0.10566000000E+00  0.10566000000E+00 0. -1.
     999900   -1    0    0    0    0 -0.00000000000E+00 -0.00000000000E+00 -0.74505805969E-08  0.93827000000E+00  0.93827000000E+00 0.  1.
     999902    2    1    2    0    0 -0.24654586956E-01 -0.51758841037E-03 -0.11402989600E-02  0.10192436305E+01  0.10189446312E+01 0.  0.
     999903    2    3    3    0    0 -0.12582125956E+00  0.24172800964E-02  0.36841482078E-01  0.13262876218E+00  0.19906309411E-01 0.  0.
         14    1    1    2    0    0  0.24654586956E-01  0.51758841037E-03  0.11402989600E-02  0.24686369467E-01  0.00000000000E+00 0.  1.
     999901    1    3    3    0    0  0.10116667261E+00 -0.29348685068E-02 -0.37981781038E-01  0.88661486836E+00  0.88000000000E+00 0.  1.
        -11    1    4    4    0    0 -0.10187281266E+00  0.83715276264E-02  0.34284137885E-01  0.10781380091E+00  0.51100000000E-03 0.  1.
         11    1    4    4    0    0 -0.23948446901E-01 -0.59542475300E-02  0.25573441925E-02  0.24814961272E-01  0.51100000000E-03 0. -1.
</event>
<event>
 8    1  0.1052028E+005  0.1043930E+01  0.7957747E-01            NaN
         13   -1    0    0    0    0  0.00000000000E+00  0.00000000000E+00  0.74505805969E-08  0.10566000000E+00  0.10566000000E+00 0. -1.
     999900   -1    0    0    0    0 -0.00000000000E+00 -0.00000000000E+00 -0.74505805969E-08  0.93827000000E+00  0.93827000000E+00 0. -1.
     999902    2    1    2    0    0  0.12352534196E-01 -0.17362806600E-01 -0.94517109215E-02  0.10206193373E+01  0.10203530981E+01 0.  0.
     999903    2    3    3    0    0  0.10139406798E-01 -0.79656877579E-01  0.10208972321E+00  0.13139105353E+00  0.19831077805E-01 0.  0.
         14    1    1    2    0    0 -0.12352534196E-01  0.17362806600E-01  0.94517109215E-02  0.23310662656E-01  0.00000000000E+00 0. -1.
     999901    1    3    3    0    0  0.22131273980E-02  0.62294070979E-01 -0.11154143413E+00  0.88922828382E+00  0.88000000000E+00 0. -1.
        -11    1    4    4    0    0  0.10041624755E-01 -0.31011043104E-01  0.53384657114E-01  0.62551592771E-01  0.51100000000E-03 0. -1.
         11    1    4    4    0    0  0.97782043295E-04 -0.48645834476E-01  0.48705066093E-01  0.68839460757E-01  0.51100000000E-03 0.  1.
</event>
<event>
 8    1  0.1052028E+005  0.1043930E+01  0.7957747E-01            NaN
         13   -1    0    0    0    0  0.00000000000E+00  0.00000000000E+00  0.74505805969E-08  0.10566000000E+00  0.10566000000E+00 0. -1.
     999900   -1    0    0    0    0 -0.00000000000E+00 -0.00000000000E+00 -0.74505805969E-08  0.93827000000E+00  0.93827000000E+00 0. -1.
     999902    2    1    2    0    0 -0.15424402888E-01  0.20350871580E-01 -0.55235302036E-02  0.10178037763E+01  0.10174684012E+01 0.  0.
     999903    2    3    3    0    0  0.87503207017E-01  0.64455077090E-01  0.63836381186E-01  0.12800038728E+00  0.22310252775E-01 0.  0.
         14    1    1    2    0    0  0.15424402888E-01 -0.20350871580E-01  0.55235302036E-02  0.26126223693E-01  0.00000000000E+00 0. -1.
     999901    1    3    3    0    0 -0.10292760990E+00 -0.44104205510E-01 -0.69359911389E-01  0.88980338903E+00  0.88000000000E+00 0.  1.
        -11    1    4    4    0    0  0.21104155761E-01  0.26666110128E-01  0.25579567025E-01  0.42556341360E-01  0.51100000000E-03 0. -1.
         11    1    4    4    0    0  0.66399051256E-01  0.37788966962E-01  0.38256814161E-01  0.85444045916E-01  0.51100000000E-03 0.  1.
</event>
<event>
 8    1  0.1052028E+005  0.1043930E+01  0.7957747E-01            NaN
         13   -1    0    0    0    0  0.00000000000E+00  0.00000000000E+00  0.74505805969E-08  0.10566000000E+00  0.10566000000E+00 0.  1.
     999900   -1    0    0    0    0 -0.00000000000E+00 -0.00000000000E+00 -0.74505805969E-08  0.93827000000E+00  0.93827000000E+00 0.  1.
     999902    2    1    2    0    0  0.16737120254E-01 -0.82811883073E-02  0.12922825609E-01  0.10212207795E+01  0.10209682521E+01 0.  0.
     999903    2    3    3    0    0 -0.31373970555E-01 -0.52650436244E-01 -0.11322221229E+00  0.12981970377E+00  0.16658081115E-01 0.  0.
         14    1    1    2    0    0 -0.16737120254E-01  0.82811883073E-02 -0.12922825609E-01  0.22709220504E-01  0.00000000000E+00 0. -1.
     999901    1    3    3    0    0  0.48111090809E-01  0.44369247937E-01  0.12614503790E+00  0.89140107573E+00  0.88000000000E+00 0. -1.
        -11    1    4    4    0    0 -0.19057108718E-01 -0.16206931700E-01 -0.43078620635E-01  0.49818337032E-01  0.51100000000E-03 0. -1.
         11    1    4    4    0    0 -0.12316861838E-01 -0.36443504544E-01 -0.70143591651E-01  0.80001366736E-01  0.51100000000E-03 0.  1.
</event>
<event>
 8    1  0.1052028E+005  0.1043930E+01  0.7957747E-01            NaN
         13   -1    0    0    0    0  0.00000000000E+00  0.00000000000E+00  0.74505805969E-08  0.10566000000E+00  0.10566000000E+00 0. -1.
     999900   -1    0    0    0    0 -0.00000000000E+00 -0.00000000000E+00 -0.74505805969E-08  0.93827000000E+00  0.93827000000E+00 0. -1.
     999902    2    1    2    0    0  0.21901472019E-01 -0.81316587573E-02 -0.89206883237E-03  0.10205506472E+01  0.10202828183E+01 0.  0.
     999903    2    3    3    0    0 -0.10553075313E+00  0.33053946176E-01 -0.62021501212E-01  0.12832195815E+00  0.19762467337E-01 0.  0.
         14    1    1    2    0    0 -0.21901472019E-01  0.81316587573E-02  0.89206883237E-03  0.23379352804E-01  0.00000000000E+00 0.  1.
     999901    1    3    3    0    0  0.12743222515E+00 -0.41185604933E-01  0.61129432380E-01  0.89222868905E+00  0.88000000000E+00 0.  1.
        -11    1    4    4    0    0 -0.71735853182E-01  0.28989628005E-01 -0.35304846562E-01  0.85047777604E-01  0.51100000000E-03 0. -1.
         11    1    4    4    0    0 -0.33794899951E-01  0.40643181703E-02 -0.26716654650E-01  0.43274180542E-01  0.51100000000E-03 0.  1.
</event>
<event>
 8    1  0.1052028E+005  0.1043930E+01  0.7957747E-01            NaN
         13   -1    0    0    0    0  0.00000000000E+00  0.00000000000E+00  0.74505805969E-08  0.10566000000E+00  0.10566000000E+00 0. -1.
     999900   -1    0    0    0    0 -0.00000000000E+00 -0.00000000000E+00 -0.74505805969E-08  0.93827000000E+00  0.93827000000E+00 0.  1.
     999902    2    1    2    0    0  0.28365957300E-02  0.23403193829E-01  0.30139681872E-02  0.10201636422E+01  0.10198867669E+01 0.  0.
     999903    2    3    3    0    0 -0.82231244615E-01 -0.92680794448E-01  0.25303896475E-01  0.12819454485E+00  0.21020154691E-01 0.  0.
         14    1    1    2    0    0 -0.28365957300E-02 -0.23403193829E-01 -0.30139681872E-02  0.23766357755E-01  0.00000000000E+00 0. -1.
     999901    1    3    3    0    0  0.85067840345E-01  0.11608398828E+00 -0.22289928288E-01  0.89196909739E+00  0.88000000000E+00 0. -1.
        -11    1    4    4    0    0 -0.14911031952E-01 -0.29855351811E-01  0.34497535444E-02  0.33553581420E-01  0.51100000000E-03 0. -1.
         11    1    4    4    0    0 -0.67320212663E-01 -0.62825442638E-01  0.21854142931E-01  0.94640963435E-01  0.51100000000E-03 0.  1.
</event>
<event>
 8    1  0.1052028E+005  0.1043930E+01  0.7957747E-01            NaN
         13   -1    0    0    0    0  0.00000000000E+00  0.00000000000E+00  0.74505805969E-08  0.10566000000E+00  0.10566000000E+00 0. -1.
     999900   -1    0    0    0    0 -0.00000000000E+00 -0.00000000000E+00 -0.74505805969E-08  0.93827000000E+00  0.93827000000E+00 0. -1.
     999902    2    1    2    0    0 -0.20003684898E-02  0.20047063727E-01 -0.13012144982E-01  0.10199466275E+01  0.10196646119E+01 0.  0.
     999903    2    3    3    0    0  0.81362696228E-01 -0.92030033343E-02  0.97060015960E-01  0.12869983365E+00  0.20938406698E-01 0.  0.
         14    1    1    2    0    0  0.20003684898E-02 -0.20047063727E-01  0.13012144982E-01  0.23983372474E-01  0.00000000000E+00 0. -1.
     999901    1    3    3    0    0 -0.83363064718E-01  0.29250067062E-01 -0.11007216094E+00  0.89124679388E+00  0.88000000000E+00 0. -1.
        -11    1    4    4    0    0  0.56108193391E-01 -0.13465001144E-02  0.52354673242E-01  0.76754253039E-01  0.51100000000E-03 0. -1.
         11    1    4    4    0    0  0.25254502837E-01 -0.78565032199E-02  0.44705342718E-01  0.51945580610E-01  0.51100000000E-03 0.  1.
</event>
<event>
 8    1  0.1052028E+005  0.1043930E+01  0.7957747E-01            NaN
         13   -1    0    0    0    0  0.00000000000E+00  0.00000000000E+00  0.74505805969E-08  0.10566000000E+00  0.10566000000E+00 0. -1.
     999900   -1    0    0    0    0 -0.00000000000E+00 -0.00000000000E+00 -0.74505805969E-08  0.93827000000E+00  0.93827000000E+00 0.  1.
     999902    2    1    2    0    0 -0.58550972577E-02  0.15734319755E-01  0.32856434412E-01  0.10070328963E+01  0.10063567250E+01 0.  0.
     999903    2    3    3    0    0 -0.39620426185E-01  0.11223508600E+00  0.48356421082E-02  0.12067085955E+00  0.19276415903E-01 0.  0.
         14    1    1    2    0    0  0.58550972577E-02 -0.15734319755E-01 -0.32856434412E-01  0.36897103739E-01  0.00000000000E+00 0.  1.
     999901    1    3    3    0    0  0.33765328928E-01 -0.96500766241E-01  0.28020792304E-01  0.88636203671E+00  0.88000000000E+00 0. -1.
        -11    1    4    4    0    0 -0.14367992589E-01  0.36935948285E-01  0.10634042466E-01  0.41037147402E-01  0.51100000000E-03 0. -1.
         11    1    4    4    0    0 -0.25252433596E-01  0.75299137711E-01 -0.57984003576E-02  0.79633712147E-01  0.51100000000E-03 0.  1.
</event>
<event>
 8    1  0.1052028E+005  0.1043930E+01  0.7957747E-01            NaN
         13   -1    0    0    0    0  0.00000000000E+00  0.00000000000E+00  0.74505805969E-08  0.10566000000E+00  0.10566000000E+00 0.  1.
     999900   -1    0    0    0    0 -0.00000000000E+00 -0.00000000000E+00 -0.74505805969E-08  0.93827000000E+00  0.93827000000E+00 0. -1.
     999902    2    1    2    0    0  0.15833705817E-01 -0.23582463764E-02  0.16199052991E-01  0.10211555212E+01  0.10209015240E+01 0.  0.
     999903    2    3    3    0    0  0.54399694075E-01  0.11312979308E+00  0.37403038430E-01  0.13251924484E+00  0.20116813157E-01 0.  0.
         14    1    1    2    0    0 -0.15833705817E-01  0.23582463764E-02 -0.16199052991E-01  0.22774478780E-01  0.00000000000E+00 0. -1.
     999901    1    3    3    0    0 -0.38565988258E-01 -0.11548803945E+00 -0.21203985438E-01  0.88863627638E+00  0.88000000000E+00 0. -1.
        -11    1    4    4    0    0  0.29913277860E-01  0.73182345372E-01  0.14563577864E-01  0.80391658695E-01  0.51100000000E-03 0.  1.
         11    1    4    4    0    0  0.24486416214E-01  0.39947447703E-01  0.22839460566E-01  0.52127586142E-01  0.51100000000E-03 0. -1.
</event>
<event>
 8    1  0.1052028E+005  0.1043930E+01  0.7957747E-01            NaN
         13   -1    0    0    0    0  0.00000000000E+00  0.00000000000E+00  0.74505805969E-08  0.10566000000E+00  0.10566000000E+00 0. -1.
     999900   -1    0    0    0    0 -0.00000000000E+00 -0.00000000000E+00 -0.74505805969E-08  0.93827000000E+00  0.93827000000E+00 0.  1.
     999902    2    1    2    0    0 -0.62752780726E-02  0.13528540382E-01 -0.17875448756E-01  0.10206505630E+01  0.10203850447E+01 0.  0.
     999903    2    3    3    0    0  0.60708036549E-01 -0.14402550184E-01  0.11055232276E+00  0.12837224163E+00  0.19097570520E-01 0.  0.
         14    1    1    2    0    0  0.62752780726E-02 -0.13528540382E-01  0.17875448756E-01  0.23279437020E-01  0.00000000000E+00 0. -1.
     999901    1    3    3    0    0 -0.66983314622E-01  0.27931090566E-01 -0.12842777151E+00  0.89227832135E+00  0.88000000000E+00 0.  1.
        -11    1    4    4    0    0  0.41830931105E-01 -0.34747174771E-02  0.59157216673E-01  0.72537837465E-01  0.51100000000E-03 0. -1.
         11    1    4    4    0    0  0.18877105444E-01 -0.10927832707E-01  0.51395106086E-01  0.55834404163E-01  0.51100000000E-03 0.  1.
</event>
<event>
 8    1  0.1052028E+005  0.1043930E+01  0.7957747E-01            NaN
         13   -1    0    0    0    0  0.00000000000E+00  0.00000000000E+00  0.74505805969E-08  0.10566000000E+00  0.10566000000E+00 0.  1.
     999900   -1    0    0    0    0 -0.00000000000E+00 -0.00000000000E+00 -0.74505805969E-08  0.93827000000E+00  0.93827000000E+00 0.  1.
     999902    2    1    2    0    0  0.16172793619E-01  0.19105849249E-01  0.59439600672E-02  0.10182021281E+01  0.10178770311E+01 0.  0.
     999903    2    3    3    0    0 -0.50227716968E-02  0.61883944907E-01  0.11356488867E+00  0.13036121800E+00  0.15563172750E-01 0.  0.
         14    1    1    2    0    0 -0.16172793619E-01 -0.19105849249E-01 -0.59439600672E-02  0.25727871856E-01  0.00000000000E+00 0. -1.
     999901    1    3    3    0    0  0.21195565316E-01 -0.42778095658E-01 -0.10762092860E+00  0.88784091015E+00  0.88000000000E+00 0.  1.
        -11    1    4    4    0    0  0.30266286276E-02  0.28181482497E-01  0.62730986376E-01  0.68838900407E-01  0.51100000000E-03 0.  1.
         11    1    4    4    0    0 -0.80494003244E-02  0.33702462410E-01  0.50833902295E-01  0.61522317590E-01  0.51100000000E-03 0. -1.
</event>
<event>
 8    1  0.1052028E+005  0.1043930E+01  0.7957747E-01            NaN
         13   -1    0    0    0    0  0.00000000000E+00  0.00000000000E+00  0.74505805969E-08  0.10566000000E+00  0.10566000000E+00 0. -1.
     999900   -1    0    0    0    0 -0.00000000000E+00 -0.00000000000E+00 -0.74505805969E-08  0.93827000000E+00  0.93827000000E+00 0. -1.
     999902    2    1    2    0    0  0.18986077074E-01 -0.11393735256E-01  0.11218230220E-01  0.10191078926E+01  0.10188055554E+01 0.  0.
     999903    2    3    3    0    0  0.26645053801E-01 -0.53845979184E-01  0.11572504790E+00  0.13187481846E+00  0.19731514527E-01 0.  0.
         14    1    1    2    0    0 -0.18986077074E-01  0.11393735256E-01 -0.11218230220E-01  0.24822107384E-01  0.00000000000E+00 0. -1.
     999901    1    3    3    0    0 -0.76589767275E-02  0.42452243928E-01 -0.10450681768E+00  0.88723307416E+00  0.88000000000E+00 0. -1.
        -11    1    4    4    0    0  0.15704238903E-02 -0.14297926835E-01  0.14961030119E-01  0.20760310359E-01  0.51100000000E-03 0.  1.
         11    1    4    4    0    0  0.25074629911E-01 -0.39548052349E-01  0.10076401778E+00  0.11111450810E+00  0.51100000000E-03 0. -1.
</event>
<event>
 8    1  0.1052028E+005  0.1043930E+01  0.7957747E-01            NaN
         13   -1    0    0    0    0  0.00000000000E+00  0.00000000000E+00  0.74505805969E-08  0.10566000000E+00  0.10566000000E+00 0. -1.
     999900   -1    0    0    0    0 -0.00000000000E+00 -0.00000000000E+00 -0.74505805969E-08  0.93827000000E+00  0.93827000000E+00 0.  1.
     999902    2    1    2    0    0 -0.90488985161E-02 -0.89316170211E-02 -0.20052903080E-01  0.10201860477E+01  0.10199097003E+01 0.  0.
     999903    2    3    3    0    0 -0.75756417519E-01  0.20561796457E-01 -0.10547224229E+00  0.13304670241E+00  0.20376674380E-01 0.  0.
         14    1    1    2    0    0  0.90488985161E-02  0.89316170211E-02  0.20052903080E-01  0.23743952260E-01  0.00000000000E+00 0. -1.
     999901    1    3    3    0    0  0.66707519003E-01 -0.29493413478E-01  0.85419339208E-01  0.88713934533E+00  0.88000000000E+00 0. -1.
        -11    1    4    4    0    0 -0.67678034554E-02  0.86439745853E-02 -0.16626025946E-01  0.19930060713E-01  0.51100000000E-03 0.  1.
         11    1    4    4    0    0 -0.68988614064E-01  0.11917821872E-01 -0.88846216342E-01  0.11311664169E+00  0.51100000000E-03 0. -1.
</event>
<event>
 8    1  0.1052028E+005  0.1043930E+01  0.7957747E-01            NaN
         13   -1    0    0    0    0  0.00000000000E+00  0.00000000000E+00  0.74505805969E-08  0.10566000000E+00  0.10566000000E+00 0. -1.
     999900   -1    0    0    0    0 -0.00000000000E+00 -0.00000000000E+00 -0.74505805969E-08  0.93827000000E+00  0.93827000000E+00 0. -1.
     999902    2    1    2    0    0 -0.16902886394E-01  0.11872951505E-01 -0.12515885699E-01  0.10197779413E+01  0.10194918968E+01 0.  0.
     999903    2    3    3    0    0 -0.42880903694E-01  0.55223573546E-01 -0.11114280114E+00  0.13282732130E+00  0.20048941702E-01 0.  0.
         14    1    1    2    0    0  0.16902886394E-01 -0.11872951505E-01  0.12515885699E-01  0.24152058727E-01  0.00000000000E+00 0.  1.
     999901    1    3    3    0    0  0.25978017299E-01 -0.43350622041E-01  0.98626915439E-01  0.88695061997E+00  0.88000000000E+00 0.  1.
        -11    1    4    4    0    0 -0.21322698097E-01  0.18604466606E-01 -0.30089051412E-01  0.41308543519E-01  0.51100000000E-03 0.  1.
         11    1    4    4    0    0 -0.21558205597E-01  0.36619106940E-01 -0.81053749726E-01  0.91518777785E-01  0.51100000000E-03 0. -1.
</event>
<event>
 8    1  0.1052028E+005  0.1043930E+01  0.7957747E-01            NaN
         13   -1    0    0    0    0  0.00000000000E+00  0.00000000000E+00  0.74505805969E-08  0.10566000000E+00  0.10566000000E+00 0. -1.
     999900   -1    0    0    0    0 -0.00000000000E+00 -0.00000000000E+00 -0.74505805969E-08  0.93827000000E+00  0.93827000000E+00 0. -1.
     999902    2    1    2    0    0 -0.14976905110E-01  0.15937443563E-01 -0.58172070484E-02  0.10212992755E+01  0.10210485103E+01 0.  0.
     999903    2    3    3    0    0 -0.64518788709E-01  0.85561732440E-01 -0.78235079783E-01  0.13419934418E+00  0.20130874703E-01 0.  0.
         14    1    1    2    0    0  0.14976905110E-01 -0.15937443563E-01  0.58172070484E-02  0.22630724510E-01  0.00000000000E+00 0.  1.
     999901    1    3    3    0    0  0.49541883598E-01 -0.69624288877E-01  0.72417872734E-01  0.88709993131E+00  0.88000000000E+00 0.  1.
        -11    1    4    4    0    0 -0.32371198370E-01  0.54414586794E-01 -0.36990682497E-01  0.73330849254E-01  0.51100000000E-03 0. -1.
         11    1    4    4    0    0 -0.32147590339E-01  0.31147145646E-01 -0.41244397286E-01  0.60868494929E-01  0.51100000000E-03 0.  1.
</event>
<event>
 8    1  0.1052028E+005  0.1043930E+01  0.7957747E-01            NaN
         13   -1    0    0    0    0  0.00000000000E+00  0.00000000000E+00  0.74505805969E-08  0.10566000000E+00  0.10566000000E+00 0.  1.
     999900   -1    0    0    0    0 -0.00000000000E+00 -0.00000000000E+00 -0.74505805969E-08  0.93827000000E+00  0.93827000000E+00 0.  1.
     999902    2    1    2    0    0 -0.86056197888E-02  0.16834658695E-01 -0.18456789255E-01  0.10175081247E+01  0.10171650153E+01 0.  0.
     999903    2    3    3    0    0  0.65370845491E-01 -0.59890166966E-01 -0.90491798155E-01  0.12815540569E+00  0.19361377387E-01 0.  0.
         14    1    1    2    0    0  0.86056197888E-02 -0.16834658695E-01  0.18456789255E-01  0.26421875311E-01  0.00000000000E+00 0.  1.
     999901    1    3    3    0    0 -0.73976465279E-01  0.76724825661E-01  0.72035008900E-01  0.88935271900E+00  0.88000000000E+00 0. -1.
        -11    1    4    4    0    0  0.10477173951E-01 -0.40882342481E-02 -0.19310796899E-01  0.22352915496E-01  0.51100000000E-03 0. -1.
         11    1    4    4    0    0  0.54893671539E-01 -0.55801932718E-01 -0.71181001256E-01  0.10580249019E+00  0.51100000000E-03 0.  1.
</event>
<event>
 8    1  0.1052028E+005  0.1043930E+01  0.7957747E-01            NaN
         13   -1    0    0    0    0  0.00000000000E+00  0.00000000000E+00  0.74505805969E-08  0.10566000000E+00  0.10566000000E+00 0. -1.
     999900   -1    0    0    0    0 -0.00000000000E+00 -0.00000000000E+00 -0.74505805969E-08  0.93827000000E+00  0.93827000000E+00 0. -1.
     999902    2    1    2    0    0 -0.17680419163E-01  0.23101328782E-02 -0.15923817765E-01  0.10200238939E+01  0.10197437140E+01 0.  0.
     999903    2    3    3    0    0  0.53359247013E-01 -0.10636300213E+00  0.44052953450E-01  0.12847821504E+00  0.20141786620E-01 0.  0.
         14    1    1    2    0    0  0.17680419163E-01 -0.23101328782E-02  0.15923817765E-01  0.23906106080E-01  0.00000000000E+00 0.  1.
     999901    1    3    3    0    0 -0.71039666176E-01  0.10867313501E+00 -0.59976771215E-01  0.89154567888E+00  0.88000000000E+00 0. -1.
        -11    1    4    4    0    0  0.37915900604E-01 -0.74065367937E-01  0.20740300404E-01  0.85753807076E-01  0.51100000000E-03 0.  1.
         11    1    4    4    0    0  0.15443346409E-01 -0.32297634195E-01  0.23312653046E-01  0.42724407965E-01  0.51100000000E-03 0. -1.
</event>
<event>
 8    1  0.1052028E+005  0.1043930E+01  0.7957747E-01            NaN
         13   -1    0    0    0    0  0.00000000000E+00  0.00000000000E+00  0.74505805969E-08  0.10566000000E+00  0.10566000000E+00 0. -1.
     999900   -1    0    0    0    0 -0.00000000000E+00 -0.00000000000E+00 -0.74505805969E-08  0.93827000000E+00  0.93827000000E+00 0. -1.
     999902    2    1    2    0    0  0.64957664838E-03 -0.54793719446E-02 -0.23930757377E-01  0.10193713637E+01  0.10190754882E+01 0.  0.
     999903    2    3    3    0    0 -0.10371915295E+00  0.60494014512E-01  0.40258650101E-01  0.12843612508E+00  0.21398383991E-01 0.  0.
         14    1    1    2    0    0 -0.64957664838E-03  0.54793719446E-02  0.23930757377E-01  0.24558636269E-01  0.00000000000E+00 0. -1.
     999901    1    3    3    0    0  0.10436872960E+00 -0.65973386456E-01 -0.64189407478E-01  0.89093523865E+00  0.88000000000E+00 0.  1.
        -11    1    4    4    0    0 -0.49844942651E-01  0.17114966755E-01  0.19856846612E-01  0.56320474725E-01  0.51100000000E-03 0. -1.
         11    1    4    4    0    0 -0.53874210298E-01  0.43379047757E-01  0.20401803489E-01  0.72115650355E-01  0.51100000000E-03 0.  1.
</event>
<event>
 8    1  0.1052028E+005  0.1043930E+01  0.7957747E-01            NaN
         13   -1    0    0    0    0  0.00000000000E+00  0.00000000000E+00  0.74505805969E-08  0.10566000000E+00  0.10566000000E+00 0.  1.
     999900   -1    0    0    0    0 -0.00000000000E+00 -0.00000000000E+00 -0.74505805969E-08  0.93827000000E+00  0.93827000000E+00 0.  1.
     999902    2    1    2    0    0  0.11210753712E-01 -0.46017073709E-02  0.19795977804E-01  0.10207192816E+01  0.10204553466E+01 0.  0.
     999903    2    3    3    0    0 -0.88432521940E-01  0.67674670669E-01  0.65815650624E-01  0.13096062476E+00  0.20464930592E-01 0.  0.
         14    1    1    2    0    0 -0.11210753712E-01  0.46017073709E-02 -0.19795977804E-01  0.23210718359E-01  0.00000000000E+00 0. -1.
     999901    1    3    3    0    0  0.99643275652E-01 -0.72276378040E-01 -0.46019672820E-01  0.88975865688E+00  0.88000000000E+00 0.  1.
        -11    1    4    4    0    0 -0.46610743357E-01  0.42563556731E-01  0.27159575440E-01  0.68717693624E-01  0.51100000000E-03 0. -1.
         11    1    4    4    0    0 -0.41821778583E-01  0.25111113938E-01  0.38656075184E-01  0.62242931138E-01  0.51100000000E-03 0.  1.
</event>
<event>
 8    1  0.1052028E+005  0.1043930E+01  0.7957747E-01            NaN
         13   -1    0    0    0    0  0.00000000000E+00  0.00000000000E+00  0.74505805969E-08  0.10566000000E+00  0.10566000000E+00 0.  1.
     999900   -1    0    0    0    0 -0.00000000000E+00 -0.00000000000E+00 -0.74505805969E-08  0.93827000000E+00  0.93827000000E+00 0.  1.
     999902    2    1    2    0    0  0.12509875993E-01 -0.14201371332E-01  0.13606369724E-01  0.10206210051E+01  0.10203548044E+01 0.  0.
     999903    2    3    3    0    0 -0.49136113690E-01 -0.65691233687E-01 -0.98615487780E-01  0.12986560701E+00  0.20257482614E-01 0.  0.
         14    1    1    2    0    0 -0.12509875993E-01  0.14201371332E-01 -0.13606369724E-01  0.23308994876E-01  0.00000000000E+00 0. -1.
     999901    1    3    3    0    0  0.61645989684E-01  0.51489862355E-01  0.11222185750E+00  0.89075539812E+00  0.88000000000E+00 0. -1.
        -11    1    4    4    0    0 -0.34712132822E-01 -0.42219831909E-01 -0.50491496635E-01  0.74411684062E-01  0.51100000000E-03 0.  1.
         11    1    4    4    0    0 -0.14423980868E-01 -0.23471401777E-01 -0.48123991144E-01  0.55453922946E-01  0.51100000000E-03 0. -1.
</event>
<event>
 8    1  0.1052028E+005  0.1043930E+01  0.7957747E-01            NaN
         13   -1    0    0    0    0  0.00000000000E+00  0.00000000000E+00  0.74505805969E-08  0.10566000000E+00  0.10566000000E+00 0.  1.
     999900   -1    0    0    0    0 -0.00000000000E+00 -0.00000000000E+00 -0.74505805969E-08  0.93827000000E+00  0.93827000000E+00 0. -1.
     999902    2    1    2    0    0  0.67382698358E-02 -0.17527301616E-01  0.87586017272E-02  0.10232098724E+01  0.10230000583E+01 0.  0.
     999903    2    3    3    0    0  0.85993601515E-01  0.44156384299E-01  0.90033651287E-01  0.13377639072E+00  0.21103994257E-01 0.  0.
         14    1    1    2    0    0 -0.67382698358E-02  0.17527301616E-01 -0.87586017272E-02  0.20720127571E-01  0.00000000000E+00 0. -1.
     999901    1    3    3    0    0 -0.79255331679E-01 -0.61683685915E-01 -0.81275049560E-01  0.88943348171E+00  0.88000000000E+00 0. -1.
        -11    1    4    4    0    0  0.49074867546E-01  0.20212118641E-01  0.61924904845E-01  0.81558735435E-01  0.51100000000E-03 0. -1.
         11    1    4    4    0    0  0.36918733969E-01  0.23944265658E-01  0.28108746442E-01  0.52217655284E-01  0.51100000000E-03 0.  1.
</event>
<event>
 8    1  0.1052028E+005  0.1043930E+01  0.7957747E-01            NaN
         13   -1    0    0    0    0  0.00000000000E+00  0.00000000000E+00  0.74505805969E-08  0.10566000000E+00  0.10566000000E+00 0.  1.
     999900   -1    0    0    0    0 -0.00000000000E+00 -0.00000000000E+00 -0.74505805969E-08  0.93827000000E+00  0.93827000000E+00 0.  1.
     999902    2    1    2    0    0 -0.10735948748E-01 -0.20763643972E-01  0.35695476912E-02  0.10202840452E+01  0.10200100008E+01 0.  0.
     999903    2    3    3    0    0  0.20769666250E-01  0.26831524058E-01  0.12391520800E+00  0.13026102207E+00  0.21485934386E-01 0.  0.
         14    1    1    2    0    0  0.10735948748E-01  0.20763643972E-01 -0.35695476912E-02  0.23645954775E-01  0.00000000000E+00 0.  1.
     999901    1    3    3    0    0 -0.31505614998E-01 -0.47595168030E-01 -0.12034566031E+00  0.89002302316E+00  0.88000000000E+00 0.  1.
        -11    1    4    4    0    0  0.17006282305E-01  0.57323594432E-02  0.44042967951E-01  0.47561725469E-01  0.51100000000E-03 0.  1.
         11    1    4    4    0    0  0.37633839450E-02  0.21099164615E-01  0.79872240050E-01  0.82699296597E-01  0.51100000000E-03 0. -1.
</event>
<event>
 8    1  0.1052028E+005  0.1043930E+01  0.7957747E-01            NaN
         13   -1    0    0    0    0  0.00000000000E+00  0.00000000000E+00  0.74505805969E-08  0.10566000000E+00  0.10566000000E+00 0. -1.
     999900   -1    0    0    0    0 -0.00000000000E+00 -0.00000000000E+00 -0.74505805969E-08  0.93827000000E+00  0.93827000000E+00 0. -1.
     999902    2    1    2    0    0  0.64247051243E-02 -0.16438852871E-01  0.16380441479E-01  0.10198503077E+01  0.10195659952E+01 0.  0.
     999903    2    3    3    0    0  0.12188117769E+00  0.41305866920E-01  0.57232587183E-02  0.13036830939E+00  0.20048548206E-01 0.  0.
         14    1    1    2    0    0 -0.64247051243E-02  0.16438852871E-01 -0.16380441479E-01  0.24079692329E-01  0.00000000000E+00 0. -1.
     999901    1    3    3    0    0 -0.11545647257E+00 -0.57744719791E-01  0.10657182760E-01  0.88948199828E+00  0.88000000000E+00 0. -1.
        -11    1    4    4    0    0  0.44240353481E-01  0.23907616712E-01  0.71008160245E-02  0.50788440833E-01  0.51100000000E-03 0.  1.
         11    1    4    4    0    0  0.77640824211E-01  0.17398250208E-01 -0.13775573062E-02  0.79579868557E-01  0.51100000000E-03 0. -1.
</event>
<event>
 8    1  0.1052028E+005  0.1043930E+01  0.7957747E-01            NaN
         13   -1    0    0    0    0  0.00000000000E+00  0.00000000000E+00  0.74505805969E-08  0.10566000000E+00  0.10566000000E+00 0. -1.
     999900   -1    0    0    0    0 -0.00000000000E+00 -0.00000000000E+00 -0.74505805969E-08  0.93827000000E+00  0.93827000000E+00 0. -1.
     999902    2    1    2    0    0  0.50979641929E-02  0.24559983345E-01  0.25341424017E-02  0.10187188140E+01  0.10184068039E+01 0.  0.
     999903    2    3    3    0    0  0.70659312346E-01  0.80179959321E-01 -0.74266635653E-01  0.13119966966E+00  0.16620946095E-01 0.  0.
         14    1    1    2    0    0 -0.50979641929E-02 -0.24559983345E-01 -0.25341424017E-02  0.25211185980E-01  0.00000000000E+00 0.  1.
     999901    1    3    3    0    0 -0.65561348153E-01 -0.55619975976E-01  0.76800778055E-01  0.88751914436E+00  0.88000000000E+00 0. -1.
        -11    1    4    4    0    0  0.31575067651E-01  0.47775993977E-01 -0.42372520498E-01  0.71240593148E-01  0.51100000000E-03 0.  1.
         11    1    4    4    0    0  0.39084244696E-01  0.32403965343E-01 -0.31894115155E-01  0.59959076510E-01  0.51100000000E-03 0. -1.
</event>
<event>
 8    1  0.1052028E+005  0.1043930E+01  0.7957747E-01            NaN
         13   -1    0    0    0    0  0.00000000000E+00  0.00000000000E+00  0.74505805969E-08  0.10566000000E+00  0.10566000000E+00 0.  1.
     999900   -1    0    0    0    0 -0.00000000000E+00 -0.00000000000E+00 -0.74505805969E-08  0.93827000000E+00  0.93827000000E+00 0.  1.
     999902    2    1    2    0    0  0.15129610290E-01 -0.17779600486E-01 -0.89822228457E-02  0.10189160113E+01  0.10186089233E+01 0.  0.
     999903    2    3    3    0    0  0.72636649876E-01  0.10413051300E+00 -0.13821221828E-02  0.12862005106E+00  0.20541680324E-01 0.  0.
         14    1    1    2    0    0 -0.15129610290E-01  0.17779600486E-01  0.89822228457E-02  0.25013988651E-01  0.00000000000E+00 0. -1.
     999901    1    3    3    0    0 -0.57507039586E-01 -0.12191011349E+00 -0.76001006629E-02  0.89029596029E+00  0.88000000000E+00 0.  1.
        -11    1    4    4    0    0  0.51263530694E-01  0.56799712627E-01 -0.40015056364E-02  0.76618732057E-01  0.51100000000E-03 0. -1.
         11    1    4    4    0    0  0.21373119183E-01  0.47330800374E-01  0.26193834537E-02  0.52001319005E-01  0.51100000000E-03 0.  1.
</event>
<event>
 8    1  0.1052028E+005  0.1043930E+01  0.7957747E-01            NaN
         13   -1    0    0    0    0  0.00000000000E+00  0.00000000000E+00  0.74505805969E-08  0.10566000000E+00  0.10566000000E+00 0.  1.
     999900   -1    0    0    0    0 -0.00000000000E+00 -0.00000000000E+00 -0.74505805969E-08  0.93827000000E+00  0.93827000000E+00 0.  1.
     999902    2    1    2    0    0  0.47007721900E-02 -0.19199941973E-01  0.12701958060E-01  0.10204337286E+01  0.10201631829E+01 0.  0.
     999903    2    3    3    0    0  0.97869950252E-01  0.79443882085E-01 -0.19486591018E-01  0.12945269488E+00  0.22100122606E-01 0.  0.
         14    1    1    2    0    0 -0.47007721900E-02  0.19199941973E-01 -0.12701958060E-01  0.23496271395E-01  0.00000000000E+00 0.  1.
     999901    1    3    3    0    0 -0.93169178062E-01 -0.98643824057E-01  0.32188549078E-01  0.89098103372E+00  0.88000000000E+00 0. -1.
        -11    1    4    4    0    0  0.70233655271E-01  0.46780829641E-01 -0.60580323488E-02  0.84605988154E-01  0.51100000000E-03 0.  1.
         11    1    4    4    0    0  0.27636294981E-01  0.32663052444E-01 -0.13428558669E-01  0.44846706726E-01  0.51100000000E-03 0. -1.
</event>
<event>
 8    1  0.1052028E+005  0.1043930E+01  0.7957747E-01            NaN
         13   -1    0    0    0    0  0.00000000000E+00  0.00000000000E+00  0.74505805969E-08  0.10566000000E+00  0.10566000000E+00 0.  1.
     999900   -1    0    0    0    0 -0.00000000000E+00 -0.00000000000E+00 -0.74505805969E-08  0.93827000000E+00  0.93827000000E+00 0.  1.
     999902    2    1    2    0    0 -0.79368384198E-02 -0.12128351338E-01 -0.16013721075E-01  0.10223307043E+01  0.10221025093E+01 0.  0.
     999903    2    3    3    0    0  0.26913892939E-02  0.24945590909E-01  0.12591178426E+00  0.13012541099E+00  0.21197148109E-01 0.  0.
         14    1    1    2    0    0  0.79368384198E-02  0.12128351338E-01  0.16013721075E-01  0.21599295659E-01  0.00000000000E+00 0.  1.
     999901    1    3    3    0    0 -0.10628227714E-01 -0.37073942248E-01 -0.14192550533E+00  0.89220529335E+00  0.88000000000E+00 0.  1.
        -11    1    4    4    0    0  0.11091338765E-01  0.20088784148E-01  0.82027247890E-01  0.85178093202E-01  0.51100000000E-03 0. -1.
         11    1    4    4    0    0 -0.83999494709E-02  0.48568067618E-02  0.43884536369E-01  0.44947317789E-01  0.51100000000E-03 0.  1.
</event>
<event>
 8    1  0.1052028E+005  0.1043930E+01  0.7957747E-01            NaN
         13   -1    0    0    0    0  0.00000000000E+00  0.00000000000E+00  0.74505805969E-08  0.10566000000E+00  0.10566000000E+00 0.  1.
     999900   -1    0    0    0    0 -0.00000000000E+00 -0.00000000000E+00 -0.74505805969E-08  0.93827000000E+00  0.93827000000E+00 0. -1.
     999902    2    1    2    0    0 -0.44392737270E-03 -0.23393182888E-01 -0.46433381697E-02  0.10200763071E+01  0.10197973689E+01 0.  0.
     999903    2    3    3    0    0  0.11174867097E+00 -0.39037438703E-01  0.52600709409E-01  0.13097068744E+00  0.19359732857E-01 0.  0.
         14    1    1    2    0    0  0.44392737270E-03  0.23393182888E-01  0.46433381697E-02  0.23853692932E-01  0.00000000000E+00 0.  1.
     999901    1    3    3    0    0 -0.11219259834E+00  0.15644255815E-01 -0.57244047579E-01  0.88910561962E+00  0.88000000000E+00 0.  1.
        -11    1    4    4    0    0  0.65816994072E-01 -0.13913137658E-01  0.24866421355E-01  0.71722047797E-01  0.51100000000E-03 0.  1.
         11    1    4    4    0    0  0.45931676894E-01 -0.25124301045E-01  0.27734288054E-01  0.59248639648E-01  0.51100000000E-03 0. -1.
</event>
<event>
 8    1  0.1052028E+005  0.1043930E+01  0.7957747E-01            NaN
         13   -1    0    0    0    0  0.00000000000E+00  0.00000000000E+00  0.74505805969E-08  0.10566000000E+00  0.10566000000E+00 0.  1.
     999900   -1    0    0    0    0 -0.00000000000E+00 -0.00000000000E+00 -0.74505805969E-08  0.93827000000E+00  0.93827000000E+00 0. -1.
     999902    2    1    2    0    0 -0.63488162372E-02 -0.22011400959E-01 -0.10127373773E-01  0.10188825862E+01  0.10185746666E+01 0.  0.
     999903    2    3    3    0    0  0.27216869283E-01  0.12133271475E+00 -0.11692478574E-01  0.12665131554E+00  0.21010855058E-01 0.  0.
         14    1    1    2    0    0  0.63488162372E-02  0.22011400959E-01  0.10127373773E-01  0.25047413825E-01  0.00000000000E+00 0. -1.
     999901    1    3    3    0    0 -0.33565685520E-01 -0.14334411571E+00  0.15651048008E-02  0.89223127064E+00  0.88000000000E+00 0.  1.
        -11    1    4    4    0    0  0.16892662434E-01  0.79875751127E-01 -0.17597277509E-01  0.83518997593E-01  0.51100000000E-03 0.  1.
         11    1    4    4    0    0  0.10324206849E-01  0.41456963621E-01  0.59047989348E-02  0.43132317943E-01  0.51100000000E-03 0. -1.
</event>
<event>
 8    1  0.1052028E+005  0.1043930E+01  0.7957747E-01            NaN
         13   -1    0    0    0    0  0.00000000000E+00  0.00000000000E+00  0.74505805969E-08  0.10566000000E+00  0.10566000000E+00 0. -1.
     999900   -1    0    0    0    0 -0.00000000000E+00 -0.00000000000E+00 -0.74505805969E-08  0.93827000000E+00  0.93827000000E+00 0.  1.
     999902    2    1    2    0    0  0.23723907241E-01 -0.47382142353E-03 -0.35943998059E-02  0.10199306669E+01  0.10196482713E+01 0.  0.
     999903    2    3    3    0    0 -0.67289721602E-01  0.58559110924E-01  0.90167008323E-01  0.12832561449E+00  0.19501226632E-01 0.  0.
         14    1    1    2    0    0 -0.23723907241E-01  0.47382142353E-03  0.35943998059E-02  0.23999333147E-01  0.00000000000E+00 0.  1.
     999901    1    3    3    0    0  0.91013628843E-01 -0.59032932347E-01 -0.93761408129E-01  0.89160505236E+00  0.88000000000E+00 0.  1.
        -11    1    4    4    0    0 -0.39218714304E-01  0.38774785253E-01  0.67530835873E-01  0.87190976814E-01  0.51100000000E-03 0.  1.
         11    1    4    4    0    0 -0.28071007298E-01  0.19784325671E-01  0.22636172450E-01  0.41134637681E-01  0.51100000000E-03 0. -1.
</event>
<event>
 8    1  0.1052028E+005  0.1043930E+01  0.7957747E-01            NaN
         13   -1    0    0    0    0  0.00000000000E+00  0.00000000000E+00  0.74505805969E-08  0.10566000000E+00  0.10566000000E+00 0. -1.
     999900   -1    0    0    0    0 -0.00000000000E+00 -0.00000000000E+00 -0.74505805969E-08  0.93827000000E+00  0.93827000000E+00 0. -1.
     999902    2    1    2    0    0  0.56021959866E-02  0.22438158665E-02  0.22516731985E-01  0.10206185751E+01  0.10203523183E+01 0.  0.
     999903    2    3    3    0    0 -0.76594395986E-02  0.23161728320E-01  0.12990063600E+00  0.13374500305E+00  0.20455266684E-01 0.  0.
         14    1    1    2    0    0 -0.56021959866E-02 -0.22438158665E-02 -0.22516731985E-01  0.23311424855E-01  0.00000000000E+00 0.  1.
     999901    1    3    3    0    0  0.13261635585E-01 -0.20917912453E-01 -0.10738390401E+00  0.88687357209E+00  0.88000000000E+00 0. -1.
        -11    1    4    4    0    0 -0.12154666706E-01  0.16960925678E-01  0.62159358642E-01  0.65570236467E-01  0.51100000000E-03 0. -1.
         11    1    4    4    0    0  0.44952271076E-02  0.62008026423E-02  0.67741277353E-01  0.68174766583E-01  0.51100000000E-03 0.  1.
</event>
<event>
 8    1  0.1052028E+005  0.1043930E+01  0.7957747E-01            NaN
         13   -1    0    0    0    0  0.00000000000E+00  0.00000000000E+00  0.74505805969E-08  0.10566000000E+00  0.10566000000E+00 0. -1.
     999900   -1    0    0    0    0 -0.00000000000E+00 -0.00000000000E+00 -0.74505805969E-08  0.93827000000E+00  0.93827000000E+00 0. -1.
     999902    2    1    2    0    0  0.47783922464E-02 -0.56494176112E-02 -0.23577467320E-01  0.10192187492E+01  0.10189191395E+01 0.  0.
     999903    2    3    3    0    0 -0.57304126455E-01  0.11331422707E+00  0.42119178001E-02  0.12861286676E+00  0.19991305061E-01 0.  0.
         14    1    1    2    0    0 -0.47783922464E-02  0.56494176112E-02  0.23577467320E-01  0.24711250819E-01  0.00000000000E+00 0. -1.
     999901    1    3    3    0    0  0.62082518702E-01 -0.11896364468E+00 -0.27789385121E-01  0.89060588242E+00  0.88000000000E+00 0.  1.
        -11    1    4    4    0    0 -0.20303232698E-01  0.57461271058E-01  0.82057467461E-02  0.61494831736E-01  0.51100000000E-03 0. -1.
         11    1    4    4    0    0 -0.37000893758E-01  0.55852956013E-01 -0.39938289460E-02  0.67118035020E-01  0.51100000000E-03 0.  1.
</event>
<event>
 8    1  0.1052028E+005  0.1043930E+01  0.7957747E-01            NaN
         13   -1    0    0    0    0  0.00000000000E+00  0.00000000000E+00  0.74505805969E-08  0.10566000000E+00  0.10566000000E+00 0.  1.
     999900   -1    0    0    0    0 -0.00000000000E+00 -0.00000000000E+00 -0.74505805969E-08  0.93827000000E+00  0.93827000000E+00 0. -1.
     999902    2    1    2    0    0  0.96024420114E-03 -0.14760433765E-01  0.19115339764E-01  0.10197600044E+01  0.10194735297E+01 0.  0.
     999903    2    3    3    0    0  0.28491318224E-01  0.11301691695E+00 -0.48601728273E-01  0.12753211158E+00  0.17825059909E-01 0.  0.
         14    1    1    2    0    0 -0.96024420114E-03  0.14760433765E-01 -0.19115339764E-01  0.24169995618E-01  0.00000000000E+00 0. -1.
     999901    1    3    3    0    0 -0.27531074022E-01 -0.12777735072E+00  0.67717068037E-01  0.89222789280E+00  0.88000000000E+00 0.  1.
        -11    1    4    4    0    0  0.50101776520E-02  0.29415228597E-01 -0.46453441488E-02  0.30202614072E-01  0.51100000000E-03 0. -1.
         11    1    4    4    0    0  0.23481140571E-01  0.83601688356E-01 -0.43956384124E-01  0.97329497506E-01  0.51100000000E-03 0.  1.
</event>
<event>
 8    1  0.1052028E+005  0.1043930E+01  0.7957747E-01            NaN
         13   -1    0    0    0    0  0.00000000000E+00  0.00000000000E+00  0.74505805969E-08  0.10566000000E+00  0.10566000000E+00 0.  1.
     999900   -1    0    0    0    0 -0.00000000000E+00 -0.00000000000E+00 -0.74505805969E-08  0.93827000000E+00  0.93827000000E+00 0.  1.
     999902    2    1    2    0    0 -0.13590050994E-01 -0.17883885072E-01  0.83861629805E-02  0.10199539586E+01  0.10196721175E+01 0.  0.
     999903    2    3    3    0    0  0.64296980965E-01  0.84670681308E-01 -0.66563392793E-01  0.12742874062E+00  0.22453789030E-01 0.  0.
         14    1    1    2    0    0  0.13590050994E-01  0.17883885072E-01 -0.83861629805E-02  0.23976041391E-01  0.00000000000E+00 0. -1.
     999901    1    3    3    0    0 -0.77887031958E-01 -0.10255456638E+00  0.74949555773E-01  0.89252521799E+00  0.88000000000E+00 0. -1.
        -11    1    4    4    0    0  0.14989348074E-01  0.24543541525E-01 -0.73451307333E-02  0.29686327707E-01  0.51100000000E-03 0.  1.
         11    1    4    4    0    0  0.49307632891E-01  0.60127139784E-01 -0.59218262060E-01  0.97742412914E-01  0.51100000000E-03 0. -1.
</event>
<event>
 8    1  0.1052028E+005  0.1043930E+01  0.7957747E-01            NaN
         13   -1    0    0    0    0  0.00000000000E+00  0.00000000000E+00  0.74505805969E-08  0.10566000000E+00  0.10566000000E+00 0. -1.
     999900   -1    0    0    0    0 -0.00000000000E+00 -0.00000000000E+00 -0.74505805969E-08  0.93827000000E+00  0.93827000000E+00 0.  1.
     999902    2    1    2    0    0 -0.24883589616E-01  0.30270638701E-02  0.35101309441E-02  0.10186183986E+01  0.10183038666E+01 0.  0.
     999903    2    3    3    0    0 -0.20675150985E-01  0.85245378746E-01 -0.93217205824E-01  0.12949875536E+00  0.19653084045E-01 0.  0.
         14    1    1    2    0    0  0.24883589616E-01 -0.30270638701E-02 -0.35101309441E-02  0.25311601433E-01  0.00000000000E+00 0. -1.
     999901    1    3    3    0    0 -0.42084386311E-02 -0.82218314876E-01  0.96727336768E-01  0.88911964321E+00  0.88000000000E+00 0. -1.
        -11    1    4    4    0    0  0.33933601637E-02  0.61216408234E-02 -0.95770514452E-02  0.11873096267E-01  0.51100000000E-03 0. -1.
         11    1    4    4    0    0 -0.24068511149E-01  0.79123737922E-01 -0.83640154379E-01  0.11762565909E+00  0.51100000000E-03 0.  1.
</event>
<event>
 8    1  0.1052028E+005  0.1043930E+01  0.7957747E-01            NaN
         13   -1    0    0    0    0  0.00000000000E+00  0.00000000000E+00  0.74505805969E-08  0.10566000000E+00  0.10566000000E+00 0. -1.
     999900   -1    0    0    0    0 -0.00000000000E+00 -0.00000000000E+00 -0.74505805969E-08  0.93827000000E+00  0.93827000000E+00 0. -1.
     999902    2    1    2    0    0  0.17908248006E-01 -0.79212322716E-02 -0.13729740863E-01  0.10200143764E+01  0.10197339707E+01 0.  0.
     999903    2    3    3    0    0  0.31780829053E-01 -0.77317513529E-01  0.97818437690E-01  0.13015411295E+00  0.19586407824E-01 0.  0.
         14    1    1    2    0    0 -0.17908248006E-01  0.79212322716E-02  0.13729740863E-01  0.23915623586E-01  0.00000000000E+00 0. -1.
     999901    1    3    3    0    0 -0.13872581047E-01  0.69396281257E-01 -0.11154817855E+00  0.88986026347E+00  0.88000000000E+00 0. -1.
        -11    1    4    4    0    0 -0.27164029164E-02 -0.45061640664E-02  0.60828495214E-02  0.80589415371E-02  0.51100000000E-03 0. -1.
         11    1    4    4    0    0  0.34497231969E-01 -0.72811349463E-01  0.91735588169E-01  0.12209517141E+00  0.51100000000E-03 0.  1.
</event>
<event>
 8    1  0.1052028E+005  0.1043930E+01  0.7957747E-01            NaN
         13   -1    0    0    0    0  0.00000000000E+00  0.00000000000E+00  0.74505805969E-08  0.10566000000E+00  0.10566000000E+00 0.  1.
     999900   -1    0    0    0    0 -0.00000000000E+00 -0.00000000000E+00 -0.74505805969E-08  0.93827000000E+00  0.93827000000E+00 0. -1.
     999902    2    1    2    0    0  0.31538880397E-02  0.16804686283E-01  0.12875016356E-01  0.10225264831E+01  0.10223024494E+01 0.  0.
     999903    2    3    3    0    0  0.63727575650E-01  0.10941223688E+00 -0.39254291553E-01  0.13406556958E+00  0.20010898609E-01 0.  0.
         14    1    1    2    0    0 -0.31538880397E-02 -0.16804686283E-01 -0.12875016356E-01  0.21403516931E-01  0.00000000000E+00 0.  1.
     999901    1    3    3    0    0 -0.60573687611E-01 -0.92607550599E-01  0.52129307909E-01  0.88846091349E+00  0.88000000000E+00 0.  1.
        -11    1    4    4    0    0  0.48576884065E-01  0.97305625971E-01 -0.34368536471E-01  0.11405944034E+00  0.51100000000E-03 0. -1.
         11    1    4    4    0    0  0.15150691586E-01  0.12106610911E-01 -0.48857550818E-02  0.20006129236E-01  0.51100000000E-03 0.  1.
</event>
<event>
 8    1  0.1052028E+005  0.1043930E+01  0.7957747E-01            NaN
         13   -1    0    0    0    0  0.00000000000E+00  0.00000000000E+00  0.74505805969E-08  0.10566000000E+00  0.10566000000E+00 0. -1.
     999900   -1    0    0    0    0 -0.00000000000E+00 -0.00000000000E+00 -0.74505805969E-08  0.93827000000E+00  0.93827000000E+00 0. -1.
     999902    2    1    2    0    0 -0.59803101539E-02 -0.13321670167E-01  0.19822266940E-01  0.10193098198E+01  0.10190124413E+01 0.  0.
     999903    2    3    3    0    0  0.12602562568E+00 -0.17017973211E-01 -0.76643659843E-02  0.12903191672E+00  0.20455397524E-01 0.  0.
         14    1    1    2    0    0  0.59803101539E-02  0.13321670167E-01 -0.19822266940E-01  0.24620180182E-01  0.00000000000E+00 0.  1.
     999901    1    3    3    0    0 -0.13200593583E+00  0.36963030449E-02  0.27486632924E-01  0.89027790310E+00  0.88000000000E+00 0. -1.
        -11    1    4    4    0    0  0.71387231508E-01 -0.14463902415E-01 -0.13293166964E-01  0.74042627617E-01  0.51100000000E-03 0. -1.
         11    1    4    4    0    0  0.54638394168E-01 -0.25540707966E-02  0.56288009798E-02  0.54989289106E-01  0.51100000000E-03 0.  1.
</event>
<event>
 8    1  0.1052028E+005  0.1043930E+01  0.7957747E-01            NaN
         13   -1    0    0    0    0  0.00000000000E+00  0.00000000000E+00  0.74505805969E-08  0.10566000000E+00  0.10566000000E+00 0. -1.
     999900   -1    0    0    0    0 -0.00000000000E+00 -0.00000000000E+00 -0.74505805969E-08  0.93827000000E+00  0.93827000000E+00 0. -1.
     999902    2    1    2    0    0 -0.21332687730E-01  0.99320842862E-02  0.39275917238E-02  0.10200730127E+01  0.10197939966E+01 0.  0.
     999903    2    3    3    0    0 -0.13150841084E+00  0.50695187206E-02 -0.56636303536E-02  0.13313765656E+00  0.19323476482E-01 0.  0.
         14    1    1    2    0    0  0.21332687730E-01 -0.99320842862E-02 -0.39275917238E-02  0.23856987253E-01  0.00000000000E+00 0.  1.
     999901    1    3    3    0    0  0.11017572311E+00  0.48625655657E-02  0.95912220774E-02  0.88693535618E+00  0.88000000000E+00 0.  1.
        -11    1    4    4    0    0 -0.69994027157E-01  0.12323825309E-01 -0.33781518286E-02  0.71152747935E-01  0.51100000000E-03 0.  1.
         11    1    4    4    0    0 -0.61514383688E-01 -0.72543065884E-02 -0.22854785250E-02  0.61984908628E-01  0.51100000000E-03 0. -1.
</event>
<event>
 8    1  0.1052028E+005  0.1043930E+01  0.7957747E-01            NaN
         13   -1    0    0    0    0  0.00000000000E+00  0.00000000000E+00  0.74505805969E-08  0.10566000000E+00  0.10566000000E+00 0.  1.
     999900   -1    0    0    0    0 -0.00000000000E+00 -0.00000000000E+00 -0.74505805969E-08  0.93827000000E+00  0.93827000000E+00 0. -1.
     999902    2    1    2    0    0 -0.82549049518E-02 -0.18500013942E-01 -0.15316627028E-01  0.10185332869E+01  0.10182166093E+01 0.  0.
     999903    2    3    3    0    0 -0.55204450411E-01  0.17458374120E-01 -0.11592966046E+00  0.13082824132E+00  0.18000454986E-01 0.  0.
         14    1    1    2    0    0  0.82549049518E-02  0.18500013942E-01  0.15316627028E-01  0.25396713077E-01  0.00000000000E+00 0.  1.
     999901    1    3    3    0    0  0.46949545459E-01 -0.35958388062E-01  0.10061303344E+00  0.88770504560E+00  0.88000000000E+00 0.  1.
        -11    1    4    4    0    0 -0.45739738974E-01  0.66003984527E-02 -0.87776450848E-01  0.99200077750E-01  0.51100000000E-03 0.  1.
         11    1    4    4    0    0 -0.94647114374E-02  0.10857975667E-01 -0.28153209616E-01  0.31628163571E-01  0.51100000000E-03 0. -1.
</event>
<event>
 8    1  0.1052028E+005  0.1043930E+01  0.7957747E-01            NaN
         13   -1    0    0    0    0  0.00000000000E+00  0.00000000000E+00  0.74505805969E-08  0.10566000000E+00  0.10566000000E+00 0. -1.
     999900   -1    0    0    0    0 -0.00000000000E+00 -0.00000000000E+00 -0.74505805969E-08  0.93827000000E+00  0.93827000000E+00 0.  1.
     999902    2    1    2    0    0 -0.17279476257E-01 -0.13248140293E-01  0.10162838466E-01  0.10199013336E+01  0.10196182391E+01 0.  0.
     999903    2    3    3    0    0 -0.73586439772E-01 -0.22857877593E-02 -0.10600778050E+00  0.13041481884E+00  0.18713270749E-01 0.  0.
         14    1    1    2    0    0  0.17279476257E-01  0.13248140293E-01 -0.10162838466E-01  0.24028666351E-01  0.00000000000E+00 0.  1.
     999901    1    3    3    0    0  0.56306963515E-01 -0.10962352534E-01  0.11617061897E+00  0.88948651481E+00  0.88000000000E+00 0. -1.
        -11    1    4    4    0    0 -0.49750047000E-01  0.70979028893E-02 -0.73082803003E-01  0.88695008979E-01  0.51100000000E-03 0.  1.
         11    1    4    4    0    0 -0.23836392772E-01 -0.93836906486E-02 -0.32924977500E-01  0.41719809862E-01  0.51100000000E-03 0. -1.
</event>
<event>
 8    1  0.1052028E+005  0.1043930E+01  0.7957747E-01            NaN
         13   -1    0    0    0    0  0.00000000000E+00  0.00000000000E+00  0.74505805969E-08  0.10566000000E+00  0.10566000000E+00 0. -1.
     999900   -1    0    0    0    0 -0.00000000000E+00 -0.00000000000E+00 -0.74505805969E-08  0.93827000000E+00  0.93827000000E+00 0.  1.
     999902    2    1    2    0    0 -0.16749700690E-01 -0.22435221445E-02  0.16260259774E-01  0.10204783068E+01  0.10202087986E+01 0.  0.
     999903    2    3    3    0    0  0.11418856872E-02 -0.50526992356E-01 -0.11692381183E+00  0.12896868866E+00  0.20185738104E-01 0.  0.
         14    1    1    2    0    0  0.16749700690E-01  0.22435221445E-02 -0.16260259774E-01  0.23451693174E-01  0.00000000000E+00 0.  1.
     999901    1    3    3    0    0 -0.17891586377E-01  0.48283470212E-01  0.13318407160E+00  0.89150961817E+00  0.88000000000E+00 0. -1.
        -11    1    4    4    0    0  0.67220596780E-02 -0.42919419736E-01 -0.10580478929E+00  0.11437734581E+00  0.51100000000E-03 0.  1.
         11    1    4    4    0    0 -0.55801739907E-02 -0.76075726208E-02 -0.11119022531E-01  0.14591342844E-01  0.51100000000E-03 0. -1.
</event>
<event>
 8    1  0.1052028E+005  0.1043930E+01  0.7957747E-01            NaN
         13   -1    0    0    0    0  0.00000000000E+00  0.00000000000E+00  0.74505805969E-08  0.10566000000E+00  0.10566000000E+00 0. -1.
     999900   -1    0    0    0    0 -0.00000000000E+00 -0.00000000000E+00 -0.74505805969E-08  0.93827000000E+00  0.93827000000E+00 0. -1.
     999902    2    1    2    0    0 -0.73217324530E-02 -0.23485522643E-01 -0.14356354790E-03  0.10193292246E+01  0.10190323204E+01 0.  0.
     999903    2    3    3    0    0 -0.83887498681E-01 -0.59871655666E-01 -0.79116684908E-01  0.13173527400E+00  0.21748678090E-01 0.  0.
         14    1    1    2    0    0  0.73217324530E-02  0.23485522643E-01  0.14356354790E-03  0.24600775403E-01  0.00000000000E+00 0.  1.
     999901    1    3    3    0    0  0.76565766228E-01  0.36386133023E-01  0.78973121360E-01  0.88759395059E+00  0.88000000000E+00 0. -1.
        -11    1    4    4    0    0 -0.54601784701E-01 -0.41253321011E-01 -0.39306961287E-01  0.78920781253E-01  0.51100000000E-03 0.  1.
         11    1    4    4    0    0 -0.29285713980E-01 -0.18618334655E-01 -0.39809723621E-01  0.52814492750E-01  0.51100000000E-03 0. -1.
</event>
<event>
 8    1  0.1052028E+005  0.1043930E+01  0.7957747E-01            NaN
         13   -1    0    0    0    0  0.00000000000E+00  0.00000000000E+00  0.74505805969E-08  0.10566000000E+00  0.10566000000E+00 0.  1.
     999900   -1    0    0    0    0 -0.00000000000E+00 -0.00000000000E+00 -0.74505805969E-08  0.93827000000E+00  0.93827000000E+00 0.  1.
     999902    2    1    2    0    0  0.21470547188E-02  0.23502959399E-01  0.12554837430E-02  0.10202958048E+01  0.10200220361E+01 0.  0.
     999903    2    3    3    0    0  0.60144700019E-01  0.30574316407E-01 -0.11091889590E+00  0.13125316103E+00  0.19292927410E-01 0.  0.
         14    1    1    2    0    0 -0.21470547188E-02 -0.23502959399E-01 -0.12554837430E-02  0.23634195224E-01  0.00000000000E+00 0.  1.
     999901    1    3    3    0    0 -0.57997645300E-01 -0.70713570089E-02  0.11217437965E+00  0.88904264375E+00  0.88000000000E+00 0. -1.
        -11    1    4    4    0    0  0.78019072495E-02 -0.17173567414E-02 -0.77473368662E-02  0.11140081706E-01  0.51100000000E-03 0. -1.
         11    1    4    4    0    0  0.52342792770E-01  0.32291673149E-01 -0.10317155904E+00  0.12011307932E+00  0.51100000000E-03 0.  1.
</event>
<event>
 8    1  0.1052028E+005  0.1043930E+01  0.7957747E-01            NaN
         13   -1    0    0    0    0  0.00000000000E+00  0.00000000000E+00  0.74505805969E-08  0.10566000000E+00  0.10566000000E+00 0. -1.
     999900   -1    0    0    0    0 -0.00000000000E+00 -0.00000000000E+00 -0.74505805969E-08  0.93827000000E+00  0.93827000000E+00 0. -1.
     999902    2    1    2    0    0  0.57048219174E-02  0.21539977870E-01 -0.12450672671E-03  0.10216470213E+01  0.10214039871E+01 0.  0.
     999903    2    3    3    0    0  0.23954571572E-01  0.12985382912E+00 -0.16671676672E-01  0.13466407183E+00  0.20509241876E-01 0.  0.
         14    1    1    2    0    0 -0.57048219174E-02 -0.21539977870E-01  0.12450672671E-03  0.22282978744E-01  0.00000000000E+00 0.  1.
     999901    1    3    3    0    0 -0.18249749654E-01 -0.10831385125E+00  0.16547169945E-01  0.88698294942E+00  0.88000000000E+00 0.  1.
        -11    1    4    4    0    0  0.10976883066E-01  0.37297054862E-01 -0.13457682732E-01  0.41145262288E-01  0.51100000000E-03 0. -1.
         11    1    4    4    0    0  0.12977688505E-01  0.92556774261E-01 -0.32139939399E-02  0.93518809545E-01  0.51100000000E-03 0.  1.
</event>
<event>
 8    1  0.1052028E+005  0.1043930E+01  0.7957747E-01            NaN
         13   -1    0    0    0    0  0.00000000000E+00  0.00000000000E+00  0.74505805969E-08  0.10566000000E+00  0.10566000000E+00 0.  1.
     999900   -1    0    0    0    0 -0.00000000000E+00 -0.00000000000E+00 -0.74505805969E-08  0.93827000000E+00  0.93827000000E+00 0.  1.
     999902    2    1    2    0    0 -0.13802128974E-01 -0.16449200157E-01 -0.11047858386E-01  0.10197819126E+01  0.10194959633E+01 0.  0.
     999903    2    3    3    0    0 -0.35123896599E-01 -0.12658669900E+00 -0.49943708643E-02  0.13263957276E+00  0.17619081885E-01 0.  0.
         14    1    1    2    0    0  0.13802128974E-01  0.16449200157E-01  0.11047858386E-01  0.24148087397E-01  0.00000000000E+00 0.  1.
     999901    1    3    3    0    0  0.21321767625E-01  0.11013749884E+00 -0.60534875214E-02  0.88714233984E+00  0.88000000000E+00 0.  1.
        -11    1    4    4    0    0 -0.21540941964E-01 -0.58198367867E-01  0.47284121854E-02  0.62238904279E-01  0.51100000000E-03 0. -1.
         11    1    4    4    0    0 -0.13582954635E-01 -0.68388331133E-01 -0.97227830496E-02  0.70400668484E-01  0.51100000000E-03 0.  1.
</event>
<event>
 8    1  0.1052028E+005  0.1043930E+01  0.7957747E-01            NaN
         13   -1    0    0    0    0  0.00000000000E+00  0.00000000000E+00  0.74505805969E-08  0.10566000000E+00  0.10566000000E+00 0. -1.
     999900   -1    0    0    0    0 -0.00000000000E+00 -0.00000000000E+00 -0.74505805969E-08  0.93827000000E+00  0.93827000000E+00 0.  1.
     999902    2    1    2    0    0  0.80850076116E-03  0.88118709793E-02 -0.21182466020E-01  0.10209735279E+01  0.10207154085E+01 0.  0.
     999903    2    3    3    0    0  0.12577162066E+00  0.19059435598E-01 -0.28581704380E-01  0.13205534122E+00  0.20974667337E-01 0.  0.
         14    1    1    2    0    0 -0.80850076116E-03 -0.88118709793E-02  0.21182466020E-01  0.22956472080E-01  0.00000000000E+00 0. -1.
     999901    1    3    3    0    0 -0.12496311990E+00 -0.10247564619E-01  0.73992383596E-02  0.88891818670E+00  0.88000000000E+00 0.  1.
        -11    1    4    4    0    0  0.62965310920E-01  0.18312762394E-01 -0.85823949494E-02  0.66135514437E-01  0.51100000000E-03 0. -1.
         11    1    4    4    0    0  0.62806309744E-01  0.74667320425E-03 -0.19999309431E-01  0.65919826784E-01  0.51100000000E-03 0.  1.
</event>
<event>
 8    1  0.1052028E+005  0.1043930E+01  0.7957747E-01            NaN
         13   -1    0    0    0    0  0.00000000000E+00  0.00000000000E+00  0.74505805969E-08  0.10566000000E+00  0.10566000000E+00 0.  1.
     999900   -1    0    0    0    0 -0.00000000000E+00 -0.00000000000E+00 -0.74505805969E-08  0.93827000000E+00  0.93827000000E+00 0.  1.
     999902    2    1    2    0    0  0.55505966014E-02  0.19534943990E-01 -0.10999544384E-01  0.10208342615E+01  0.10205729647E+01 0.  0.
     999903    2    3    3    0    0  0.96858159133E-01 -0.84382173306E-01  0.34358164753E-03  0.12995575984E+00  0.19660297691E-01 0.  0.
         14    1    1    2    0    0 -0.55505966014E-02 -0.19534943990E-01  0.10999544384E-01  0.23095738480E-01  0.00000000000E+00 0.  1.
     999901    1    3    3    0    0 -0.91307562532E-01  0.10391711730E+00 -0.11343126031E-01  0.89087850168E+00  0.88000000000E+00 0.  1.
        -11    1    4    4    0    0  0.59567579408E-01 -0.40322595745E-01  0.45563230017E-02  0.72077940068E-01  0.51100000000E-03 0. -1.
         11    1    4    4    0    0  0.37290579725E-01 -0.44059577561E-01 -0.42127413541E-02  0.57877819774E-01  0.51100000000E-03 0.  1.
</event>
<event>
 8    1  0.1052028E+005  0.1043930E+01  0.7957747E-01            NaN
         13   -1    0    0    0    0  0.00000000000E+00  0.00000000000E+00  0.74505805969E-08  0.10566000000E+00  0.10566000000E+00 0. -1.
     999900   -1    0    0    0    0 -0.00000000000E+00 -0.00000000000E+00 -0.74505805969E-08  0.93827000000E+00  0.93827000000E+00 0.  1.
     999902    2    1    2    0    0 -0.15113050524E-01  0.12853155892E-01  0.13047542043E-01  0.10201845527E+01  0.10199081701E+01 0.  0.
     999903    2    3    3    0    0  0.10074009095E+00 -0.72895028357E-01 -0.21555012152E-01  0.12778775856E+00  0.20070914436E-01 0.  0.
         14    1    1    2    0    0  0.15113050524E-01 -0.12853155892E-01 -0.13047542043E-01  0.23745447267E-01  0.00000000000E+00 0.  1.
     999901    1    3    3    0    0 -0.11585314147E+00  0.85748184248E-01  0.34602554195E-01  0.89239679417E+00  0.88000000000E+00 0.  1.
        -11    1    4    4    0    0  0.20888603537E-01 -0.12463405351E-01  0.34440114656E-02  0.24572190921E-01  0.51100000000E-03 0.  1.
         11    1    4    4    0    0  0.79851487410E-01 -0.60431623006E-01 -0.24999023618E-01  0.10321556764E+00  0.51100000000E-03 0. -1.
</event>
<event>
 8    1  0.1052028E+005  0.1043930E+01  0.7957747E-01            NaN
         13   -1    0    0    0    0  0.00000000000E+00  0.00000000000E+00  0.74505805969E-08  0.10566000000E+00  0.10566000000E+00 0.  1.
     999900   -1    0    0    0    0 -0.00000000000E+00 -0.00000000000E+00 -0.74505805969E-08  0.93827000000E+00  0.93827000000E+00 0. -1.
     999902    2    1    2    0    0 -0.22489805172E-01 -0.11903230197E-03 -0.13758723670E-02  0.10213978334E+01  0.10211492720E+01 0.  0.
     999903    2    3    3    0    0 -0.61724925427E-01  0.31188245081E-01  0.11152828709E+00  0.13276580076E+00  0.20137675624E-01 0.  0.
         14    1    1    2    0    0  0.22489805172E-01  0.11903230197E-03  0.13758723670E-02  0.22532166565E-01  0.00000000000E+00 0. -1.
     999901    1    3    3    0    0  0.39235120256E-01 -0.31307277383E-01 -0.11290415946E+00  0.88863203268E+00  0.88000000000E+00 0. -1.
        -11    1    4    4    0    0 -0.22662011638E-01  0.31156348331E-02  0.47053573716E-01  0.52321829788E-01  0.51100000000E-03 0.  1.
         11    1    4    4    0    0 -0.39062913790E-01  0.28072610248E-01  0.64474713372E-01  0.80443970969E-01  0.51100000000E-03 0. -1.
</event>
<event>
 8    1  0.1052028E+005  0.1043930E+01  0.7957747E-01            NaN
         13   -1    0    0    0    0  0.00000000000E+00  0.00000000000E+00  0.74505805969E-08  0.10566000000E+00  0.10566000000E+00 0. -1.
     999900   -1    0    0    0    0 -0.00000000000E+00 -0.00000000000E+00 -0.74505805969E-08  0.93827000000E+00  0.93827000000E+00 0. -1.
     999902    2    1    2    0    0 -0.23674600551E-01  0.19226379794E-02  0.44063059259E-02  0.10197722108E+01  0.10194860289E+01 0.  0.
     999903    2    3    3    0    0  0.87032533587E-01  0.84442018927E-01 -0.35789272938E-01  0.12809895093E+00  0.20575536633E-01 0.  0.
         14    1    1    2    0    0  0.23674600551E-01 -0.19226379794E-02 -0.44063059259E-02  0.24157789219E-01  0.00000000000E+00 0. -1.
     999901    1    3    3    0    0 -0.11070713414E+00 -0.82519380947E-01  0.40195578863E-01  0.89167325986E+00  0.88000000000E+00 0. -1.
        -11    1    4    4    0    0  0.68543158531E-01  0.76544019114E-01 -0.32138128251E-01  0.10765812488E+00  0.51100000000E-03 0. -1.
         11    1    4    4    0    0  0.18489375057E-01  0.78979998128E-02 -0.36511446861E-02  0.20440826049E-01  0.51100000000E-03 0.  1.
</event>
<event>
 8    1  0.1052028E+005  0.1043930E+01  0.7957747E-01            NaN
         13   -1    0    0    0    0  0.00000000000E+00  0.00000000000E+00  0.74505805969E-08  0.10566000000E+00  0.10566000000E+00 0.  1.
     999900   -1    0    0    0    0 -0.00000000000E+00 -0.00000000000E+00 -0.74505805969E-08  0.93827000000E+00  0.93827000000E+00 0.  1.
     999902    2    1    2    0    0 -0.20720650940E-01 -0.10170248298E-01 -0.11767453305E-02  0.10208180106E+01  0.10205563417E+01 0.  0.
     999903    2    3    3    0    0 -0.11262571712E+00 -0.21806366699E-01 -0.65451604683E-01  0.13362400812E+00  0.20282830287E-01 0.  0.
         14    1    1    2    0    0  0.20720650940E-01  0.10170248298E-01  0.11767453305E-02  0.23111989429E-01  0.00000000000E+00 0.  1.
     999901    1    3    3    0    0  0.91905066182E-01  0.11636118401E-01  0.64274859353E-01  0.88719400245E+00  0.88000000000E+00 0. -1.
        -11    1    4    4    0    0 -0.62593679494E-01 -0.28984988644E-02 -0.40422931164E-01  0.74569729068E-01  0.51100000000E-03 0. -1.
         11    1    4    4    0    0 -0.50032037627E-01 -0.18907867834E-01 -0.25028673519E-01  0.59054279052E-01  0.51100000000E-03 0.  1.
</event>
<event>
 8    1  0.1052028E+005  0.1043930E+01  0.7957747E-01            NaN
         13   -1    0    0    0    0  0.00000000000E+00  0.00000000000E+00  0.74505805969E-08  0.10566000000E+00  0.10566000000E+00 0.  1.
     999900   -1    0    0    0    0 -0.00000000000E+00 -0.00000000000E+00 -0.74505805969E-08  0.93827000000E+00  0.93827000000E+00 0. -1.
     999902    2    1    2    0    0 -0.18941190829E-01 -0.13918293456E-01 -0.90493861322E-04  0.10204247710E+01  0.10201540165E+01 0.  0.
     999903    2    3    3    0    0  0.64500198998E-01  0.60014523746E-01 -0.91664642958E-01  0.12867685155E+00  0.19831959705E-01 0.  0.
         14    1    1    2    0    0  0.18941190829E-01  0.13918293456E-01  0.90493861322E-04  0.23505229033E-01  0.00000000000E+00 0. -1.
     999901    1    3    3    0    0 -0.83441389827E-01 -0.73932817203E-01  0.91574149097E-01  0.89174791941E+00  0.88000000000E+00 0. -1.
        -11    1    4    4    0    0  0.34061804382E-01  0.28371508970E-01 -0.32364172081E-01  0.54889432448E-01  0.51100000000E-03 0.  1.
         11    1    4    4    0    0  0.30438394616E-01  0.31643014777E-01 -0.59300470878E-01  0.73787419106E-01  0.51100000000E-03 0. -1.
</event>
<event>
 8    1  0.1052028E+005  0.1043930E+01  0.7957747E-01            NaN
         13   -1    0    0    0    0  0.00000000000E+00  0.00000000000E+00  0.74505805969E-08  0.10566000000E+00  0.10566000000E+00 0. -1.
     999900   -1    0    0    0    0 -0.00000000000E+00 -0.00000000000E+00 -0.74505805969E-08  0.93827000000E+00  0.93827000000E+00 0.  1.
     999902    2    1    2    0    0  0.22377337197E-02  0.12465831038E-01 -0.45861776071E-02  0.10304601292E+01  0.10303720883E+01 0.  0.
     999903    2    3    3    0    0 -0.67650957245E-01 -0.11846742772E+00  0.10596664846E-01  0.13790286708E+00  0.17138494544E-01 0.  0.
         14    1    1    2    0    0 -0.22377337197E-02 -0.12465831038E-01  0.45861776071E-02  0.13469870850E-01  0.00000000000E+00 0. -1.
     999901    1    3    3    0    0  0.69888690965E-01  0.13093325876E+00 -0.15182842453E-01  0.89255726207E+00  0.88000000000E+00 0. -1.
        -11    1    4    4    0    0 -0.36444180101E-01 -0.67447390661E-01 -0.23779221536E-02  0.76702310298E-01  0.51100000000E-03 0.  1.
         11    1    4    4    0    0 -0.31206777144E-01 -0.51020037060E-01  0.12974587000E-01  0.61200556780E-01  0.51100000000E-03 0. -1.
</event>
<event>
 8    1  0.1052028E+005  0.1043930E+01  0.7957747E-01            NaN
         13   -1    0    0    0    0  0.00000000000E+00  0.00000000000E+00  0.74505805969E-08  0.10566000000E+00  0.10566000000E+00 0.  1.
     999900   -1    0    0    0    0 -0.00000000000E+00 -0.00000000000E+00 -0.74505805969E-08  0.93827000000E+00  0.93827000000E+00 0. -1.
     999902    2    1    2    0    0 -0.27178231439E-02  0.15516171792E-01 -0.16313445298E-01  0.10212525520E+01  0.10210007387E+01 0.  0.
     999903    2    3    3    0    0  0.29864179716E-01 -0.36452234643E-01 -0.12238571682E+00  0.13276303099E+00  0.20666980361E-01 0.  0.
         14    1    1    2    0    0  0.27178231439E-02 -0.15516171792E-01  0.16313445298E-01  0.22677447987E-01  0.00000000000E+00 0.  1.
     999901    1    3    3    0    0 -0.32582002860E-01  0.51968406435E-01  0.10607227152E+00  0.88848952102E+00  0.88000000000E+00 0.  1.
        -11    1    4    4    0    0  0.67091847901E-02 -0.13300878130E-01 -0.18051981445E-01  0.23410717090E-01  0.51100000000E-03 0.  1.
         11    1    4    4    0    0  0.23154994926E-01 -0.23151356512E-01 -0.10433373537E+00  0.10935231390E+00  0.51100000000E-03 0. -1.
</event>
<event>
 8    1  0.1052028E+005  0.1043930E+01  0.7957747E-01            NaN
         13   -1    0    0    0    0  0.00000000000E+00  0.00000000000E+00  0.74505805969E-08  0.10566000000E+00  0.10566000000E+00 0. -1.
     999900   -1    0    0    0    0 -0.00000000000E+00 -0.00000000000E+00 -0.74505805969E-08  0.93827000000E+00  0.93827000000E+00 0.  1.
     999902    2    1    2    0    0 -0.31239725890E-02 -0.17799062128E-01  0.17026068054E-01  0.10191015323E+01  0.10187990382E+01 0.  0.
     999903    2    3    3    0    0  0.56994607773E-01 -0.10876048478E+00  0.44214593085E-01  0.13195586213E+00  0.19498485703E-01 0.  0.
         14    1    1    2    0    0  0.31239725890E-02  0.17799062128E-01 -0.17026068054E-01  0.24828467749E-01  0.00000000000E+00 0. -1.
     999901    1    3    3    0    0 -0.60118580362E-01  0.90961422652E-01 -0.27188525031E-01  0.88714567012E+00  0.88000000000E+00 0.  1.
        -11    1    4    4    0    0  0.27910950032E-01 -0.64971800171E-01  0.33744326832E-01  0.78353664008E-01  0.51100000000E-03 0. -1.
         11    1    4    4    0    0  0.29083657741E-01 -0.43788684609E-01  0.10470266253E-01  0.53602198124E-01  0.51100000000E-03 0.  1.
</event>
<event>
 8    1  0.1052028E+005  0.1043930E+01  0.7957747E-01            NaN
         13   -1    0    0    0    0  0.00000000000E+00  0.00000000000E+00  0.74505805969E-08  0.10566000000E+00  0.10566000000E+00 0.  1.
     999900   -1    0    0    0    0 -0.00000000000E+00 -0.00000000000E+00 -0.74505805969E-08  0.93827000000E+00  0.93827000000E+00 0.  1.
     999902    2    1    2    0    0  0.98709802529E-03 -0.86541814642E-02 -0.21420542139E-01  0.10208062277E+01  0.10205442889E+01 0.  0.
     999903    2    3    3    0    0  0.51615194281E-01 -0.11998402953E+00 -0.22819260874E-02  0.13214215967E+00  0.19900943514E-01 0.  0.
         14    1    1    2    0    0 -0.98709802529E-03  0.86541814642E-02  0.21420542139E-01  0.23123772288E-01  0.00000000000E+00 0.  1.
     999901    1    3    3    0    0 -0.50628096255E-01  0.11132984807E+00 -0.19138616051E-01  0.88866406804E+00  0.88000000000E+00 0.  1.
        -11    1    4    4    0    0  0.26043890596E-01 -0.54829437025E-01 -0.10715259390E-01  0.61641133236E-01  0.51100000000E-03 0. -1.
         11    1    4    4    0    0  0.25571303685E-01 -0.65154592507E-01  0.84333333030E-02  0.70501026435E-01  0.51100000000E-03 0.  1.
</event>
<event>
 8    1  0.1052028E+005  0.1043930E+01  0.7957747E-01            NaN
         13   -1    0    0    0    0  0.00000000000E+00  0.00000000000E+00  0.74505805969E-08  0.10566000000E+00  0.10566000000E+00 0.  1.
     999900   -1    0    0    0    0 -0.00000000000E+00 -0.00000000000E+00 -0.74505805969E-08  0.93827000000E+00  0.93827000000E+00 0.  1.
     999902    2    1    2    0    0 -0.83236191035E-02  0.10110172518E-01  0.18644831223E-01  0.10211456204E+01  0.10208913997E+01 0.  0.
     999903    2    3    3    0    0 -0.12933427248E+00  0.13322217097E-01 -0.13211097251E-01  0.13228753517E+00  0.20509104444E-01 0.  0.
         14    1    1    2    0    0  0.83236191035E-02 -0.10110172518E-01 -0.18644831223E-01  0.22784379619E-01  0.00000000000E+00 0. -1.
     999901    1    3    3    0    0  0.12101065338E+00 -0.32120445795E-02  0.31855928474E-01  0.88885808521E+00  0.88000000000E+00 0. -1.
        -11    1    4    4    0    0 -0.88806682924E-01  0.14230346738E-01 -0.99690981654E-03  0.89946565529E-01  0.51100000000E-03 0.  1.
         11    1    4    4    0    0 -0.40527589556E-01 -0.90812964077E-03 -0.12214187435E-01  0.42340969643E-01  0.51100000000E-03 0. -1.
</event>
<event>
 8    1  0.1052028E+005  0.1043930E+01  0.7957747E-01            NaN
         13   -1    0    0    0    0  0.00000000000E+00  0.00000000000E+00  0.74505805969E-08  0.10566000000E+00  0.10566000000E+00 0. -1.
     999900   -1    0    0    0    0 -0.00000000000E+00 -0.00000000000E+00 -0.74505805969E-08  0.93827000000E+00  0.93827000000E+00 0. -1.
     999902    2    1    2    0    0  0.22223267662E-01 -0.86061082457E-02 -0.30783037424E-02  0.10199005456E+01  0.10196174323E+01 0.  0.
     999903    2    3    3    0    0  0.43453713159E-01 -0.10657012846E+00  0.61350049511E-01  0.13186975009E+00  0.19503459860E-01 0.  0.
         14    1    1    2    0    0 -0.22223267662E-01  0.86061082457E-02  0.30783037424E-02  0.24029454397E-01  0.00000000000E+00 0. -1.
     999901    1    3    3    0    0 -0.21230445498E-01  0.97964020216E-01 -0.64428353253E-01  0.88803079551E+00  0.88000000000E+00 0. -1.
        -11    1    4    4    0    0  0.19793792276E-01 -0.57790404672E-01  0.42708266082E-01  0.74537119595E-01  0.51100000000E-03 0. -1.
         11    1    4    4    0    0  0.23659920883E-01 -0.48779723791E-01  0.18641783429E-01  0.57332630497E-01  0.51100000000E-03 0.  1.
</event>
<event>
 8    1  0.1052028E+005  0.1043930E+01  0.7957747E-01            NaN
         13   -1    0    0    0    0  0.00000000000E+00  0.00000000000E+00  0.74505805969E-08  0.10566000000E+00  0.10566000000E+00 0. -1.
     999900   -1    0    0    0    0 -0.00000000000E+00 -0.00000000000E+00 -0.74505805969E-08  0.93827000000E+00  0.93827000000E+00 0.  1.
     999902    2    1    2    0    0  0.39223861209E-02 -0.19881790146E-01  0.12149140221E-01  0.10203022134E+01  0.10200285949E+01 0.  0.
     999903    2    3    3    0    0  0.10195506840E+00 -0.59423339674E-01  0.57386415811E-01  0.13282243782E+00  0.20557966761E-01 0.  0.
         14    1    1    2    0    0 -0.39223861209E-02  0.19881790146E-01 -0.12149140221E-01  0.23627786617E-01  0.00000000000E+00 0.  1.
     999901    1    3    3    0    0 -0.98032682282E-01  0.39541549528E-01 -0.45237275590E-01  0.88747977557E+00  0.88000000000E+00 0.  1.
        -11    1    4    4    0    0  0.34856637909E-01 -0.13126842224E-01  0.10166876226E-01  0.38612506863E-01  0.51100000000E-03 0.  1.
         11    1    4    4    0    0  0.67098430494E-01 -0.46296497451E-01  0.47219539585E-01  0.94209930955E-01  0.51100000000E-03 0. -1.
</event>
<event>
 8    1  0.1052028E+005  0.1043930E+01  0.7957747E-01            NaN
         13   -1    0    0    0    0  0.00000000000E+00  0.00000000000E+00  0.74505805969E-08  0.10566000000E+00  0.10566000000E+00 0.  1.
     999900   -1    0    0    0    0 -0.00000000000E+00 -0.00000000000E+00 -0.74505805969E-08  0.93827000000E+00  0.93827000000E+00 0.  1.
     999902    2    1    2    0    0 -0.10633358938E-01 -0.20152477996E-01 -0.32566003675E-02  0.10209126992E+01  0.10206531944E+01 0.  0.
     999903    2    3    3    0    0  0.49387539435E-01  0.10707148352E+00 -0.42881573792E-01  0.12885968328E+00  0.29369320237E-01 0.  0.
         14    1    1    2    0    0  0.10633358938E-01  0.20152477996E-01  0.32566003675E-02  0.23017300833E-01  0.00000000000E+00 0.  1.
     999901    1    3    3    0    0 -0.60020898373E-01 -0.12722396151E+00  0.39624973424E-01  0.89205301588E+00  0.88000000000E+00 0. -1.
        -11    1    4    4    0    0  0.16560202752E-02  0.21932819601E-01  0.59129110010E-03  0.22009128219E-01  0.51100000000E-03 0. -1.
         11    1    4    4    0    0  0.47731519160E-01  0.85138663917E-01 -0.43472864892E-01  0.10685055507E+00  0.51100000000E-03 0.  1.
</event>
<event>
 7    1  0.1052028E+005  0.1043930E+01  0.7957747E-01            NaN
         13   -1    0    0    0    0  0.00000000000E+00  0.00000000000E+00  0.74505805969E-08  0.10566000000E+00  0.10566000000E+00 0. -1.
     999900   -1    0    0    0    0 -0.00000000000E+00 -0.00000000000E+00 -0.74505805969E-08  0.93827000000E+00  0.93827000000E+00 0.  1.
     999903    2    1    2    0    0 -0.56907554951E-01  0.77346439024E-01 -0.34332626530E-01  0.10397007620E+00  0.20251075545E-01 0.  0.
         14    1    1    2    0    0 -0.28975051055E-01 -0.18509027086E-01 -0.37549685561E-01  0.50912832891E-01  0.00000000000E+00 0.  1.
     999901    1    1    2    0    0  0.85882606006E-01 -0.58837411939E-01  0.71882312091E-01  0.88904709091E+00  0.88000000000E+00 0. -1.
        -11    1    3    3    0    0 -0.51344438774E-01  0.75397267810E-01 -0.35595723104E-01  0.97919946949E-01  0.51100000000E-03 0. -1.
         11    1    3    3    0    0 -0.55631161770E-02  0.19491712145E-02  0.12630965737E-02  0.60501292529E-02  0.51100000000E-03 0.  1.
</event>
<event>
 8    1  0.1052028E+005  0.1043930E+01  0.7957747E-01            NaN
         13   -1    0    0    0    0  0.00000000000E+00  0.00000000000E+00  0.74505805969E-08  0.10566000000E+00  0.10566000000E+00 0.  1.
     999900   -1    0    0    0    0 -0.00000000000E+00 -0.00000000000E+00 -0.74505805969E-08  0.93827000000E+00  0.93827000000E+00 0. -1.
     999902    2    1    2    0    0  0.18519651841E-01 -0.98957278282E-02 -0.11425990888E-01  0.10200248499E+01  0.10197446927E+01 0.  0.
     999903    2    3    3    0    0 -0.53974034584E-01  0.28498501698E-01  0.11043874426E+00  0.12784747678E+00  0.20564534473E-01 0.  0.
         14    1    1    2    0    0 -0.18519651841E-01  0.98957278282E-02  0.11425990888E-01  0.23905150101E-01  0.00000000000E+00 0.  1.
     999901    1    3    3    0    0  0.72493686426E-01 -0.38394229526E-01 -0.12186473514E+00  0.89217737312E+00  0.88000000000E+00 0. -1.
        -11    1    4    4    0    0 -0.25345941607E-01  0.16451324852E-01  0.74190666304E-01  0.80109792991E-01  0.51100000000E-03 0.  1.
         11    1    4    4    0    0 -0.28628092977E-01  0.12047176845E-01  0.36248077951E-01  0.47737683790E-01  0.51100000000E-03 0. -1.
</event>
<event>
 8    1  0.1052028E+005  0.1043930E+01  0.7957747E-01            NaN
         13   -1    0    0    0    0  0.00000000000E+00  0.00000000000E+00  0.74505805969E-08  0.10566000000E+00  0.10566000000E+00 0.  1.
     999900   -1    0    0    0    0 -0.00000000000E+00 -0.00000000000E+00 -0.74505805969E-08  0.93827000000E+00  0.93827000000E+00 0.  1.
     999902    2    1    2    0    0 -0.15470807877E-01  0.19735098569E-01  0.50699527318E-03  0.10188485914E+01  0.10185398250E+01 0.  0.
     999903    2    3    3    0    0  0.32320334234E-01 -0.12038639389E+00 -0.13788427240E-01  0.12636756361E+00  0.15529087782E-01 0.  0.
         14    1    1    2    0    0  0.15470807877E-01 -0.19735098569E-01 -0.50699527318E-03  0.25081408575E-01  0.00000000000E+00 0. -1.
     999901    1    3    3    0    0 -0.47791142111E-01  0.14012149246E+00  0.14295422513E-01  0.89248102782E+00  0.88000000000E+00 0.  1.
        -11    1    4    4    0    0  0.11309938807E-01 -0.52384423760E-01 -0.13174092556E-01  0.55189314220E-01  0.51100000000E-03 0. -1.
         11    1    4    4    0    0  0.21010395428E-01 -0.68001970129E-01 -0.61433468428E-03  0.71178249385E-01  0.51100000000E-03 0.  1.
</event>
<event>
 8    1  0.1052028E+005  0.1043930E+01  0.7957747E-01            NaN
         13   -1    0    0    0    0  0.00000000000E+00  0.00000000000E+00  0.74505805969E-08  0.10566000000E+00  0.10566000000E+00 0. -1.
     999900   -1    0    0    0    0 -0.00000000000E+00 -0.00000000000E+00 -0.74505805969E-08  0.93827000000E+00  0.93827000000E+00 0. -1.
     999902    2    1    2    0    0  0.13578395175E-01  0.15762180199E-01 -0.10048412070E-01  0.10208261102E+01  0.10205646268E+01 0.  0.
     999903    2    3    3    0    0  0.38203999091E-01  0.10979815755E+00 -0.63319727881E-01  0.13387232417E+00  0.19930637043E-01 0.  0.
         14    1    1    2    0    0 -0.13578395175E-01 -0.15762180199E-01  0.10048412070E-01  0.23103889830E-01  0.00000000000E+00 0.  1.
     999901    1    3    3    0    0 -0.24625603916E-01 -0.94035977351E-01  0.53271315812E-01  0.88695378600E+00  0.88000000000E+00 0. -1.
        -11    1    4    4    0    0  0.96018707114E-02  0.51886509214E-01 -0.21854459033E-01  0.57116409728E-01  0.51100000000E-03 0. -1.
         11    1    4    4    0    0  0.28602128380E-01  0.57911648335E-01 -0.41465268848E-01  0.76755914446E-01  0.51100000000E-03 0.  1.
</event>
<event>
 8    1  0.1052028E+005  0.1043930E+01  0.7957747E-01            NaN
         13   -1    0    0    0    0  0.00000000000E+00  0.00000000000E+00  0.74505805969E-08  0.10566000000E+00  0.10566000000E+00 0.  1.
     999900   -1    0    0    0    0 -0.00000000000E+00 -0.00000000000E+00 -0.74505805969E-08  0.93827000000E+00  0.93827000000E+00 0.  1.
     999902    2    1    2    0    0  0.11080816726E-01  0.21432084281E-01  0.41062482989E-02  0.10194559319E+01  0.10191621152E+01 0.  0.
     999903    2    3    3    0    0  0.19780318791E-01 -0.10907118403E+00  0.60656409004E-01  0.12799381542E+00  0.20382164636E-01 0.  0.
         14    1    1    2    0    0 -0.11080816726E-01 -0.21432084281E-01 -0.41062482989E-02  0.24474068134E-01  0.00000000000E+00 0.  1.
     999901    1    3    3    0    0 -0.86995020644E-02  0.13050326831E+00 -0.56550160705E-01  0.89146211644E+00  0.88000000000E+00 0. -1.
        -11    1    4    4    0    0  0.21600042909E-01 -0.92324510875E-01  0.57368133071E-01  0.11082301645E+00  0.51100000000E-03 0. -1.
         11    1    4    4    0    0 -0.18197241187E-02 -0.16746673160E-01  0.32882759329E-02  0.17170798974E-01  0.51100000000E-03 0.  1.
</event>
<event>
 8    1  0.1052028E+005  0.1043930E+01  0.7957747E-01            NaN
         13   -1    0    0    0    0  0.00000000000E+00  0.00000000000E+00  0.74505805969E-08  0.10566000000E+00  0.10566000000E+00 0.  1.
     999900   -1    0    0    0    0 -0.00000000000E+00 -0.00000000000E+00 -0.74505805969E-08  0.93827000000E+00  0.93827000000E+00 0.  1.
     999902    2    1    2    0    0 -0.11638639409E-01 -0.18822769016E-02  0.20534685354E-01  0.10202514402E+01  0.10199766306E+01 0.  0.
     999903    2    3    3    0    0 -0.89051907022E-01  0.71853494313E-01  0.64058215795E-01  0.13271322934E+00  0.20400476508E-01 0.  0.
         14    1    1    2    0    0  0.11638639409E-01  0.18822769016E-02 -0.20534685354E-01  0.23678559842E-01  0.00000000000E+00 0. -1.
     999901    1    3    3    0    0  0.77413267613E-01 -0.73735771215E-01 -0.43523530441E-01  0.88753821082E+00  0.88000000000E+00 0. -1.
        -11    1    4    4    0    0 -0.27002650291E-01  0.33682377539E-01  0.20058205689E-01  0.47605025111E-01  0.51100000000E-03 0. -1.
         11    1    4    4    0    0 -0.62049256731E-01  0.38171116775E-01  0.44000010106E-01  0.85108204229E-01  0.51100000000E-03 0.  1.
</event>
<event>
 8    1  0.1052028E+005  0.1043930E+01  0.7957747E-01            NaN
         13   -1    0    0    0    0  0.00000000000E+00  0.00000000000E+00  0.74505805969E-08  0.10566000000E+00  0.10566000000E+00 0. -1.
     999900   -1    0    0    0    0 -0.00000000000E+00 -0.00000000000E+00 -0.74505805969E-08  0.93827000000E+00  0.93827000000E+00 0. -1.
     999902    2    1    2    0    0  0.17182280320E-01  0.95740161674E-02  0.14332167086E-01  0.10195927126E+01  0.10193022104E+01 0.  0.
     999903    2    3    3    0    0 -0.26044695100E-01  0.54397490722E-01  0.11555186399E+00  0.13160445691E+00  0.18168287413E-01 0.  0.
         14    1    1    2    0    0 -0.17182280320E-01 -0.95740161674E-02 -0.14332167086E-01  0.24337287358E-01  0.00000000000E+00 0. -1.
     999901    1    3    3    0    0  0.43226975420E-01 -0.44823474554E-01 -0.10121969690E+00  0.88798825573E+00  0.88000000000E+00 0. -1.
        -11    1    4    4    0    0 -0.21417024542E-01  0.36611478653E-01  0.63178310002E-01  0.76097629957E-01  0.51100000000E-03 0.  1.
         11    1    4    4    0    0 -0.46276705578E-02  0.17786012069E-01  0.52373553988E-01  0.55506826953E-01  0.51100000000E-03 0. -1.
</event>
<event>
 8    1  0.1052028E+005  0.1043930E+01  0.7957747E-01            NaN
         13   -1    0    0    0    0  0.00000000000E+00  0.00000000000E+00  0.74505805969E-08  0.10566000000E+00  0.10566000000E+00 0.  1.
     999900   -1    0    0    0    0 -0.00000000000E+00 -0.00000000000E+00 -0.74505805969E-08  0.93827000000E+00  0.93827000000E+00 0.  1.
     999902    2    1    2    0    0  0.19474503771E-01  0.77968944802E-02 -0.98119867335E-02  0.10207713527E+01  0.10205086142E+01 0.  0.
     999903    2    3    3    0    0 -0.82824469374E-01 -0.10593941521E-01 -0.98016916811E-01  0.13027519188E+00  0.19803669241E-01 0.  0.
         14    1    1    2    0    0 -0.19474503771E-01 -0.77968944802E-02  0.98119867335E-02  0.23158647290E-01  0.00000000000E+00 0.  1.
     999901    1    3    3    0    0  0.10229897314E+00  0.18390836001E-01  0.88204930077E-01  0.89049616083E+00  0.88000000000E+00 0. -1.
        -11    1    4    4    0    0 -0.41759314350E-01 -0.15013708431E-01 -0.54355033297E-01  0.70171094773E-01  0.51100000000E-03 0.  1.
         11    1    4    4    0    0 -0.41065155023E-01  0.44197669105E-02 -0.43661883513E-01  0.60104097111E-01  0.51100000000E-03 0. -1.
</event>
<event>
 8    1  0.1052028E+005  0.1043930E+01  0.7957747E-01            NaN
         13   -1    0    0    0    0  0.00000000000E+00  0.00000000000E+00  0.74505805969E-08  0.10566000000E+00  0.10566000000E+00 0.  1.
     999900   -1    0    0    0    0 -0.00000000000E+00 -0.00000000000E+00 -0.74505805969E-08  0.93827000000E+00  0.93827000000E+00 0.  1.
     999902    2    1    2    0    0  0.11555402577E-01  0.11248911854E-01  0.17433090460E-01  0.10201817792E+01  0.10199053312E+01 0.  0.
     999903    2    3    3    0    0 -0.83504677895E-01 -0.95799945310E-02 -0.94390896616E-01  0.12778340052E+00  0.18818835230E-01 0.  0.
         14    1    1    2    0    0 -0.11555402577E-01 -0.11248911854E-01 -0.17433090460E-01  0.23748220767E-01  0.00000000000E+00 0. -1.
     999901    1    3    3    0    0  0.95060080472E-01  0.20828906385E-01  0.11182398708E+00  0.89239837871E+00  0.88000000000E+00 0. -1.
        -11    1    4    4    0    0 -0.54494988369E-01 -0.10092066150E-02 -0.49369980511E-01  0.73541677652E-01  0.51100000000E-03 0. -1.
         11    1    4    4    0    0 -0.29009689527E-01 -0.85707879160E-02 -0.45020916105E-01  0.54241722870E-01  0.51100000000E-03 0.  1.
</event>
<event>
 8    1  0.1052028E+005  0.1043930E+01  0.7957747E-01            NaN
         13   -1    0    0    0    0  0.00000000000E+00  0.00000000000E+00  0.74505805969E-08  0.10566000000E+00  0.10566000000E+00 0.  1.
     999900   -1    0    0    0    0 -0.00000000000E+00 -0.00000000000E+00 -0.74505805969E-08  0.93827000000E+00  0.93827000000E+00 0. -1.
     999902    2    1    2    0    0  0.90809858023E-02  0.16434530045E-01  0.13341277618E-01  0.10208963774E+01  0.10206365003E+01 0.  0.
     999903    2    3    3    0    0 -0.99936385961E-01 -0.62864814049E-01  0.50331909807E-01  0.12986243856E+00  0.19791051499E-01 0.  0.
         14    1    1    2    0    0 -0.90809858023E-02 -0.16434530045E-01 -0.13341277618E-01  0.23033622586E-01  0.00000000000E+00 0.  1.
     999901    1    3    3    0    0  0.10901737176E+00  0.79299344095E-01 -0.36990632189E-01  0.89103393885E+00  0.88000000000E+00 0. -1.
        -11    1    4    4    0    0 -0.50248116879E-01 -0.20609859591E-01  0.19418226125E-01  0.57679876812E-01  0.51100000000E-03 0.  1.
         11    1    4    4    0    0 -0.49688269083E-01 -0.42254954458E-01  0.30913683682E-01  0.72182561748E-01  0.51100000000E-03 0. -1.
</event>
<event>
 8    1  0.1052028E+005  0.1043930E+01  0.7957747E-01            NaN
         13   -1    0    0    0    0  0.00000000000E+00  0.00000000000E+00  0.74505805969E-08  0.10566000000E+00  0.10566000000E+00 0. -1.
     999900   -1    0    0    0    0 -0.00000000000E+00 -0.00000000000E+00 -0.74505805969E-08  0.93827000000E+00  0.93827000000E+00 0. -1.
     999902    2    1    2    0    0  0.23440794882E-01 -0.69822451896E-02  0.46649054553E-02  0.10190305230E+01  0.10187262747E+01 0.  0.
     999903    2    3    3    0    0 -0.47192490195E-01  0.65195965159E-02 -0.11661734756E+00  0.12780622710E+00  0.21568255914E-01 0.  0.
         14    1    1    2    0    0 -0.23440794882E-01  0.69822451896E-02 -0.46649054553E-02  0.24899477012E-01  0.00000000000E+00 0.  1.
     999901    1    3    3    0    0  0.70633285077E-01 -0.13501841706E-01  0.12128225302E+00  0.89122429589E+00  0.88000000000E+00 0. -1.
        -11    1    4    4    0    0 -0.47915116019E-01  0.95418224837E-02 -0.10574107283E+00  0.11648321906E+00  0.51100000000E-03 0.  1.
         11    1    4    4    0    0  0.72262582428E-03 -0.30222259678E-02 -0.10876274731E-01  0.11323008033E-01  0.51100000000E-03 0. -1.
</event>
<event>
 8    1  0.1052028E+005  0.1043930E+01  0.7957747E-01            NaN
         13   -1    0    0    0    0  0.00000000000E+00  0.00000000000E+00  0.74505805969E-08  0.10566000000E+00  0.10566000000E+00 0. -1.
     999900   -1    0    0    0    0 -0.00000000000E+00 -0.00000000000E+00 -0.74505805969E-08  0.93827000000E+00  0.93827000000E+00 0. -1.
     999902    2    1    2    0    0  0.93188758007E-02  0.82183727490E-03  0.24111440498E-01  0.10180673160E+01  0.10177387589E+01 0.  0.
     999903    2    3    3    0    0 -0.92566080757E-01 -0.64466042706E-01 -0.53405981239E-01  0.12641042998E+00  0.20076055568E-01 0.  0.
         14    1    1    2    0    0 -0.93188758007E-02 -0.82183727490E-03 -0.24111440498E-01  0.25862684037E-01  0.00000000000E+00 0.  1.
     999901    1    3    3    0    0  0.10188495656E+00  0.65287879981E-01  0.77517421737E-01  0.89165688598E+00  0.88000000000E+00 0. -1.
        -11    1    4    4    0    0 -0.42655963679E-01 -0.23031436244E-01 -0.32049266493E-01  0.58115358526E-01  0.51100000000E-03 0.  1.
         11    1    4    4    0    0 -0.49910117078E-01 -0.41434606462E-01 -0.21356714746E-01  0.68295071456E-01  0.51100000000E-03 0. -1.
</event>
<event>
 8    1  0.1052028E+005  0.1043930E+01  0.7957747E-01            NaN
         13   -1    0    0    0    0  0.00000000000E+00  0.00000000000E+00  0.74505805969E-08  0.10566000000E+00  0.10566000000E+00 0.  1.
     999900   -1    0    0    0    0 -0.00000000000E+00 -0.00000000000E+00 -0.74505805969E-08  0.93827000000E+00  0.93827000000E+00 0. -1.
     999902    2    1    2    0    0  0.14861982078E-01 -0.17837960345E-01  0.24229122966E-02  0.10205860105E+01  0.10203190006E+01 0.  0.
     999903    2    3    3    0    0 -0.53267349820E-01 -0.86193216269E-01 -0.81169988081E-01  0.13137185192E+00  0.20082714544E-01 0.  0.
         14    1    1    2    0    0 -0.14861982078E-01  0.17837960345E-01 -0.24229122966E-02  0.23343989474E-01  0.00000000000E+00 0. -1.
     999901    1    3    3    0    0  0.68129331898E-01  0.68355255924E-01  0.83592900377E-01  0.88921415861E+00  0.88000000000E+00 0.  1.
        -11    1    4    4    0    0 -0.36204056517E-01 -0.48463025800E-01 -0.58529755348E-01  0.84174770330E-01  0.51100000000E-03 0. -1.
         11    1    4    4    0    0 -0.17063293303E-01 -0.37730190469E-01 -0.22640232733E-01  0.47197081587E-01  0.51100000000E-03 0.  1.
</event>
<event>
 8    1  0.1052028E+005  0.1043930E+01  0.7957747E-01            NaN
         13   -1    0    0    0    0  0.00000000000E+00  0.00000000000E+00  0.74505805969E-08  0.10566000000E+00  0.10566000000E+00 0.  1.
     999900   -1    0    0    0    0 -0.00000000000E+00 -0.00000000000E+00 -0.74505805969E-08  0.93827000000E+00  0.93827000000E+00 0.  1.
     999902    2    1    2    0    0 -0.93572307749E-02 -0.15829199029E-01 -0.11259928426E-01  0.10223682909E+01  0.10221408978E+01 0.  0.
     999903    2    3    3    0    0  0.10340613182E+00  0.38073582738E-01 -0.69321183907E-01  0.13164263440E+00  0.19543051236E-01 0.  0.
         14    1    1    2    0    0  0.93572307749E-02  0.15829199029E-01  0.11259928426E-01  0.21561709066E-01  0.00000000000E+00 0.  1.
     999901    1    3    3    0    0 -0.11276336260E+00 -0.53902781767E-01  0.58061255481E-01  0.89072565654E+00  0.88000000000E+00 0. -1.
        -11    1    4    4    0    0  0.75116158978E-02  0.87146842766E-02 -0.54461474664E-02  0.12739377483E-01  0.51100000000E-03 0. -1.
         11    1    4    4    0    0  0.95894515924E-01  0.29358898462E-01 -0.63875036441E-01  0.11890325691E+00  0.51100000000E-03 0.  1.
</event>
<event>
 8    1  0.1052028E+005  0.1043930E+01  0.7957747E-01            NaN
         13   -1    0    0    0    0  0.00000000000E+00  0.00000000000E+00  0.74505805969E-08  0.10566000000E+00  0.10566000000E+00 0. -1.
     999900   -1    0    0    0    0 -0.00000000000E+00 -0.00000000000E+00 -0.74505805969E-08  0.93827000000E+00  0.93827000000E+00 0.  1.
     999902    2    1    2    0    0  0.20087324541E-01  0.11732233385E-01 -0.61921641721E-03  0.10206592171E+01  0.10203938985E+01 0.  0.
     999903    2    3    3    0    0  0.93582722143E-01 -0.72436034336E-01 -0.54763731383E-01  0.13194244599E+00  0.20125551564E-01 0.  0.
         14    1    1    2    0    0 -0.20087324541E-01 -0.11732233385E-01  0.61921641721E-03  0.23270782892E-01  0.00000000000E+00 0. -1.
     999901    1    3    3    0    0 -0.73495397602E-01  0.84168267721E-01  0.54144514966E-01  0.88871677111E+00  0.88000000000E+00 0.  1.
        -11    1    4    4    0    0  0.68803441838E-01 -0.44493028925E-01 -0.30643589506E-01  0.87480477425E-01  0.51100000000E-03 0. -1.
         11    1    4    4    0    0  0.24779280305E-01 -0.27943005411E-01 -0.24120141877E-01  0.44461968568E-01  0.51100000000E-03 0.  1.
</event>
<event>
 8    1  0.1052028E+005  0.1043930E+01  0.7957747E-01            NaN
         13   -1    0    0    0    0  0.00000000000E+00  0.00000000000E+00  0.74505805969E-08  0.10566000000E+00  0.10566000000E+00 0. -1.
     999900   -1    0    0    0    0 -0.00000000000E+00 -0.00000000000E+00 -0.74505805969E-08  0.93827000000E+00  0.93827000000E+00 0.  1.
     999902    2    1    2    0    0  0.70064248049E-02  0.18380058658E-01 -0.13324819129E-01  0.10201714784E+01  0.10198947877E+01 0.  0.
     999903    2    3    3    0    0 -0.48412679118E-01  0.12038499638E+00 -0.18863194754E-01  0.13253024567E+00  0.19290180065E-01 0.  0.
         14    1    1    2    0    0 -0.70064248049E-02 -0.18380058658E-01  0.13324819129E-01  0.23758521622E-01  0.00000000000E+00 0. -1.
     999901    1    3    3    0    0  0.55419103923E-01 -0.10200493773E+00  0.55383756248E-02  0.88764123271E+00  0.88000000000E+00 0. -1.
        -11    1    4    4    0    0 -0.37951980906E-01  0.10932925400E+00 -0.19121038767E-01  0.11729924927E+00  0.51100000000E-03 0.  1.
         11    1    4    4    0    0 -0.10460698212E-01  0.11055742382E-01  0.25784401228E-03  0.15230996396E-01  0.51100000000E-03 0. -1.
</event>
<event>
 8    1  0.1052028E+005  0.1043930E+01  0.7957747E-01            NaN
         13   -1    0    0    0    0  0.00000000000E+00  0.00000000000E+00  0.74505805969E-08  0.10566000000E+00  0.10566000000E+00 0.  1.
     999900   -1    0    0    0    0 -0.00000000000E+00 -0.00000000000E+00 -0.74505805969E-08  0.93827000000E+00  0.93827000000E+00 0.  1.
     999902    2    1    2    0    0  0.15704610958E-02 -0.18319734308E-01 -0.15227110285E-01  0.10200565021E+01  0.10197770951E+01 0.  0.
     999903    2    3    3    0    0  0.68514919917E-01  0.22456595388E-01 -0.10784819202E+00  0.13173058535E+00  0.22871853152E-01 0.  0.
         14    1    1    2    0    0 -0.15704610958E-02  0.18319734308E-01  0.15227110285E-01  0.23873497875E-01  0.00000000000E+00 0. -1.
     999901    1    3    3    0    0 -0.66944458822E-01 -0.40776329696E-01  0.92621081737E-01  0.88832591677E+00  0.88000000000E+00 0.  1.
        -11    1    4    4    0    0  0.44395278626E-01  0.74718029078E-02 -0.49975455152E-01  0.67264967417E-01  0.51100000000E-03 0.  1.
         11    1    4    4    0    0  0.24119641291E-01  0.14984792481E-01 -0.57872736870E-01  0.64465617933E-01  0.51100000000E-03 0. -1.
</event>
<event>
 8    1  0.1052028E+005  0.1043930E+01  0.7957747E-01            NaN
         13   -1    0    0    0    0  0.00000000000E+00  0.00000000000E+00  0.74505805969E-08  0.10566000000E+00  0.10566000000E+00 0. -1.
     999900   -1    0    0    0    0 -0.00000000000E+00 -0.00000000000E+00 -0.74505805969E-08  0.93827000000E+00  0.93827000000E+00 0.  1.
     999902    2    1    2    0    0 -0.13653334418E-01  0.87777227154E-02 -0.16410501054E-01  0.10208482648E+01  0.10205872884E+01 0.  0.
     999903    2    3    3    0    0 -0.59884040216E-02 -0.86819328135E-01 -0.97912794986E-01  0.13189372644E+00  0.15348711057E-01 0.  0.
         14    1    1    2    0    0  0.13653334418E-01 -0.87777227154E-02  0.16410501054E-01  0.23081735239E-01  0.00000000000E+00 0. -1.
     999901    1    3    3    0    0 -0.76649303964E-02  0.95597050850E-01  0.81502293933E-01  0.88895453832E+00  0.88000000000E+00 0.  1.
        -11    1    4    4    0    0 -0.62811018891E-03 -0.17715443741E-01 -0.11582813669E-01  0.21181457996E-01  0.51100000000E-03 0.  1.
         11    1    4    4    0    0 -0.53602938326E-02 -0.69103884394E-01 -0.86329981317E-01  0.11071226844E+00  0.51100000000E-03 0. -1.
</event>
<event>
 8    1  0.1052028E+005  0.1043930E+01  0.7957747E-01            NaN
         13   -1    0    0    0    0  0.00000000000E+00  0.00000000000E+00  0.74505805969E-08  0.10566000000E+00  0.10566000000E+00 0.  1.
     999900   -1    0    0    0    0 -0.00000000000E+00 -0.00000000000E+00 -0.74505805969E-08  0.93827000000E+00  0.93827000000E+00 0.  1.
     999902    2    1    2    0    0 -0.19428962318E-01 -0.12581160875E-01  0.82229952011E-02  0.10193660460E+01  0.10190700407E+01 0.  0.
     999903    2    3    3    0    0  0.24095262761E-01 -0.10507296633E+00 -0.69811140801E-01  0.13001885923E+00  0.20258292959E-01 0.  0.
         14    1    1    2    0    0  0.19428962318E-01  0.12581160875E-01 -0.82229952011E-02  0.24563953993E-01  0.00000000000E+00 0. -1.
     999901    1    3    3    0    0 -0.43524225079E-01  0.92491805460E-01  0.78034136002E-01  0.88934718678E+00  0.88000000000E+00 0. -1.
        -11    1    4    4    0    0  0.40434868003E-02 -0.55155701437E-01 -0.28680552920E-01  0.62300372578E-01  0.51100000000E-03 0. -1.
         11    1    4    4    0    0  0.20051775961E-01 -0.49917264898E-01 -0.41130587881E-01  0.67718486653E-01  0.51100000000E-03 0.  1.
</event>
<event>
 8    1  0.1052028E+005  0.1043930E+01  0.7957747E-01            NaN
         13   -1    0    0    0    0  0.00000000000E+00  0.00000000000E+00  0.74505805969E-08  0.10566000000E+00  0.10566000000E+00 0.  1.
     999900   -1    0    0    0    0 -0.00000000000E+00 -0.00000000000E+00 -0.74505805969E-08  0.93827000000E+00  0.93827000000E+00 0. -1.
     999902    2    1    2    0    0  0.73604150454E-02  0.23064561242E-01  0.90590697258E-02  0.10180801172E+01  0.10177518895E+01 0.  0.
     999903    2    3    3    0    0 -0.90708804210E-01 -0.33001507125E-01 -0.79231891199E-01  0.12647691537E+00  0.20038236072E-01 0.  0.
         14    1    1    2    0    0 -0.73604150454E-02 -0.23064561242E-01 -0.90590697258E-02  0.25849882770E-01  0.00000000000E+00 0. -1.
     999901    1    3    3    0    0  0.98069219255E-01  0.56066068366E-01  0.88290960924E-01  0.89160320186E+00  0.88000000000E+00 0. -1.
        -11    1    4    4    0    0 -0.45406648661E-01 -0.60197038038E-02 -0.34913836774E-01  0.57595465931E-01  0.51100000000E-03 0. -1.
         11    1    4    4    0    0 -0.45302155548E-01 -0.26981803321E-01 -0.44318054425E-01  0.68881449439E-01  0.51100000000E-03 0.  1.
</event>
<event>
 8    1  0.1052028E+005  0.1043930E+01  0.7957747E-01            NaN
         13   -1    0    0    0    0  0.00000000000E+00  0.00000000000E+00  0.74505805969E-08  0.10566000000E+00  0.10566000000E+00 0.  1.
     999900   -1    0    0    0    0 -0.00000000000E+00 -0.00000000000E+00 -0.74505805969E-08  0.93827000000E+00  0.93827000000E+00 0.  1.
     999902    2    1    2    0    0  0.61228052568E-02 -0.12057265713E-01 -0.20591668767E-01  0.10192950000E+01  0.10189972590E+01 0.  0.
     999903    2    3    3    0    0 -0.53337903422E-01  0.68252059518E-01 -0.95522587021E-01  0.13047566738E+00  0.19901245596E-01 0.  0.
         14    1    1    2    0    0 -0.61228052568E-02  0.12057265713E-01  0.20591668767E-01  0.24634999965E-01  0.00000000000E+00 0.  1.
     999901    1    3    3    0    0  0.59460708678E-01 -0.80309325232E-01  0.74930918254E-01  0.88881933266E+00  0.88000000000E+00 0. -1.
        -11    1    4    4    0    0 -0.44693755607E-01  0.49219767782E-01 -0.61656935474E-01  0.90675002861E-01  0.51100000000E-03 0. -1.
         11    1    4    4    0    0 -0.86441478142E-02  0.19032291737E-01 -0.33865651547E-01  0.39800664516E-01  0.51100000000E-03 0.  1.
</event>
<event>
 8    1  0.1052028E+005  0.1043930E+01  0.7957747E-01            NaN
         13   -1    0    0    0    0  0.00000000000E+00  0.00000000000E+00  0.74505805969E-08  0.10566000000E+00  0.10566000000E+00 0. -1.
     999900   -1    0    0    0    0 -0.00000000000E+00 -0.00000000000E+00 -0.74505805969E-08  0.93827000000E+00  0.93827000000E+00 0. -1.
     999902    2    1    2    0    0 -0.21529135877E-01 -0.10245059179E-01  0.32676283816E-02  0.10198646240E+01  0.10195806534E+01 0.  0.
     999903    2    3    3    0    0  0.23477459190E-02 -0.29124475734E-01  0.12653073941E+00  0.13075252056E+00  0.15246200199E-01 0.  0.
         14    1    1    2    0    0  0.21529135877E-01  0.10245059179E-01 -0.32676283816E-02  0.24065376050E-01  0.00000000000E+00 0. -1.
     999901    1    3    3    0    0 -0.23876881796E-01  0.18879416555E-01 -0.12326311103E+00  0.88911210339E+00  0.88000000000E+00 0. -1.
        -11    1    4    4    0    0 -0.38440581330E-02 -0.24932391146E-01  0.90571801163E-01  0.94020812579E-01  0.51100000000E-03 0. -1.
         11    1    4    4    0    0  0.61918040520E-02 -0.41920845877E-02  0.35958938244E-01  0.36731707982E-01  0.51100000000E-03 0.  1.
</event>
<event>
 8    1  0.1052028E+005  0.1043930E+01  0.7957747E-01            NaN
         13   -1    0    0    0    0  0.00000000000E+00  0.00000000000E+00  0.74505805969E-08  0.10566000000E+00  0.10566000000E+00 0.  1.
     999900   -1    0    0    0    0 -0.00000000000E+00 -0.00000000000E+00 -0.74505805969E-08  0.93827000000E+00  0.93827000000E+00 0. -1.
     999902    2    1    2    0    0 -0.23055563368E-01  0.55492949073E-03  0.45480539591E-02  0.10204235808E+01  0.10201527986E+01 0.  0.
     999903    2    3    3    0    0 -0.42353691981E-01  0.93414339295E-01  0.80105295370E-01  0.13210821760E+00  0.22707901739E-01 0.  0.
         14    1    1    2    0    0  0.23055563368E-01 -0.55492949073E-03 -0.45480539591E-02  0.23506419204E-01  0.00000000000E+00 0.  1.
     999901    1    3    3    0    0  0.19298128613E-01 -0.92859409804E-01 -0.75557241411E-01  0.88831536319E+00  0.88000000000E+00 0. -1.
        -11    1    4    4    0    0 -0.60491790971E-02  0.39851187834E-01  0.29196164627E-01  0.49773355216E-01  0.51100000000E-03 0.  1.
         11    1    4    4    0    0 -0.36304512884E-01  0.53563151461E-01  0.50909130743E-01  0.82334862386E-01  0.51100000000E-03 0. -1.
</event>
<event>
 8    1  0.1052028E+005  0.1043930E+01  0.7957747E-01            NaN
         13   -1    0    0    0    0  0.00000000000E+00  0.00000000000E+00  0.74505805969E-08  0.10566000000E+00  0.10566000000E+00 0.  1.
     999900   -1    0    0    0    0 -0.00000000000E+00 -0.00000000000E+00 -0.74505805969E-08  0.93827000000E+00  0.93827000000E+00 0.  1.
     999902    2    1    2    0    0  0.20774479498E-01  0.67908831866E-02  0.80413396272E-02  0.10206414140E+01  0.10203756846E+01 0.  0.
     999903    2    3    3    0    0 -0.11553141885E+00  0.28748580859E-01  0.44990642747E-01  0.12911088208E+00  0.21713412780E-01 0.  0.
         14    1    1    2    0    0 -0.20774479498E-01 -0.67908831866E-02 -0.80413396272E-02  0.23288585957E-01  0.00000000000E+00 0. -1.
     999901    1    3    3    0    0  0.13630589835E+00 -0.21957697673E-01 -0.36949303120E-01  0.89153053196E+00  0.88000000000E+00 0. -1.
        -11    1    4    4    0    0 -0.48014117128E-01  0.45994179479E-02  0.26589081618E-01  0.55079492293E-01  0.51100000000E-03 0. -1.
         11    1    4    4    0    0 -0.67517301724E-01  0.24149162912E-01  0.18401561129E-01  0.74031389792E-01  0.51100000000E-03 0.  1.
</event>
<event>
 8    1  0.1052028E+005  0.1043930E+01  0.7957747E-01            NaN
         13   -1    0    0    0    0  0.00000000000E+00  0.00000000000E+00  0.74505805969E-08  0.10566000000E+00  0.10566000000E+00 0. -1.
     999900   -1    0    0    0    0 -0.00000000000E+00 -0.00000000000E+00 -0.74505805969E-08  0.93827000000E+00  0.93827000000E+00 0.  1.
     999902    2    1    2    0    0  0.52212740164E-02 -0.22547628984E-01  0.10328220010E-02  0.10207626955E+01  0.10204997583E+01 0.  0.
     999903    2    3    3    0    0  0.73563086441E-01  0.55455051837E-01 -0.89503921970E-01  0.13005964538E+00  0.20439394484E-01 0.  0.
         14    1    1    2    0    0 -0.52212740164E-02  0.22547628984E-01 -0.10328220010E-02  0.23167304470E-01  0.00000000000E+00 0. -1.
     999901    1    3    3    0    0 -0.68341812425E-01 -0.78002680821E-01  0.90536743971E-01  0.89070305015E+00  0.88000000000E+00 0. -1.
        -11    1    4    4    0    0  0.20218968541E-01  0.17987087627E-01 -0.14573817018E-01  0.30740840483E-01  0.51100000000E-03 0.  1.
         11    1    4    4    0    0  0.53344117900E-01  0.37467964211E-01 -0.74930104952E-01  0.99318804895E-01  0.51100000000E-03 0. -1.
</event>
<event>
 8    1  0.1052028E+005  0.1043930E+01  0.7957747E-01            NaN
         13   -1    0    0    0    0  0.00000000000E+00  0.00000000000E+00  0.74505805969E-08  0.10566000000E+00  0.10566000000E+00 0. -1.
     999900   -1    0    0    0    0 -0.00000000000E+00 -0.00000000000E+00 -0.74505805969E-08  0.93827000000E+00  0.93827000000E+00 0. -1.
     999902    2    1    2    0    0 -0.52765440861E-02 -0.20829707051E-01 -0.71325987638E-02  0.10212894925E+01  0.10210385081E+01 0.  0.
     999903    2    3    3    0    0  0.17333481607E-01  0.81955341064E-01  0.96518144327E-01  0.12897819264E+00  0.17392368377E-01 0.  0.
         14    1    1    2    0    0  0.52765440861E-02  0.20829707051E-01  0.71325987638E-02  0.22640507469E-01  0.00000000000E+00 0.  1.
     999901    1    3    3    0    0 -0.22610025693E-01 -0.10278504812E+00 -0.10365074309E+00  0.89231129990E+00  0.88000000000E+00 0. -1.
        -11    1    4    4    0    0  0.97704065574E-02  0.19260646477E-01  0.17349033812E-01  0.27707100935E-01  0.51100000000E-03 0.  1.
         11    1    4    4    0    0  0.75630750494E-02  0.62694694587E-01  0.79169110515E-01  0.10127109170E+00  0.51100000000E-03 0. -1.
</event>
<event>
 8    1  0.1052028E+005  0.1043930E+01  0.7957747E-01            NaN
         13   -1    0    0    0    0  0.00000000000E+00  0.00000000000E+00  0.74505805969E-08  0.10566000000E+00  0.10566000000E+00 0.  1.
     999900   -1    0    0    0    0 -0.00000000000E+00 -0.00000000000E+00 -0.74505805969E-08  0.93827000000E+00  0.93827000000E+00 0. -1.
     999902    2    1    2    0    0  0.12131822798E-01  0.20138706691E-01  0.51469751934E-02  0.10198625950E+01  0.10195785760E+01 0.  0.
     999903    2    3    3    0    0  0.66314532914E-01 -0.94215877681E-01  0.56104177219E-01  0.12935185753E+00  0.17606120037E-01 0.  0.
         14    1    1    2    0    0 -0.12131822798E-01 -0.20138706691E-01 -0.51469751934E-02  0.24067405037E-01  0.00000000000E+00 0. -1.
     999901    1    3    3    0    0 -0.54182710116E-01  0.11435458437E+00 -0.50957202025E-01  0.89051073743E+00  0.88000000000E+00 0. -1.
        -11    1    4    4    0    0  0.25889564614E-01 -0.51934442758E-01  0.26737837382E-01  0.63895453433E-01  0.51100000000E-03 0.  1.
         11    1    4    4    0    0  0.40424968300E-01 -0.42281434923E-01  0.29366339837E-01  0.65456404099E-01  0.51100000000E-03 0. -1.
</event>
<event>
 8    1  0.1052028E+005  0.1043930E+01  0.7957747E-01            NaN
         13   -1    0    0    0    0  0.00000000000E+00  0.00000000000E+00  0.74505805969E-08  0.10566000000E+00  0.10566000000E+00 0.  1.
     999900   -1    0    0    0    0 -0.00000000000E+00 -0.00000000000E+00 -0.74505805969E-08  0.93827000000E+00  0.93827000000E+00 0. -1.
     999902    2    1    2    0    0 -0.42941759731E-02  0.47039286180E-03  0.23005143566E-01  0.10205227822E+01  0.10202543070E+01 0.  0.
     999903    2    3    3    0    0 -0.66364835045E-01  0.80420101145E-01 -0.74700232902E-01  0.12934880186E+00  0.16712383050E-01 0.  0.
         14    1    1    2    0    0  0.42941759731E-02 -0.47039286180E-03 -0.23005143566E-01  0.23407217845E-01  0.00000000000E+00 0. -1.
     999901    1    3    3    0    0  0.62070659071E-01 -0.79949708284E-01  0.97705376468E-01  0.89117398030E+00  0.88000000000E+00 0. -1.
        -11    1    4    4    0    0 -0.35107920653E-01  0.52448555488E-01 -0.38438276136E-01  0.73899792007E-01  0.51100000000E-03 0. -1.
         11    1    4    4    0    0 -0.31256914392E-01  0.27971545658E-01 -0.36261956766E-01  0.55449009849E-01  0.51100000000E-03 0.  1.
</event>
<event>
 8    1  0.1052028E+005  0.1043930E+01  0.7957747E-01            NaN
         13   -1    0    0    0    0  0.00000000000E+00  0.00000000000E+00  0.74505805969E-08  0.10566000000E+00  0.10566000000E+00 0.  1.
     999900   -1    0    0    0    0 -0.00000000000E+00 -0.00000000000E+00 -0.74505805969E-08  0.93827000000E+00  0.93827000000E+00 0.  1.
     999902    2    1    2    0    0 -0.22347923821E-01 -0.88254514507E-02 -0.39926001188E-02  0.10195730883E+01  0.10192821117E+01 0.  0.
     999903    2    3    3    0    0 -0.17573444522E-01  0.11465398813E+00  0.53201813537E-01  0.12910064705E+00  0.19549454147E-01 0.  0.
         14    1    1    2    0    0  0.22347923821E-01  0.88254514507E-02  0.39926001188E-02  0.24356911712E-01  0.00000000000E+00 0. -1.
     999901    1    3    3    0    0 -0.47744792991E-02 -0.12347943959E+00 -0.57194413656E-01  0.89047244124E+00  0.88000000000E+00 0.  1.
        -11    1    4    4    0    0 -0.22507376742E-02  0.57568119442E-01  0.18271192631E-01  0.60442135943E-01  0.51100000000E-03 0. -1.
         11    1    4    4    0    0 -0.15322706848E-01  0.57085868693E-01  0.34930620906E-01  0.68658511107E-01  0.51100000000E-03 0.  1.
</event>
<event>
 8    1  0.1052028E+005  0.1043930E+01  0.7957747E-01            NaN
         13   -1    0    0    0    0  0.00000000000E+00  0.00000000000E+00  0.74505805969E-08  0.10566000000E+00  0.10566000000E+00 0.  1.
     999900   -1    0    0    0    0 -0.00000000000E+00 -0.00000000000E+00 -0.74505805969E-08  0.93827000000E+00  0.93827000000E+00 0.  1.
     999902    2    1    2    0    0 -0.21708451202E-01  0.57108125867E-02 -0.64248345643E-02  0.10205815796E+01  0.10203144672E+01 0.  0.
     999903    2    3    3    0    0 -0.11564918250E+00 -0.43063883379E-01  0.44631918934E-01  0.13276931118E+00  0.20160613534E-01 0.  0.
         14    1    1    2    0    0  0.21708451202E-01 -0.57108125867E-02  0.64248345643E-02  0.23348420357E-01  0.00000000000E+00 0. -1.
     999901    1    3    3    0    0  0.93940731297E-01  0.48774695966E-01 -0.51056753499E-01  0.88781226847E+00  0.88000000000E+00 0.  1.
        -11    1    4    4    0    0 -0.61722855100E-01 -0.33572956173E-01  0.26277943776E-01  0.75017635780E-01  0.51100000000E-03 0.  1.
         11    1    4    4    0    0 -0.53926327399E-01 -0.94909272058E-02  0.18353975158E-01  0.57751675396E-01  0.51100000000E-03 0. -1.
</event>
<event>
 8    1  0.1052028E+005  0.1043930E+01  0.7957747E-01            NaN
         13   -1    0    0    0    0  0.00000000000E+00  0.00000000000E+00  0.74505805969E-08  0.10566000000E+00  0.10566000000E+00 0.  1.
     999900   -1    0    0    0    0 -0.00000000000E+00 -0.00000000000E+00 -0.74505805969E-08  0.93827000000E+00  0.93827000000E+00 0. -1.
     999902    2    1    2    0    0  0.72431021611E-03 -0.75241295024E-02  0.22385265152E-01  0.10203029552E+01  0.10200293541E+01 0.  0.
     999903    2    3    3    0    0  0.11950652712E+00 -0.44351759252E-01 -0.19837703580E-01  0.13055677316E+00  0.20066089876E-01 0.  0.
         14    1    1    2    0    0 -0.72431021611E-03  0.75241295024E-02 -0.22385265152E-01  0.23627044800E-01  0.00000000000E+00 0. -1.
     999901    1    3    3    0    0 -0.11878221690E+00  0.36827629749E-01  0.42222968732E-01  0.88974618204E+00  0.88000000000E+00 0. -1.
        -11    1    4    4    0    0  0.71519836101E-01 -0.29013183138E-01 -0.23204694008E-02  0.77217209552E-01  0.51100000000E-03 0. -1.
         11    1    4    4    0    0  0.47986691015E-01 -0.15338576113E-01 -0.17517234179E-01  0.53339563609E-01  0.51100000000E-03 0.  1.
</event>
<event>
 8    1  0.1052028E+005  0.1043930E+01  0.7957747E-01            NaN
         13   -1    0    0    0    0  0.00000000000E+00  0.00000000000E+00  0.74505805969E-08  0.10566000000E+00  0.10566000000E+00 0. -1.
     999900   -1    0    0    0    0 -0.00000000000E+00 -0.00000000000E+00 -0.74505805969E-08  0.93827000000E+00  0.93827000000E+00 0.  1.
     999902    2    1    2    0    0  0.78686125931E-02  0.20160633851E-01 -0.10110310928E-01  0.10200430871E+01  0.10197633622E+01 0.  0.
     999903    2    3    3    0    0  0.12768738392E+00  0.10763387023E-01  0.20687337494E-01  0.13133990753E+00  0.20057090121E-01 0.  0.
         14    1    1    2    0    0 -0.78686125931E-02 -0.20160633851E-01  0.10110310928E-01  0.23886912912E-01  0.00000000000E+00 0. -1.
     999901    1    3    3    0    0 -0.11981877133E+00  0.93972468280E-02 -0.30797648422E-01  0.88870317956E+00  0.88000000000E+00 0.  1.
        -11    1    4    4    0    0  0.20687802297E-01 -0.56381227145E-02  0.36541160592E-02  0.21757464852E-01  0.51100000000E-03 0. -1.
         11    1    4    4    0    0  0.10699958162E+00  0.16401509737E-01  0.17033221435E-01  0.10958244268E+00  0.51100000000E-03 0.  1.
</event>
<event>
 8    1  0.1052028E+005  0.1043930E+01  0.7957747E-01            NaN
         13   -1    0    0    0    0  0.00000000000E+00  0.00000000000E+00  0.74505805969E-08  0.10566000000E+00  0.10566000000E+00 0.  1.
     999900   -1    0    0    0    0 -0.00000000000E+00 -0.00000000000E+00 -0.74505805969E-08  0.93827000000E+00  0.93827000000E+00 0. -1.
     999902    2    1    2    0    0 -0.30972061913E-02 -0.98921408294E-02 -0.23890029339E-01  0.10178880984E+01  0.10175549126E+01 0.  0.
     999903    2    3    3    0    0  0.65124630358E-01  0.10752648314E+00  0.80537661534E-03  0.12712931215E+00  0.18922244020E-01 0.  0.
         14    1    1    2    0    0  0.30972061913E-02  0.98921408294E-02  0.23890029339E-01  0.26041901586E-01  0.00000000000E+00 0.  1.
     999901    1    3    3    0    0 -0.68221836549E-01 -0.11741862397E+00 -0.24695405954E-01  0.89075878627E+00  0.88000000000E+00 0. -1.
        -11    1    4    4    0    0  0.76472323037E-02  0.22434102951E-01  0.54934375789E-02  0.24335326473E-01  0.51100000000E-03 0. -1.
         11    1    4    4    0    0  0.57477398054E-01  0.85092380193E-01 -0.46880609636E-02  0.10279398567E+00  0.51100000000E-03 0.  1.
</event>
<event>
 8    1  0.1052028E+005  0.1043930E+01  0.7957747E-01            NaN
         13   -1    0    0    0    0  0.00000000000E+00  0.00000000000E+00  0.74505805969E-08  0.10566000000E+00  0.10566000000E+00 0.  1.
     999900   -1    0    0    0    0 -0.00000000000E+00 -0.00000000000E+00 -0.74505805969E-08  0.93827000000E+00  0.93827000000E+00 0.  1.
     999902    2    1    2    0    0  0.18701414777E-01 -0.40611109870E-02  0.15846610159E-01  0.10190834592E+01  0.10187805191E+01 0.  0.
     999903    2    3    3    0    0  0.92236145881E-01 -0.91211201326E-01 -0.99791126794E-02  0.13135069371E+00  0.18067434655E-01 0.  0.
         14    1    1    2    0    0 -0.18701414777E-01  0.40611109870E-02 -0.15846610159E-01  0.24846540819E-01  0.00000000000E+00 0. -1.
     999901    1    3    3    0    0 -0.73534731104E-01  0.87150090339E-01  0.25825722839E-01  0.88773276547E+00  0.88000000000E+00 0. -1.
        -11    1    4    4    0    0  0.41358039300E-01 -0.52612542022E-01 -0.85692395468E-02  0.67470437824E-01  0.51100000000E-03 0. -1.
         11    1    4    4    0    0  0.50878106581E-01 -0.38598659304E-01 -0.14098731326E-02  0.63880255890E-01  0.51100000000E-03 0.  1.
</event>
<event>
 8    1  0.1052028E+005  0.1043930E+01  0.7957747E-01            NaN
         13   -1    0    0    0    0  0.00000000000E+00  0.00000000000E+00  0.74505805969E-08  0.10566000000E+00  0.10566000000E+00 0.  1.
     999900   -1    0    0    0    0 -0.00000000000E+00 -0.00000000000E+00 -0.74505805969E-08  0.93827000000E+00  0.93827000000E+00 0.  1.
     999902    2    1    2    0    0 -0.17741186800E-01 -0.11650778127E-01 -0.12565436427E-01  0.10192646289E+01  0.10189661443E+01 0.  0.
     999903    2    3    3    0    0  0.10579686966E+00  0.46420075352E-01  0.48143139349E-01  0.12667322930E+00  0.19507540357E-01 0.  0.
         14    1    1    2    0    0  0.17741186800E-01  0.11650778127E-01  0.12565436427E-01  0.24665371123E-01  0.00000000000E+00 0.  1.
     999901    1    3    3    0    0 -0.12353805646E+00 -0.58070853479E-01 -0.60708575776E-01  0.89259139957E+00  0.88000000000E+00 0.  1.
        -11    1    4    4    0    0  0.59268622720E-01  0.16629617737E-01  0.20423131767E-01  0.64858918102E-01  0.51100000000E-03 0.  1.
         11    1    4    4    0    0  0.46528246940E-01  0.29790457615E-01  0.27720007581E-01  0.61814311203E-01  0.51100000000E-03 0. -1.
</event>
<event>
 8    1  0.1052028E+005  0.1043930E+01  0.7957747E-01            NaN
         13   -1    0    0    0    0  0.00000000000E+00  0.00000000000E+00  0.74505805969E-08  0.10566000000E+00  0.10566000000E+00 0. -1.
     999900   -1    0    0    0    0 -0.00000000000E+00 -0.00000000000E+00 -0.74505805969E-08  0.93827000000E+00  0.93827000000E+00 0. -1.
     999902    2    1    2    0    0 -0.16371221665E-01  0.15555579283E-01 -0.37018649441E-02  0.10210455784E+01  0.10207890950E+01 0.  0.
     999903    2    3    3    0    0  0.51854291145E-01  0.84157192287E-01 -0.85216511826E-01  0.13199803216E+00  0.19756671858E-01 0.  0.
         14    1    1    2    0    0  0.16371221665E-01 -0.15555579283E-01  0.37018649441E-02  0.22884421551E-01  0.00000000000E+00 0. -1.
     999901    1    3    3    0    0 -0.68225512809E-01 -0.68601613003E-01  0.81514646882E-01  0.88904754629E+00  0.88000000000E+00 0.  1.
        -11    1    4    4    0    0  0.50171414365E-01  0.67864192015E-01 -0.72307206929E-01  0.11113645969E+00  0.51100000000E-03 0. -1.
         11    1    4    4    0    0  0.16828767800E-02  0.16293000271E-01 -0.12909304897E-01  0.20861572473E-01  0.51100000000E-03 0.  1.
</event>
<event>
 8    1  0.1052028E+005  0.1043930E+01  0.7957747E-01            NaN
         13   -1    0    0    0    0  0.00000000000E+00  0.00000000000E+00  0.74505805969E-08  0.10566000000E+00  0.10566000000E+00 0.  1.
     999900   -1    0    0    0    0 -0.00000000000E+00 -0.00000000000E+00 -0.74505805969E-08  0.93827000000E+00  0.93827000000E+00 0.  1.
     999902    2    1    2    0    0 -0.18376687879E-02 -0.23006708808E-01  0.69543359839E-03  0.10208395408E+01  0.10205783649E+01 0.  0.
     999903    2    3    3    0    0  0.80905467746E-03  0.20179256774E-01  0.12751026827E+00  0.13069683595E+00  0.20370013228E-01 0.  0.
         14    1    1    2    0    0  0.18376687879E-02  0.23006708808E-01 -0.69543359839E-03  0.23090459170E-01  0.00000000000E+00 0.  1.
     999901    1    3    3    0    0 -0.26467234654E-02 -0.43185965582E-01 -0.12681483467E+00  0.89014270489E+00  0.88000000000E+00 0.  1.
        -11    1    4    4    0    0 -0.34159324673E-03  0.93998401567E-02  0.10767856419E+00  0.10808981445E+00  0.51100000000E-03 0.  1.
         11    1    4    4    0    0  0.11506479242E-02  0.10779416617E-01  0.19831704082E-01  0.22607021499E-01  0.51100000000E-03 0. -1.
</event>
<event>
 8    1  0.1052028E+005  0.1043930E+01  0.7957747E-01            NaN
         13   -1    0    0    0    0  0.00000000000E+00  0.00000000000E+00  0.74505805969E-08  0.10566000000E+00  0.10566000000E+00 0.  1.
     999900   -1    0    0    0    0 -0.00000000000E+00 -0.00000000000E+00 -0.74505805969E-08  0.93827000000E+00  0.93827000000E+00 0. -1.
     999902    2    1    2    0    0  0.99701101250E-02  0.10662121732E-02 -0.21756418721E-01  0.10199741727E+01  0.10196928123E+01 0.  0.
     999903    2    3    3    0    0 -0.69704987708E-01 -0.73633701748E-01 -0.80757131712E-01  0.13126202446E+00  0.20671173156E-01 0.  0.
         14    1    1    2    0    0 -0.99701101250E-02 -0.10662121732E-02  0.21756418721E-01  0.23955827263E-01  0.00000000000E+00 0.  1.
     999901    1    3    3    0    0  0.79675097833E-01  0.74699913921E-01  0.59000712992E-01  0.88871214827E+00  0.88000000000E+00 0.  1.
        -11    1    4    4    0    0 -0.32931565934E-01 -0.31368505824E-01 -0.23662932057E-01  0.51270524349E-01  0.51100000000E-03 0.  1.
         11    1    4    4    0    0 -0.36773421774E-01 -0.42265195924E-01 -0.57094199655E-01  0.79991500115E-01  0.51100000000E-03 0. -1.
</event>
<event>
 8    1  0.1052028E+005  0.1043930E+01  0.7957747E-01            NaN
         13   -1    0    0    0    0  0.00000000000E+00  0.00000000000E+00  0.74505805969E-08  0.10566000000E+00  0.10566000000E+00 0.  1.
     999900   -1    0    0    0    0 -0.00000000000E+00 -0.00000000000E+00 -0.74505805969E-08  0.93827000000E+00  0.93827000000E+00 0.  1.
     999902    2    1    2    0    0 -0.15509426842E-01 -0.12831390306E-01 -0.13382330229E-01  0.10197582466E+01  0.10194717298E+01 0.  0.
     999903    2    3    3    0    0  0.24222650563E-01 -0.36870087776E-01 -0.12267610098E+00  0.13178210660E+00  0.19260262094E-01 0.  0.
         14    1    1    2    0    0  0.15509426842E-01  0.12831390306E-01  0.13382330229E-01  0.24171753361E-01  0.00000000000E+00 0.  1.
     999901    1    3    3    0    0 -0.39732077405E-01  0.24038697470E-01  0.10929377075E+00  0.88797614004E+00  0.88000000000E+00 0. -1.
        -11    1    4    4    0    0  0.23155750905E-01 -0.21278210397E-01 -0.68137686137E-01  0.75046361876E-01  0.51100000000E-03 0. -1.
         11    1    4    4    0    0  0.10668996580E-02 -0.15591877379E-01 -0.54538414842E-01  0.56735744726E-01  0.51100000000E-03 0.  1.
</event>
<event>
 8    1  0.1052028E+005  0.1043930E+01  0.7957747E-01            NaN
         13   -1    0    0    0    0  0.00000000000E+00  0.00000000000E+00  0.74505805969E-08  0.10566000000E+00  0.10566000000E+00 0. -1.
     999900   -1    0    0    0    0 -0.00000000000E+00 -0.00000000000E+00 -0.74505805969E-08  0.93827000000E+00  0.93827000000E+00 0.  1.
     999902    2    1    2    0    0  0.21621128489E-01 -0.15631239579E-01  0.14354527916E-01  0.10136337738E+01  0.10131809148E+01 0.  0.
     999903    2    3    3    0    0 -0.93097589541E-01 -0.55679384434E-01 -0.53175963435E-01  0.12272154167E+00  0.21576345204E-01 0.  0.
         14    1    1    2    0    0 -0.21621128489E-01  0.15631239579E-01 -0.14354527916E-01  0.30296226161E-01  0.00000000000E+00 0.  1.
     999901    1    3    3    0    0  0.11471871803E+00  0.40048144855E-01  0.67530491352E-01  0.89091223217E+00  0.88000000000E+00 0. -1.
        -11    1    4    4    0    0 -0.75898087479E-01 -0.40632075228E-01 -0.50231713977E-01  0.99674326837E-01  0.51100000000E-03 0.  1.
         11    1    4    4    0    0 -0.17199502062E-01 -0.15047309206E-01 -0.29442494584E-02  0.23047214830E-01  0.51100000000E-03 0. -1.
</event>
<event>
 8    1  0.1052028E+005  0.1043930E+01  0.7957747E-01            NaN
         13   -1    0    0    0    0  0.00000000000E+00  0.00000000000E+00  0.74505805969E-08  0.10566000000E+00  0.10566000000E+00 0. -1.
     999900   -1    0    0    0    0 -0.00000000000E+00 -0.00000000000E+00 -0.74505805969E-08  0.93827000000E+00  0.93827000000E+00 0.  1.
     999902    2    1    2    0    0  0.22599327138E-01 -0.59586624144E-02 -0.12698483449E-01  0.10173313774E+01  0.10169836010E+01 0.  0.
     999903    2    3    3    0    0 -0.86906464688E-01 -0.52943881345E-01  0.70557813399E-01  0.12540607767E+00  0.19811388379E-01 0.  0.
         14    1    1    2    0    0 -0.22599327138E-01  0.59586624144E-02  0.12698483449E-01  0.26598622648E-01  0.00000000000E+00 0. -1.
     999901    1    3    3    0    0  0.10950579183E+00  0.46985218930E-01 -0.83256296848E-01  0.89192529968E+00  0.88000000000E+00 0.  1.
        -11    1    4    4    0    0 -0.66751466495E-01 -0.48684102089E-01  0.51630737444E-01  0.97426352931E-01  0.51100000000E-03 0. -1.
         11    1    4    4    0    0 -0.20154998193E-01 -0.42597792552E-02  0.18927075955E-01  0.27979724743E-01  0.51100000000E-03 0.  1.
</event>
<event>
 8    1  0.1052028E+005  0.1043930E+01  0.7957747E-01            NaN
         13   -1    0    0    0    0  0.00000000000E+00  0.00000000000E+00  0.74505805969E-08  0.10566000000E+00  0.10566000000E+00 0.  1.
     999900   -1    0    0    0    0 -0.00000000000E+00 -0.00000000000E+00 -0.74505805969E-08  0.93827000000E+00  0.93827000000E+00 0. -1.
     999902    2    1    2    0    0  0.64462256740E-02 -0.21367344596E-01 -0.87219947852E-02  0.10199677290E+01  0.10196862153E+01 0.  0.
     999903    2    3    3    0    0  0.79736427542E-01 -0.65109306973E-01  0.76611561241E-01  0.13172979420E+00  0.29770583326E-01 0.  0.
         14    1    1    2    0    0 -0.64462256740E-02  0.21367344596E-01  0.87219947852E-02  0.23962271044E-01  0.00000000000E+00 0.  1.
     999901    1    3    3    0    0 -0.73290201868E-01  0.43741962377E-01 -0.85333556027E-01  0.88823793476E+00  0.88000000000E+00 0. -1.
        -11    1    4    4    0    0  0.46574573014E-01 -0.43311858159E-01  0.29447716911E-01  0.70089493228E-01  0.51100000000E-03 0. -1.
         11    1    4    4    0    0  0.33161854528E-01 -0.21797448814E-01  0.47163844330E-01  0.61640300969E-01  0.51100000000E-03 0.  1.
</event>
<event>
 8    1  0.1052028E+005  0.1043930E+01  0.7957747E-01            NaN
         13   -1    0    0    0    0  0.00000000000E+00  0.00000000000E+00  0.74505805969E-08  0.10566000000E+00  0.10566000000E+00 0. -1.
     999900   -1    0    0    0    0 -0.00000000000E+00 -0.00000000000E+00 -0.74505805969E-08  0.93827000000E+00  0.93827000000E+00 0.  1.
     999902    2    1    2    0    0  0.57976197208E-02 -0.34024980798E-02 -0.21369790443E-01  0.10215278275E+01  0.10212821574E+01 0.  0.
     999903    2    3    3    0    0 -0.11209599641E+00 -0.45762161338E-01 -0.49340318402E-01  0.13221596085E+00  0.19669912591E-01 0.  0.
         14    1    1    2    0    0 -0.57976197208E-02  0.34024980798E-02  0.21369790443E-01  0.22402172465E-01  0.00000000000E+00 0. -1.
     999901    1    3    3    0    0  0.11789361613E+00  0.42359663258E-01  0.27970527959E-01  0.88931186669E+00  0.88000000000E+00 0.  1.
        -11    1    4    4    0    0 -0.37331323634E-01 -0.25066159238E-01 -0.20909166392E-01  0.49592281894E-01  0.51100000000E-03 0.  1.
         11    1    4    4    0    0 -0.74764672776E-01 -0.20696002099E-01 -0.28431152010E-01  0.82623678954E-01  0.51100000000E-03 0. -1.
</event>
<event>
 8    1  0.1052028E+005  0.1043930E+01  0.7957747E-01            NaN
         13   -1    0    0    0    0  0.00000000000E+00  0.00000000000E+00  0.74505805969E-08  0.10566000000E+00  0.10566000000E+00 0.  1.
     999900   -1    0    0    0    0 -0.00000000000E+00 -0.00000000000E+00 -0.74505805969E-08  0.93827000000E+00  0.93827000000E+00 0.  1.
     999902    2    1    2    0    0 -0.24180755866E-02  0.13068082009E-01 -0.20291390092E-01  0.10196738179E+01  0.10193852719E+01 0.  0.
     999903    2    3    3    0    0 -0.40973556432E-02  0.12384757445E+00  0.37172886733E-01  0.13086728159E+00  0.19733521252E-01 0.  0.
         14    1    1    2    0    0  0.24180755866E-02 -0.13068082009E-01  0.20291390092E-01  0.24256182074E-01  0.00000000000E+00 0.  1.
     999901    1    3    3    0    0  0.16792800566E-02 -0.11077949244E+00 -0.57464276825E-01  0.88880653634E+00  0.88000000000E+00 0. -1.
        -11    1    4    4    0    0  0.22160112743E-02  0.88296400966E-01  0.18611757080E-01  0.90265296499E-01  0.51100000000E-03 0. -1.
         11    1    4    4    0    0 -0.63133669175E-02  0.35551173487E-01  0.18561129653E-01  0.40601985088E-01  0.51100000000E-03 0.  1.
</event>
<event>
 8    1  0.1052028E+005  0.1043930E+01  0.7957747E-01            NaN
         13   -1    0    0    0    0  0.00000000000E+00  0.00000000000E+00  0.74505805969E-08  0.10566000000E+00  0.10566000000E+00 0. -1.
     999900   -1    0    0    0    0 -0.00000000000E+00 -0.00000000000E+00 -0.74505805969E-08  0.93827000000E+00  0.93827000000E+00 0. -1.
     999902    2    1    2    0    0 -0.22874988890E-01 -0.99653160547E-02 -0.14183417903E-02  0.10189383147E+01  0.10186317808E+01 0.  0.
     999903    2    3    3    0    0 -0.41664128642E-01 -0.51568380751E-01  0.11081221689E+00  0.13063682023E+00  0.19784688044E-01 0.  0.
         14    1    1    2    0    0  0.22874988890E-01  0.99653160547E-02  0.14183417903E-02  0.24991685302E-01  0.00000000000E+00 0. -1.
     999901    1    3    3    0    0  0.18789139752E-01  0.41603064696E-01 -0.11223055868E+00  0.88830149446E+00  0.88000000000E+00 0. -1.
        -11    1    4    4    0    0 -0.17069632754E-01 -0.31696339861E-01  0.45079513612E-01  0.57692755104E-01  0.51100000000E-03 0.  1.
         11    1    4    4    0    0 -0.24594495888E-01 -0.19872040890E-01  0.65732703274E-01  0.72944065131E-01  0.51100000000E-03 0. -1.
</event>
<event>
 8    1  0.1052028E+005  0.1043930E+01  0.7957747E-01            NaN
         13   -1    0    0    0    0  0.00000000000E+00  0.00000000000E+00  0.74505805969E-08  0.10566000000E+00  0.10566000000E+00 0. -1.
     999900   -1    0    0    0    0 -0.00000000000E+00 -0.00000000000E+00 -0.74505805969E-08  0.93827000000E+00  0.93827000000E+00 0.  1.
     999902    2    1    2    0    0  0.13021843164E-01 -0.23326844951E-01 -0.60489135883E-02  0.10165384055E+01  0.10161692922E+01 0.  0.
     999903    2    3    3    0    0 -0.11578299016E+00  0.11877243409E-01 -0.43160423985E-01  0.12569202303E+00  0.19720363379E-01 0.  0.
         14    1    1    2    0    0 -0.13021843164E-01  0.23326844951E-01  0.60489135883E-02  0.27391594520E-01  0.00000000000E+00 0. -1.
     999901    1    3    3    0    0  0.12880483333E+00 -0.35204088359E-01  0.37111510397E-01  0.89084638245E+00  0.88000000000E+00 0. -1.
        -11    1    4    4    0    0 -0.50899656357E-01  0.68451054256E-02 -0.29376451944E-01  0.59168129389E-01  0.51100000000E-03 0. -1.
         11    1    4    4    0    0 -0.64883333806E-01  0.50321379832E-02 -0.13783972041E-01  0.66523893638E-01  0.51100000000E-03 0.  1.
</event>
<event>
 8    1  0.1052028E+005  0.1043930E+01  0.7957747E-01            NaN
         13   -1    0    0    0    0  0.00000000000E+00  0.00000000000E+00  0.74505805969E-08  0.10566000000E+00  0.10566000000E+00 0. -1.
     999900   -1    0    0    0    0 -0.00000000000E+00 -0.00000000000E+00 -0.74505805969E-08  0.93827000000E+00  0.93827000000E+00 0.  1.
     999902    2    1    2    0    0  0.22622608971E-01  0.12990104787E-02 -0.71641753092E-02  0.10201645782E+01  0.10198877249E+01 0.  0.
     999903    2    3    3    0    0 -0.18820967356E-02  0.36745322973E-03 -0.12979484706E+00  0.13132284311E+00  0.19882391458E-01 0.  0.
         14    1    1    2    0    0 -0.22622608971E-01 -0.12990104787E-02  0.71641753092E-02  0.23765421788E-01  0.00000000000E+00 0.  1.
     999901    1    3    3    0    0  0.24504705707E-01  0.93155724895E-03  0.12263067175E+00  0.88884173510E+00  0.88000000000E+00 0. -1.
        -11    1    4    4    0    0 -0.70986936485E-02  0.65392710353E-02 -0.39484394145E-01  0.40650117087E-01  0.51100000000E-03 0.  1.
         11    1    4    4    0    0  0.52165969130E-02 -0.61718178056E-02 -0.90310452915E-01  0.90672726026E-01  0.51100000000E-03 0. -1.
</event>
<event>
 7    1  0.1052028E+005  0.1043930E+01  0.7957747E-01            NaN
         13   -1    0    0    0    0  0.00000000000E+00  0.00000000000E+00  0.74505805969E-08  0.10566000000E+00  0.10566000000E+00 0.  1.
     999900   -1    0    0    0    0 -0.00000000000E+00 -0.00000000000E+00 -0.74505805969E-08  0.93827000000E+00  0.93827000000E+00 0. -1.
     999902    2    1    2    0    0  0.50856303713E-02  0.68586369852E-02 -0.22708108607E-01  0.10196696881E+01  0.10193810426E+01 0.  0.
         14    1    1    2    0    0 -0.50856303713E-02 -0.68586369852E-02  0.22708108607E-01  0.24260311912E-01  0.00000000000E+00 0.  1.
     999901    1    3    3    0    0  0.12686380500E-01 -0.11591897528E+00  0.57877246113E-02  0.88771146824E+00  0.88000000000E+00 0. -1.
        -11    1    3    3    0    0 -0.18580482683E-01  0.90830527749E-01 -0.94981757935E-02  0.93198152193E-01  0.51100000000E-03 0. -1.
         11    1    3    3    0    0  0.10979732555E-01  0.31947084519E-01 -0.18997657425E-01  0.38760067659E-01  0.51100000000E-03 0.  1.
</event>
<event>
 8    1  0.1052028E+005  0.1043930E+01  0.7957747E-01            NaN
         13   -1    0    0    0    0  0.00000000000E+00  0.00000000000E+00  0.74505805969E-08  0.10566000000E+00  0.10566000000E+00 0.  1.
     999900   -1    0    0    0    0 -0.00000000000E+00 -0.00000000000E+00 -0.74505805969E-08  0.93827000000E+00  0.93827000000E+00 0.  1.
     999902    2    1    2    0    0 -0.19830381392E-01  0.14459008635E-01 -0.89650063770E-02  0.10178018869E+01  0.10174664626E+01 0.  0.
     999903    2    3    3    0    0 -0.31505426437E-01  0.10713730925E+00  0.63235149734E-01  0.12991763955E+00  0.20221621511E-01 0.  0.
         14    1    1    2    0    0  0.19830381392E-01 -0.14459008635E-01  0.89650063770E-02  0.26128113139E-01  0.00000000000E+00 0. -1.
     999901    1    3    3    0    0  0.11675045045E-01 -0.92678300613E-01 -0.72200156111E-01  0.88788424731E+00  0.88000000000E+00 0.  1.
        -11    1    4    4    0    0 -0.86362793214E-02  0.57870176442E-01  0.39758528703E-01  0.70742804352E-01  0.51100000000E-03 0. -1.
         11    1    4    4    0    0 -0.22869147116E-01  0.49267132805E-01  0.23476621031E-01  0.59174835198E-01  0.51100000000E-03 0.  1.
</event>
<event>
 8    1  0.1052028E+005  0.1043930E+01  0.7957747E-01            NaN
         13   -1    0    0    0    0  0.00000000000E+00  0.00000000000E+00  0.74505805969E-08  0.10566000000E+00  0.10566000000E+00 0. -1.
     999900   -1    0    0    0    0 -0.00000000000E+00 -0.00000000000E+00 -0.74505805969E-08  0.93827000000E+00  0.93827000000E+00 0. -1.
     999902    2    1    2    0    0  0.22672088175E-01  0.98741801985E-03 -0.21614347073E-02  0.10211337201E+01  0.10208792308E+01 0.  0.
     999903    2    3    3    0    0 -0.73411210422E-01 -0.80703548254E-01  0.66689159926E-01  0.12948030167E+00  0.20382246024E-01 0.  0.
         14    1    1    2    0    0 -0.22672088175E-01 -0.98741801985E-03  0.21614347073E-02  0.22796279884E-01  0.00000000000E+00 0. -1.
     999901    1    3    3    0    0  0.96083298598E-01  0.81690966274E-01 -0.68850594633E-01  0.89165341844E+00  0.88000000000E+00 0. -1.
        -11    1    4    4    0    0 -0.15654200478E-01 -0.68344647821E-02  0.80976512976E-02  0.18910234769E-01  0.51100000000E-03 0. -1.
         11    1    4    4    0    0 -0.57757009944E-01 -0.73869083472E-01  0.58591508629E-01  0.11057006690E+00  0.51100000000E-03 0.  1.
</event>
<event>
 8    1  0.1052028E+005  0.1043930E+01  0.7957747E-01            NaN
         13   -1    0    0    0    0  0.00000000000E+00  0.00000000000E+00  0.74505805969E-08  0.10566000000E+00  0.10566000000E+00 0. -1.
     999900   -1    0    0    0    0 -0.00000000000E+00 -0.00000000000E+00 -0.74505805969E-08  0.93827000000E+00  0.93827000000E+00 0. -1.
     999902    2    1    2    0    0 -0.10243145595E-02 -0.17074927789E-01  0.17553353691E-01  0.10194203569E+01  0.10191256750E+01 0.  0.
     999903    2    3    3    0    0 -0.27081169742E-01  0.12241933263E+00  0.16744649870E-01  0.12805159909E+00  0.19923503030E-01 0.  0.
         14    1    1    2    0    0  0.10243145595E-02  0.17074927789E-01 -0.17553353691E-01  0.24509643105E-01  0.00000000000E+00 0.  1.
     999901    1    3    3    0    0  0.26056855183E-01 -0.13949426042E+00  0.80870382049E-03  0.89136875781E+00  0.88000000000E+00 0. -1.
        -11    1    4    4    0    0 -0.20640884724E-02  0.18264871633E-01 -0.43038415128E-02  0.18885183869E-01  0.51100000000E-03 0. -1.
         11    1    4    4    0    0 -0.25017081270E-01  0.10415446100E+00  0.21048491383E-01  0.10916641522E+00  0.51100000000E-03 0.  1.
</event>
<event>
 8    1  0.1052028E+005  0.1043930E+01  0.7957747E-01            NaN
         13   -1    0    0    0    0  0.00000000000E+00  0.00000000000E+00  0.74505805969E-08  0.10566000000E+00  0.10566000000E+00 0. -1.
     999900   -1    0    0    0    0 -0.00000000000E+00 -0.00000000000E+00 -0.74505805969E-08  0.93827000000E+00  0.93827000000E+00 0.  1.
     999902    2    1    2    0    0  0.45909067676E-02 -0.23015866981E-01 -0.27061619393E-02  0.10203052276E+01  0.10200316797E+01 0.  0.
     999903    2    3    3    0    0 -0.10730717744E+00 -0.24256158571E-01  0.67725786856E-01  0.13042693314E+00  0.17922363778E-01 0.  0.
         14    1    1    2    0    0 -0.45909067676E-02  0.23015866981E-01  0.27061619393E-02  0.23624772386E-01  0.00000000000E+00 0. -1.
     999901    1    3    3    0    0  0.11189808421E+00  0.12402915899E-02 -0.70431948795E-01  0.88987829448E+00  0.88000000000E+00 0.  1.
        -11    1    4    4    0    0 -0.98600608210E-01 -0.22384901101E-01  0.67370482176E-01  0.12149982192E+00  0.51100000000E-03 0. -1.
         11    1    4    4    0    0 -0.87065692298E-02 -0.18712574695E-02  0.35530467957E-03  0.89271112173E-02  0.51100000000E-03 0.  1.
</event>
<event>
 8    1  0.1052028E+005  0.1043930E+01  0.7957747E-01            NaN
         13   -1    0    0    0    0  0.00000000000E+00  0.00000000000E+00  0.74505805969E-08  0.10566000000E+00  0.10566000000E+00 0. -1.
     999900   -1    0    0    0    0 -0.00000000000E+00 -0.00000000000E+00 -0.74505805969E-08  0.93827000000E+00  0.93827000000E+00 0. -1.
     999902    2    1    2    0    0 -0.51595108237E-02  0.20906527094E-01 -0.12631105802E-01  0.10189650594E+01  0.10186591893E+01 0.  0.
     999903    2    3    3    0    0  0.78958396729E-01  0.83628915300E-01 -0.60294502817E-01  0.13145071032E+00  0.20387208849E-01 0.  0.
         14    1    1    2    0    0  0.51595108237E-02 -0.20906527094E-01  0.12631105802E-01  0.24964940634E-01  0.00000000000E+00 0. -1.
     999901    1    3    3    0    0 -0.84117907552E-01 -0.62722388205E-01  0.47663397015E-01  0.88751434905E+00  0.88000000000E+00 0.  1.
        -11    1    4    4    0    0  0.51125643607E-01  0.44004134543E-01 -0.43161551758E-01  0.80083556129E-01  0.51100000000E-03 0. -1.
         11    1    4    4    0    0  0.27832753122E-01  0.39624780757E-01 -0.17132951059E-01  0.51367154188E-01  0.51100000000E-03 0.  1.
</event>
<event>
 7    1  0.1052028E+005  0.1043930E+01  0.7957747E-01            NaN
         13   -1    0    0    0    0  0.00000000000E+00  0.00000000000E+00  0.74505805969E-08  0.10566000000E+00  0.10566000000E+00 0. -1.
     999900   -1    0    0    0    0 -0.00000000000E+00 -0.00000000000E+00 -0.74505805969E-08  0.93827000000E+00  0.93827000000E+00 0. -1.
     999903    2    1    2    0    0 -0.34501827293E-01  0.75557930595E-01  0.59792372740E-01  0.10529677482E+00  0.24756938177E-01 0.  0.
         14    1    1    2    0    0  0.20681668082E-01  0.42595767883E-01 -0.14305331492E-01  0.49464869810E-01  0.00000000000E+00 0.  1.
     999901    1    1    2    0    0  0.13820159211E-01 -0.11815369848E+00 -0.45487041249E-01  0.88916835537E+00  0.88000000000E+00 0. -1.
        -11    1    3    3    0    0 -0.88190129115E-02  0.30603724104E-01  0.98049242251E-02  0.33328074919E-01  0.51100000000E-03 0. -1.
         11    1    3    3    0    0 -0.25682814382E-01  0.44954206491E-01  0.49987448515E-01  0.71968699904E-01  0.51100000000E-03 0.  1.
</event>
<event>
 8    1  0.1052028E+005  0.1043930E+01  0.7957747E-01            NaN
         13   -1    0    0    0    0  0.00000000000E+00  0.00000000000E+00  0.74505805969E-08  0.10566000000E+00  0.10566000000E+00 0. -1.
     999900   -1    0    0    0    0 -0.00000000000E+00 -0.00000000000E+00 -0.74505805969E-08  0.93827000000E+00  0.93827000000E+00 0. -1.
     999902    2    1    2    0    0 -0.18605030078E-01 -0.87761734709E-02  0.54928391834E-02  0.10226382258E+01  0.10224165498E+01 0.  0.
     999903    2    3    3    0    0  0.19356847799E-01 -0.12371965585E+00  0.42300544413E-01  0.13358934333E+00  0.19378745935E-01 0.  0.
         14    1    1    2    0    0  0.18605030078E-01  0.87761734709E-02 -0.54928391834E-02  0.21291774169E-01  0.00000000000E+00 0.  1.
     999901    1    3    3    0    0 -0.37961877876E-01  0.11494348238E+00 -0.36807705229E-01  0.88904888250E+00  0.88000000000E+00 0. -1.
        -11    1    4    4    0    0  0.63452277870E-02 -0.18405104034E-01  0.33964600608E-03  0.19477839988E-01  0.51100000000E-03 0. -1.
         11    1    4    4    0    0  0.13011620012E-01 -0.10531455181E+00  0.41960898407E-01  0.11411150334E+00  0.51100000000E-03 0.  1.
</event>
<event>
 8    1  0.1052028E+005  0.1043930E+01  0.7957747E-01            NaN
         13   -1    0    0    0    0  0.00000000000E+00  0.00000000000E+00  0.74505805969E-08  0.10566000000E+00  0.10566000000E+00 0. -1.
     999900   -1    0    0    0    0 -0.00000000000E+00 -0.00000000000E+00 -0.74505805969E-08  0.93827000000E+00  0.93827000000E+00 0. -1.
     999902    2    1    2    0    0 -0.18197961115E-01  0.60704883927E-02  0.15266685589E-01  0.10194128977E+01  0.10191180342E+01 0.  0.
     999903    2    3    3    0    0  0.24325199256E-01 -0.50173964355E-01 -0.11294419335E+00  0.12733123822E+00  0.18647021183E-01 0.  0.
         14    1    1    2    0    0  0.18197961115E-01 -0.60704883927E-02 -0.15266685589E-01  0.24517102336E-01  0.00000000000E+00 0.  1.
     999901    1    3    3    0    0 -0.42523160371E-01  0.56244452748E-01  0.12821087894E+00  0.89208165944E+00  0.88000000000E+00 0.  1.
        -11    1    4    4    0    0  0.62354401207E-02 -0.33094280073E-01 -0.70456419723E-01  0.78092767195E-01  0.51100000000E-03 0. -1.
         11    1    4    4    0    0  0.18089759135E-01 -0.17079684282E-01 -0.42487773624E-01  0.49238471029E-01  0.51100000000E-03 0.  1.
</event>
<event>
 8    1  0.1052028E+005  0.1043930E+01  0.7957747E-01            NaN
         13   -1    0    0    0    0  0.00000000000E+00  0.00000000000E+00  0.74505805969E-08  0.10566000000E+00  0.10566000000E+00 0. -1.
     999900   -1    0    0    0    0 -0.00000000000E+00 -0.00000000000E+00 -0.74505805969E-08  0.93827000000E+00  0.93827000000E+00 0.  1.
     999902    2    1    2    0    0 -0.28878176442E-01  0.76341076607E-02 -0.46397977016E-02  0.10137015962E+01  0.10132507931E+01 0.  0.
     999903    2    3    3    0    0 -0.10991383230E+00  0.30430435154E-01  0.54699761335E-01  0.12769503112E+00  0.17518423677E-01 0.  0.
         14    1    1    2    0    0  0.28878176442E-01 -0.76341076607E-02  0.46397977016E-02  0.30228403813E-01  0.00000000000E+00 0. -1.
     999901    1    3    3    0    0  0.81035655862E-01 -0.22796327494E-01 -0.59339559037E-01  0.88600656506E+00  0.88000000000E+00 0. -1.
        -11    1    4    4    0    0 -0.80277942401E-01  0.30045022334E-01  0.39460891906E-01  0.94364582944E-01  0.51100000000E-03 0. -1.
         11    1    4    4    0    0 -0.29635889903E-01  0.38541282057E-03  0.15238869430E-01  0.33330448180E-01  0.51100000000E-03 0.  1.
</event>
<event>
 8    1  0.1052028E+005  0.1043930E+01  0.7957747E-01            NaN
         13   -1    0    0    0    0  0.00000000000E+00  0.00000000000E+00  0.74505805969E-08  0.10566000000E+00  0.10566000000E+00 0.  1.
     999900   -1    0    0    0    0 -0.00000000000E+00 -0.00000000000E+00 -0.74505805969E-08  0.93827000000E+00  0.93827000000E+00 0. -1.
     999902    2    1    2    0    0 -0.11447476962E-01 -0.12780852626E-01  0.13813694727E-01  0.10219024471E+01  0.10216650128E+01 0.  0.
     999903    2    3    3    0    0 -0.80980304091E-01  0.65510604727E-01 -0.76983754280E-01  0.13105535416E+00  0.19988958147E-01 0.  0.
         14    1    1    2    0    0  0.11447476962E-01  0.12780852626E-01 -0.13813694727E-01  0.22027552853E-01  0.00000000000E+00 0. -1.
     999901    1    3    3    0    0  0.69532827129E-01 -0.78291457354E-01  0.90797449008E-01  0.89084709299E+00  0.88000000000E+00 0.  1.
        -11    1    4    4    0    0 -0.50892212175E-01  0.34912209771E-01 -0.55765863413E-01  0.83180360028E-01  0.51100000000E-03 0. -1.
         11    1    4    4    0    0 -0.30088091916E-01  0.30598394956E-01 -0.21217890867E-01  0.47874994129E-01  0.51100000000E-03 0.  1.
</event>
<event>
 8    1  0.1052028E+005  0.1043930E+01  0.7957747E-01            NaN
         13   -1    0    0    0    0  0.00000000000E+00  0.00000000000E+00  0.74505805969E-08  0.10566000000E+00  0.10566000000E+00 0.  1.
     999900   -1    0    0    0    0 -0.00000000000E+00 -0.00000000000E+00 -0.74505805969E-08  0.93827000000E+00  0.93827000000E+00 0.  1.
     999902    2    1    2    0    0  0.16220735845E-01  0.17412948844E-01 -0.18870071206E-02  0.10200577597E+01  0.10197783825E+01 0.  0.
     999903    2    3    3    0    0 -0.26906232354E-01 -0.55330952349E-01 -0.11189634711E+00  0.12918534159E+00  0.19560172775E-01 0.  0.
         14    1    1    2    0    0 -0.16220735845E-01 -0.17412948844E-01  0.18870071206E-02  0.23872240252E-01  0.00000000000E+00 0. -1.
     999901    1    3    3    0    0  0.43126968199E-01  0.72743901193E-01  0.11000933999E+00  0.89087241816E+00  0.88000000000E+00 0.  1.
        -11    1    4    4    0    0  0.20005558245E-02 -0.13194771629E-01 -0.26264748874E-01  0.29465274076E-01  0.51100000000E-03 0. -1.
         11    1    4    4    0    0 -0.28906788179E-01 -0.42136180720E-01 -0.85631598233E-01  0.99720067516E-01  0.51100000000E-03 0.  1.
</event>
<event>
 7    1  0.1052028E+005  0.1043930E+01  0.7957747E-01            NaN
         13   -1    0    0    0    0  0.00000000000E+00  0.00000000000E+00  0.74505805969E-08  0.10566000000E+00  0.10566000000E+00 0.  1.
     999900   -1    0    0    0    0 -0.00000000000E+00 -0.00000000000E+00 -0.74505805969E-08  0.93827000000E+00  0.93827000000E+00 0. -1.
     999903    2    1    2    0    0  0.14148700185E-01  0.69092586883E-01 -0.88526042627E-01  0.11495725798E+00  0.20108198840E-01 0.  0.
         14    1    1    2    0    0  0.33459620401E-01 -0.12394667690E-04 -0.18982310778E-01  0.38469136636E-01  0.00000000000E+00 0.  1.
     999901    1    1    2    0    0 -0.47608320586E-01 -0.69080192215E-01  0.10750835341E+00  0.89050360538E+00  0.88000000000E+00 0.  1.
        -11    1    3    3    0    0  0.15560242280E-02  0.21867546063E-01 -0.42480005262E-01  0.47806095325E-01  0.51100000000E-03 0. -1.
         11    1    3    3    0    0  0.12592675957E-01  0.47225040820E-01 -0.46046037366E-01  0.67151162658E-01  0.51100000000E-03 0.  1.
</event>
<event>
 8    1  0.1052028E+005  0.1043930E+01  0.7957747E-01            NaN
         13   -1    0    0    0    0  0.00000000000E+00  0.00000000000E+00  0.74505805969E-08  0.10566000000E+00  0.10566000000E+00 0.  1.
     999900   -1    0    0    0    0 -0.00000000000E+00 -0.00000000000E+00 -0.74505805969E-08  0.93827000000E+00  0.93827000000E+00 0.  1.
     999902    2    1    2    0    0  0.20849467259E-01 -0.90557413320E-02 -0.69412294727E-02  0.10201626400E+01  0.10198857410E+01 0.  0.
     999903    2    3    3    0    0  0.82433674058E-01 -0.10232973255E+00 -0.44864628563E-02  0.13308954386E+00  0.20640095781E-01 0.  0.
         14    1    1    2    0    0 -0.20849467259E-01  0.90557413320E-02  0.69412294727E-02  0.23767360027E-01  0.00000000000E+00 0.  1.
     999901    1    3    3    0    0 -0.61584206799E-01  0.93273991219E-01 -0.24547666163E-02  0.88707309611E+00  0.88000000000E+00 0. -1.
        -11    1    4    4    0    0  0.63268633500E-02 -0.13354474910E-01 -0.60935959087E-02  0.15992630555E-01  0.51100000000E-03 0. -1.
         11    1    4    4    0    0  0.76106810708E-01 -0.88975257641E-01  0.16071330523E-02  0.11709691331E+00  0.51100000000E-03 0.  1.
</event>
<event>
 8    1  0.1052028E+005  0.1043930E+01  0.7957747E-01            NaN
         13   -1    0    0    0    0  0.00000000000E+00  0.00000000000E+00  0.74505805969E-08  0.10566000000E+00  0.10566000000E+00 0.  1.
     999900   -1    0    0    0    0 -0.00000000000E+00 -0.00000000000E+00 -0.74505805969E-08  0.93827000000E+00  0.93827000000E+00 0.  1.
     999902    2    1    2    0    0  0.20800986300E-01  0.37587076324E-02  0.10375326137E-01  0.10203831041E+01  0.10201113777E+01 0.  0.
     999903    2    3    3    0    0 -0.67224401904E-01 -0.10791191721E+00  0.30628193551E-02  0.12893917980E+00  0.21256272896E-01 0.  0.
         14    1    1    2    0    0 -0.20800986300E-01 -0.37587076324E-02 -0.10375326137E-01  0.23546895901E-01  0.00000000000E+00 0.  1.
     999901    1    3    3    0    0  0.88025388204E-01  0.11167062484E+00  0.73125067820E-02  0.89144392430E+00  0.88000000000E+00 0. -1.
        -11    1    4    4    0    0 -0.11009130773E-02 -0.11407203333E-01  0.33572244116E-02  0.11952755926E-01  0.51100000000E-03 0.  1.
         11    1    4    4    0    0 -0.66123488826E-01 -0.96504713875E-01 -0.29440505650E-03  0.11698642387E+00  0.51100000000E-03 0. -1.
</event>
<event>
 8    1  0.1052028E+005  0.1043930E+01  0.7957747E-01            NaN
         13   -1    0    0    0    0  0.00000000000E+00  0.00000000000E+00  0.74505805969E-08  0.10566000000E+00  0.10566000000E+00 0.  1.
     999900   -1    0    0    0    0 -0.00000000000E+00 -0.00000000000E+00 -0.74505805969E-08  0.93827000000E+00  0.93827000000E+00 0. -1.
     999902    2    1    2    0    0 -0.17793685386E-01  0.62011371834E-02  0.12154144841E-01  0.10215069632E+01  0.10212608302E+01 0.  0.
     999903    2    3    3    0    0  0.11627257931E+00  0.52150973414E-01  0.17253638954E-01  0.13015341068E+00  0.20079480217E-01 0.  0.
         14    1    1    2    0    0  0.17793685386E-01 -0.62011371834E-02 -0.12154144841E-01  0.22423036788E-01  0.00000000000E+00 0. -1.
     999901    1    3    3    0    0 -0.13406626470E+00 -0.45949836230E-01 -0.50994941129E-02  0.89135355254E+00  0.88000000000E+00 0. -1.
        -11    1    4    4    0    0  0.92051833804E-01  0.48847436063E-01  0.10215315731E-01  0.10471019966E+00  0.51100000000E-03 0. -1.
         11    1    4    4    0    0  0.24220745507E-01  0.33035373507E-02  0.70383232232E-02  0.25443211014E-01  0.51100000000E-03 0.  1.
</event>
<event>
 8    1  0.1052028E+005  0.1043930E+01  0.7957747E-01            NaN
         13   -1    0    0    0    0  0.00000000000E+00  0.00000000000E+00  0.74505805969E-08  0.10566000000E+00  0.10566000000E+00 0. -1.
     999900   -1    0    0    0    0 -0.00000000000E+00 -0.00000000000E+00 -0.74505805969E-08  0.93827000000E+00  0.93827000000E+00 0.  1.
     999902    2    1    2    0    0  0.27177270101E-02 -0.15707231740E-01  0.17907330760E-01  0.10199555206E+01  0.10196737166E+01 0.  0.
     999903    2    3    3    0    0  0.26095425810E-02 -0.13044348875E+00 -0.58980432486E-02  0.13218803062E+00  0.20410170423E-01 0.  0.
         14    1    1    2    0    0 -0.27177270101E-02  0.15707231740E-01 -0.17907330760E-01  0.23974479432E-01  0.00000000000E+00 0.  1.
     999901    1    3    3    0    0  0.10818442903E-03  0.11473625701E+00  0.23805374009E-01  0.88776748995E+00  0.88000000000E+00 0.  1.
        -11    1    4    4    0    0 -0.84109395852E-02 -0.77116431042E-01 -0.22077936186E-02  0.77606850954E-01  0.51100000000E-03 0.  1.
         11    1    4    4    0    0  0.11020482166E-01 -0.53327057704E-01 -0.36902496300E-02  0.54581179667E-01  0.51100000000E-03 0. -1.
</event>
<event>
 8    1  0.1052028E+005  0.1043930E+01  0.7957747E-01            NaN
         13   -1    0    0    0    0  0.00000000000E+00  0.00000000000E+00  0.74505805969E-08  0.10566000000E+00  0.10566000000E+00 0. -1.
     999900   -1    0    0    0    0 -0.00000000000E+00 -0.00000000000E+00 -0.74505805969E-08  0.93827000000E+00  0.93827000000E+00 0.  1.
     999902    2    1    2    0    0  0.23148359560E-01 -0.22326877471E-03  0.66432782013E-02  0.10198461975E+01  0.10195617867E+01 0.  0.
     999903    2    3    3    0    0  0.24958825546E-01 -0.21002465056E-02  0.12762838700E+00  0.13156459944E+00  0.19821318119E-01 0.  0.
         14    1    1    2    0    0 -0.23148359560E-01  0.22326877471E-03 -0.66432782013E-02  0.24083802535E-01  0.00000000000E+00 0.  1.
     999901    1    3    3    0    0 -0.18104659853E-02  0.18769777308E-02 -0.12098510879E+00  0.88828159802E+00  0.88000000000E+00 0.  1.
        -11    1    4    4    0    0  0.19021225776E-01 -0.10018319108E-01  0.75510521300E-01  0.78512888723E-01  0.51100000000E-03 0.  1.
         11    1    4    4    0    0  0.59375997699E-02  0.79180726023E-02  0.52117865696E-01  0.53051710721E-01  0.51100000000E-03 0. -1.
</event>
<event>
 8    1  0.1052028E+005  0.1043930E+01  0.7957747E-01            NaN
         13   -1    0    0    0    0  0.00000000000E+00  0.00000000000E+00  0.74505805969E-08  0.10566000000E+00  0.10566000000E+00 0. -1.
     999900   -1    0    0    0    0 -0.00000000000E+00 -0.00000000000E+00 -0.74505805969E-08  0.93827000000E+00  0.93827000000E+00 0. -1.
     999902    2    1    2    0    0 -0.11525764880E-01 -0.16654790815E-01  0.10900870631E-01  0.10209288197E+01  0.10206696824E+01 0.  0.
     999903    2    3    3    0    0  0.79159026833E-01  0.98648258759E-01 -0.10655375558E-01  0.12852577377E+00  0.20191756004E-01 0.  0.
         14    1    1    2    0    0  0.11525764880E-01  0.16654790815E-01 -0.10900870631E-01  0.23001180267E-01  0.00000000000E+00 0.  1.
     999901    1    3    3    0    0 -0.90684791713E-01 -0.11530304957E+00  0.21556246189E-01  0.89240304596E+00  0.88000000000E+00 0.  1.
        -11    1    4    4    0    0  0.61911954552E-01  0.62643600877E-01 -0.52172527146E-02  0.88231466576E-01  0.51100000000E-03 0.  1.
         11    1    4    4    0    0  0.17247072280E-01  0.36004657882E-01 -0.54381228436E-02  0.40294307197E-01  0.51100000000E-03 0. -1.
</event>
<event>
 8    1  0.1052028E+005  0.1043930E+01  0.7957747E-01            NaN
         13   -1    0    0    0    0  0.00000000000E+00  0.00000000000E+00  0.74505805969E-08  0.10566000000E+00  0.10566000000E+00 0.  1.
     999900   -1    0    0    0    0 -0.00000000000E+00 -0.00000000000E+00 -0.74505805969E-08  0.93827000000E+00  0.93827000000E+00 0.  1.
     999902    2    1    2    0    0 -0.19620441507E-01  0.13613812512E-01 -0.11011570656E-02  0.10200237213E+01  0.10197435373E+01 0.  0.
     999903    2    3    3    0    0 -0.58368484793E-01 -0.88955683084E-01 -0.72947080066E-01  0.13031379722E+00  0.18450357363E-01 0.  0.
         14    1    1    2    0    0  0.19620441507E-01 -0.13613812512E-01  0.11011570656E-02  0.23906278735E-01  0.00000000000E+00 0. -1.
     999901    1    3    3    0    0  0.38748043286E-01  0.10256949560E+00  0.71845923001E-01  0.88970992404E+00  0.88000000000E+00 0. -1.
        -11    1    4    4    0    0 -0.48005769389E-01 -0.60001950386E-01 -0.47030233469E-01  0.90093795157E-01  0.51100000000E-03 0. -1.
         11    1    4    4    0    0 -0.10362715405E-01 -0.28953732698E-01 -0.25916846598E-01  0.40220002067E-01  0.51100000000E-03 0.  1.
</event>
<event>
 8    1  0.1052028E+005  0.1043930E+01  0.7957747E-01            NaN
         13   -1    0    0    0    0  0.00000000000E+00  0.00000000000E+00  0.74505805969E-08  0.10566000000E+00  0.10566000000E+00 0.  1.
     999900   -1    0    0    0    0 -0.00000000000E+00 -0.00000000000E+00 -0.74505805969E-08  0.93827000000E+00  0.93827000000E+00 0.  1.
     999902    2    1    2    0    0 -0.28276354567E-02  0.66803316714E-02  0.24236950419E-01  0.10186307486E+01  0.10183165274E+01 0.  0.
     999903    2    3    3    0    0  0.12510636075E+00 -0.43417755910E-02  0.23880107981E-01  0.12931150250E+00  0.21926071380E-01 0.  0.
         14    1    1    2    0    0  0.28276354567E-02 -0.66803316714E-02 -0.24236950419E-01  0.25299251355E-01  0.00000000000E+00 0. -1.
     999901    1    3    3    0    0 -0.12793399620E+00  0.11022107262E-01  0.35684243775E-03  0.88931924615E+00  0.88000000000E+00 0. -1.
        -11    1    4    4    0    0  0.61683299705E-01 -0.50259586824E-02  0.10487655164E-02  0.61898713665E-01  0.51100000000E-03 0. -1.
         11    1    4    4    0    0  0.63423061042E-01  0.68418309138E-03  0.22831342465E-01  0.67412788832E-01  0.51100000000E-03 0.  1.
</event>
<event>
 8    1  0.1052028E+005  0.1043930E+01  0.7957747E-01            NaN
         13   -1    0    0    0    0  0.00000000000E+00  0.00000000000E+00  0.74505805969E-08  0.10566000000E+00  0.10566000000E+00 0.  1.
     999900   -1    0    0    0    0 -0.00000000000E+00 -0.00000000000E+00 -0.74505805969E-08  0.93827000000E+00  0.93827000000E+00 0. -1.
     999902    2    1    2    0    0 -0.46431080366E-02  0.14165835437E-01 -0.45020769406E-03  0.10290158445E+01  0.10289077589E+01 0.  0.
     999903    2    3    3    0    0  0.62946872467E-03 -0.12801282044E+00  0.42870315111E-01  0.13653657983E+00  0.20413115582E-01 0.  0.
         14    1    1    2    0    0  0.46431080366E-02 -0.14165835437E-01  0.45020769406E-03  0.14914155451E-01  0.00000000000E+00 0. -1.
     999901    1    3    3    0    0 -0.52725767613E-02  0.14217865587E+00 -0.43320522805E-01  0.89247926472E+00  0.88000000000E+00 0. -1.
        -11    1    4    4    0    0 -0.17349442977E-02 -0.47680775486E-01  0.26280346175E-01  0.54473700983E-01  0.51100000000E-03 0. -1.
         11    1    4    4    0    0  0.23644130223E-02 -0.80332044951E-01  0.16589968935E-01  0.82062878850E-01  0.51100000000E-03 0.  1.
</event>
<event>
 8    1  0.1052028E+005  0.1043930E+01  0.7957747E-01            NaN
         13   -1    0    0    0    0  0.00000000000E+00  0.00000000000E+00  0.74505805969E-08  0.10566000000E+00  0.10566000000E+00 0.  1.
     999900   -1    0    0    0    0 -0.00000000000E+00 -0.00000000000E+00 -0.74505805969E-08  0.93827000000E+00  0.93827000000E+00 0.  1.
     999902    2    1    2    0    0 -0.13704989044E-01  0.18333702088E-01  0.36715649045E-02  0.10207474258E+01  0.10204841378E+01 0.  0.
     999903    2    3    3    0    0  0.13455102149E-01 -0.10383381015E+00 -0.72282332090E-01  0.12865350359E+00  0.19091583250E-01 0.  0.
         14    1    1    2    0    0  0.13704989044E-01 -0.18333702088E-01 -0.36715649045E-02  0.23182574184E-01  0.00000000000E+00 0.  1.
     999901    1    3    3    0    0 -0.27160091193E-01  0.12216751223E+00  0.75953896994E-01  0.89209392222E+00  0.88000000000E+00 0. -1.
        -11    1    4    4    0    0  0.91067921475E-02 -0.21291610372E-01 -0.21741415959E-01  0.31768169987E-01  0.51100000000E-03 0. -1.
         11    1    4    4    0    0  0.43483100014E-02 -0.82542199775E-01 -0.50540916131E-01  0.96885333606E-01  0.51100000000E-03 0.  1.
</event>
<event>
 8    1  0.1052028E+005  0.1043930E+01  0.7957747E-01            NaN
         13   -1    0    0    0    0  0.00000000000E+00  0.00000000000E+00  0.74505805969E-08  0.10566000000E+00  0.10566000000E+00 0. -1.
     999900   -1    0    0    0    0 -0.00000000000E+00 -0.00000000000E+00 -0.74505805969E-08  0.93827000000E+00  0.93827000000E+00 0. -1.
     999902    2    1    2    0    0  0.82744725576E-02 -0.16090461978E-01  0.15517021699E-01  0.10200941483E+01  0.10198156322E+01 0.  0.
     999903    2    3    3    0    0 -0.62925804882E-01  0.64221754432E-01 -0.88030253743E-01  0.12754635136E+00  0.20848393430E-01 0.  0.
         14    1    1    2    0    0 -0.82744725576E-02  0.16090461978E-01 -0.15517021699E-01  0.23835851678E-01  0.00000000000E+00 0.  1.
     999901    1    3    3    0    0  0.71200277440E-01 -0.80312216410E-01  0.10354727544E+00  0.89254779696E+00  0.88000000000E+00 0. -1.
        -11    1    4    4    0    0 -0.15488372358E-01  0.59704153233E-02 -0.21726852314E-01  0.27346896897E-01  0.51100000000E-03 0. -1.
         11    1    4    4    0    0 -0.47437432524E-01  0.58251339109E-01 -0.66303401430E-01  0.10019945446E+00  0.51100000000E-03 0.  1.
</event>
<event>
 8    1  0.1052028E+005  0.1043930E+01  0.7957747E-01            NaN
         13   -1    0    0    0    0  0.00000000000E+00  0.00000000000E+00  0.74505805969E-08  0.10566000000E+00  0.10566000000E+00 0.  1.
     999900   -1    0    0    0    0 -0.00000000000E+00 -0.00000000000E+00 -0.74505805969E-08  0.93827000000E+00  0.93827000000E+00 0. -1.
     999902    2    1    2    0    0  0.16074510266E-01 -0.15881697094E-01 -0.72984467819E-02  0.10201837264E+01  0.10199073243E+01 0.  0.
     999903    2    3    3    0    0  0.44206577153E-01  0.43483129452E-01  0.11217702866E+00  0.12968387520E+00  0.19728601461E-01 0.  0.
         14    1    1    2    0    0 -0.16074510266E-01  0.15881697094E-01  0.72984467819E-02  0.23746273567E-01  0.00000000000E+00 0.  1.
     999901    1    3    3    0    0 -0.28132066887E-01 -0.59364826547E-01 -0.11947547545E+00  0.89049985124E+00  0.88000000000E+00 0.  1.
        -11    1    4    4    0    0  0.21532728561E-01  0.24327163037E-01  0.77496903741E-01  0.84032734522E-01  0.51100000000E-03 0. -1.
         11    1    4    4    0    0  0.22673848592E-01  0.19155966415E-01  0.34680124923E-01  0.45651140675E-01  0.51100000000E-03 0.  1.
</event>
<event>
 8    1  0.1052028E+005  0.1043930E+01  0.7957747E-01            NaN
         13   -1    0    0    0    0  0.00000000000E+00  0.00000000000E+00  0.74505805969E-08  0.10566000000E+00  0.10566000000E+00 0. -1.
     999900   -1    0    0    0    0 -0.00000000000E+00 -0.00000000000E+00 -0.74505805969E-08  0.93827000000E+00  0.93827000000E+00 0.  1.
     999902    2    1    2    0    0 -0.28072411878E-03  0.22518349598E-01  0.85657392750E-02  0.10198358770E+01  0.10195512195E+01 0.  0.
     999903    2    3    3    0    0 -0.11174896815E+00 -0.49701161888E-01 -0.34608004337E-01  0.12882252164E+00  0.20964034461E-01 0.  0.
         14    1    1    2    0    0  0.28072411878E-03 -0.22518349598E-01 -0.85657392750E-02  0.24094123018E-01  0.00000000000E+00 0.  1.
     999901    1    3    3    0    0  0.11146824403E+00  0.72219511487E-01  0.43173743612E-01  0.89101335535E+00  0.88000000000E+00 0. -1.
        -11    1    4    4    0    0 -0.34768308513E-01 -0.52272787197E-02 -0.88114190093E-02  0.36249992354E-01  0.51100000000E-03 0.  1.
         11    1    4    4    0    0 -0.76980659638E-01 -0.44473883169E-01 -0.25796585328E-01  0.92572529283E-01  0.51100000000E-03 0. -1.
</event>
<event>
 8    1  0.1052028E+005  0.1043930E+01  0.7957747E-01            NaN
         13   -1    0    0    0    0  0.00000000000E+00  0.00000000000E+00  0.74505805969E-08  0.10566000000E+00  0.10566000000E+00 0.  1.
     999900   -1    0    0    0    0 -0.00000000000E+00 -0.00000000000E+00 -0.74505805969E-08  0.93827000000E+00  0.93827000000E+00 0. -1.
     999902    2    1    2    0    0  0.13023833977E-01 -0.16158725515E-01 -0.63944773420E-02  0.10222133243E+01  0.10219826155E+01 0.  0.
     999903    2    3    3    0    0 -0.59500403392E-01  0.64968759884E-01  0.93257837551E-01  0.12992860645E+00  0.20571357400E-01 0.  0.
         14    1    1    2    0    0 -0.13023833977E-01  0.16158725515E-01  0.63944773420E-02  0.21716675671E-01  0.00000000000E+00 0.  1.
     999901    1    3    3    0    0  0.72524237369E-01 -0.81127485398E-01 -0.99652314893E-01  0.89228471788E+00  0.88000000000E+00 0. -1.
        -11    1    4    4    0    0 -0.40102065198E-01  0.50562621218E-01  0.78451469288E-01  0.10158567051E+00  0.51100000000E-03 0. -1.
         11    1    4    4    0    0 -0.19398338194E-01  0.14406138665E-01  0.14806368263E-01  0.28342935947E-01  0.51100000000E-03 0.  1.
</event>
<event>
 8    1  0.1052028E+005  0.1043930E+01  0.7957747E-01            NaN
         13   -1    0    0    0    0  0.00000000000E+00  0.00000000000E+00  0.74505805969E-08  0.10566000000E+00  0.10566000000E+00 0.  1.
     999900   -1    0    0    0    0 -0.00000000000E+00 -0.00000000000E+00 -0.74505805969E-08  0.93827000000E+00  0.93827000000E+00 0. -1.
     999902    2    1    2    0    0 -0.85929286395E-02  0.45627318119E-03 -0.22468623913E-01  0.10198699570E+01  0.10195861139E+01 0.  0.
     999903    2    3    3    0    0 -0.11781189072E+00  0.49198580332E-01  0.19646663129E-01  0.13078149596E+00  0.20436888480E-01 0.  0.
         14    1    1    2    0    0  0.85929286395E-02 -0.45627318119E-03  0.22468623913E-01  0.24060042983E-01  0.00000000000E+00 0.  1.
     999901    1    3    3    0    0  0.10921896208E+00 -0.48742307151E-01 -0.42115287042E-01  0.88908846106E+00  0.88000000000E+00 0. -1.
        -11    1    4    4    0    0 -0.61016837409E-01  0.35895547809E-01  0.74441029432E-02  0.71184412546E-01  0.51100000000E-03 0. -1.
         11    1    4    4    0    0 -0.56795053313E-01  0.13303032523E-01  0.12202560185E-01  0.59597083412E-01  0.51100000000E-03 0.  1.
</event>
<event>
 8    1  0.1052028E+005  0.1043930E+01  0.7957747E-01            NaN
         13   -1    0    0    0    0  0.00000000000E+00  0.00000000000E+00  0.74505805969E-08  0.10566000000E+00  0.10566000000E+00 0. -1.
     999900   -1    0    0    0    0 -0.00000000000E+00 -0.00000000000E+00 -0.74505805969E-08  0.93827000000E+00  0.93827000000E+00 0.  1.
     999902    2    1    2    0    0 -0.23077937152E-02  0.23674385208E-01  0.27438480564E-02  0.10199856660E+01  0.10197045787E+01 0.  0.
     999903    2    3    3    0    0  0.11981557469E-01  0.66559189772E-01 -0.11100220271E+00  0.13151425058E+00  0.20020630286E-01 0.  0.
         14    1    1    2    0    0  0.23077937152E-02 -0.23674385208E-01 -0.27438480564E-02  0.23944333964E-01  0.00000000000E+00 0.  1.
     999901    1    3    3    0    0 -0.14289351184E-01 -0.42884804565E-01  0.11374605076E+00  0.88847141546E+00  0.88000000000E+00 0. -1.
        -11    1    4    4    0    0  0.67228274278E-02  0.61047631913E-01 -0.88279966365E-01  0.10754358815E+00  0.51100000000E-03 0.  1.
         11    1    4    4    0    0  0.52587300410E-02  0.55115578597E-02 -0.22722236343E-01  0.23970662425E-01  0.51100000000E-03 0. -1.
</event>
<event>
 8    1  0.1052028E+005  0.1043930E+01  0.7957747E-01            NaN
         13   -1    0    0    0    0  0.00000000000E+00  0.00000000000E+00  0.74505805969E-08  0.10566000000E+00  0.10566000000E+00 0. -1.
     999900   -1    0    0    0    0 -0.00000000000E+00 -0.00000000000E+00 -0.74505805969E-08  0.93827000000E+00  0.93827000000E+00 0.  1.
     999902    2    1    2    0    0  0.11001292554E-01 -0.74398501520E-04 -0.21371686218E-01  0.10198928840E+01  0.10196095880E+01 0.  0.
     999903    2    3    3    0    0  0.60876783246E-01  0.59398222795E-01 -0.10027416571E+00  0.13295987723E+00  0.19730408865E-01 0.  0.
         14    1    1    2    0    0 -0.11001292554E-01  0.74398501520E-04  0.21371686218E-01  0.24037115984E-01  0.00000000000E+00 0. -1.
     999901    1    3    3    0    0 -0.49875490692E-01 -0.59472621297E-01  0.78902479495E-01  0.88693300679E+00  0.88000000000E+00 0. -1.
        -11    1    4    4    0    0  0.17034997592E-01  0.70128824299E-02 -0.15452037213E-01  0.24049911392E-01  0.51100000000E-03 0.  1.
         11    1    4    4    0    0  0.43841785654E-01  0.52385340365E-01 -0.84822128500E-01  0.10890996584E+00  0.51100000000E-03 0. -1.
</event>
<event>
 8    1  0.1052028E+005  0.1043930E+01  0.7957747E-01            NaN
         13   -1    0    0    0    0  0.00000000000E+00  0.00000000000E+00  0.74505805969E-08  0.10566000000E+00  0.10566000000E+00 0.  1.
     999900   -1    0    0    0    0 -0.00000000000E+00 -0.00000000000E+00 -0.74505805969E-08  0.93827000000E+00  0.93827000000E+00 0.  1.
     999902    2    1    2    0    0 -0.12414789195E-01 -0.10695162425E-01  0.17741995643E-01  0.10197785632E+01  0.10194925336E+01 0.  0.
     999903    2    3    3    0    0  0.75947701417E-01  0.32199240294E-01  0.99329990066E-01  0.13056291986E+00  0.19374846821E-01 0.  0.
         14    1    1    2    0    0  0.12414789195E-01  0.10695162425E-01 -0.17741995643E-01  0.24151436799E-01  0.00000000000E+00 0. -1.
     999901    1    3    3    0    0 -0.88362490612E-01 -0.42894402719E-01 -0.81587994423E-01  0.88921564334E+00  0.88000000000E+00 0.  1.
        -11    1    4    4    0    0  0.38762609146E-01  0.19438745336E-01  0.37715674372E-01  0.57472931910E-01  0.51100000000E-03 0.  1.
         11    1    4    4    0    0  0.37185092271E-01  0.12760494958E-01  0.61614315694E-01  0.73089987948E-01  0.51100000000E-03 0. -1.
</event>
<event>
 8    1  0.1052028E+005  0.1043930E+01  0.7957747E-01            NaN
         13   -1    0    0    0    0  0.00000000000E+00  0.00000000000E+00  0.74505805969E-08  0.10566000000E+00  0.10566000000E+00 0. -1.
     999900   -1    0    0    0    0 -0.00000000000E+00 -0.00000000000E+00 -0.74505805969E-08  0.93827000000E+00  0.93827000000E+00 0. -1.
     999902    2    1    2    0    0  0.15310111510E-01  0.24699538066E-03  0.21282814200E-01  0.10177113291E+01  0.10173735453E+01 0.  0.
     999903    2    3    3    0    0 -0.25893214607E-01 -0.23043360767E-01  0.12451500050E+00  0.13041372458E+00  0.17386752802E-01 0.  0.
         14    1    1    2    0    0 -0.15310111510E-01 -0.24699538066E-03 -0.21282814200E-01  0.26218670855E-01  0.00000000000E+00 0.  1.
     999901    1    3    3    0    0  0.41203326116E-01  0.23290356148E-01 -0.10323218630E+00  0.88729760456E+00  0.88000000000E+00 0. -1.
        -11    1    4    4    0    0  0.57022739992E-03 -0.71792620992E-02  0.34767519586E-01  0.35509273475E-01  0.51100000000E-03 0. -1.
         11    1    4    4    0    0 -0.26463442007E-01 -0.15864098668E-01  0.89747480911E-01  0.94904451108E-01  0.51100000000E-03 0.  1.
</event>
<event>
 8    1  0.1052028E+005  0.1043930E+01  0.7957747E-01            NaN
         13   -1    0    0    0    0  0.00000000000E+00  0.00000000000E+00  0.74505805969E-08  0.10566000000E+00  0.10566000000E+00 0.  1.
     999900   -1    0    0    0    0 -0.00000000000E+00 -0.00000000000E+00 -0.74505805969E-08  0.93827000000E+00  0.93827000000E+00 0. -1.
     999902    2    1    2    0    0  0.16251549961E-01  0.46642426304E-02 -0.16922063144E-01  0.10200087907E+01  0.10197282524E+01 0.  0.
     999903    2    3    3    0    0 -0.74559961959E-01  0.59168800470E-01 -0.87207883958E-01  0.13087574430E+00  0.21520003347E-01 0.  0.
         14    1    1    2    0    0 -0.16251549961E-01 -0.46642426304E-02  0.16922063144E-01  0.23921209344E-01  0.00000000000E+00 0.  1.
     999901    1    3    3    0    0  0.90811511920E-01 -0.54504557840E-01  0.70285820814E-01  0.88913304636E+00  0.88000000000E+00 0.  1.
        -11    1    4    4    0    0 -0.37875183929E-01  0.18856730001E-01 -0.46319789668E-01  0.62736670774E-01  0.51100000000E-03 0.  1.
         11    1    4    4    0    0 -0.36684778031E-01  0.40312070470E-01 -0.40888094290E-01  0.68139073522E-01  0.51100000000E-03 0. -1.
</event>
<event>
 7    1  0.1052028E+005  0.1043930E+01  0.7957747E-01            NaN
         13   -1    0    0    0    0  0.00000000000E+00  0.00000000000E+00  0.74505805969E-08  0.10566000000E+00  0.10566000000E+00 0. -1.
     999900   -1    0    0    0    0 -0.00000000000E+00 -0.00000000000E+00 -0.74505805969E-08  0.93827000000E+00  0.93827000000E+00 0. -1.
     999902    2    1    2    0    0 -0.19144626774E-01 -0.13671406124E-01 -0.11530886164E-02  0.10203767902E+01  0.10201049163E+01 0.  0.
         14    1    1    2    0    0  0.19144626774E-01  0.13671406124E-01  0.11530886164E-02  0.23553209825E-01  0.00000000000E+00 0.  1.
     999901    1    3    3    0    0 -0.88450687354E-01  0.76202573233E-01 -0.47994321500E-01  0.88900720535E+00  0.88000000000E+00 0. -1.
        -11    1    3    3    0    0  0.53967442054E-01 -0.54194164235E-01  0.87747427978E-02  0.76985384790E-01  0.51100000000E-03 0.  1.
         11    1    3    3    0    0  0.15338618527E-01 -0.35679815122E-01  0.38066490086E-01  0.54384200039E-01  0.51100000000E-03 0. -1.
</event>
<event>
 8    1  0.1052028E+005  0.1043930E+01  0.7957747E-01            NaN
         13   -1    0    0    0    0  0.00000000000E+00  0.00000000000E+00  0.74505805969E-08  0.10566000000E+00  0.10566000000E+00 0.  1.
     999900   -1    0    0    0    0 -0.00000000000E+00 -0.00000000000E+00 -0.74505805969E-08  0.93827000000E+00  0.93827000000E+00 0. -1.
     999902    2    1    2    0    0 -0.11852457638E-01 -0.13883656068E-01  0.16413563112E-01  0.10193812381E+01  0.10190856033E+01 0.  0.
     999903    2    3    3    0    0  0.10288121875E+00  0.16958894997E-01 -0.70135227995E-01  0.12718968202E+00  0.19649827407E-01 0.  0.
         14    1    1    2    0    0  0.11852457638E-01  0.13883656068E-01 -0.16413563112E-01  0.24548761922E-01  0.00000000000E+00 0. -1.
     999901    1    3    3    0    0 -0.11473367638E+00 -0.30842551065E-01  0.86548791107E-01  0.89219155605E+00  0.88000000000E+00 0.  1.
        -11    1    4    4    0    0  0.92981067343E-01  0.11145114650E-01 -0.56558877583E-01  0.10940228617E+00  0.51100000000E-03 0. -1.
         11    1    4    4    0    0  0.99001514024E-02  0.58137803467E-02 -0.13576350412E-01  0.17787395853E-01  0.51100000000E-03 0.  1.
</event>
<event>
 8    1  0.1052028E+005  0.1043930E+01  0.7957747E-01            NaN
         13   -1    0    0    0    0  0.00000000000E+00  0.00000000000E+00  0.74505805969E-08  0.10566000000E+00  0.10566000000E+00 0. -1.
     999900   -1    0    0    0    0 -0.00000000000E+00 -0.00000000000E+00 -0.74505805969E-08  0.93827000000E+00  0.93827000000E+00 0.  1.
     999902    2    1    2    0    0 -0.14139878749E-01 -0.58149999418E-02 -0.19239533232E-01  0.10193554189E+01  0.10190591544E+01 0.  0.
     999903    2    3    3    0    0  0.77682624680E-01 -0.77547902056E-01 -0.67537743894E-01  0.13036177524E+00  0.19610668092E-01 0.  0.
         14    1    1    2    0    0  0.14139878749E-01  0.58149999418E-02  0.19239533232E-01  0.24574581062E-01  0.00000000000E+00 0.  1.
     999901    1    3    3    0    0 -0.91822503429E-01  0.71732902114E-01  0.48298210662E-01  0.88899364370E+00  0.88000000000E+00 0. -1.
        -11    1    4    4    0    0  0.27767502198E-01 -0.39767013791E-01 -0.34949023365E-01  0.59784152744E-01  0.51100000000E-03 0.  1.
         11    1    4    4    0    0  0.49915122482E-01 -0.37780888265E-01 -0.32588720529E-01  0.70577622496E-01  0.51100000000E-03 0. -1.
</event>
<event>
 8    1  0.1052028E+005  0.1043930E+01  0.7957747E-01            NaN
         13   -1    0    0    0    0  0.00000000000E+00  0.00000000000E+00  0.74505805969E-08  0.10566000000E+00  0.10566000000E+00 0.  1.
     999900   -1    0    0    0    0 -0.00000000000E+00 -0.00000000000E+00 -0.74505805969E-08  0.93827000000E+00  0.93827000000E+00 0. -1.
     999902    2    1    2    0    0 -0.28986353832E-02 -0.15200344732E-01 -0.16630128849E-01  0.10212140639E+01  0.10209613854E+01 0.  0.
     999903    2    3    3    0    0 -0.10881279064E+00 -0.58158257546E-01  0.42035932003E-01  0.13188572339E+00  0.20105176571E-01 0.  0.
         14    1    1    2    0    0  0.28986353832E-02  0.15200344732E-01  0.16630128849E-01  0.22715936093E-01  0.00000000000E+00 0.  1.
     999901    1    3    3    0    0  0.10591415526E+00  0.42957912814E-01 -0.58666060852E-01  0.88932834052E+00  0.88000000000E+00 0. -1.
        -11    1    4    4    0    0 -0.62918095207E-01 -0.22483191278E-01  0.24500404194E-01  0.71166786643E-01  0.51100000000E-03 0.  1.
         11    1    4    4    0    0 -0.45894695438E-01 -0.35675066268E-01  0.17535527810E-01  0.60718936742E-01  0.51100000000E-03 0. -1.
</event>
<event>
 8    1  0.1052028E+005  0.1043930E+01  0.7957747E-01            NaN
         13   -1    0    0    0    0  0.00000000000E+00  0.00000000000E+00  0.74505805969E-08  0.10566000000E+00  0.10566000000E+00 0. -1.
     999900   -1    0    0    0    0 -0.00000000000E+00 -0.00000000000E+00 -0.74505805969E-08  0.93827000000E+00  0.93827000000E+00 0. -1.
     999902    2    1    2    0    0  0.51710125450E-02 -0.16424638091E-01 -0.17289214418E-01  0.10195286672E+01  0.10192366154E+01 0.  0.
     999903    2    3    3    0    0  0.98479924942E-01 -0.78501670739E-01  0.33852507683E-01  0.13094800859E+00  0.11856675432E-01 0.  0.
         14    1    1    2    0    0 -0.51710125450E-02  0.16424638091E-01  0.17289214418E-01  0.24401332799E-01  0.00000000000E+00 0.  1.
     999901    1    3    3    0    0 -0.93308912397E-01  0.62077032648E-01 -0.51141722101E-01  0.88858065861E+00  0.88000000000E+00 0. -1.
        -11    1    4    4    0    0  0.52140417149E-01 -0.34018394045E-01  0.16938013642E-01  0.64521559660E-01  0.51100000000E-03 0. -1.
         11    1    4    4    0    0  0.46339507792E-01 -0.44483276695E-01  0.16914494041E-01  0.66426448931E-01  0.51100000000E-03 0.  1.
</event>
<event>
 8    1  0.1052028E+005  0.1043930E+01  0.7957747E-01            NaN
         13   -1    0    0    0    0  0.00000000000E+00  0.00000000000E+00  0.74505805969E-08  0.10566000000E+00  0.10566000000E+00 0.  1.
     999900   -1    0    0    0    0 -0.00000000000E+00 -0.00000000000E+00 -0.74505805969E-08  0.93827000000E+00  0.93827000000E+00 0. -1.
     999902    2    1    2    0    0  0.62663693270E-02  0.17629651794E-01 -0.14473138282E-01  0.10202753231E+01  0.10200010741E+01 0.  0.
     999903    2    3    3    0    0  0.51575583069E-01  0.11801407427E+00  0.24678458822E-01  0.13254630777E+00  0.19290797767E-01 0.  0.
         14    1    1    2    0    0 -0.62663693270E-02 -0.17629651794E-01  0.14473138282E-01  0.23654676887E-01  0.00000000000E+00 0. -1.
     999901    1    3    3    0    0 -0.45309213742E-01 -0.10038442248E+00 -0.39151597104E-01  0.88772901534E+00  0.88000000000E+00 0.  1.
        -11    1    4    4    0    0  0.23893720618E-01  0.70407449775E-01  0.68855061352E-02  0.74671213894E-01  0.51100000000E-03 0. -1.
         11    1    4    4    0    0  0.27681862451E-01  0.47606624497E-01  0.17792952687E-01  0.57875093875E-01  0.51100000000E-03 0.  1.
</event>
<event>
 8    1  0.1052028E+005  0.1043930E+01  0.7957747E-01            NaN
         13   -1    0    0    0    0  0.00000000000E+00  0.00000000000E+00  0.74505805969E-08  0.10566000000E+00  0.10566000000E+00 0.  1.
     999900   -1    0    0    0    0 -0.00000000000E+00 -0.00000000000E+00 -0.74505805969E-08  0.93827000000E+00  0.93827000000E+00 0. -1.
     999902    2    1    2    0    0 -0.18971391095E-01 -0.11935995871E-01 -0.78008132804E-02  0.10201974408E+01  0.10199213616E+01 0.  0.
     999903    2    3    3    0    0 -0.12491619795E+00  0.23446606745E-01  0.30729215577E-01  0.13230060346E+00  0.20133680954E-01 0.  0.
         14    1    1    2    0    0  0.18971391095E-01  0.11935995871E-01  0.78008132804E-02  0.23732559183E-01  0.00000000000E+00 0.  1.
     999901    1    3    3    0    0  0.10594480685E+00 -0.35382602616E-01 -0.38530028857E-01  0.88789683736E+00  0.88000000000E+00 0. -1.
        -11    1    4    4    0    0 -0.60492717147E-01  0.50244463679E-02  0.22721415194E-01  0.64816184079E-01  0.51100000000E-03 0. -1.
         11    1    4    4    0    0 -0.64423480799E-01  0.18422160377E-01  0.80078003826E-02  0.67484419381E-01  0.51100000000E-03 0.  1.
</event>
<event>
 8    1  0.1052028E+005  0.1043930E+01  0.7957747E-01            NaN
         13   -1    0    0    0    0  0.00000000000E+00  0.00000000000E+00  0.74505805969E-08  0.10566000000E+00  0.10566000000E+00 0. -1.
     999900   -1    0    0    0    0 -0.00000000000E+00 -0.00000000000E+00 -0.74505805969E-08  0.93827000000E+00  0.93827000000E+00 0. -1.
     999902    2    1    2    0    0  0.19972442858E-01 -0.11606326876E-01  0.32212399061E-02  0.10206065851E+01  0.10203400511E+01 0.  0.
     999903    2    3    3    0    0  0.11887206242E-01 -0.57285327036E-03 -0.12861216895E+00  0.13068121951E+00  0.19871016519E-01 0.  0.
         14    1    1    2    0    0 -0.19972442858E-01  0.11606326876E-01 -0.32212399061E-02  0.23323414926E-01  0.00000000000E+00 0.  1.
     999901    1    3    3    0    0  0.80852366162E-02 -0.11033473605E-01  0.13183340885E+00  0.88992536557E+00  0.88000000000E+00 0.  1.
        -11    1    4    4    0    0 -0.13369461557E-02  0.60082856374E-02 -0.68532028644E-01  0.68809788492E-01  0.51100000000E-03 0. -1.
         11    1    4    4    0    0  0.13224152397E-01 -0.65811389078E-02 -0.60080140303E-01  0.61871431015E-01  0.51100000000E-03 0.  1.
</event>
<event>
 8    1  0.1052028E+005  0.1043930E+01  0.7957747E-01            NaN
         13   -1    0    0    0    0  0.00000000000E+00  0.00000000000E+00  0.74505805969E-08  0.10566000000E+00  0.10566000000E+00 0.  1.
     999900   -1    0    0    0    0 -0.00000000000E+00 -0.00000000000E+00 -0.74505805969E-08  0.93827000000E+00  0.93827000000E+00 0.  1.
     999902    2    1    2    0    0  0.90578239016E-02  0.14968050605E-01  0.18863759672E-01  0.10182020358E+01  0.10178769364E+01 0.  0.
     999903    2    3    3    0    0  0.10746733992E+00  0.71239555971E-01 -0.60677175909E-02  0.13058021672E+00  0.19750248526E-01 0.  0.
         14    1    1    2    0    0 -0.90578239016E-02 -0.14968050605E-01 -0.18863759672E-01  0.25727964197E-01  0.00000000000E+00 0. -1.
     999901    1    3    3    0    0 -0.98409516017E-01 -0.56271505366E-01  0.24931477263E-01  0.88762181909E+00  0.88000000000E+00 0. -1.
        -11    1    4    4    0    0  0.29077713795E-01  0.24707917154E-01  0.59786222492E-02  0.38626411361E-01  0.51100000000E-03 0. -1.
         11    1    4    4    0    0  0.78389626124E-01  0.46531638817E-01 -0.12046339840E-01  0.91953805356E-01  0.51100000000E-03 0.  1.
</event>
<event>
 8    1  0.1052028E+005  0.1043930E+01  0.7957747E-01            NaN
         13   -1    0    0    0    0  0.00000000000E+00  0.00000000000E+00  0.74505805969E-08  0.10566000000E+00  0.10566000000E+00 0.  1.
     999900   -1    0    0    0    0 -0.00000000000E+00 -0.00000000000E+00 -0.74505805969E-08  0.93827000000E+00  0.93827000000E+00 0. -1.
     999902    2    1    2    0    0 -0.97078345132E-02  0.19709149974E-01  0.14096528992E-01  0.10178262690E+01  0.10174914786E+01 0.  0.
     999903    2    3    3    0    0 -0.10480290897E+00 -0.21852668213E-01 -0.67483415258E-01  0.12798035804E+00  0.19072804505E-01 0.  0.
         14    1    1    2    0    0  0.97078345132E-02 -0.19709149974E-01 -0.14096528992E-01  0.26103731022E-01  0.00000000000E+00 0. -1.
     999901    1    3    3    0    0  0.95095074456E-01  0.41561818187E-01  0.81579944249E-01  0.88984591094E+00  0.88000000000E+00 0.  1.
        -11    1    4    4    0    0 -0.25555984265E-01 -0.12756016665E-01 -0.13037171179E-01  0.31401484778E-01  0.51100000000E-03 0.  1.
         11    1    4    4    0    0 -0.79246924704E-01 -0.90966515481E-02 -0.54446244079E-01  0.96578873258E-01  0.51100000000E-03 0. -1.
</event>
<event>
 8    1  0.1052028E+005  0.1043930E+01  0.7957747E-01            NaN
         13   -1    0    0    0    0  0.00000000000E+00  0.00000000000E+00  0.74505805969E-08  0.10566000000E+00  0.10566000000E+00 0. -1.
     999900   -1    0    0    0    0 -0.00000000000E+00 -0.00000000000E+00 -0.74505805969E-08  0.93827000000E+00  0.93827000000E+00 0.  1.
     999902    2    1    2    0    0 -0.19467282624E-02  0.99258372768E-02 -0.21736503485E-01  0.10199552720E+01  0.10196734621E+01 0.  0.
     999903    2    3    3    0    0 -0.71333512598E-01 -0.98370388249E-01  0.37489615589E-01  0.12863583914E+00  0.19403724644E-01 0.  0.
         14    1    1    2    0    0  0.19467282624E-02 -0.99258372768E-02  0.21736503485E-01  0.23974727951E-01  0.00000000000E+00 0. -1.
     999901    1    3    3    0    0  0.69386784335E-01  0.10829622553E+00 -0.59226119074E-01  0.89131943291E+00  0.88000000000E+00 0.  1.
        -11    1    4    4    0    0 -0.32353598146E-01 -0.34216011038E-01  0.69993717806E-02  0.47610325043E-01  0.51100000000E-03 0.  1.
         11    1    4    4    0    0 -0.38979914452E-01 -0.64154377211E-01  0.30490243809E-01  0.81025514096E-01  0.51100000000E-03 0. -1.
</event>
<event>
 8    1  0.1052028E+005  0.1043930E+01  0.7957747E-01            NaN
         13   -1    0    0    0    0  0.00000000000E+00  0.00000000000E+00  0.74505805969E-08  0.10566000000E+00  0.10566000000E+00 0.  1.
     999900   -1    0    0    0    0 -0.00000000000E+00 -0.00000000000E+00 -0.74505805969E-08  0.93827000000E+00  0.93827000000E+00 0. -1.
     999902    2    1    2    0    0 -0.17646538674E-01 -0.20613216031E-01  0.19496566001E-01  0.10105171119E+01  0.10099645600E+01 0.  0.
     999903    2    3    3    0    0 -0.11110919696E-01  0.10731164084E+00 -0.45792456551E-01  0.11885005537E+00  0.19726778421E-01 0.  0.
         14    1    1    2    0    0  0.17646538674E-01  0.20613216031E-01 -0.19496566001E-01  0.33412888054E-01  0.00000000000E+00 0. -1.
     999901    1    3    3    0    0 -0.65356189774E-02 -0.12792485687E+00  0.65289022552E-01  0.89166705658E+00  0.88000000000E+00 0.  1.
        -11    1    4    4    0    0  0.56753538727E-02  0.22290911496E-01 -0.92639974559E-02  0.24802764902E-01  0.51100000000E-03 0. -1.
         11    1    4    4    0    0 -0.16786273569E-01  0.85020729347E-01 -0.36528459095E-01  0.94047290466E-01  0.51100000000E-03 0.  1.
</event>
<event>
 8    1  0.1052028E+005  0.1043930E+01  0.7957747E-01            NaN
         13   -1    0    0    0    0  0.00000000000E+00  0.00000000000E+00  0.74505805969E-08  0.10566000000E+00  0.10566000000E+00 0.  1.
     999900   -1    0    0    0    0 -0.00000000000E+00 -0.00000000000E+00 -0.74505805969E-08  0.93827000000E+00  0.93827000000E+00 0. -1.
     999902    2    1    2    0    0  0.22785891260E-01 -0.11608696866E-03  0.10287522632E-01  0.10189291312E+01  0.10186223692E+01 0.  0.
     999903    2    3    3    0    0  0.51757493642E-01  0.75444762998E-01  0.92209298228E-01  0.13142703372E+00  0.19994001617E-01 0.  0.
         14    1    1    2    0    0 -0.22785891260E-01  0.11608696866E-03 -0.10287522632E-01  0.25000868757E-01  0.00000000000E+00 0. -1.
     999901    1    3    3    0    0 -0.28971602382E-01 -0.75560849966E-01 -0.81921775596E-01  0.88750209752E+00  0.88000000000E+00 0. -1.
        -11    1    4    4    0    0  0.30323555840E-01  0.36067837743E-01  0.59640679293E-01  0.76011043314E-01  0.51100000000E-03 0. -1.
         11    1    4    4    0    0  0.21433937802E-01  0.39376925255E-01  0.32568618935E-01  0.55415990405E-01  0.51100000000E-03 0.  1.
</event>
<event>
 8    1  0.1052028E+005  0.1043930E+01  0.7957747E-01            NaN
         13   -1    0    0    0    0  0.00000000000E+00  0.00000000000E+00  0.74505805969E-08  0.10566000000E+00  0.10566000000E+00 0. -1.
     999900   -1    0    0    0    0 -0.00000000000E+00 -0.00000000000E+00 -0.74505805969E-08  0.93827000000E+00  0.93827000000E+00 0.  1.
     999902    2    1    2    0    0 -0.15244973211E-03 -0.15104782877E-01 -0.16187019313E-01  0.10217896003E+01  0.10215497002E+01 0.  0.
     999903    2    3    3    0    0 -0.72232461831E-01 -0.84783987035E-01  0.68059325502E-01  0.13209967323E+00  0.20307606446E-01 0.  0.
         14    1    1    2    0    0  0.15244973211E-03  0.15104782877E-01  0.16187019313E-01  0.22140399746E-01  0.00000000000E+00 0. -1.
     999901    1    3    3    0    0  0.72080012099E-01  0.69679204158E-01 -0.84246344815E-01  0.88968992703E+00  0.88000000000E+00 0.  1.
        -11    1    4    4    0    0 -0.58684153113E-01 -0.69726970369E-01  0.45794010657E-01  0.10199525850E+00  0.51100000000E-03 0. -1.
         11    1    4    4    0    0 -0.13548308719E-01 -0.15057016666E-01  0.22265314845E-01  0.30104414729E-01  0.51100000000E-03 0.  1.
</event>
<event>
 8    1  0.1052028E+005  0.1043930E+01  0.7957747E-01            NaN
         13   -1    0    0    0    0  0.00000000000E+00  0.00000000000E+00  0.74505805969E-08  0.10566000000E+00  0.10566000000E+00 0. -1.
     999900   -1    0    0    0    0 -0.00000000000E+00 -0.00000000000E+00 -0.74505805969E-08  0.93827000000E+00  0.93827000000E+00 0. -1.
     999902    2    1    2    0    0  0.82049832254E-02 -0.15522373685E-01 -0.15906659898E-01  0.10202384896E+01  0.10199633758E+01 0.  0.
     999903    2    3    3    0    0 -0.71549442405E-01  0.87994046978E-01 -0.59377722377E-01  0.12952745286E+00  0.19732514211E-01 0.  0.
         14    1    1    2    0    0 -0.82049832254E-02  0.15522373685E-01  0.15906659898E-01  0.23691510371E-01  0.00000000000E+00 0. -1.
     999901    1    3    3    0    0  0.79754425630E-01 -0.10351642066E+00  0.43471062479E-01  0.89071103677E+00  0.88000000000E+00 0. -1.
        -11    1    4    4    0    0 -0.21037268294E-01  0.13984538945E-01 -0.16624054565E-01  0.30244905323E-01  0.51100000000E-03 0. -1.
         11    1    4    4    0    0 -0.50512174110E-01  0.74009508033E-01 -0.42753667811E-01  0.99282547535E-01  0.51100000000E-03 0.  1.
</event>
<event>
 8    1  0.1159362E+005  0.1043930E+01  0.7957747E-01            NaN
         13   -1    0    0    0    0  0.00000000000E+00  0.00000000000E+00  0.74505805969E-08  0.10566000000E+00  0.10566000000E+00 0. -1.
     999900   -1    0    0    0    0 -0.00000000000E+00 -0.00000000000E+00 -0.74505805969E-08  0.93827000000E+00  0.93827000000E+00 0.  1.
     999902    2    1    2    0    0 -0.16090864585E-01  0.17884275731E-01 -0.22488974288E-02  0.10197676164E+01  0.10194813243E+01 0.  0.
     999903    2    3    3    0    0 -0.59941625678E-01  0.71494469826E-01  0.91293633008E-01  0.13210374581E+00  0.20307991619E-01 0.  0.
         14    1    1    2    0    0  0.16090864585E-01 -0.17884275731E-01  0.22488974288E-02  0.24162383598E-01  0.00000000000E+00 0. -1.
     999901    1    3    3    0    0  0.43850761093E-01 -0.53610194096E-01 -0.93542530437E-01  0.88766387060E+00  0.88000000000E+00 0.  1.
        -11    1    4    4    0    0 -0.15240246437E-01  0.30858910362E-01  0.40700118380E-01  0.53303829294E-01  0.51100000000E-03 0. -1.
         11    1    4    4    0    0 -0.44701379241E-01  0.40635559464E-01  0.50593514628E-01  0.78799916513E-01  0.51100000000E-03 0.  1.
</event>
<event>
 8    1  0.1052028E+005  0.1043930E+01  0.7957747E-01            NaN
         13   -1    0    0    0    0  0.00000000000E+00  0.00000000000E+00  0.74505805969E-08  0.10566000000E+00  0.10566000000E+00 0. -1.
     999900   -1    0    0    0    0 -0.00000000000E+00 -0.00000000000E+00 -0.74505805969E-08  0.93827000000E+00  0.93827000000E+00 0.  1.
     999902    2    1    2    0    0  0.15541107198E-01  0.77193242807E-03 -0.18396311369E-01  0.10198354744E+01  0.10195508073E+01 0.  0.
     999903    2    3    3    0    0 -0.10643568226E+00 -0.31083648723E-01 -0.64090216911E-01  0.12967759613E+00  0.20346384403E-01 0.  0.
         14    1    1    2    0    0 -0.15541107198E-01 -0.77193242807E-03  0.18396311369E-01  0.24094525615E-01  0.00000000000E+00 0. -1.
     999901    1    3    3    0    0  0.12197678946E+00  0.31855581151E-01  0.45693905542E-01  0.89015787826E+00  0.88000000000E+00 0.  1.
        -11    1    4    4    0    0 -0.90913782020E-01 -0.19236630324E-01 -0.49442362589E-01  0.10526239617E+00  0.51100000000E-03 0. -1.
         11    1    4    4    0    0 -0.15521900239E-01 -0.11847018398E-01 -0.14647854322E-01  0.24415199962E-01  0.51100000000E-03 0.  1.
</event>
<event>
 8    1  0.1052028E+005  0.1043930E+01  0.7957747E-01            NaN
         13   -1    0    0    0    0  0.00000000000E+00  0.00000000000E+00  0.74505805969E-08  0.10566000000E+00  0.10566000000E+00 0.  1.
     999900   -1    0    0    0    0 -0.00000000000E+00 -0.00000000000E+00 -0.74505805969E-08  0.93827000000E+00  0.93827000000E+00 0. -1.
     999902    2    1    2    0    0 -0.73617151774E-02  0.41204834651E-02 -0.22570650166E-01  0.10198342020E+01  0.10195495044E+01 0.  0.
     999903    2    3    3    0    0 -0.76756740659E-01 -0.12156125637E-01 -0.10608195086E+00  0.13301137021E+00  0.19981883782E-01 0.  0.
         14    1    1    2    0    0  0.73617151774E-02 -0.41204834651E-02  0.22570650166E-01  0.24095798042E-01  0.00000000000E+00 0.  1.
     999901    1    3    3    0    0  0.69395025482E-01  0.16276609103E-01  0.83511300695E-01  0.88682283175E+00  0.88000000000E+00 0. -1.
        -11    1    4    4    0    0 -0.43661543151E-01 -0.11439588668E-01 -0.46221039667E-01  0.64605264244E-01  0.51100000000E-03 0. -1.
         11    1    4    4    0    0 -0.33095197509E-01 -0.71653696914E-03 -0.59860911195E-01  0.68406105966E-01  0.51100000000E-03 0.  1.
</event>
<event>
 8    1  0.1052028E+005  0.1043930E+01  0.7957747E-01            NaN
         13   -1    0    0    0    0  0.00000000000E+00  0.00000000000E+00  0.74505805969E-08  0.10566000000E+00  0.10566000000E+00 0.  1.
     999900   -1    0    0    0    0 -0.00000000000E+00 -0.00000000000E+00 -0.74505805969E-08  0.93827000000E+00  0.93827000000E+00 0.  1.
     999902    2    1    2    0    0  0.34145792590E-02  0.14831787353E-01  0.21028606636E-01  0.10179715030E+01  0.10176404755E+01 0.  0.
     999903    2    3    3    0    0  0.34096319347E-01  0.29920481590E-01  0.12175785881E+00  0.13156560272E+00  0.20657623941E-01 0.  0.
         14    1    1    2    0    0 -0.34145792590E-02 -0.14831787353E-01 -0.21028606636E-01  0.25958496964E-01  0.00000000000E+00 0. -1.
     999901    1    3    3    0    0 -0.30681740088E-01 -0.15088694237E-01 -0.10072925217E+00  0.88640590031E+00  0.88000000000E+00 0.  1.
        -11    1    4    4    0    0  0.44515546449E-02  0.14901589962E-01  0.27196791865E-01  0.31333693222E-01  0.51100000000E-03 0. -1.
         11    1    4    4    0    0  0.29644764702E-01  0.15018891627E-01  0.94561066941E-01  0.10023190950E+00  0.51100000000E-03 0.  1.
</event>
<event>
 8    1  0.1052028E+005  0.1043930E+01  0.7957747E-01            NaN
         13   -1    0    0    0    0  0.00000000000E+00  0.00000000000E+00  0.74505805969E-08  0.10566000000E+00  0.10566000000E+00 0. -1.
     999900   -1    0    0    0    0 -0.00000000000E+00 -0.00000000000E+00 -0.74505805969E-08  0.93827000000E+00  0.93827000000E+00 0.  1.
     999902    2    1    2    0    0  0.44622952245E-02 -0.24370894776E-01  0.71032380895E-02  0.10181558156E+01  0.10178295320E+01 0.  0.
     999903    2    3    3    0    0 -0.12103832540E+00  0.18501513638E-02 -0.33628244334E-01  0.12793280830E+00  0.24129760606E-01 0.  0.
         14    1    1    2    0    0 -0.44622952245E-02  0.24370894776E-01 -0.71032380895E-02  0.25774184414E-01  0.00000000000E+00 0.  1.
     999901    1    3    3    0    0  0.12550062063E+00 -0.26221046140E-01  0.40731482423E-01  0.89022300728E+00  0.88000000000E+00 0. -1.
        -11    1    4    4    0    0 -0.26596286649E-01 -0.41364699920E-03 -0.18142052320E-01  0.32201378087E-01  0.51100000000E-03 0.  1.
         11    1    4    4    0    0 -0.94442038752E-01  0.22637983630E-02 -0.15486192014E-01  0.95731430214E-01  0.51100000000E-03 0. -1.
</event>
<event>
 8    1  0.1109808E+005  0.1043930E+01  0.7957747E-01            NaN
         13   -1    0    0    0    0  0.00000000000E+00  0.00000000000E+00  0.74505805969E-08  0.10566000000E+00  0.10566000000E+00 0. -1.
     999900   -1    0    0    0    0 -0.00000000000E+00 -0.00000000000E+00 -0.74505805969E-08  0.93827000000E+00  0.93827000000E+00 0. -1.
     999902    2    1    2    0    0  0.93902503805E-02 -0.91972797439E-02 -0.18710616843E-01  0.10210640004E+01  0.10208079344E+01 0.  0.
     999903    2    3    3    0    0  0.65099233175E-01 -0.90772748116E-02  0.11036070885E+00  0.12990581447E+00  0.19383691494E-01 0.  0.
         14    1    1    2    0    0 -0.93902503805E-02  0.91972797439E-02  0.18710616843E-01  0.22865999640E-01  0.00000000000E+00 0.  1.
     999901    1    3    3    0    0 -0.55708982795E-01 -0.12000493223E-03 -0.12907132570E+00  0.89115818589E+00  0.88000000000E+00 0. -1.
        -11    1    4    4    0    0  0.41554216016E-01  0.23637363409E-02  0.58331186853E-01  0.71659811602E-01  0.51100000000E-03 0. -1.
         11    1    4    4    0    0  0.23545017159E-01 -0.11441011152E-01  0.52029522001E-01  0.58246002866E-01  0.51100000000E-03 0.  1.
</event>
<event>
 8    1  0.1052028E+005  0.1043930E+01  0.7957747E-01            NaN
         13   -1    0    0    0    0  0.00000000000E+00  0.00000000000E+00  0.74505805969E-08  0.10566000000E+00  0.10566000000E+00 0.  1.
     999900   -1    0    0    0    0 -0.00000000000E+00 -0.00000000000E+00 -0.74505805969E-08  0.93827000000E+00  0.93827000000E+00 0. -1.
     999902    2    1    2    0    0  0.49556062057E-02  0.15520794256E-01 -0.16623386643E-01  0.10206536156E+01  0.10203881678E+01 0.  0.
     999903    2    3    3    0    0 -0.11897269273E+00  0.35842734343E-01  0.34020991644E-01  0.13029635159E+00  0.19506617986E-01 0.  0.
         14    1    1    2    0    0 -0.49556062057E-02 -0.15520794256E-01  0.16623386643E-01  0.23276384398E-01  0.00000000000E+00 0.  1.
     999901    1    3    3    0    0  0.12392829893E+00 -0.20321940087E-01 -0.50644378286E-01  0.89035726401E+00  0.88000000000E+00 0.  1.
        -11    1    4    4    0    0 -0.90880148533E-01  0.18600447618E-01  0.26629110879E-01  0.96511909711E-01  0.51100000000E-03 0. -1.
         11    1    4    4    0    0 -0.28092544195E-01  0.17242286724E-01  0.73918807644E-02  0.33784441879E-01  0.51100000000E-03 0.  1.
</event>
<event>
 8    1  0.1052028E+005  0.1043930E+01  0.7957747E-01            NaN
         13   -1    0    0    0    0  0.00000000000E+00  0.00000000000E+00  0.74505805969E-08  0.10566000000E+00  0.10566000000E+00 0. -1.
     999900   -1    0    0    0    0 -0.00000000000E+00 -0.00000000000E+00 -0.74505805969E-08  0.93827000000E+00  0.93827000000E+00 0.  1.
     999902    2    1    2    0    0  0.16632871077E-01 -0.23335864768E-02  0.14724644091E-01  0.10215936357E+01  0.10213494228E+01 0.  0.
     999903    2    3    3    0    0  0.33882209953E-01 -0.10597968288E-02  0.12841804656E+00  0.13411104321E+00  0.18586282747E-01 0.  0.
         14    1    1    2    0    0 -0.16632871077E-01  0.23335864768E-02 -0.14724644091E-01  0.22336364290E-01  0.00000000000E+00 0.  1.
     999901    1    3    3    0    0 -0.17249338876E-01 -0.12737896480E-02 -0.11369340247E+00  0.88748259250E+00  0.88000000000E+00 0.  1.
        -11    1    4    4    0    0  0.34146749135E-01 -0.41674681352E-02  0.10529586054E+00  0.11077385808E+00  0.51100000000E-03 0. -1.
         11    1    4    4    0    0 -0.26453918203E-03  0.31076713064E-02  0.23122186027E-01  0.23337185126E-01  0.51100000000E-03 0.  1.
</event>
<event>
 8    1  0.1052028E+005  0.1043930E+01  0.7957747E-01            NaN
         13   -1    0    0    0    0  0.00000000000E+00  0.00000000000E+00  0.74505805969E-08  0.10566000000E+00  0.10566000000E+00 0.  1.
     999900   -1    0    0    0    0 -0.00000000000E+00 -0.00000000000E+00 -0.74505805969E-08  0.93827000000E+00  0.93827000000E+00 0.  1.
     999902    2    1    2    0    0 -0.16829678009E-01  0.52113478852E-02  0.14444296725E-01  0.10211476841E+01  0.10208935101E+01 0.  0.
     999903    2    3    3    0    0 -0.23011184291E-01  0.88529299676E-01  0.95226521637E-01  0.13350706993E+00  0.19725511264E-01 0.  0.
         14    1    1    2    0    0  0.16829678009E-01 -0.52113478852E-02 -0.14444296725E-01  0.22782315873E-01  0.00000000000E+00 0. -1.
     999901    1    3    3    0    0  0.61815062821E-02 -0.83317951791E-01 -0.80782224912E-01  0.88764061420E+00  0.88000000000E+00 0.  1.
        -11    1    4    4    0    0  0.10442805151E-02  0.26904717411E-01  0.33944202838E-01  0.43329255337E-01  0.51100000000E-03 0.  1.
         11    1    4    4    0    0 -0.24055464806E-01  0.61624582265E-01  0.61282318799E-01  0.90177814593E-01  0.51100000000E-03 0. -1.
</event>
<event>
 8    1  0.1052028E+005  0.1043930E+01  0.7957747E-01            NaN
         13   -1    0    0    0    0  0.00000000000E+00  0.00000000000E+00  0.74505805969E-08  0.10566000000E+00  0.10566000000E+00 0.  1.
     999900   -1    0    0    0    0 -0.00000000000E+00 -0.00000000000E+00 -0.74505805969E-08  0.93827000000E+00  0.93827000000E+00 0.  1.
     999902    2    1    2    0    0 -0.40726658262E-02  0.23259824733E-01  0.19467328356E-02  0.10202362071E+01  0.10199610397E+01 0.  0.
     999903    2    3    3    0    0 -0.85986495030E-01 -0.89739315723E-01  0.27494040368E-01  0.12887132890E+00  0.20126476150E-01 0.  0.
         14    1    1    2    0    0  0.40726658262E-02 -0.23259824733E-01 -0.19467328356E-02  0.23693792906E-01  0.00000000000E+00 0.  1.
     999901    1    3    3    0    0  0.81913829204E-01  0.11299914046E+00 -0.25547307533E-01  0.89136487820E+00  0.88000000000E+00 0. -1.
        -11    1    4    4    0    0 -0.40048571312E-01 -0.44404837787E-01  0.23347964296E-01  0.64195531315E-01  0.51100000000E-03 0.  1.
         11    1    4    4    0    0 -0.45937923718E-01 -0.45334477936E-01  0.41460760728E-02  0.64675797583E-01  0.51100000000E-03 0. -1.
</event>
<event>
 8    1  0.1052028E+005  0.1043930E+01  0.7957747E-01            NaN
         13   -1    0    0    0    0  0.00000000000E+00  0.00000000000E+00  0.74505805969E-08  0.10566000000E+00  0.10566000000E+00 0.  1.
     999900   -1    0    0    0    0 -0.00000000000E+00 -0.00000000000E+00 -0.74505805969E-08  0.93827000000E+00  0.93827000000E+00 0. -1.
     999902    2    1    2    0    0  0.13713544462E-01  0.36595633335E-02 -0.18912697537E-01  0.10202837776E+01  0.10200097269E+01 0.  0.
     999903    2    3    3    0    0 -0.59759041489E-01 -0.10978941415E+00 -0.29424804396E-01  0.12990217640E+00  0.19593310598E-01 0.  0.
         14    1    1    2    0    0 -0.13713544462E-01 -0.36595633335E-02  0.18912697537E-01  0.23646222396E-01  0.00000000000E+00 0.  1.
     999901    1    3    3    0    0  0.73472585951E-01  0.11344897748E+00  0.10512106860E-01  0.89038160121E+00  0.88000000000E+00 0.  1.
        -11    1    4    4    0    0 -0.54125633094E-01 -0.93994839029E-01 -0.31623126443E-01  0.11298184442E+00  0.51100000000E-03 0. -1.
         11    1    4    4    0    0 -0.56334083951E-02 -0.15794575118E-01  0.21983220461E-02  0.16920331975E-01  0.51100000000E-03 0.  1.
</event>
<event>
 8    1  0.1052028E+005  0.1043930E+01  0.7957747E-01            NaN
         13   -1    0    0    0    0  0.00000000000E+00  0.00000000000E+00  0.74505805969E-08  0.10566000000E+00  0.10566000000E+00 0.  1.
     999900   -1    0    0    0    0 -0.00000000000E+00 -0.00000000000E+00 -0.74505805969E-08  0.93827000000E+00  0.93827000000E+00 0. -1.
     999902    2    1    2    0    0 -0.18753670071E-01  0.97617181911E-02 -0.75011485003E-02  0.10214965760E+01  0.10212502124E+01 0.  0.
     999903    2    3    3    0    0 -0.35911984245E-01  0.81496422159E-02 -0.12642185740E+00  0.13333040826E+00  0.20938587722E-01 0.  0.
         14    1    1    2    0    0  0.18753670071E-01 -0.97617181911E-02  0.75011485003E-02  0.22433423992E-01  0.00000000000E+00 0. -1.
     999901    1    3    3    0    0  0.17158314174E-01  0.16120759751E-02  0.11892070890E+00  0.88816616775E+00  0.88000000000E+00 0.  1.
        -11    1    4    4    0    0 -0.70412097920E-02  0.20232363690E-02 -0.62408266753E-01  0.62838881282E-01  0.51100000000E-03 0. -1.
         11    1    4    4    0    0 -0.28870774453E-01  0.61264058469E-02 -0.64013590650E-01  0.70491526973E-01  0.51100000000E-03 0.  1.
</event>
<event>
 8    1  0.1052028E+005  0.1043930E+01  0.7957747E-01            NaN
         13   -1    0    0    0    0  0.00000000000E+00  0.00000000000E+00  0.74505805969E-08  0.10566000000E+00  0.10566000000E+00 0. -1.
     999900   -1    0    0    0    0 -0.00000000000E+00 -0.00000000000E+00 -0.74505805969E-08  0.93827000000E+00  0.93827000000E+00 0. -1.
     999902    2    1    2    0    0 -0.15106506636E-01  0.11452242262E-01  0.13916458649E-01  0.10204134480E+01  0.10201424296E+01 0.  0.
     999903    2    3    3    0    0  0.94298345714E-01  0.72030748467E-01  0.51341341569E-01  0.13078442478E+00  0.19698367502E-01 0.  0.
         14    1    1    2    0    0  0.15106506636E-01 -0.11452242262E-01 -0.13916458649E-01  0.23516551977E-01  0.00000000000E+00 0.  1.
     999901    1    3    3    0    0 -0.10940485235E+00 -0.60578506205E-01 -0.37424882919E-01  0.88962902324E+00  0.88000000000E+00 0.  1.
        -11    1    4    4    0    0  0.30662384645E-01  0.12446735577E-01  0.14922258173E-01  0.36304792640E-01  0.51100000000E-03 0. -1.
         11    1    4    4    0    0  0.63635961069E-01  0.59584012890E-01  0.36419083396E-01  0.94479632141E-01  0.51100000000E-03 0.  1.
</event>
<event>
 8    1  0.1052028E+005  0.1043930E+01  0.7957747E-01            NaN
         13   -1    0    0    0    0  0.00000000000E+00  0.00000000000E+00  0.74505805969E-08  0.10566000000E+00  0.10566000000E+00 0. -1.
     999900   -1    0    0    0    0 -0.00000000000E+00 -0.00000000000E+00 -0.74505805969E-08  0.93827000000E+00  0.93827000000E+00 0.  1.
     999902    2    1    2    0    0 -0.21820334309E-01 -0.55364986110E-02  0.48095598272E-02  0.10209101896E+01  0.10206506275E+01 0.  0.
     999903    2    3    3    0    0  0.80335054735E-01  0.24702434611E-01 -0.95537516897E-01  0.12882294474E+00  0.20099817444E-01 0.  0.
         14    1    1    2    0    0  0.21820334309E-01  0.55364986110E-02 -0.48095598272E-02  0.23019810424E-01  0.00000000000E+00 0. -1.
     999901    1    3    3    0    0 -0.10215538904E+00 -0.30238933222E-01  0.10034707672E+00  0.89208724484E+00  0.88000000000E+00 0. -1.
        -11    1    4    4    0    0  0.49028923284E-01  0.10879347433E-01 -0.42981596037E-01  0.66105024301E-01  0.51100000000E-03 0.  1.
         11    1    4    4    0    0  0.31306131451E-01  0.13823087178E-01 -0.52555920860E-01  0.62717920438E-01  0.51100000000E-03 0. -1.
</event>
<event>
 8    1  0.1052028E+005  0.1043930E+01  0.7957747E-01            NaN
         13   -1    0    0    0    0  0.00000000000E+00  0.00000000000E+00  0.74505805969E-08  0.10566000000E+00  0.10566000000E+00 0.  1.
     999900   -1    0    0    0    0 -0.00000000000E+00 -0.00000000000E+00 -0.74505805969E-08  0.93827000000E+00  0.93827000000E+00 0.  1.
     999902    2    1    2    0    0 -0.43054248479E-02 -0.42999052348E-02  0.22872001241E-01  0.10202624207E+01  0.10199878690E+01 0.  0.
     999903    2    3    3    0    0  0.61855437368E-01 -0.71560717625E-01  0.91181787699E-01  0.13258708396E+00  0.17837740473E-01 0.  0.
         14    1    1    2    0    0  0.43054248479E-02  0.42999052348E-02 -0.22872001241E-01  0.23667579279E-01  0.00000000000E+00 0. -1.
     999901    1    3    3    0    0 -0.66160862216E-01  0.67260812391E-01 -0.68309786458E-01  0.88767533676E+00  0.88000000000E+00 0. -1.
        -11    1    4    4    0    0  0.17877847319E-01 -0.13567696740E-01  0.30220657149E-01  0.37646368471E-01  0.51100000000E-03 0.  1.
         11    1    4    4    0    0  0.43977590049E-01 -0.57993020886E-01  0.60961130551E-01  0.94940715486E-01  0.51100000000E-03 0. -1.
</event>
<event>
 8    1  0.1052028E+005  0.1043930E+01  0.7957747E-01            NaN
         13   -1    0    0    0    0  0.00000000000E+00  0.00000000000E+00  0.74505805969E-08  0.10566000000E+00  0.10566000000E+00 0. -1.
     999900   -1    0    0    0    0 -0.00000000000E+00 -0.00000000000E+00 -0.74505805969E-08  0.93827000000E+00  0.93827000000E+00 0. -1.
     999902    2    1    2    0    0 -0.37258459958E-02 -0.11117230635E-01 -0.23261845728E-01  0.10178802742E+01  0.10175468856E+01 0.  0.
     999903    2    3    3    0    0 -0.72487497943E-01  0.56824833131E-01  0.84048727973E-01  0.12610684560E+00  0.18848045379E-01 0.  0.
         14    1    1    2    0    0  0.37258459958E-02  0.11117230635E-01  0.23261845728E-01  0.26049725757E-01  0.00000000000E+00 0. -1.
     999901    1    3    3    0    0  0.68761651947E-01 -0.67942063766E-01 -0.10731057370E+00  0.89177342864E+00  0.88000000000E+00 0. -1.
        -11    1    4    4    0    0 -0.37397074695E-01  0.21865087077E-01  0.29445873302E-01  0.52382667020E-01  0.51100000000E-03 0.  1.
         11    1    4    4    0    0 -0.35090423248E-01  0.34959746054E-01  0.54602854671E-01  0.73724178578E-01  0.51100000000E-03 0. -1.
</event>
<event>
 8    1  0.1052028E+005  0.1043930E+01  0.7957747E-01            NaN
         13   -1    0    0    0    0  0.00000000000E+00  0.00000000000E+00  0.74505805969E-08  0.10566000000E+00  0.10566000000E+00 0. -1.
     999900   -1    0    0    0    0 -0.00000000000E+00 -0.00000000000E+00 -0.74505805969E-08  0.93827000000E+00  0.93827000000E+00 0. -1.
     999902    2    1    2    0    0  0.97051827022E-02 -0.10570176975E-01 -0.19100398564E-01  0.10200397418E+01  0.10197599376E+01 0.  0.
     999903    2    3    3    0    0  0.11962371005E+00  0.46405165690E-01 -0.18838684944E-01  0.13137313342E+00  0.20993635322E-01 0.  0.
         14    1    1    2    0    0 -0.97051827022E-02  0.10570176975E-01  0.19100398564E-01  0.23890258221E-01  0.00000000000E+00 0. -1.
     999901    1    3    3    0    0 -0.10991852735E+00 -0.56975342664E-01 -0.26171361936E-03  0.88866660836E+00  0.88000000000E+00 0. -1.
        -11    1    4    4    0    0  0.80032055617E-01  0.27181114337E-01 -0.21702151213E-01  0.87265041060E-01  0.51100000000E-03 0.  1.
         11    1    4    4    0    0  0.39591654434E-01  0.19224051353E-01  0.28634662686E-02  0.44108092356E-01  0.51100000000E-03 0. -1.
</event>
<event>
 8    1  0.1052028E+005  0.1043930E+01  0.7957747E-01            NaN
         13   -1    0    0    0    0  0.00000000000E+00  0.00000000000E+00  0.74505805969E-08  0.10566000000E+00  0.10566000000E+00 0. -1.
     999900   -1    0    0    0    0 -0.00000000000E+00 -0.00000000000E+00 -0.74505805969E-08  0.93827000000E+00  0.93827000000E+00 0. -1.
     999902    2    1    2    0    0 -0.19080971396E-01  0.37880625785E-02 -0.14137406344E-01  0.10198821488E+01  0.10195985967E+01 0.  0.
     999903    2    3    3    0    0 -0.46163050222E-01  0.29373141104E-01  0.11581922917E+00  0.12955818401E+00  0.19427315147E-01 0.  0.
         14    1    1    2    0    0  0.19080971396E-01 -0.37880625785E-02  0.14137406344E-01  0.24047851165E-01  0.00000000000E+00 0.  1.
     999901    1    3    3    0    0  0.27082078825E-01 -0.25585078525E-01 -0.12995663551E+00  0.89032396483E+00  0.88000000000E+00 0. -1.
        -11    1    4    4    0    0 -0.36076600378E-02  0.74588955979E-02  0.31734797802E-01  0.32802573787E-01  0.51100000000E-03 0.  1.
         11    1    4    4    0    0 -0.42555390184E-01  0.21914245506E-01  0.84084431365E-01  0.96755610219E-01  0.51100000000E-03 0. -1.
</event>
<event>
 8    1  0.1052028E+005  0.1043930E+01  0.7957747E-01            NaN
         13   -1    0    0    0    0  0.00000000000E+00  0.00000000000E+00  0.74505805969E-08  0.10566000000E+00  0.10566000000E+00 0. -1.
     999900   -1    0    0    0    0 -0.00000000000E+00 -0.00000000000E+00 -0.74505805969E-08  0.93827000000E+00  0.93827000000E+00 0.  1.
     999902    2    1    2    0    0 -0.15289762138E-01 -0.34002192091E-01  0.61152777859E-02  0.10061500779E+01  0.10054405287E+01 0.  0.
     999903    2    3    3    0    0 -0.13212783856E-01 -0.85794316223E-02  0.11616820735E+00  0.11892841567E+00  0.20018275400E-01 0.  0.
         14    1    1    2    0    0  0.15289762138E-01  0.34002192091E-01 -0.61152777859E-02  0.37779922123E-01  0.00000000000E+00 0. -1.
     999901    1    3    3    0    0 -0.20769782816E-02 -0.25422760468E-01 -0.11005292956E+00  0.88722166221E+00  0.88000000000E+00 0.  1.
        -11    1    4    4    0    0 -0.37940913099E-02  0.57109367824E-02  0.17811862693E-01  0.19092760445E-01  0.51100000000E-03 0.  1.
         11    1    4    4    0    0 -0.94186925460E-02 -0.14290368405E-01  0.98356344657E-01  0.99835655223E-01  0.51100000000E-03 0. -1.
</event>
<event>
 8    1  0.1052028E+005  0.1043930E+01  0.7957747E-01            NaN
         13   -1    0    0    0    0  0.00000000000E+00  0.00000000000E+00  0.74505805969E-08  0.10566000000E+00  0.10566000000E+00 0.  1.
     999900   -1    0    0    0    0 -0.00000000000E+00 -0.00000000000E+00 -0.74505805969E-08  0.93827000000E+00  0.93827000000E+00 0. -1.
     999902    2    1    2    0    0  0.76639670103E-02  0.11221386619E-01  0.19517039220E-01  0.10201482690E+01  0.10198710311E+01 0.  0.
     999903    2    3    3    0    0 -0.80991950719E-01 -0.94787116612E-01  0.27687735963E-01  0.12932593276E+00  0.20354179068E-01 0.  0.
         14    1    1    2    0    0 -0.76639670103E-02 -0.11221386619E-01 -0.19517039220E-01  0.23781730970E-01  0.00000000000E+00 0. -1.
     999901    1    3    3    0    0  0.88655917729E-01  0.10600850323E+00 -0.81706967423E-02  0.89082233627E+00  0.88000000000E+00 0.  1.
        -11    1    4    4    0    0 -0.18909131864E-01 -0.29801992646E-01  0.54964758330E-04  0.35298416050E-01  0.51100000000E-03 0.  1.
         11    1    4    4    0    0 -0.62082818855E-01 -0.64985123966E-01  0.27632771204E-01  0.94027516714E-01  0.51100000000E-03 0. -1.
</event>
<event>
 8    1  0.1052028E+005  0.1043930E+01  0.7957747E-01            NaN
         13   -1    0    0    0    0  0.00000000000E+00  0.00000000000E+00  0.74505805969E-08  0.10566000000E+00  0.10566000000E+00 0.  1.
     999900   -1    0    0    0    0 -0.00000000000E+00 -0.00000000000E+00 -0.74505805969E-08  0.93827000000E+00  0.93827000000E+00 0. -1.
     999902    2    1    2    0    0  0.20198991349E-01 -0.78528835465E-02  0.16231409865E-02  0.10221974986E+01  0.10219664498E+01 0.  0.
     999903    2    3    3    0    0  0.12078617026E+00 -0.18267864681E-02 -0.55609458849E-01  0.13459980542E+00  0.20786044157E-01 0.  0.
         14    1    1    2    0    0 -0.20198991349E-01  0.78528835465E-02 -0.16231409865E-02  0.21732501425E-01  0.00000000000E+00 0.  1.
     999901    1    3    3    0    0 -0.10058717891E+00 -0.60260970785E-02  0.57232599836E-01  0.88759769315E+00  0.88000000000E+00 0.  1.
        -11    1    4    4    0    0  0.45703456452E-01 -0.94698015360E-02 -0.26743355206E-01  0.53795457443E-01  0.51100000000E-03 0.  1.
         11    1    4    4    0    0  0.75082713806E-01  0.76430150680E-02 -0.28866103643E-01  0.80804347979E-01  0.51100000000E-03 0. -1.
</event>
<event>
 8    1  0.1052028E+005  0.1043930E+01  0.7957747E-01            NaN
         13   -1    0    0    0    0  0.00000000000E+00  0.00000000000E+00  0.74505805969E-08  0.10566000000E+00  0.10566000000E+00 0. -1.
     999900   -1    0    0    0    0 -0.00000000000E+00 -0.00000000000E+00 -0.74505805969E-08  0.93827000000E+00  0.93827000000E+00 0.  1.
     999902    2    1    2    0    0 -0.18835476821E-01 -0.10931573167E-01  0.48129907888E-03  0.10221468384E+01  0.10219146996E+01 0.  0.
     999903    2    3    3    0    0  0.11183130354E+00 -0.92736226234E-02  0.63425573865E-01  0.13027322742E+00  0.18869812829E-01 0.  0.
         14    1    1    2    0    0  0.18835476821E-01  0.10931573167E-01 -0.48129907888E-03  0.21783161566E-01  0.00000000000E+00 0.  1.
     999901    1    3    3    0    0 -0.13066678036E+00 -0.16579505440E-02 -0.62944274787E-01  0.89187361101E+00  0.88000000000E+00 0. -1.
        -11    1    4    4    0    0  0.44830669920E-01  0.34008628190E-02  0.18535528763E-01  0.48633134599E-01  0.51100000000E-03 0.  1.
         11    1    4    4    0    0  0.67000633615E-01 -0.12674485442E-01  0.44890045103E-01  0.81640092825E-01  0.51100000000E-03 0. -1.
</event>
<event>
 8    1  0.1052028E+005  0.1043930E+01  0.7957747E-01            NaN
         13   -1    0    0    0    0  0.00000000000E+00  0.00000000000E+00  0.74505805969E-08  0.10566000000E+00  0.10566000000E+00 0.  1.
     999900   -1    0    0    0    0 -0.00000000000E+00 -0.00000000000E+00 -0.74505805969E-08  0.93827000000E+00  0.93827000000E+00 0. -1.
     999902    2    1    2    0    0  0.20357141774E-01  0.11504608590E-01 -0.39987618360E-02  0.10202074509E+01  0.10199316073E+01 0.  0.
     999903    2    3    3    0    0 -0.12776625524E-01  0.44982901174E-01 -0.12111450007E+00  0.13119972384E+00  0.18919351215E-01 0.  0.
         14    1    1    2    0    0 -0.20357141774E-01 -0.11504608590E-01  0.39987618360E-02  0.23722549109E-01  0.00000000000E+00 0. -1.
     999901    1    3    3    0    0  0.33133767298E-01 -0.33478292584E-01  0.11711573824E+00  0.88900772705E+00  0.88000000000E+00 0.  1.
        -11    1    4    4    0    0 -0.80280539425E-02  0.16208123080E-01 -0.70470507493E-01  0.72756487348E-01  0.51100000000E-03 0. -1.
         11    1    4    4    0    0 -0.47485715820E-02  0.28774778094E-01 -0.50643992581E-01  0.58443236494E-01  0.51100000000E-03 0.  1.
</event>
<event>
 8    1  0.1052028E+005  0.1043930E+01  0.7957747E-01            NaN
         13   -1    0    0    0    0  0.00000000000E+00  0.00000000000E+00  0.74505805969E-08  0.10566000000E+00  0.10566000000E+00 0. -1.
     999900   -1    0    0    0    0 -0.00000000000E+00 -0.00000000000E+00 -0.74505805969E-08  0.93827000000E+00  0.93827000000E+00 0.  1.
     999902    2    1    2    0    0  0.16327211859E-01 -0.12710949770E-01  0.10058647208E-01  0.10209229907E+01  0.10206637206E+01 0.  0.
     999903    2    3    3    0    0  0.86494885962E-01 -0.87801042126E-01 -0.46267345130E-01  0.13315351511E+00  0.19970054197E-01 0.  0.
         14    1    1    2    0    0 -0.16327211859E-01  0.12710949770E-01 -0.10058647208E-01  0.23007009254E-01  0.00000000000E+00 0.  1.
     999901    1    3    3    0    0 -0.70167674103E-01  0.75090092356E-01  0.56325992338E-01  0.88776947564E+00  0.88000000000E+00 0. -1.
        -11    1    4    4    0    0  0.21813509403E-01 -0.34379531540E-01 -0.11230636973E-01  0.42239433107E-01  0.51100000000E-03 0. -1.
         11    1    4    4    0    0  0.64681376559E-01 -0.53421510586E-01 -0.35036708157E-01  0.90914082003E-01  0.51100000000E-03 0.  1.
</event>
<event>
 8    1  0.1052028E+005  0.1043930E+01  0.7957747E-01            NaN
         13   -1    0    0    0    0  0.00000000000E+00  0.00000000000E+00  0.74505805969E-08  0.10566000000E+00  0.10566000000E+00 0. -1.
     999900   -1    0    0    0    0 -0.00000000000E+00 -0.00000000000E+00 -0.74505805969E-08  0.93827000000E+00  0.93827000000E+00 0.  1.
     999902    2    1    2    0    0 -0.19720368289E-01  0.12025586132E-01  0.64477129844E-03  0.10208232179E+01  0.10205616683E+01 0.  0.
     999903    2    3    3    0    0 -0.10648689582E+00 -0.68892524616E-01 -0.31601554243E-01  0.13227609119E+00  0.20314210271E-01 0.  0.
         14    1    1    2    0    0  0.19720368289E-01 -0.12025586132E-01 -0.64477129844E-03  0.23106782063E-01  0.00000000000E+00 0. -1.
     999901    1    3    3    0    0  0.86766527533E-01  0.80918110749E-01  0.32246325541E-01  0.88854712675E+00  0.88000000000E+00 0.  1.
        -11    1    4    4    0    0 -0.60517973642E-01 -0.34893177550E-01 -0.76223557436E-02  0.70273184084E-01  0.51100000000E-03 0. -1.
         11    1    4    4    0    0 -0.45968922180E-01 -0.33999347066E-01 -0.23979198499E-01  0.62002907101E-01  0.51100000000E-03 0.  1.
</event>
<event>
 8    1  0.1052028E+005  0.1043930E+01  0.7957747E-01            NaN
         13   -1    0    0    0    0  0.00000000000E+00  0.00000000000E+00  0.74505805969E-08  0.10566000000E+00  0.10566000000E+00 0. -1.
     999900   -1    0    0    0    0 -0.00000000000E+00 -0.00000000000E+00 -0.74505805969E-08  0.93827000000E+00  0.93827000000E+00 0. -1.
     999902    2    1    2    0    0  0.71056584968E-02 -0.25034681016E-02 -0.23645975170E-01  0.10191128713E+01  0.10188106569E+01 0.  0.
     999903    2    3    3    0    0 -0.36855233796E-02 -0.12833657521E+00 -0.94469328102E-02  0.12998294083E+00  0.17957192116E-01 0.  0.
         14    1    1    2    0    0 -0.71056584968E-02  0.25034681016E-02  0.23645975170E-01  0.24817128700E-01  0.00000000000E+00 0. -1.
     999901    1    3    3    0    0  0.10791181876E-01  0.12583310711E+00 -0.14199042359E-01  0.88912993047E+00  0.88000000000E+00 0.  1.
        -11    1    4    4    0    0 -0.68758783622E-02 -0.22983607709E-01 -0.48466676631E-02  0.24480098755E-01  0.51100000000E-03 0.  1.
         11    1    4    4    0    0  0.31903549825E-02 -0.10535296750E+00 -0.46002651471E-02  0.10550284208E+00  0.51100000000E-03 0. -1.
</event>
<event>
 8    1  0.1052028E+005  0.1043930E+01  0.7957747E-01            NaN
         13   -1    0    0    0    0  0.00000000000E+00  0.00000000000E+00  0.74505805969E-08  0.10566000000E+00  0.10566000000E+00 0. -1.
     999900   -1    0    0    0    0 -0.00000000000E+00 -0.00000000000E+00 -0.74505805969E-08  0.93827000000E+00  0.93827000000E+00 0.  1.
     999902    2    1    2    0    0  0.67192416839E-02  0.13663532607E-01 -0.20019624599E-01  0.10187779484E+01  0.10184674184E+01 0.  0.
     999903    2    3    3    0    0 -0.86427273021E-01  0.94681487594E-01  0.36095134384E-02  0.12984683833E+00  0.20320315501E-01 0.  0.
         14    1    1    2    0    0 -0.67192416839E-02 -0.13663532607E-01  0.20019624599E-01  0.25152051630E-01  0.00000000000E+00 0. -1.
     999901    1    3    3    0    0  0.93146514705E-01 -0.81017954987E-01 -0.23629138038E-01  0.88893111004E+00  0.88000000000E+00 0.  1.
        -11    1    4    4    0    0 -0.38718879339E-01  0.53593081076E-01 -0.49462840506E-02  0.66303067828E-01  0.51100000000E-03 0.  1.
         11    1    4    4    0    0 -0.47708393682E-01  0.41088406519E-01  0.85557974890E-02  0.63543770502E-01  0.51100000000E-03 0. -1.
</event>
<event>
 8    1  0.1052028E+005  0.1043930E+01  0.7957747E-01            NaN
         13   -1    0    0    0    0  0.00000000000E+00  0.00000000000E+00  0.74505805969E-08  0.10566000000E+00  0.10566000000E+00 0.  1.
     999900   -1    0    0    0    0 -0.00000000000E+00 -0.00000000000E+00 -0.74505805969E-08  0.93827000000E+00  0.93827000000E+00 0.  1.
     999902    2    1    2    0    0 -0.83766094048E-02  0.22695537621E-01  0.10383405966E-02  0.10197156827E+01  0.10194281438E+01 0.  0.
     999903    2    3    3    0    0 -0.80854959677E-01 -0.91969392581E-01  0.35245701797E-01  0.12866501012E+00  0.17791336585E-01 0.  0.
         14    1    1    2    0    0  0.83766094048E-02 -0.22695537621E-01 -0.10383405966E-02  0.24214317339E-01  0.00000000000E+00 0.  1.
     999901    1    3    3    0    0  0.72478350273E-01  0.11466493020E+00 -0.34207361201E-01  0.89105067254E+00  0.88000000000E+00 0.  1.
        -11    1    4    4    0    0 -0.19333837069E-01 -0.11864236754E-01  0.50711785033E-02  0.23249415949E-01  0.51100000000E-03 0. -1.
         11    1    4    4    0    0 -0.61521122609E-01 -0.80105155828E-01  0.30174523294E-01  0.10541559417E+00  0.51100000000E-03 0.  1.
</event>
<event>
 8    1  0.1052028E+005  0.1043930E+01  0.7957747E-01            NaN
         13   -1    0    0    0    0  0.00000000000E+00  0.00000000000E+00  0.74505805969E-08  0.10566000000E+00  0.10566000000E+00 0.  1.
     999900   -1    0    0    0    0 -0.00000000000E+00 -0.00000000000E+00 -0.74505805969E-08  0.93827000000E+00  0.93827000000E+00 0. -1.
     999902    2    1    2    0    0 -0.16254680400E-03 -0.21432661521E-01 -0.11581035867E-01  0.10195680257E+01  0.10192769266E+01 0.  0.
     999903    2    3    3    0    0  0.86911532005E-01  0.55772527817E-01 -0.75815427588E-01  0.12958566993E+00  0.19500706023E-01 0.  0.
         14    1    1    2    0    0  0.16254680400E-03  0.21432661521E-01  0.11581035867E-01  0.24361974327E-01  0.00000000000E+00 0. -1.
     999901    1    3    3    0    0 -0.87074078809E-01 -0.77205189339E-01  0.64234391721E-01  0.88998235575E+00  0.88000000000E+00 0.  1.
        -11    1    4    4    0    0  0.40225902612E-01  0.19466320752E-01 -0.42656546787E-01  0.61781089253E-01  0.51100000000E-03 0.  1.
         11    1    4    4    0    0  0.46685629393E-01  0.36306207065E-01 -0.33158880801E-01  0.67804580673E-01  0.51100000000E-03 0. -1.
</event>
<event>
 8    1  0.1052028E+005  0.1043930E+01  0.7957747E-01            NaN
         13   -1    0    0    0    0  0.00000000000E+00  0.00000000000E+00  0.74505805969E-08  0.10566000000E+00  0.10566000000E+00 0.  1.
     999900   -1    0    0    0    0 -0.00000000000E+00 -0.00000000000E+00 -0.74505805969E-08  0.93827000000E+00  0.93827000000E+00 0.  1.
     999902    2    1    2    0    0 -0.23550279870E-01 -0.34516134317E-02  0.39775360822E-02  0.10197980687E+01  0.10195125064E+01 0.  0.
     999903    2    3    3    0    0 -0.54567874258E-01 -0.10014805980E+00 -0.62225214943E-01  0.13148781984E+00  0.20243087924E-01 0.  0.
         14    1    1    2    0    0  0.23550279870E-01  0.34516134317E-02 -0.39775360822E-02  0.24131931347E-01  0.00000000000E+00 0. -1.
     999901    1    3    3    0    0  0.31017594388E-01  0.96696446370E-01  0.66202751025E-01  0.88831024881E+00  0.88000000000E+00 0. -1.
        -11    1    4    4    0    0 -0.37468093628E-02 -0.14126970754E-01 -0.18280424976E-02  0.14738139077E-01  0.51100000000E-03 0. -1.
         11    1    4    4    0    0 -0.50821064895E-01 -0.86021089048E-01 -0.60397172445E-01  0.11674968076E+00  0.51100000000E-03 0.  1.
</event>
<event>
 8    1  0.1052028E+005  0.1043930E+01  0.7957747E-01            NaN
         13   -1    0    0    0    0  0.00000000000E+00  0.00000000000E+00  0.74505805969E-08  0.10566000000E+00  0.10566000000E+00 0.  1.
     999900   -1    0    0    0    0 -0.00000000000E+00 -0.00000000000E+00 -0.74505805969E-08  0.93827000000E+00  0.93827000000E+00 0.  1.
     999902    2    1    2    0    0 -0.84274191760E-03 -0.17734280048E-01  0.16293963163E-01  0.10198321134E+01  0.10195473659E+01 0.  0.
     999903    2    3    3    0    0  0.97724826420E-02 -0.12767614882E+00 -0.25081531652E-01  0.13196284990E+00  0.19708123431E-01 0.  0.
         14    1    1    2    0    0  0.84274191760E-03  0.17734280048E-01 -0.16293963163E-01  0.24097886595E-01  0.00000000000E+00 0.  1.
     999901    1    3    3    0    0 -0.10615224560E-01  0.10994186877E+00  0.41375494816E-01  0.88786926350E+00  0.88000000000E+00 0.  1.
        -11    1    4    4    0    0 -0.24502269542E-02 -0.47196665508E-01 -0.16708265405E-01  0.50129393583E-01  0.51100000000E-03 0. -1.
         11    1    4    4    0    0  0.12222709596E-01 -0.80479483315E-01 -0.83732662476E-02  0.81833456319E-01  0.51100000000E-03 0.  1.
</event>
<event>
 8    1  0.1052028E+005  0.1043930E+01  0.7957747E-01            NaN
         13   -1    0    0    0    0  0.00000000000E+00  0.00000000000E+00  0.74505805969E-08  0.10566000000E+00  0.10566000000E+00 0.  1.
     999900   -1    0    0    0    0 -0.00000000000E+00 -0.00000000000E+00 -0.74505805969E-08  0.93827000000E+00  0.93827000000E+00 0. -1.
     999902    2    1    2    0    0  0.13362161322E-01 -0.20066713542E-01  0.28174171600E-02  0.10196574190E+01  0.10193684780E+01 0.  0.
     999903    2    3    3    0    0 -0.23838278036E-01 -0.12816882865E+00 -0.15103686912E-01  0.13208144710E+00  0.14895474841E-01 0.  0.
         14    1    1    2    0    0 -0.13362161322E-01  0.20066713542E-01 -0.28174171600E-02  0.24272580972E-01  0.00000000000E+00 0.  1.
     999901    1    3    3    0    0  0.37200439358E-01  0.10810211511E+00  0.17921104072E-01  0.88757597193E+00  0.88000000000E+00 0.  1.
        -11    1    4    4    0    0 -0.22820817529E-01 -0.84632779506E-01 -0.94450127118E-02  0.88164428574E-01  0.51100000000E-03 0. -1.
         11    1    4    4    0    0 -0.10174605067E-02 -0.43536049147E-01 -0.56586742000E-02  0.43917018523E-01  0.51100000000E-03 0.  1.
</event>
<event>
 8    1  0.1052028E+005  0.1043930E+01  0.7957747E-01            NaN
         13   -1    0    0    0    0  0.00000000000E+00  0.00000000000E+00  0.74505805969E-08  0.10566000000E+00  0.10566000000E+00 0. -1.
     999900   -1    0    0    0    0 -0.00000000000E+00 -0.00000000000E+00 -0.74505805969E-08  0.93827000000E+00  0.93827000000E+00 0.  1.
     999902    2    1    2    0    0 -0.14478777255E-01 -0.17844079790E-01 -0.13460340256E-01  0.10172986851E+01  0.10169500419E+01 0.  0.
     999903    2    3    3    0    0  0.47415954414E-01 -0.17984399499E-01 -0.11701427811E+00  0.12906763657E+00  0.19859561138E-01 0.  0.
         14    1    1    2    0    0  0.14478777255E-01  0.17844079790E-01  0.13460340256E-01  0.26631314916E-01  0.00000000000E+00 0. -1.
     999901    1    3    3    0    0 -0.61894731669E-01  0.14031970911E-03  0.10355393786E+00  0.88823104851E+00  0.88000000000E+00 0. -1.
        -11    1    4    4    0    0  0.25893724261E-01 -0.12587729462E-02 -0.70963948327E-01  0.75552713707E-01  0.51100000000E-03 0.  1.
         11    1    4    4    0    0  0.21522230153E-01 -0.16725626553E-01 -0.46050329788E-01  0.53514922862E-01  0.51100000000E-03 0. -1.
</event>
<event>
 8    1  0.1052028E+005  0.1043930E+01  0.7957747E-01            NaN
         13   -1    0    0    0    0  0.00000000000E+00  0.00000000000E+00  0.74505805969E-08  0.10566000000E+00  0.10566000000E+00 0. -1.
     999900   -1    0    0    0    0 -0.00000000000E+00 -0.00000000000E+00 -0.74505805969E-08  0.93827000000E+00  0.93827000000E+00 0. -1.
     999902    2    1    2    0    0 -0.12571414706E-01 -0.20787630686E-01 -0.48759378495E-02  0.10191521707E+01  0.10188509244E+01 0.  0.
     999903    2    3    3    0    0  0.10258656687E+00 -0.71339142138E-01 -0.29212900600E-01  0.12987768896E+00  0.20038553463E-01 0.  0.
         14    1    1    2    0    0  0.12571414706E-01  0.20787630686E-01  0.48759378495E-02  0.24777829348E-01  0.00000000000E+00 0. -1.
     999901    1    3    3    0    0 -0.11515798158E+00  0.50551511452E-01  0.24336962751E-01  0.88927448169E+00  0.88000000000E+00 0.  1.
        -11    1    4    4    0    0  0.50663973564E-01 -0.41617341990E-01 -0.23997314253E-01  0.69821011050E-01  0.51100000000E-03 0. -1.
         11    1    4    4    0    0  0.51922593307E-01 -0.29721800148E-01 -0.52155863471E-02  0.60056677911E-01  0.51100000000E-03 0.  1.
</event>
<event>
 8    1  0.1052028E+005  0.1043930E+01  0.7957747E-01            NaN
         13   -1    0    0    0    0  0.00000000000E+00  0.00000000000E+00  0.74505805969E-08  0.10566000000E+00  0.10566000000E+00 0.  1.
     999900   -1    0    0    0    0 -0.00000000000E+00 -0.00000000000E+00 -0.74505805969E-08  0.93827000000E+00  0.93827000000E+00 0.  1.
     999902    2    1    2    0    0 -0.12532727004E-01 -0.11231468227E-01 -0.15992174143E-01  0.10207143855E+01  0.10204503378E+01 0.  0.
     999903    2    3    3    0    0  0.54955484289E-01 -0.11770674642E+00 -0.84048422692E-02  0.13169851882E+00  0.19971857202E-01 0.  0.
         14    1    1    2    0    0  0.12532727004E-01  0.11231468227E-01  0.15992174143E-01  0.23215614541E-01  0.00000000000E+00 0.  1.
     999901    1    3    3    0    0 -0.67488211293E-01  0.10647527819E+00 -0.75873318735E-02  0.88901586664E+00  0.88000000000E+00 0.  1.
        -11    1    4    4    0    0  0.28198762221E-01 -0.82252417555E-01 -0.37426821431E-02  0.87033896702E-01  0.51100000000E-03 0.  1.
         11    1    4    4    0    0  0.26756722068E-01 -0.35454328864E-01 -0.46621601261E-02  0.44664622119E-01  0.51100000000E-03 0. -1.
</event>
<event>
 8    1  0.1052028E+005  0.1043930E+01  0.7957747E-01            NaN
         13   -1    0    0    0    0  0.00000000000E+00  0.00000000000E+00  0.74505805969E-08  0.10566000000E+00  0.10566000000E+00 0. -1.
     999900   -1    0    0    0    0 -0.00000000000E+00 -0.00000000000E+00 -0.74505805969E-08  0.93827000000E+00  0.93827000000E+00 0.  1.
     999902    2    1    2    0    0  0.47600751030E-02  0.21782844270E-01  0.71021223332E-02  0.10205293427E+01  0.10202610198E+01 0.  0.
     999903    2    3    3    0    0 -0.61373333701E-01 -0.27494020349E-01 -0.10861439670E+00  0.12913035802E+00  0.18840248054E-01 0.  0.
         14    1    1    2    0    0 -0.47600751030E-02 -0.21782844270E-01 -0.71021223332E-02  0.23400657279E-01  0.00000000000E+00 0.  1.
     999901    1    3    3    0    0  0.66133408804E-01  0.49276864619E-01  0.11571651904E+00  0.89139898470E+00  0.88000000000E+00 0. -1.
        -11    1    4    4    0    0 -0.36916930997E-01 -0.12815780514E-01 -0.78252490170E-01  0.87468950852E-01  0.51100000000E-03 0.  1.
         11    1    4    4    0    0 -0.24456402704E-01 -0.14678239836E-01 -0.30361906534E-01  0.41661407168E-01  0.51100000000E-03 0. -1.
</event>
<event>
 8    1  0.1052028E+005  0.1043930E+01  0.7957747E-01            NaN
         13   -1    0    0    0    0  0.00000000000E+00  0.00000000000E+00  0.74505805969E-08  0.10566000000E+00  0.10566000000E+00 0.  1.
     999900   -1    0    0    0    0 -0.00000000000E+00 -0.00000000000E+00 -0.74505805969E-08  0.93827000000E+00  0.93827000000E+00 0.  1.
     999902    2    1    2    0    0  0.23238732972E-02 -0.15040236863E-01  0.17758158911E-01  0.10205427958E+01  0.10202747849E+01 0.  0.
     999903    2    3    3    0    0  0.88539951665E-01 -0.94051526364E-01 -0.16124117528E-01  0.13215999279E+00  0.22831204008E-01 0.  0.
         14    1    1    2    0    0 -0.23238732972E-02  0.15040236863E-01 -0.17758158911E-01  0.23387204192E-01  0.00000000000E+00 0. -1.
     999901    1    3    3    0    0 -0.86216078368E-01  0.79011289501E-01  0.33882276439E-01  0.88838280302E+00  0.88000000000E+00 0.  1.
        -11    1    4    4    0    0  0.48533536145E-01 -0.67083350407E-01 -0.74332806099E-02  0.83133596182E-01  0.51100000000E-03 0.  1.
         11    1    4    4    0    0  0.40006415519E-01 -0.26968175957E-01 -0.86908369184E-02  0.49026396610E-01  0.51100000000E-03 0. -1.
</event>
<event>
 8    1  0.1052028E+005  0.1043930E+01  0.7957747E-01            NaN
         13   -1    0    0    0    0  0.00000000000E+00  0.00000000000E+00  0.74505805969E-08  0.10566000000E+00  0.10566000000E+00 0. -1.
     999900   -1    0    0    0    0 -0.00000000000E+00 -0.00000000000E+00 -0.74505805969E-08  0.93827000000E+00  0.93827000000E+00 0. -1.
     999902    2    1    2    0    0  0.20991472093E-01  0.12260644650E-01 -0.73653093939E-02  0.10185289549E+01  0.10182121679E+01 0.  0.
     999903    2    3    3    0    0 -0.31740787620E-01 -0.11563988408E+00  0.35516123234E-01  0.12668925312E+00  0.20216613419E-01 0.  0.
         14    1    1    2    0    0 -0.20991472093E-01 -0.12260644650E-01  0.73653093939E-02  0.25401045064E-01  0.00000000000E+00 0. -1.
     999901    1    3    3    0    0  0.52732259713E-01  0.12790052873E+00 -0.42881432627E-01  0.89183970181E+00  0.88000000000E+00 0.  1.
        -11    1    4    4    0    0 -0.14801011573E-01 -0.23619043408E-01  0.54232967272E-02  0.28400746882E-01  0.51100000000E-03 0. -1.
         11    1    4    4    0    0 -0.16939776047E-01 -0.92020840675E-01  0.30092826506E-01  0.98288506242E-01  0.51100000000E-03 0.  1.
</event>
<event>
 8    1  0.1052028E+005  0.1043930E+01  0.7957747E-01            NaN
         13   -1    0    0    0    0  0.00000000000E+00  0.00000000000E+00  0.74505805969E-08  0.10566000000E+00  0.10566000000E+00 0. -1.
     999900   -1    0    0    0    0 -0.00000000000E+00 -0.00000000000E+00 -0.74505805969E-08  0.93827000000E+00  0.93827000000E+00 0. -1.
     999902    2    1    2    0    0  0.95379785663E-02 -0.20111506737E-01  0.13487763228E-01  0.10179037537E+01  0.10175709736E+01 0.  0.
     999903    2    3    3    0    0 -0.91089686285E-01  0.84182128161E-01 -0.58329726984E-02  0.12584076265E+00  0.20442903989E-01 0.  0.
         14    1    1    2    0    0 -0.95379785663E-02  0.20111506737E-01 -0.13487763228E-01  0.26026246276E-01  0.00000000000E+00 0. -1.
     999901    1    3    3    0    0  0.10062766485E+00 -0.10429363490E+00  0.19320735926E-01  0.89206299108E+00  0.88000000000E+00 0. -1.
        -11    1    4    4    0    0 -0.64827387161E-01  0.50352484104E-01  0.28639689016E-02  0.82136631416E-01  0.51100000000E-03 0. -1.
         11    1    4    4    0    0 -0.26262299125E-01  0.33829644058E-01 -0.86969416000E-02  0.43704131230E-01  0.51100000000E-03 0.  1.
</event>
<event>
 8    1  0.1052028E+005  0.1043930E+01  0.7957747E-01            NaN
         13   -1    0    0    0    0  0.00000000000E+00  0.00000000000E+00  0.74505805969E-08  0.10566000000E+00  0.10566000000E+00 0.  1.
     999900   -1    0    0    0    0 -0.00000000000E+00 -0.00000000000E+00 -0.74505805969E-08  0.93827000000E+00  0.93827000000E+00 0.  1.
     999902    2    1    2    0    0  0.19248313683E-01  0.68266956150E-02 -0.97304329805E-02  0.10213073857E+01  0.10210568022E+01 0.  0.
     999903    2    3    3    0    0  0.12510284471E+00 -0.38139577086E-01 -0.48785930238E-02  0.13381051934E+00  0.27858666879E-01 0.  0.
         14    1    1    2    0    0 -0.19248313683E-01 -0.68266956150E-02  0.97304329805E-02  0.22622614319E-01  0.00000000000E+00 0.  1.
     999901    1    3    3    0    0 -0.10585453103E+00  0.44966272701E-01 -0.48518399568E-02  0.88749686634E+00  0.88000000000E+00 0. -1.
        -11    1    4    4    0    0  0.10692720006E-01 -0.25831214175E-02 -0.85555731094E-02  0.13945096974E-01  0.51100000000E-03 0.  1.
         11    1    4    4    0    0  0.11441012470E+00 -0.35556455668E-01  0.36769800856E-02  0.11986542236E+00  0.51100000000E-03 0. -1.
</event>
<event>
 8    1  0.1052028E+005  0.1043930E+01  0.7957747E-01            NaN
         13   -1    0    0    0    0  0.00000000000E+00  0.00000000000E+00  0.74505805969E-08  0.10566000000E+00  0.10566000000E+00 0.  1.
     999900   -1    0    0    0    0 -0.00000000000E+00 -0.00000000000E+00 -0.74505805969E-08  0.93827000000E+00  0.93827000000E+00 0. -1.
     999902    2    1    2    0    0  0.10753753177E-01 -0.92859079164E-02  0.17923549412E-01  0.10210580758E+01  0.10208018756E+01 0.  0.
     999903    2    3    3    0    0 -0.74971766218E-01 -0.91896205648E-01  0.55071989251E-01  0.13226488694E+00  0.19884616568E-01 0.  0.
         14    1    1    2    0    0 -0.10753753177E-01  0.92859079164E-02 -0.17923549412E-01  0.22871924204E-01  0.00000000000E+00 0. -1.
     999901    1    3    3    0    0  0.85725519396E-01  0.82610297731E-01 -0.37148439839E-01  0.88879318885E+00  0.88000000000E+00 0. -1.
        -11    1    4    4    0    0 -0.49274040034E-01 -0.48593714468E-01  0.38822283372E-01  0.79351817335E-01  0.51100000000E-03 0. -1.
         11    1    4    4    0    0 -0.25697726184E-01 -0.43302491180E-01  0.16249705880E-01  0.52913069610E-01  0.51100000000E-03 0.  1.
</event>
<event>
 8    1  0.1052028E+005  0.1043930E+01  0.7957747E-01            NaN
         13   -1    0    0    0    0  0.00000000000E+00  0.00000000000E+00  0.74505805969E-08  0.10566000000E+00  0.10566000000E+00 0.  1.
     999900   -1    0    0    0    0 -0.00000000000E+00 -0.00000000000E+00 -0.74505805969E-08  0.93827000000E+00  0.93827000000E+00 0. -1.
     999902    2    1    2    0    0  0.22225784260E-01 -0.40060202776E-02  0.26880226539E-02  0.10211866680E+01  0.10209333728E+01 0.  0.
     999903    2    3    3    0    0 -0.33448947326E-01 -0.11574931807E+00 -0.47366946041E-01  0.13096661643E+00  0.19796220101E-01 0.  0.
         14    1    1    2    0    0 -0.22225784260E-01  0.40060202776E-02 -0.26880226539E-02  0.22743331995E-01  0.00000000000E+00 0.  1.
     999901    1    3    3    0    0  0.55674731586E-01  0.11174329779E+00  0.50054968695E-01  0.89022005158E+00  0.88000000000E+00 0.  1.
        -11    1    4    4    0    0 -0.30954670941E-01 -0.74963125663E-01 -0.28617960171E-01  0.86005294183E-01  0.51100000000E-03 0.  1.
         11    1    4    4    0    0 -0.24942763843E-02 -0.40786192408E-01 -0.18748985871E-01  0.44961322245E-01  0.51100000000E-03 0. -1.
</event>
<event>
 8    1  0.1052028E+005  0.1043930E+01  0.7957747E-01            NaN
         13   -1    0    0    0    0  0.00000000000E+00  0.00000000000E+00  0.74505805969E-08  0.10566000000E+00  0.10566000000E+00 0. -1.
     999900   -1    0    0    0    0 -0.00000000000E+00 -0.00000000000E+00 -0.74505805969E-08  0.93827000000E+00  0.93827000000E+00 0. -1.
     999902    2    1    2    0    0 -0.10199055956E-01 -0.14231884896E-01 -0.42632542011E-02  0.10259093833E+01  0.10257511005E+01 0.  0.
     999903    2    3    3    0    0  0.81768433373E-01  0.24163217157E-01 -0.10256259752E+00  0.13484543281E+00  0.19856147169E-01 0.  0.
         14    1    1    2    0    0  0.10199055956E-01  0.14231884896E-01  0.42632542011E-02  0.18020616706E-01  0.00000000000E+00 0. -1.
     999901    1    3    3    0    0 -0.91967489330E-01 -0.38395102053E-01  0.98299343317E-01  0.89106395048E+00  0.88000000000E+00 0.  1.
        -11    1    4    4    0    0  0.97229731887E-02 -0.33760851251E-02 -0.14359601982E-01  0.17674655541E-01  0.51100000000E-03 0.  1.
         11    1    4    4    0    0  0.72045460185E-01  0.27539302282E-01 -0.88202995536E-01  0.11717077727E+00  0.51100000000E-03 0. -1.
</event>
<event>
 8    1  0.1052028E+005  0.1043930E+01  0.7957747E-01            NaN
         13   -1    0    0    0    0  0.00000000000E+00  0.00000000000E+00  0.74505805969E-08  0.10566000000E+00  0.10566000000E+00 0.  1.
     999900   -1    0    0    0    0 -0.00000000000E+00 -0.00000000000E+00 -0.74505805969E-08  0.93827000000E+00  0.93827000000E+00 0.  1.
     999902    2    1    2    0    0  0.13080404443E-01 -0.18900941021E-01  0.70116374937E-02  0.10198986535E+01  0.10196154951E+01 0.  0.
     999903    2    3    3    0    0 -0.49307830693E-02  0.12442141814E+00 -0.19721341541E-01  0.12772134288E+00  0.20464803964E-01 0.  0.
         14    1    1    2    0    0 -0.13080404443E-01  0.18900941021E-01 -0.70116374937E-02  0.24031346450E-01  0.00000000000E+00 0.  1.
     999901    1    3    3    0    0  0.18011187513E-01 -0.14332235916E+00  0.26732979035E-01  0.89217731067E+00  0.88000000000E+00 0.  1.
        -11    1    4    4    0    0 -0.84505107240E-02  0.51825560020E-01 -0.39944206156E-03  0.52514002683E-01  0.51100000000E-03 0.  1.
         11    1    4    4    0    0  0.35197276547E-02  0.72595858118E-01 -0.19321899480E-01  0.75207340194E-01  0.51100000000E-03 0. -1.
</event>
<event>
 8    1  0.1052028E+005  0.1043930E+01  0.7957747E-01            NaN
         13   -1    0    0    0    0  0.00000000000E+00  0.00000000000E+00  0.74505805969E-08  0.10566000000E+00  0.10566000000E+00 0. -1.
     999900   -1    0    0    0    0 -0.00000000000E+00 -0.00000000000E+00 -0.74505805969E-08  0.93827000000E+00  0.93827000000E+00 0. -1.
     999902    2    1    2    0    0 -0.32657021090E-02  0.11989803393E-01 -0.20140332306E-01  0.10202645572E+01  0.10199900556E+01 0.  0.
     999903    2    3    3    0    0  0.74130203425E-01 -0.69836213897E-01 -0.80084334700E-01  0.13106328266E+00  0.19791401283E-01 0.  0.
         14    1    1    2    0    0  0.32657021090E-02 -0.11989803393E-01  0.20140332306E-01  0.23665442761E-01  0.00000000000E+00 0. -1.
     999901    1    3    3    0    0 -0.77395905534E-01  0.81826017289E-01  0.59944002394E-01  0.88920127458E+00  0.88000000000E+00 0. -1.
        -11    1    4    4    0    0  0.44484663047E-01 -0.29944408588E-01 -0.47433624121E-01  0.71594431839E-01  0.51100000000E-03 0.  1.
         11    1    4    4    0    0  0.29645540378E-01 -0.39891805309E-01 -0.32650710579E-01  0.59468850816E-01  0.51100000000E-03 0. -1.
</event>
<event>
 8    1  0.1052028E+005  0.1043930E+01  0.7957747E-01            NaN
         13   -1    0    0    0    0  0.00000000000E+00  0.00000000000E+00  0.74505805969E-08  0.10566000000E+00  0.10566000000E+00 0.  1.
     999900   -1    0    0    0    0 -0.00000000000E+00 -0.00000000000E+00 -0.74505805969E-08  0.93827000000E+00  0.93827000000E+00 0. -1.
     999902    2    1    2    0    0  0.23000056150E-01  0.46358864708E-02 -0.23657987790E-02  0.10203484176E+01  0.10200758806E+01 0.  0.
     999903    2    3    3    0    0  0.65957519918E-01 -0.10486235180E+00 -0.40362172876E-01  0.13170960887E+00  0.19282344536E-01 0.  0.
         14    1    1    2    0    0 -0.23000056150E-01 -0.46358864708E-02  0.23657987790E-02  0.23581582435E-01  0.00000000000E+00 0. -1.
     999901    1    3    3    0    0 -0.42957463768E-01  0.10949823827E+00  0.37996374097E-01  0.88863880870E+00  0.88000000000E+00 0.  1.
        -11    1    4    4    0    0  0.18417438388E-01 -0.23219569391E-01 -0.17802866978E-01  0.34576778813E-01  0.51100000000E-03 0. -1.
         11    1    4    4    0    0  0.47540081530E-01 -0.81642782406E-01 -0.22559305899E-01  0.97132830055E-01  0.51100000000E-03 0.  1.
</event>
<event>
 8    1  0.1052028E+005  0.1043930E+01  0.7957747E-01            NaN
         13   -1    0    0    0    0  0.00000000000E+00  0.00000000000E+00  0.74505805969E-08  0.10566000000E+00  0.10566000000E+00 0. -1.
     999900   -1    0    0    0    0 -0.00000000000E+00 -0.00000000000E+00 -0.74505805969E-08  0.93827000000E+00  0.93827000000E+00 0.  1.
     999902    2    1    2    0    0  0.49621561241E-02  0.22116562799E-01  0.51235633476E-02  0.10206917504E+01  0.10204271817E+01 0.  0.
     999903    2    3    3    0    0  0.94708275892E-01  0.65834615140E-01 -0.61331919387E-01  0.13255777103E+00  0.22496760914E-01 0.  0.
         14    1    1    2    0    0 -0.49621561241E-02 -0.22116562799E-01 -0.51235633476E-02  0.23238249607E-01  0.00000000000E+00 0. -1.
     999901    1    3    3    0    0 -0.89746119768E-01 -0.43718052341E-01  0.66455482734E-01  0.88813397936E+00  0.88000000000E+00 0.  1.
        -11    1    4    4    0    0  0.80827825199E-01  0.63200941631E-01 -0.48602180314E-01  0.11353382492E+00  0.51100000000E-03 0. -1.
         11    1    4    4    0    0  0.13880450693E-01  0.26336735085E-02 -0.12729739072E-01  0.19023946106E-01  0.51100000000E-03 0.  1.
</event>
<event>
 8    1  0.1052028E+005  0.1043930E+01  0.7957747E-01            NaN
         13   -1    0    0    0    0  0.00000000000E+00  0.00000000000E+00  0.74505805969E-08  0.10566000000E+00  0.10566000000E+00 0.  1.
     999900   -1    0    0    0    0 -0.00000000000E+00 -0.00000000000E+00 -0.74505805969E-08  0.93827000000E+00  0.93827000000E+00 0. -1.
     999902    2    1    2    0    0  0.66544732192E-03 -0.22013583545E-01 -0.73711711238E-02  0.10207055550E+01  0.10204413042E+01 0.  0.
     999903    2    3    3    0    0 -0.36590437458E-01 -0.65725073873E-01 -0.10782588158E+00  0.13313029388E+00  0.20942993169E-01 0.  0.
         14    1    1    2    0    0 -0.66544732192E-03  0.22013583545E-01  0.73711711238E-02  0.23224444974E-01  0.00000000000E+00 0.  1.
     999901    1    3    3    0    0  0.37255884780E-01  0.43711490328E-01  0.10045471045E+00  0.88757526114E+00  0.88000000000E+00 0.  1.
        -11    1    4    4    0    0 -0.16326497522E-01 -0.39075363636E-01 -0.75621970766E-01  0.86673999262E-01  0.51100000000E-03 0. -1.
         11    1    4    4    0    0 -0.20263939937E-01 -0.26649710237E-01 -0.32203910812E-01  0.46456294623E-01  0.51100000000E-03 0.  1.
</event>
<event>
 8    1  0.1052028E+005  0.1043930E+01  0.7957747E-01            NaN
         13   -1    0    0    0    0  0.00000000000E+00  0.00000000000E+00  0.74505805969E-08  0.10566000000E+00  0.10566000000E+00 0.  1.
     999900   -1    0    0    0    0 -0.00000000000E+00 -0.00000000000E+00 -0.74505805969E-08  0.93827000000E+00  0.93827000000E+00 0.  1.
     999902    2    1    2    0    0  0.28468146628E-02 -0.20526497641E-01  0.12418633994E-01  0.10197708624E+01  0.10194846482E+01 0.  0.
     999903    2    3    3    0    0  0.45067803713E-01  0.10815334265E+00 -0.46197004423E-01  0.12748340520E+00  0.19738361799E-01 0.  0.
         14    1    1    2    0    0 -0.28468146628E-02  0.20526497641E-01 -0.12418633994E-01  0.24159137597E-01  0.00000000000E+00 0. -1.
     999901    1    3    3    0    0 -0.42220989050E-01 -0.12867984029E+00  0.58615638417E-01  0.89228745720E+00  0.88000000000E+00 0. -1.
        -11    1    4    4    0    0  0.53244904356E-02  0.67625497845E-02 -0.88464617504E-02  0.12353270194E-01  0.51100000000E-03 0.  1.
         11    1    4    4    0    0  0.39743313277E-01  0.10139079286E+00 -0.37350542673E-01  0.11513013501E+00  0.51100000000E-03 0. -1.
</event>
<event>
 8    1  0.1052028E+005  0.1043930E+01  0.7957747E-01            NaN
         13   -1    0    0    0    0  0.00000000000E+00  0.00000000000E+00  0.74505805969E-08  0.10566000000E+00  0.10566000000E+00 0. -1.
     999900   -1    0    0    0    0 -0.00000000000E+00 -0.00000000000E+00 -0.74505805969E-08  0.93827000000E+00  0.93827000000E+00 0.  1.
     999902    2    1    2    0    0  0.12977498489E-01 -0.17695820118E-01  0.81685646668E-02  0.10205145571E+01  0.10202458911E+01 0.  0.
     999903    2    3    3    0    0  0.12902492898E+00 -0.22781325434E-01 -0.76340262183E-02  0.13274060483E+00  0.19883881109E-01 0.  0.
         14    1    1    2    0    0 -0.12977498489E-01  0.17695820118E-01 -0.81685646668E-02  0.23415442883E-01  0.00000000000E+00 0.  1.
     999901    1    3    3    0    0 -0.11604743049E+00  0.50855053165E-02  0.15802590885E-01  0.88777395229E+00  0.88000000000E+00 0. -1.
        -11    1    4    4    0    0  0.15036713556E-01 -0.40032448050E-02  0.54072111905E-02  0.16481133983E-01  0.51100000000E-03 0.  1.
         11    1    4    4    0    0  0.11398821542E+00 -0.18778080629E-01 -0.13041237409E-01  0.11625947084E+00  0.51100000000E-03 0. -1.
</event>
<event>
 8    1  0.1052028E+005  0.1043930E+01  0.7957747E-01            NaN
         13   -1    0    0    0    0  0.00000000000E+00  0.00000000000E+00  0.74505805969E-08  0.10566000000E+00  0.10566000000E+00 0.  1.
     999900   -1    0    0    0    0 -0.00000000000E+00 -0.00000000000E+00 -0.74505805969E-08  0.93827000000E+00  0.93827000000E+00 0.  1.
     999902    2    1    2    0    0  0.76356868522E-02 -0.20005396624E-01 -0.10635616592E-01  0.10200210906E+01  0.10197408442E+01 0.  0.
     999903    2    3    3    0    0 -0.47499825402E-01  0.54142306955E-01 -0.10646633190E+00  0.13000910606E+00  0.19484994560E-01 0.  0.
         14    1    1    2    0    0 -0.76356868522E-02  0.20005396624E-01  0.10635616592E-01  0.23908909388E-01  0.00000000000E+00 0.  1.
     999901    1    3    3    0    0  0.55135512254E-01 -0.74147703579E-01  0.95830715311E-01  0.89001198456E+00  0.88000000000E+00 0. -1.
        -11    1    4    4    0    0 -0.16149312038E-01  0.15867029632E-01 -0.19188706421E-01  0.29682157667E-01  0.51100000000E-03 0. -1.
         11    1    4    4    0    0 -0.31350513363E-01  0.38275277323E-01 -0.87277625482E-01  0.10032694839E+00  0.51100000000E-03 0.  1.
</event>
<event>
 8    1  0.1052028E+005  0.1043930E+01  0.7957747E-01            NaN
         13   -1    0    0    0    0  0.00000000000E+00  0.00000000000E+00  0.74505805969E-08  0.10566000000E+00  0.10566000000E+00 0. -1.
     999900   -1    0    0    0    0 -0.00000000000E+00 -0.00000000000E+00 -0.74505805969E-08  0.93827000000E+00  0.93827000000E+00 0. -1.
     999902    2    1    2    0    0  0.10496518172E-01 -0.15317275901E-01  0.14701244695E-01  0.10202461990E+01  0.10199712663E+01 0.  0.
     999903    2    3    3    0    0  0.46887532059E-01 -0.29244028897E-01 -0.11601748225E+00  0.12973755450E+00  0.17836002089E-01 0.  0.
         14    1    1    2    0    0 -0.10496518172E-01  0.15317275901E-01 -0.14701244695E-01  0.23683801012E-01  0.00000000000E+00 0.  1.
     999901    1    3    3    0    0 -0.36391013887E-01  0.13926752996E-01  0.13071872694E+00  0.89050864449E+00  0.88000000000E+00 0.  1.
        -11    1    4    4    0    0  0.16758949612E-01 -0.20683988886E-01 -0.49244389094E-01  0.55981789598E-01  0.51100000000E-03 0. -1.
         11    1    4    4    0    0  0.30128582447E-01 -0.85600400114E-02 -0.66773093155E-01  0.73755764899E-01  0.51100000000E-03 0.  1.
</event>
<event>
 8    1  0.1052028E+005  0.1043930E+01  0.7957747E-01            NaN
         13   -1    0    0    0    0  0.00000000000E+00  0.00000000000E+00  0.74505805969E-08  0.10566000000E+00  0.10566000000E+00 0. -1.
     999900   -1    0    0    0    0 -0.00000000000E+00 -0.00000000000E+00 -0.74505805969E-08  0.93827000000E+00  0.93827000000E+00 0. -1.
     999902    2    1    2    0    0 -0.95073336383E-02 -0.19162884221E-01  0.10601510211E-01  0.10200553787E+01  0.10197759450E+01 0.  0.
     999903    2    3    3    0    0  0.82005121431E-01 -0.32727231972E-01 -0.92571733641E-01  0.12921126257E+00  0.18169007983E-01 0.  0.
         14    1    1    2    0    0  0.95073336383E-02  0.19162884221E-01 -0.10601510211E-01  0.23874621323E-01  0.00000000000E+00 0.  1.
     999901    1    3    3    0    0 -0.91512455069E-01  0.13564347751E-01  0.10317324385E+00  0.89084411611E+00  0.88000000000E+00 0.  1.
        -11    1    4    4    0    0  0.50562165478E-01 -0.29380295153E-01 -0.58255023229E-01  0.82544794951E-01  0.51100000000E-03 0. -1.
         11    1    4    4    0    0  0.31442955954E-01 -0.33469368189E-02 -0.34316710412E-01  0.46666467615E-01  0.51100000000E-03 0.  1.
</event>
<event>
 8    1  0.1052028E+005  0.1043930E+01  0.7957747E-01            NaN
         13   -1    0    0    0    0  0.00000000000E+00  0.00000000000E+00  0.74505805969E-08  0.10566000000E+00  0.10566000000E+00 0. -1.
     999900   -1    0    0    0    0 -0.00000000000E+00 -0.00000000000E+00 -0.74505805969E-08  0.93827000000E+00  0.93827000000E+00 0. -1.
     999902    2    1    2    0    0  0.14960247127E-01  0.16166890411E-01 -0.86815278900E-02  0.10202541417E+01  0.10199793956E+01 0.  0.
     999903    2    3    3    0    0  0.87119615532E-01 -0.16295053028E-01  0.93962197828E-01  0.13076187830E+00  0.20357259948E-01 0.  0.
         14    1    1    2    0    0 -0.14960247127E-01 -0.16166890411E-01  0.86815278900E-02  0.23675858298E-01  0.00000000000E+00 0. -1.
     999901    1    3    3    0    0 -0.72159368405E-01  0.32461943438E-01 -0.10264372572E+00  0.88949226340E+00  0.88000000000E+00 0. -1.
        -11    1    4    4    0    0  0.61646757021E-01 -0.86478194932E-02  0.77782921331E-01  0.99627061609E-01  0.51100000000E-03 0.  1.
         11    1    4    4    0    0  0.25472858511E-01 -0.76472335347E-02  0.16179276497E-01  0.31134816692E-01  0.51100000000E-03 0. -1.
</event>
<event>
 8    1  0.1052028E+005  0.1043930E+01  0.7957747E-01            NaN
         13   -1    0    0    0    0  0.00000000000E+00  0.00000000000E+00  0.74505805969E-08  0.10566000000E+00  0.10566000000E+00 0. -1.
     999900   -1    0    0    0    0 -0.00000000000E+00 -0.00000000000E+00 -0.74505805969E-08  0.93827000000E+00  0.93827000000E+00 0. -1.
     999902    2    1    2    0    0  0.19697995457E-01  0.13085380429E-01 -0.38363823678E-02  0.10199726204E+01  0.10196912231E+01 0.  0.
     999903    2    3    3    0    0 -0.22338323937E-01 -0.12411910136E+00 -0.69893900383E-02  0.12834373831E+00  0.22775239907E-01 0.  0.
         14    1    1    2    0    0 -0.19697995457E-01 -0.13085380429E-01  0.38363823678E-02  0.23957379566E-01  0.00000000000E+00 0. -1.
     999901    1    3    3    0    0  0.42036319395E-01  0.13720448179E+00  0.31530076705E-02  0.89162888212E+00  0.88000000000E+00 0. -1.
        -11    1    4    4    0    0  0.15292134104E-02 -0.37608840804E-01  0.43187905634E-02  0.37890321630E-01  0.51100000000E-03 0.  1.
         11    1    4    4    0    0 -0.23867537348E-01 -0.86510260556E-01 -0.11308180602E-01  0.90453416685E-01  0.51100000000E-03 0. -1.
</event>
<event>
 8    1  0.1052028E+005  0.1043930E+01  0.7957747E-01            NaN
         13   -1    0    0    0    0  0.00000000000E+00  0.00000000000E+00  0.74505805969E-08  0.10566000000E+00  0.10566000000E+00 0.  1.
     999900   -1    0    0    0    0 -0.00000000000E+00 -0.00000000000E+00 -0.74505805969E-08  0.93827000000E+00  0.93827000000E+00 0.  1.
     999902    2    1    2    0    0 -0.17049751286E-01 -0.12142426618E-01 -0.10148888987E-01  0.10206677454E+01  0.10204026234E+01 0.  0.
     999903    2    3    3    0    0 -0.30206015953E-01 -0.41697943357E-01 -0.12108717942E+00  0.13311272163E+00  0.20143727576E-01 0.  0.
         14    1    1    2    0    0  0.17049751286E-01  0.12142426618E-01  0.10148888987E-01  0.23262254636E-01  0.00000000000E+00 0.  1.
     999901    1    3    3    0    0  0.13156264667E-01  0.29555516739E-01  0.11093829043E+00  0.88755502373E+00  0.88000000000E+00 0. -1.
        -11    1    4    4    0    0 -0.47679062850E-02  0.11330736801E-03 -0.22970106487E-01  0.23465563746E-01  0.51100000000E-03 0. -1.
         11    1    4    4    0    0 -0.25438109668E-01 -0.41811250725E-01 -0.98117072931E-01  0.10964715788E+00  0.51100000000E-03 0.  1.
</event>
<event>
 8    1  0.1052028E+005  0.1043930E+01  0.7957747E-01            NaN
         13   -1    0    0    0    0  0.00000000000E+00  0.00000000000E+00  0.74505805969E-08  0.10566000000E+00  0.10566000000E+00 0. -1.
     999900   -1    0    0    0    0 -0.00000000000E+00 -0.00000000000E+00 -0.74505805969E-08  0.93827000000E+00  0.93827000000E+00 0. -1.
     999902    2    1    2    0    0 -0.49725260918E-02  0.23944602637E-01 -0.34824003770E-02  0.10192278316E+01  0.10189284448E+01 0.  0.
     999903    2    3    3    0    0  0.11916838955E+00 -0.37428110307E-01  0.22473014533E-01  0.12802007782E+00  0.16796887687E-01 0.  0.
         14    1    1    2    0    0  0.49725260918E-02 -0.23944602637E-01  0.34824003770E-02  0.24702168398E-01  0.00000000000E+00 0. -1.
     999901    1    3    3    0    0 -0.12414091564E+00  0.61372712945E-01 -0.25955414910E-01  0.89120775378E+00  0.88000000000E+00 0. -1.
        -11    1    4    4    0    0  0.84388384658E-02 -0.60743342500E-02  0.52341280735E-02  0.11651984763E-01  0.51100000000E-03 0.  1.
         11    1    4    4    0    0  0.11072955108E+00 -0.31353776057E-01  0.17238886459E-01  0.11636809306E+00  0.51100000000E-03 0. -1.
</event>
<event>
 8    1  0.1052028E+005  0.1043930E+01  0.7957747E-01            NaN
         13   -1    0    0    0    0  0.00000000000E+00  0.00000000000E+00  0.74505805969E-08  0.10566000000E+00  0.10566000000E+00 0. -1.
     999900   -1    0    0    0    0 -0.00000000000E+00 -0.00000000000E+00 -0.74505805969E-08  0.93827000000E+00  0.93827000000E+00 0. -1.
     999902    2    1    2    0    0  0.87756521104E-02  0.19144945596E-01 -0.17266218954E-01  0.10166965036E+01  0.10163316963E+01 0.  0.
     999903    2    3    3    0    0  0.16655617333E-01 -0.86314195682E-01  0.85899810613E-01  0.12438100218E+00  0.19086808929E-01 0.  0.
         14    1    1    2    0    0 -0.87756521104E-02 -0.19144945596E-01  0.17266218954E-01  0.27233496449E-01  0.00000000000E+00 0.  1.
     999901    1    3    3    0    0 -0.78799652223E-02  0.10545914128E+00 -0.10316602957E+00  0.89231550137E+00  0.88000000000E+00 0. -1.
        -11    1    4    4    0    0  0.95472896796E-03 -0.53523768742E-01  0.48900399724E-01  0.72506658604E-01  0.51100000000E-03 0.  1.
         11    1    4    4    0    0  0.15700888365E-01 -0.32790426940E-01  0.36999410889E-01  0.51874343576E-01  0.51100000000E-03 0. -1.
</event>
<event>
 8    1  0.1052028E+005  0.1043930E+01  0.7957747E-01            NaN
         13   -1    0    0    0    0  0.00000000000E+00  0.00000000000E+00  0.74505805969E-08  0.10566000000E+00  0.10566000000E+00 0.  1.
     999900   -1    0    0    0    0 -0.00000000000E+00 -0.00000000000E+00 -0.74505805969E-08  0.93827000000E+00  0.93827000000E+00 0.  1.
     999902    2    1    2    0    0 -0.22763057782E-01 -0.67135024624E-02  0.18404069502E-02  0.10201263235E+01  0.10198485677E+01 0.  0.
     999903    2    3    3    0    0 -0.55972561561E-01 -0.11500337460E+00  0.29748592343E-01  0.13242793200E+00  0.17131100647E-01 0.  0.
         14    1    1    2    0    0  0.22763057782E-01  0.67135024624E-02 -0.18404069502E-02  0.23803676452E-01  0.00000000000E+00 0.  1.
     999901    1    3    3    0    0  0.33209503779E-01  0.10828987214E+00 -0.27908185392E-01  0.88769839155E+00  0.88000000000E+00 0. -1.
        -11    1    4    4    0    0 -0.27474731914E-01 -0.37730303823E-01  0.10218012049E-01  0.47781854417E-01  0.51100000000E-03 0. -1.
         11    1    4    4    0    0 -0.28497829647E-01 -0.77273070779E-01  0.19530580294E-01  0.84646077581E-01  0.51100000000E-03 0.  1.
</event>
<event>
 8    1  0.1052028E+005  0.1043930E+01  0.7957747E-01            NaN
         13   -1    0    0    0    0  0.00000000000E+00  0.00000000000E+00  0.74505805969E-08  0.10566000000E+00  0.10566000000E+00 0.  1.
     999900   -1    0    0    0    0 -0.00000000000E+00 -0.00000000000E+00 -0.74505805969E-08  0.93827000000E+00  0.93827000000E+00 0. -1.
     999902    2    1    2    0    0 -0.10085795063E-01  0.27542555442E-02 -0.21059720669E-01  0.10204178538E+01  0.10201469381E+01 0.  0.
     999903    2    3    3    0    0  0.64208576183E-01 -0.71025521358E-01  0.82660023915E-01  0.12816178375E+00  0.20625162292E-01 0.  0.
         14    1    1    2    0    0  0.10085795063E-01 -0.27542555442E-02  0.21059720669E-01  0.23512146230E-01  0.00000000000E+00 0.  1.
     999901    1    3    3    0    0 -0.74294371247E-01  0.73779776902E-01 -0.10371974458E+00  0.89225607002E+00  0.88000000000E+00 0. -1.
        -11    1    4    4    0    0  0.37317908792E-01 -0.37538666253E-01  0.32455411786E-01  0.62091808283E-01  0.51100000000E-03 0.  1.
         11    1    4    4    0    0  0.26890667391E-01 -0.33486855105E-01  0.50204612130E-01  0.66069975463E-01  0.51100000000E-03 0. -1.
</event>
<event>
 8    1  0.1052028E+005  0.1043930E+01  0.7957747E-01            NaN
         13   -1    0    0    0    0  0.00000000000E+00  0.00000000000E+00  0.74505805969E-08  0.10566000000E+00  0.10566000000E+00 0. -1.
     999900   -1    0    0    0    0 -0.00000000000E+00 -0.00000000000E+00 -0.74505805969E-08  0.93827000000E+00  0.93827000000E+00 0.  1.
     999902    2    1    2    0    0  0.32291200101E-02  0.23234518441E-01 -0.11727057361E-01  0.10177041742E+01  0.10173662036E+01 0.  0.
     999903    2    3    3    0    0  0.41790999986E-01  0.11688643228E-01  0.11778650402E+00  0.12731432230E+00  0.21264149981E-01 0.  0.
         14    1    1    2    0    0 -0.32291200101E-02 -0.23234518441E-01  0.11727057361E-01  0.26225825775E-01  0.00000000000E+00 0.  1.
     999901    1    3    3    0    0 -0.38561879976E-01  0.11545875212E-01 -0.12951356138E+00  0.89038985192E+00  0.88000000000E+00 0.  1.
        -11    1    4    4    0    0  0.22626329816E-02  0.37018020768E-02  0.34514856345E-01  0.34790218110E-01  0.51100000000E-03 0. -1.
         11    1    4    4    0    0  0.39528367005E-01  0.79868411514E-02  0.83271647675E-01  0.92524104195E-01  0.51100000000E-03 0.  1.
</event>
<event>
 8    1  0.1052028E+005  0.1043930E+01  0.7957747E-01            NaN
         13   -1    0    0    0    0  0.00000000000E+00  0.00000000000E+00  0.74505805969E-08  0.10566000000E+00  0.10566000000E+00 0. -1.
     999900   -1    0    0    0    0 -0.00000000000E+00 -0.00000000000E+00 -0.74505805969E-08  0.93827000000E+00  0.93827000000E+00 0.  1.
     999902    2    1    2    0    0  0.10081128959E-01  0.20896370473E-01 -0.49016677395E-02  0.10202168432E+01  0.10199412205E+01 0.  0.
     999903    2    3    3    0    0  0.88802515090E-01 -0.89193641989E-01  0.23813612334E-01  0.12940741642E+00  0.18379304538E-01 0.  0.
         14    1    1    2    0    0 -0.10081128959E-01 -0.20896370473E-01  0.49016677395E-02  0.23713156826E-01  0.00000000000E+00 0.  1.
     999901    1    3    3    0    0 -0.78721386131E-01  0.11009001246E+00 -0.28715280073E-01  0.89080942675E+00  0.88000000000E+00 0.  1.
        -11    1    4    4    0    0  0.50303518100E-01 -0.58439747487E-01  0.21611969928E-01  0.80081123773E-01  0.51100000000E-03 0.  1.
         11    1    4    4    0    0  0.38498996991E-01 -0.30753894502E-01  0.22016424052E-02  0.49326292650E-01  0.51100000000E-03 0. -1.
</event>
<event>
 8    1  0.1052028E+005  0.1043930E+01  0.7957747E-01            NaN
         13   -1    0    0    0    0  0.00000000000E+00  0.00000000000E+00  0.74505805969E-08  0.10566000000E+00  0.10566000000E+00 0. -1.
     999900   -1    0    0    0    0 -0.00000000000E+00 -0.00000000000E+00 -0.74505805969E-08  0.93827000000E+00  0.93827000000E+00 0.  1.
     999902    2    1    2    0    0 -0.18313587049E-01 -0.75910698511E-02 -0.10333344353E-01  0.10215740205E+01  0.10213293737E+01 0.  0.
     999903    2    3    3    0    0 -0.22178943987E-01  0.99280578037E-01  0.79250425914E-01  0.13058482756E+00  0.20572516874E-01 0.  0.
         14    1    1    2    0    0  0.18313587049E-01  0.75910698511E-02  0.10333344353E-01  0.22355979460E-01  0.00000000000E+00 0.  1.
     999901    1    3    3    0    0  0.38653569379E-02 -0.10687164789E+00 -0.89583770267E-01  0.89098919298E+00  0.88000000000E+00 0.  1.
        -11    1    4    4    0    0 -0.24185498863E-01  0.65251028384E-01  0.55906982134E-01  0.89266381313E-01  0.51100000000E-03 0. -1.
         11    1    4    4    0    0  0.20065548755E-02  0.34029549653E-01  0.23343443780E-01  0.41318446250E-01  0.51100000000E-03 0.  1.
</event>
<event>
 7    1  0.1383124E+005  0.1043930E+01  0.7957747E-01            NaN
         13   -1    0    0    0    0  0.00000000000E+00  0.00000000000E+00  0.74505805969E-08  0.10566000000E+00  0.10566000000E+00 0.  1.
     999900   -1    0    0    0    0 -0.00000000000E+00 -0.00000000000E+00 -0.74505805969E-08  0.93827000000E+00  0.93827000000E+00 0. -1.
     999903    2    1    2    0    0 -0.49514490725E-01  0.65258467570E-01 -0.67688162286E-01  0.10826537529E+00  0.20720805789E-01 0.  0.
         14    1    1    2    0    0  0.17610312227E-01  0.29917178129E-01 -0.28276810710E-01  0.44774308123E-01  0.00000000000E+00 0. -1.
     999901    1    1    2    0    0  0.31904178498E-01 -0.95175645699E-01  0.95964972996E-01  0.89089031658E+00  0.88000000000E+00 0.  1.
        -11    1    3    3    0    0 -0.27869427079E-01  0.19993777882E-01 -0.26416519606E-01  0.43296070825E-01  0.51100000000E-03 0.  1.
         11    1    3    3    0    0 -0.21645063646E-01  0.45264689688E-01 -0.41271642679E-01  0.64969304469E-01  0.51100000000E-03 0. -1.
</event>
<event>
 8    1  0.1052028E+005  0.1043930E+01  0.7957747E-01            NaN
         13   -1    0    0    0    0  0.00000000000E+00  0.00000000000E+00  0.74505805969E-08  0.10566000000E+00  0.10566000000E+00 0. -1.
     999900   -1    0    0    0    0 -0.00000000000E+00 -0.00000000000E+00 -0.74505805969E-08  0.93827000000E+00  0.93827000000E+00 0.  1.
     999902    2    1    2    0    0  0.16768078587E-01  0.38985715883E-02 -0.16058215547E-01  0.10203878334E+01  0.10201162174E+01 0.  0.
     999903    2    3    3    0    0  0.63448707732E-01 -0.10758638101E+00  0.33214002524E-01  0.13076109864E+00  0.19867739218E-01 0.  0.
         14    1    1    2    0    0 -0.16768078587E-01 -0.38985715883E-02  0.16058215547E-01  0.23542166563E-01  0.00000000000E+00 0. -1.
     999901    1    3    3    0    0 -0.46680629145E-01  0.11148495260E+00 -0.49272218072E-01  0.88962673480E+00  0.88000000000E+00 0.  1.
        -11    1    4    4    0    0  0.50348659107E-02 -0.48439996277E-02  0.65758806393E-02  0.96082014089E-02  0.51100000000E-03 0.  1.
         11    1    4    4    0    0  0.58413841821E-01 -0.10274238138E+00  0.26638121885E-01  0.12115289723E+00  0.51100000000E-03 0. -1.
</event>
<event>
 8    1  0.1052028E+005  0.1043930E+01  0.7957747E-01            NaN
         13   -1    0    0    0    0  0.00000000000E+00  0.00000000000E+00  0.74505805969E-08  0.10566000000E+00  0.10566000000E+00 0. -1.
     999900   -1    0    0    0    0 -0.00000000000E+00 -0.00000000000E+00 -0.74505805969E-08  0.93827000000E+00  0.93827000000E+00 0. -1.
     999902    2    1    2    0    0  0.93079322094E-02  0.22554682732E-01  0.86158785261E-03  0.10195149708E+01  0.10192225871E+01 0.  0.
     999903    2    3    3    0    0 -0.13283253904E-01 -0.10143584358E+00 -0.73520082736E-01  0.12742941148E+00  0.19167084976E-01 0.  0.
         14    1    1    2    0    0 -0.93079322094E-02 -0.22554682732E-01 -0.86158785261E-03  0.24415029158E-01  0.00000000000E+00 0.  1.
     999901    1    3    3    0    0  0.22591186113E-01  0.12399052632E+00  0.74381670588E-01  0.89208555936E+00  0.88000000000E+00 0.  1.
        -11    1    4    4    0    0 -0.12909570709E-02 -0.75394563469E-01 -0.53170226816E-01  0.92267767457E-01  0.51100000000E-03 0.  1.
         11    1    4    4    0    0 -0.11992296833E-01 -0.26041280115E-01 -0.20349855919E-01  0.35161644021E-01  0.51100000000E-03 0. -1.
</event>
<event>
 8    1  0.1052028E+005  0.1043930E+01  0.7957747E-01            NaN
         13   -1    0    0    0    0  0.00000000000E+00  0.00000000000E+00  0.74505805969E-08  0.10566000000E+00  0.10566000000E+00 0. -1.
     999900   -1    0    0    0    0 -0.00000000000E+00 -0.00000000000E+00 -0.74505805969E-08  0.93827000000E+00  0.93827000000E+00 0.  1.
     999902    2    1    2    0    0  0.16775792120E-01  0.17921664069E-01  0.50674080149E-02  0.10188642491E+01  0.10185558729E+01 0.  0.
     999903    2    3    3    0    0  0.86305176034E-01  0.44023941142E-03 -0.95345855387E-01  0.13025704740E+00  0.20670970903E-01 0.  0.
         14    1    1    2    0    0 -0.16775792120E-01 -0.17921664069E-01 -0.50674080149E-02  0.25065750902E-01  0.00000000000E+00 0.  1.
     999901    1    3    3    0    0 -0.69529383914E-01  0.17481424658E-01  0.10041326340E+00  0.88860720169E+00  0.88000000000E+00 0. -1.
        -11    1    4    4    0    0  0.82099367720E-01  0.20744448143E-02 -0.81569946361E-01  0.11575200548E+00  0.51100000000E-03 0. -1.
         11    1    4    4    0    0  0.42058083144E-02 -0.16342054028E-02 -0.13775909026E-01  0.14505041929E-01  0.51100000000E-03 0.  1.
</event>
<event>
 8    1  0.1052028E+005  0.1043930E+01  0.7957747E-01            NaN
         13   -1    0    0    0    0  0.00000000000E+00  0.00000000000E+00  0.74505805969E-08  0.10566000000E+00  0.10566000000E+00 0.  1.
     999900   -1    0    0    0    0 -0.00000000000E+00 -0.00000000000E+00 -0.74505805969E-08  0.93827000000E+00  0.93827000000E+00 0.  1.
     999902    2    1    2    0    0  0.79856910597E-02 -0.20780295428E-01 -0.30352576448E-02  0.10214621401E+01  0.10212150111E+01 0.  0.
     999903    2    3    3    0    0 -0.21308304604E-01  0.10128918444E+00  0.74547136597E-01  0.12917400054E+00  0.20374103938E-01 0.  0.
         14    1    1    2    0    0 -0.79856910597E-02  0.20780295428E-01  0.30352576448E-02  0.22467859905E-01  0.00000000000E+00 0. -1.
     999901    1    3    3    0    0  0.29293995663E-01 -0.12206947986E+00 -0.77582394242E-01  0.89228813956E+00  0.88000000000E+00 0.  1.
        -11    1    4    4    0    0 -0.92629370644E-02  0.12254894639E-01  0.77251943368E-02  0.17202447332E-01  0.51100000000E-03 0. -1.
         11    1    4    4    0    0 -0.12045367539E-01  0.89034289798E-01  0.66821942260E-01  0.11197155321E+00  0.51100000000E-03 0.  1.
</event>
<event>
 8    1  0.1052028E+005  0.1043930E+01  0.7957747E-01            NaN
         13   -1    0    0    0    0  0.00000000000E+00  0.00000000000E+00  0.74505805969E-08  0.10566000000E+00  0.10566000000E+00 0. -1.
     999900   -1    0    0    0    0 -0.00000000000E+00 -0.00000000000E+00 -0.74505805969E-08  0.93827000000E+00  0.93827000000E+00 0.  1.
     999902    2    1    2    0    0 -0.37642317815E-02 -0.14575094091E-01 -0.19824668312E-01  0.10190378269E+01  0.10187337593E+01 0.  0.
     999903    2    3    3    0    0 -0.69496711763E-01 -0.89734954201E-01 -0.65178356742E-01  0.13223079007E+00  0.18831056874E-01 0.  0.
         14    1    1    2    0    0  0.37642317815E-02  0.14575094091E-01  0.19824668312E-01  0.24892173114E-01  0.00000000000E+00 0. -1.
     999901    1    3    3    0    0  0.65732479982E-01  0.75159860110E-01  0.45353688430E-01  0.88680703682E+00  0.88000000000E+00 0.  1.
        -11    1    4    4    0    0 -0.60796888679E-02 -0.19458307912E-02 -0.61963430169E-02  0.89109293557E-02  0.51100000000E-03 0. -1.
         11    1    4    4    0    0 -0.63417022895E-01 -0.87789123410E-01 -0.58982013725E-01  0.12331986071E+00  0.51100000000E-03 0.  1.
</event>
<event>
 8    1  0.1052028E+005  0.1043930E+01  0.7957747E-01            NaN
         13   -1    0    0    0    0  0.00000000000E+00  0.00000000000E+00  0.74505805969E-08  0.10566000000E+00  0.10566000000E+00 0.  1.
     999900   -1    0    0    0    0 -0.00000000000E+00 -0.00000000000E+00 -0.74505805969E-08  0.93827000000E+00  0.93827000000E+00 0.  1.
     999902    2    1    2    0    0  0.16058063959E-01 -0.18373677325E-01  0.38275839284E-02  0.10192297199E+01  0.10189303794E+01 0.  0.
     999903    2    3    3    0    0  0.10736912309E+00  0.33856427668E-01 -0.62741200817E-01  0.13046816784E+00  0.20275557976E-01 0.  0.
         14    1    1    2    0    0 -0.16058063959E-01  0.18373677325E-01 -0.38275839284E-02  0.24700280065E-01  0.00000000000E+00 0. -1.
     999901    1    3    3    0    0 -0.91311059129E-01 -0.52230104993E-01  0.66568784745E-01  0.88876155210E+00  0.88000000000E+00 0. -1.
        -11    1    4    4    0    0  0.11546156770E-01 -0.15210116518E-02 -0.26401940177E-02  0.11952362029E-01  0.51100000000E-03 0.  1.
         11    1    4    4    0    0  0.95822966318E-01  0.35377439320E-01 -0.60101006799E-01  0.11851580581E+00  0.51100000000E-03 0. -1.
</event>
<event>
 8    1  0.1052028E+005  0.1043930E+01  0.7957747E-01            NaN
         13   -1    0    0    0    0  0.00000000000E+00  0.00000000000E+00  0.74505805969E-08  0.10566000000E+00  0.10566000000E+00 0. -1.
     999900   -1    0    0    0    0 -0.00000000000E+00 -0.00000000000E+00 -0.74505805969E-08  0.93827000000E+00  0.93827000000E+00 0. -1.
     999902    2    1    2    0    0 -0.71516935173E-02  0.18631375052E-01  0.12070588599E-01  0.10206067505E+01  0.10203402204E+01 0.  0.
     999903    2    3    3    0    0 -0.27949098990E-01 -0.12331467137E+00  0.16303692502E-01  0.12897951265E+00  0.19551060993E-01 0.  0.
         14    1    1    2    0    0  0.71516935173E-02 -0.18631375052E-01 -0.12070588599E-01  0.23323249465E-01  0.00000000000E+00 0. -1.
     999901    1    3    3    0    0  0.20797405472E-01  0.14194604642E+00 -0.42331039025E-02  0.89162723788E+00  0.88000000000E+00 0.  1.
        -11    1    4    4    0    0 -0.24560463090E-01 -0.70868855211E-01  0.46789065042E-02  0.75151608587E-01  0.51100000000E-03 0. -1.
         11    1    4    4    0    0 -0.33886359000E-02 -0.52445816155E-01  0.11624785997E-01  0.53827904064E-01  0.51100000000E-03 0.  1.
</event>
<event>
 8    1  0.1052028E+005  0.1043930E+01  0.7957747E-01            NaN
         13   -1    0    0    0    0  0.00000000000E+00  0.00000000000E+00  0.74505805969E-08  0.10566000000E+00  0.10566000000E+00 0. -1.
     999900   -1    0    0    0    0 -0.00000000000E+00 -0.00000000000E+00 -0.74505805969E-08  0.93827000000E+00  0.93827000000E+00 0.  1.
     999902    2    1    2    0    0 -0.21136924821E-01  0.76952065704E-02 -0.73506450091E-02  0.10202653053E+01  0.10199908212E+01 0.  0.
     999903    2    3    3    0    0  0.33246569023E-01 -0.53147672909E-01 -0.11229396548E+00  0.13028074309E+00  0.20811723856E-01 0.  0.
         14    1    1    2    0    0  0.21136924821E-01 -0.76952065704E-02  0.73506450091E-02  0.23664694739E-01  0.00000000000E+00 0.  1.
     999901    1    3    3    0    0 -0.54383493844E-01  0.60842879480E-01  0.10494332047E+00  0.88998456217E+00  0.88000000000E+00 0. -1.
        -11    1    4    4    0    0  0.34336248246E-02 -0.23185794428E-01 -0.33905089448E-01  0.41221196661E-01  0.51100000000E-03 0.  1.
         11    1    4    4    0    0  0.29812944199E-01 -0.29961878482E-01 -0.78388876033E-01  0.89059546432E-01  0.51100000000E-03 0. -1.
</event>
<event>
 8    1  0.1052028E+005  0.1043930E+01  0.7957747E-01            NaN
         13   -1    0    0    0    0  0.00000000000E+00  0.00000000000E+00  0.74505805969E-08  0.10566000000E+00  0.10566000000E+00 0.  1.
     999900   -1    0    0    0    0 -0.00000000000E+00 -0.00000000000E+00 -0.74505805969E-08  0.93827000000E+00  0.93827000000E+00 0. -1.
     999902    2    1    2    0    0  0.43004325929E-02 -0.14445005789E-01 -0.18423056631E-01  0.10201274596E+01  0.10198497306E+01 0.  0.
     999903    2    3    3    0    0  0.11937094256E+00  0.48540005761E-01  0.23593780362E-03  0.13020808574E+00  0.18669114508E-01 0.  0.
         14    1    1    2    0    0 -0.43004325929E-02  0.14445005789E-01  0.18423056631E-01  0.23802540377E-01  0.00000000000E+00 0.  1.
     999901    1    3    3    0    0 -0.11507050997E+00 -0.62985011551E-01 -0.18658994435E-01  0.88991937389E+00  0.88000000000E+00 0. -1.
        -11    1    4    4    0    0  0.16191204033E-01  0.11644192188E-01 -0.47777832503E-02  0.20514156906E-01  0.51100000000E-03 0.  1.
         11    1    4    4    0    0  0.10317973853E+00  0.36895813574E-01  0.50137210540E-02  0.10969392883E+00  0.51100000000E-03 0. -1.
</event>
<event>
 8    1  0.1052028E+005  0.1043930E+01  0.7957747E-01            NaN
         13   -1    0    0    0    0  0.00000000000E+00  0.00000000000E+00  0.74505805969E-08  0.10566000000E+00  0.10566000000E+00 0. -1.
     999900   -1    0    0    0    0 -0.00000000000E+00 -0.00000000000E+00 -0.74505805969E-08  0.93827000000E+00  0.93827000000E+00 0. -1.
     999902    2    1    2    0    0  0.14670499464E-01 -0.94227408361E-02 -0.84908576706E-02  0.10245365407E+01  0.10243529748E+01 0.  0.
     999903    2    3    3    0    0  0.95811412872E-01  0.78622584500E-01 -0.50923218884E-01  0.13541543961E+00  0.19566027511E-01 0.  0.
         14    1    1    2    0    0 -0.14670499464E-01  0.94227408361E-02  0.84908576706E-02  0.19393459294E-01  0.00000000000E+00 0. -1.
     999901    1    3    3    0    0 -0.81140913408E-01 -0.88045325336E-01  0.42432361213E-01  0.88912110110E+00  0.88000000000E+00 0.  1.
        -11    1    4    4    0    0  0.46311856438E-01  0.37596997224E-01 -0.14000855677E-01  0.61274850695E-01  0.51100000000E-03 0. -1.
         11    1    4    4    0    0  0.49499556434E-01  0.41025587275E-01 -0.36922363207E-01  0.74140588912E-01  0.51100000000E-03 0.  1.
</event>
<event>
 8    1  0.1052028E+005  0.1043930E+01  0.7957747E-01            NaN
         13   -1    0    0    0    0  0.00000000000E+00  0.00000000000E+00  0.74505805969E-08  0.10566000000E+00  0.10566000000E+00 0.  1.
     999900   -1    0    0    0    0 -0.00000000000E+00 -0.00000000000E+00 -0.74505805969E-08  0.93827000000E+00  0.93827000000E+00 0.  1.
     999902    2    1    2    0    0  0.22446706413E-01  0.35724844672E-02 -0.73304467480E-02  0.10200479414E+01  0.10197683315E+01 0.  0.
     999903    2    3    3    0    0  0.54073727648E-01  0.81856717506E-01  0.85092534590E-01  0.13118873032E+00  0.18580992923E-01 0.  0.
         14    1    1    2    0    0 -0.22446706413E-01 -0.35724844672E-02  0.73304467480E-02  0.23882058613E-01  0.00000000000E+00 0. -1.
     999901    1    3    3    0    0 -0.31627021235E-01 -0.78284233039E-01 -0.92422981338E-01  0.88885921106E+00  0.88000000000E+00 0.  1.
        -11    1    4    4    0    0  0.20962946220E-01  0.46678189939E-01  0.49354248490E-01  0.71094314085E-01  0.51100000000E-03 0. -1.
         11    1    4    4    0    0  0.33110781428E-01  0.35178527567E-01  0.35738286100E-01  0.60094416238E-01  0.51100000000E-03 0.  1.
</event>
<event>
 8    1  0.1052028E+005  0.1043930E+01  0.7957747E-01            NaN
         13   -1    0    0    0    0  0.00000000000E+00  0.00000000000E+00  0.74505805969E-08  0.10566000000E+00  0.10566000000E+00 0.  1.
     999900   -1    0    0    0    0 -0.00000000000E+00 -0.00000000000E+00 -0.74505805969E-08  0.93827000000E+00  0.93827000000E+00 0. -1.
     999902    2    1    2    0    0  0.71482702174E-02  0.13080391121E-01 -0.19407430625E-01  0.10194587360E+01  0.10191649874E+01 0.  0.
     999903    2    3    3    0    0  0.69966434881E-02  0.54255257736E-01  0.11441771085E+00  0.12838940023E+00  0.19995987706E-01 0.  0.
         14    1    1    2    0    0 -0.71482702174E-02 -0.13080391121E-01  0.19407430625E-01  0.24471264014E-01  0.00000000000E+00 0. -1.
     999901    1    3    3    0    0  0.15162672923E-03 -0.41174866615E-01 -0.13382514147E+00  0.89106933575E+00  0.88000000000E+00 0. -1.
        -11    1    4    4    0    0  0.10531716282E-01  0.14023734605E-01  0.28812366766E-01  0.33734193035E-01  0.51100000000E-03 0.  1.
         11    1    4    4    0    0 -0.35350727939E-02  0.40231523131E-01  0.85605344082E-01  0.94655207197E-01  0.51100000000E-03 0. -1.
</event>
<event>
 8    1  0.1052028E+005  0.1043930E+01  0.7957747E-01            NaN
         13   -1    0    0    0    0  0.00000000000E+00  0.00000000000E+00  0.74505805969E-08  0.10566000000E+00  0.10566000000E+00 0. -1.
     999900   -1    0    0    0    0 -0.00000000000E+00 -0.00000000000E+00 -0.74505805969E-08  0.93827000000E+00  0.93827000000E+00 0. -1.
     999902    2    1    2    0    0  0.21504415726E-02  0.20664840400E-01  0.10472310358E-01  0.10206635153E+01  0.10203982958E+01 0.  0.
     999903    2    3    3    0    0  0.57406417136E-01  0.12750669205E-01 -0.11440857423E+00  0.13009566705E+00  0.19428958617E-01 0.  0.
         14    1    1    2    0    0 -0.21504415726E-02 -0.20664840400E-01 -0.10472310358E-01  0.23266484735E-01  0.00000000000E+00 0.  1.
     999901    1    3    3    0    0 -0.55255975564E-01  0.79141711952E-02  0.12488088459E+00  0.89056784822E+00  0.88000000000E+00 0.  1.
        -11    1    4    4    0    0  0.27331508982E-01  0.56285765557E-02 -0.74905455566E-01  0.79936103557E-01  0.51100000000E-03 0.  1.
         11    1    4    4    0    0  0.30074908154E-01  0.71220926489E-02 -0.39503118667E-01  0.50159563491E-01  0.51100000000E-03 0. -1.
</event>
<event>
 8    1  0.1052028E+005  0.1043930E+01  0.7957747E-01            NaN
         13   -1    0    0    0    0  0.00000000000E+00  0.00000000000E+00  0.74505805969E-08  0.10566000000E+00  0.10566000000E+00 0. -1.
     999900   -1    0    0    0    0 -0.00000000000E+00 -0.00000000000E+00 -0.74505805969E-08  0.93827000000E+00  0.93827000000E+00 0.  1.
     999902    2    1    2    0    0  0.96992589087E-02  0.29977006208E-02 -0.21295834296E-01  0.10203381711E+01  0.10200653945E+01 0.  0.
     999903    2    3    3    0    0 -0.89959319278E-01  0.28434944779E-01 -0.89941971333E-01  0.13169247245E+00  0.18764964269E-01 0.  0.
         14    1    1    2    0    0 -0.96992589087E-02 -0.29977006208E-02  0.21295834296E-01  0.23591828898E-01  0.00000000000E+00 0. -1.
     999901    1    3    3    0    0  0.99658578187E-01 -0.25437244158E-01  0.68646137038E-01  0.88864569865E+00  0.88000000000E+00 0. -1.
        -11    1    4    4    0    0 -0.20581735221E-01  0.12620546608E-01 -0.30978960926E-01  0.39279042280E-01  0.51100000000E-03 0. -1.
         11    1    4    4    0    0 -0.69377584057E-01  0.15814398171E-01 -0.58963010408E-01  0.92413430174E-01  0.51100000000E-03 0.  1.
</event>
<event>
 8    1  0.1052028E+005  0.1043930E+01  0.7957747E-01            NaN
         13   -1    0    0    0    0  0.00000000000E+00  0.00000000000E+00  0.74505805969E-08  0.10566000000E+00  0.10566000000E+00 0. -1.
     999900   -1    0    0    0    0 -0.00000000000E+00 -0.00000000000E+00 -0.74505805969E-08  0.93827000000E+00  0.93827000000E+00 0.  1.
     999902    2    1    2    0    0 -0.19034306692E-01  0.67134461134E-02  0.13744014886E-01  0.10195112954E+01  0.10192188226E+01 0.  0.
     999903    2    3    3    0    0 -0.65192642064E-01  0.11157325914E+00  0.17990338072E-01  0.13207442238E+00  0.20526277027E-01 0.  0.
         14    1    1    2    0    0  0.19034306692E-01 -0.67134461134E-02 -0.13744014886E-01  0.24418704616E-01  0.00000000000E+00 0.  1.
     999901    1    3    3    0    0  0.46158335372E-01 -0.10485981302E+00 -0.42463231855E-02  0.88743687301E+00  0.88000000000E+00 0.  1.
        -11    1    4    4    0    0 -0.13981638651E-01  0.29261967167E-01 -0.39650199310E-02  0.32676160208E-01  0.51100000000E-03 0.  1.
         11    1    4    4    0    0 -0.51211003413E-01  0.82311291970E-01  0.21955358003E-01  0.99398262169E-01  0.51100000000E-03 0. -1.
</event>
<event>
 7    1  0.1052028E+005  0.1043930E+01  0.7957747E-01            NaN
         13   -1    0    0    0    0  0.00000000000E+00  0.00000000000E+00  0.74505805969E-08  0.10566000000E+00  0.10566000000E+00 0.  1.
     999900   -1    0    0    0    0 -0.00000000000E+00 -0.00000000000E+00 -0.74505805969E-08  0.93827000000E+00  0.93827000000E+00 0. -1.
     999903    2    1    2    0    0 -0.27399192809E-01  0.26484436407E-01  0.35731313061E-01  0.55589839741E-01  0.19009534736E-01 0.  0.
         14    1    1    2    0    0 -0.73868810300E-01  0.54853370089E-01 -0.36015559760E-01  0.98805940560E-01  0.00000000000E+00 0.  1.
     999901    1    1    2    0    0  0.10126800311E+00 -0.81337806496E-01  0.28424669830E-03  0.88953421970E+00  0.88000000000E+00 0. -1.
        -11    1    3    3    0    0 -0.14002749718E-02  0.13146503908E-01  0.13182873444E-01  0.18677275183E-01  0.51100000000E-03 0.  1.
         11    1    3    3    0    0 -0.25998917837E-01  0.13337932499E-01  0.22548439617E-01  0.36912564558E-01  0.51100000000E-03 0. -1.
</event>
<event>
 8    1  0.1052028E+005  0.1043930E+01  0.7957747E-01            NaN
         13   -1    0    0    0    0  0.00000000000E+00  0.00000000000E+00  0.74505805969E-08  0.10566000000E+00  0.10566000000E+00 0. -1.
     999900   -1    0    0    0    0 -0.00000000000E+00 -0.00000000000E+00 -0.74505805969E-08  0.93827000000E+00  0.93827000000E+00 0.  1.
     999902    2    1    2    0    0  0.22455409235E-01 -0.55551634933E-02  0.63993494169E-02  0.10199288142E+01  0.10196463746E+01 0.  0.
     999903    2    3    3    0    0 -0.53907553070E-01 -0.98899293104E-01 -0.59911332564E-01  0.12923159571E+00  0.20599589907E-01 0.  0.
         14    1    1    2    0    0 -0.22455409235E-01  0.55551634933E-02 -0.63993494169E-02  0.24001185769E-01  0.00000000000E+00 0.  1.
     999901    1    3    3    0    0  0.76362962305E-01  0.93344129611E-01  0.66310681981E-01  0.89069721853E+00  0.88000000000E+00 0. -1.
        -11    1    4    4    0    0 -0.55388265653E-01 -0.92956953833E-01 -0.58125953621E-01  0.12283217349E+00  0.51100000000E-03 0. -1.
         11    1    4    4    0    0  0.14807125827E-02 -0.59423392716E-02 -0.17853789432E-02  0.63994222194E-02  0.51100000000E-03 0.  1.
</event>
<event>
 8    1  0.1052028E+005  0.1043930E+01  0.7957747E-01            NaN
         13   -1    0    0    0    0  0.00000000000E+00  0.00000000000E+00  0.74505805969E-08  0.10566000000E+00  0.10566000000E+00 0. -1.
     999900   -1    0    0    0    0 -0.00000000000E+00 -0.00000000000E+00 -0.74505805969E-08  0.93827000000E+00  0.93827000000E+00 0.  1.
     999902    2    1    2    0    0  0.39679852687E-02  0.15833445569E-01  0.17294233352E-01  0.10201490536E+01  0.10198718342E+01 0.  0.
     999903    2    3    3    0    0  0.31143742808E-01 -0.41238562038E-01  0.11995164612E+00  0.13192932837E+00  0.18611785554E-01 0.  0.
         14    1    1    2    0    0 -0.39679852687E-02 -0.15833445569E-01 -0.17294233352E-01  0.23780946426E-01  0.00000000000E+00 0.  1.
     999901    1    3    3    0    0 -0.27175757539E-01  0.57072007608E-01 -0.10265741277E+00  0.88821972521E+00  0.88000000000E+00 0. -1.
        -11    1    4    4    0    0  0.25422637746E-01 -0.19070277475E-01  0.63529142007E-01  0.71036603228E-01  0.51100000000E-03 0. -1.
         11    1    4    4    0    0  0.57211050623E-02 -0.22168284563E-01  0.56422504112E-01  0.60892725139E-01  0.51100000000E-03 0.  1.
</event>
<event>
 8    1  0.1052028E+005  0.1043930E+01  0.7957747E-01            NaN
         13   -1    0    0    0    0  0.00000000000E+00  0.00000000000E+00  0.74505805969E-08  0.10566000000E+00  0.10566000000E+00 0. -1.
     999900   -1    0    0    0    0 -0.00000000000E+00 -0.00000000000E+00 -0.74505805969E-08  0.93827000000E+00  0.93827000000E+00 0.  1.
     999902    2    1    2    0    0  0.14903470299E-01  0.11179792046E-01 -0.11337714004E-01  0.10221207145E+01  0.10218880124E+01 0.  0.
     999903    2    3    3    0    0 -0.81781120944E-01 -0.68503810476E-01  0.70719403999E-01  0.12946694209E+00  0.19481560530E-01 0.  0.
         14    1    1    2    0    0 -0.14903470299E-01 -0.11179792046E-01  0.11337714004E-01  0.21809285545E-01  0.00000000000E+00 0. -1.
     999901    1    3    3    0    0  0.96684591243E-01  0.79683602522E-01 -0.82057118003E-01  0.89265377236E+00  0.88000000000E+00 0.  1.
        -11    1    4    4    0    0 -0.18192494391E-01 -0.26736777736E-01  0.19913676957E-01  0.37982071913E-01  0.51100000000E-03 0.  1.
         11    1    4    4    0    0 -0.63588626553E-01 -0.41767032741E-01  0.50805727042E-01  0.91484870181E-01  0.51100000000E-03 0. -1.
</event>
<event>
 8    1  0.1052028E+005  0.1043930E+01  0.7957747E-01            NaN
         13   -1    0    0    0    0  0.00000000000E+00  0.00000000000E+00  0.74505805969E-08  0.10566000000E+00  0.10566000000E+00 0. -1.
     999900   -1    0    0    0    0 -0.00000000000E+00 -0.00000000000E+00 -0.74505805969E-08  0.93827000000E+00  0.93827000000E+00 0.  1.
     999902    2    1    2    0    0 -0.16824808973E-01 -0.30428386528E-03 -0.17708679476E-01  0.10195012441E+01  0.10192085275E+01 0.  0.
     999903    2    3    3    0    0 -0.60751766252E-01 -0.11185599981E+00 -0.25490657488E-01  0.13133801469E+00  0.19933857797E-01 0.  0.
         14    1    1    2    0    0  0.16824808973E-01  0.30428386528E-03  0.17708679476E-01  0.24428755891E-01  0.00000000000E+00 0. -1.
     999901    1    3    3    0    0  0.43926957280E-01  0.11155171595E+00  0.77819780128E-02  0.88816322942E+00  0.88000000000E+00 0. -1.
        -11    1    4    4    0    0 -0.44377627846E-01 -0.92089038966E-01 -0.26638921879E-01  0.10563928356E+00  0.51100000000E-03 0. -1.
         11    1    4    4    0    0 -0.16374138406E-01 -0.19766960849E-01  0.11482643907E-02  0.25698731133E-01  0.51100000000E-03 0.  1.
</event>
<event>
 8    1  0.1052028E+005  0.1043930E+01  0.7957747E-01            NaN
         13   -1    0    0    0    0  0.00000000000E+00  0.00000000000E+00  0.74505805969E-08  0.10566000000E+00  0.10566000000E+00 0. -1.
     999900   -1    0    0    0    0 -0.00000000000E+00 -0.00000000000E+00 -0.74505805969E-08  0.93827000000E+00  0.93827000000E+00 0.  1.
     999902    2    1    2    0    0  0.52602817798E-02  0.16845821899E-01  0.15271352636E-01  0.10205919090E+01  0.10203250356E+01 0.  0.
     999903    2    3    3    0    0  0.12060308639E+00 -0.39328823477E-01 -0.22843510129E-01  0.13047264951E+00  0.20234265822E-01 0.  0.
         14    1    1    2    0    0 -0.52602817798E-02 -0.16845821899E-01 -0.15271352636E-01  0.23338090993E-01  0.00000000000E+00 0. -1.
     999901    1    3    3    0    0 -0.11534280461E+00  0.56174645376E-01  0.38114862765E-01  0.89011925949E+00  0.88000000000E+00 0.  1.
        -11    1    4    4    0    0  0.48859977758E-01 -0.10571995749E-01 -0.17602488153E-01  0.53001634228E-01  0.51100000000E-03 0. -1.
         11    1    4    4    0    0  0.71743108631E-01 -0.28756827728E-01 -0.52410219759E-02  0.77471015285E-01  0.51100000000E-03 0.  1.
</event>
<event>
 8    1  0.1052028E+005  0.1043930E+01  0.7957747E-01            NaN
         13   -1    0    0    0    0  0.00000000000E+00  0.00000000000E+00  0.74505805969E-08  0.10566000000E+00  0.10566000000E+00 0.  1.
     999900   -1    0    0    0    0 -0.00000000000E+00 -0.00000000000E+00 -0.74505805969E-08  0.93827000000E+00  0.93827000000E+00 0. -1.
     999902    2    1    2    0    0 -0.37437942055E-03  0.82932621954E-02  0.22614057076E-01  0.10198402940E+01  0.10195557421E+01 0.  0.
     999903    2    3    3    0    0  0.12525552747E+00  0.19082151500E-01  0.26093921669E-01  0.13084570285E+00  0.19662897477E-01 0.  0.
         14    1    1    2    0    0  0.37437942055E-03 -0.82932621954E-02 -0.22614057076E-01  0.24089706001E-01  0.00000000000E+00 0. -1.
     999901    1    3    3    0    0 -0.12562990689E+00 -0.10788889305E-01 -0.34798645932E-02  0.88899459115E+00  0.88000000000E+00 0. -1.
        -11    1    4    4    0    0  0.88235538022E-01  0.21479192028E-01  0.14420147344E-01  0.91951441700E-01  0.51100000000E-03 0.  1.
         11    1    4    4    0    0  0.37019989451E-01 -0.23970405283E-02  0.11673774325E-01  0.38894261148E-01  0.51100000000E-03 0. -1.
</event>
<event>
 8    1  0.1052028E+005  0.1043930E+01  0.7957747E-01            NaN
         13   -1    0    0    0    0  0.00000000000E+00  0.00000000000E+00  0.74505805969E-08  0.10566000000E+00  0.10566000000E+00 0. -1.
     999900   -1    0    0    0    0 -0.00000000000E+00 -0.00000000000E+00 -0.74505805969E-08  0.93827000000E+00  0.93827000000E+00 0. -1.
     999902    2    1    2    0    0  0.17149192275E-01 -0.68175565005E-02  0.14882130220E-01  0.10202223710E+01  0.10199468783E+01 0.  0.
     999903    2    3    3    0    0 -0.80318483575E-01 -0.56008917537E-01  0.84534639991E-01  0.13074431622E+00  0.18971378929E-01 0.  0.
         14    1    1    2    0    0 -0.17149192275E-01  0.68175565005E-02 -0.14882130220E-01  0.23707628988E-01  0.00000000000E+00 0.  1.
     999901    1    3    3    0    0  0.97467675850E-01  0.49191361036E-01 -0.69652509771E-01  0.88947805479E+00  0.88000000000E+00 0.  1.
        -11    1    4    4    0    0 -0.12607769579E-01 -0.69538898848E-02  0.47456252517E-02  0.15168866744E-01  0.51100000000E-03 0. -1.
         11    1    4    4    0    0 -0.67710713996E-01 -0.49055027652E-01  0.79789014740E-01  0.11557544948E+00  0.51100000000E-03 0.  1.
</event>
<event>
 8    1  0.1052028E+005  0.1043930E+01  0.7957747E-01            NaN
         13   -1    0    0    0    0  0.00000000000E+00  0.00000000000E+00  0.74505805969E-08  0.10566000000E+00  0.10566000000E+00 0. -1.
     999900   -1    0    0    0    0 -0.00000000000E+00 -0.00000000000E+00 -0.74505805969E-08  0.93827000000E+00  0.93827000000E+00 0.  1.
     999902    2    1    2    0    0 -0.36046898886E-03 -0.10753017004E-02 -0.23377593509E-01  0.10205249132E+01  0.10202564875E+01 0.  0.
     999903    2    3    3    0    0  0.11929946147E+00 -0.49042156223E-01  0.39166243885E-02  0.13071353291E+00  0.20813292558E-01 0.  0.
         14    1    1    2    0    0  0.36046898886E-03  0.10753017004E-02  0.23377593509E-01  0.23405086838E-01  0.00000000000E+00 0. -1.
     999901    1    3    3    0    0 -0.11965993045E+00  0.47966854522E-01 -0.27294217897E-01  0.88981138025E+00  0.88000000000E+00 0.  1.
        -11    1    4    4    0    0  0.34882084113E-01 -0.23102237968E-01 -0.40671867711E-02  0.42038985721E-01  0.51100000000E-03 0. -1.
         11    1    4    4    0    0  0.84417377353E-01 -0.25939918254E-01  0.79838111596E-02  0.88674547193E-01  0.51100000000E-03 0.  1.
</event>
<event>
 8    1  0.1052028E+005  0.1043930E+01  0.7957747E-01            NaN
         13   -1    0    0    0    0  0.00000000000E+00  0.00000000000E+00  0.74505805969E-08  0.10566000000E+00  0.10566000000E+00 0. -1.
     999900   -1    0    0    0    0 -0.00000000000E+00 -0.00000000000E+00 -0.74505805969E-08  0.93827000000E+00  0.93827000000E+00 0.  1.
     999902    2    1    2    0    0  0.16938761432E-01  0.16118952101E-01 -0.53879619426E-03  0.10205412729E+01  0.10202732267E+01 0.  0.
     999903    2    3    3    0    0  0.10350585920E+00 -0.40651071556E-01 -0.67284021437E-01  0.13196284465E+00  0.22827183789E-01 0.  0.
         14    1    1    2    0    0 -0.16938761432E-01 -0.16118952101E-01  0.53879619426E-03  0.23388727135E-01  0.00000000000E+00 0. -1.
     999901    1    3    3    0    0 -0.86567097765E-01  0.56770023658E-01  0.66745225242E-01  0.88857842822E+00  0.88000000000E+00 0. -1.
        -11    1    4    4    0    0  0.96255460665E-01 -0.40789264572E-01 -0.56154870865E-01  0.11866974532E+00  0.51100000000E-03 0.  1.
         11    1    4    4    0    0  0.72503985323E-02  0.13819301533E-03 -0.11129150572E-01  0.13293099324E-01  0.51100000000E-03 0. -1.
</event>
<event>
 8    1  0.1052028E+005  0.1043930E+01  0.7957747E-01            NaN
         13   -1    0    0    0    0  0.00000000000E+00  0.00000000000E+00  0.74505805969E-08  0.10566000000E+00  0.10566000000E+00 0.  1.
     999900   -1    0    0    0    0 -0.00000000000E+00 -0.00000000000E+00 -0.74505805969E-08  0.93827000000E+00  0.93827000000E+00 0. -1.
     999902    2    1    2    0    0  0.17993501499E-01  0.70146557148E-02  0.13586562102E-01  0.10203171611E+01  0.10200438927E+01 0.  0.
     999903    2    3    3    0    0 -0.10903556342E+00  0.19854657858E-01  0.64310113740E-01  0.12965778307E+00  0.19808797316E-01 0.  0.
         14    1    1    2    0    0 -0.17993501499E-01 -0.70146557148E-02 -0.13586562102E-01  0.23612838896E-01  0.00000000000E+00 0. -1.
     999901    1    3    3    0    0  0.12702906492E+00 -0.12840002143E-01 -0.50723551639E-01  0.89065937803E+00  0.88000000000E+00 0. -1.
        -11    1    4    4    0    0 -0.16979898307E-01 -0.12074100202E-02  0.16886853915E-01  0.23983363851E-01  0.51100000000E-03 0. -1.
         11    1    4    4    0    0 -0.92055665118E-01  0.21062067878E-01  0.47423259825E-01  0.10567441922E+00  0.51100000000E-03 0.  1.
</event>
<event>
 8    1  0.1052028E+005  0.1043930E+01  0.7957747E-01            NaN
         13   -1    0    0    0    0  0.00000000000E+00  0.00000000000E+00  0.74505805969E-08  0.10566000000E+00  0.10566000000E+00 0.  1.
     999900   -1    0    0    0    0 -0.00000000000E+00 -0.00000000000E+00 -0.74505805969E-08  0.93827000000E+00  0.93827000000E+00 0. -1.
     999902    2    1    2    0    0 -0.28294075021E-02 -0.21001485172E-02 -0.23392751073E-01  0.10202733524E+01  0.10199990572E+01 0.  0.
     999903    2    3    3    0    0 -0.63646378193E-01 -0.10659598245E+00 -0.39411531419E-01  0.13186202623E+00  0.20512440656E-01 0.  0.
         14    1    1    2    0    0  0.28294075021E-02  0.21001485172E-02  0.23392751073E-01  0.23656647551E-01  0.00000000000E+00 0.  1.
     999901    1    3    3    0    0  0.60816970691E-01  0.10449583393E+00  0.16018780347E-01  0.88841132622E+00  0.88000000000E+00 0. -1.
        -11    1    4    4    0    0 -0.12005753885E-01 -0.37325942372E-01 -0.87188568782E-02  0.40170184050E-01  0.51100000000E-03 0. -1.
         11    1    4    4    0    0 -0.51640624308E-01 -0.69270040073E-01 -0.30692674541E-01  0.91691842179E-01  0.51100000000E-03 0.  1.
</event>
<event>
 8    1  0.1052028E+005  0.1043930E+01  0.7957747E-01            NaN
         13   -1    0    0    0    0  0.00000000000E+00  0.00000000000E+00  0.74505805969E-08  0.10566000000E+00  0.10566000000E+00 0.  1.
     999900   -1    0    0    0    0 -0.00000000000E+00 -0.00000000000E+00 -0.74505805969E-08  0.93827000000E+00  0.93827000000E+00 0. -1.
     999902    2    1    2    0    0  0.15746860551E-01  0.10351929203E-01  0.14284724139E-01  0.10202830256E+01  0.10200089573E+01 0.  0.
     999903    2    3    3    0    0 -0.21454342261E-01  0.57633807362E-01 -0.11199558004E+00  0.12923520379E+00  0.19410909263E-01 0.  0.
         14    1    1    2    0    0 -0.15746860551E-01 -0.10351929203E-01 -0.14284724139E-01  0.23646974419E-01  0.00000000000E+00 0. -1.
     999901    1    3    3    0    0  0.37201202812E-01 -0.47281878159E-01  0.12628030418E+00  0.89104782179E+00  0.88000000000E+00 0.  1.
        -11    1    4    4    0    0 -0.20354015842E-01  0.34107392164E-01 -0.57719078228E-01  0.70066777246E-01  0.51100000000E-03 0.  1.
         11    1    4    4    0    0 -0.11003264186E-02  0.23526415198E-01 -0.54276501809E-01  0.59168426546E-01  0.51100000000E-03 0. -1.
</event>
<event>
 8    1  0.1052028E+005  0.1043930E+01  0.7957747E-01            NaN
         13   -1    0    0    0    0  0.00000000000E+00  0.00000000000E+00  0.74505805969E-08  0.10566000000E+00  0.10566000000E+00 0.  1.
     999900   -1    0    0    0    0 -0.00000000000E+00 -0.00000000000E+00 -0.74505805969E-08  0.93827000000E+00  0.93827000000E+00 0. -1.
     999902    2    1    2    0    0 -0.21685669158E-02 -0.23187886905E-01 -0.41792493770E-02  0.10202689158E+01  0.10199945164E+01 0.  0.
     999903    2    3    3    0    0  0.14231467569E-01 -0.13057124891E+00 -0.15756766697E-01  0.13351405310E+00  0.18064909846E-01 0.  0.
         14    1    1    2    0    0  0.21685669158E-02  0.23187886905E-01  0.41792493770E-02  0.23661084230E-01  0.00000000000E+00 0. -1.
     999901    1    3    3    0    0 -0.16400034485E-01  0.10738336200E+00  0.11577517320E-01  0.88675486267E+00  0.88000000000E+00 0.  1.
        -11    1    4    4    0    0  0.10301783546E-01 -0.89595516295E-01 -0.23458266400E-02  0.90217777118E-01  0.51100000000E-03 0. -1.
         11    1    4    4    0    0  0.39296840237E-02 -0.40975732611E-01 -0.13410940057E-01  0.43296275980E-01  0.51100000000E-03 0.  1.
</event>
<event>
 8    1  0.1052028E+005  0.1043930E+01  0.7957747E-01            NaN
         13   -1    0    0    0    0  0.00000000000E+00  0.00000000000E+00  0.74505805969E-08  0.10566000000E+00  0.10566000000E+00 0.  1.
     999900   -1    0    0    0    0 -0.00000000000E+00 -0.00000000000E+00 -0.74505805969E-08  0.93827000000E+00  0.93827000000E+00 0.  1.
     999902    2    1    2    0    0  0.21364508301E-02  0.55081490629E-02 -0.23619398337E-01  0.10195829241E+01  0.10192921853E+01 0.  0.
     999903    2    3    3    0    0 -0.13313542428E-02 -0.11971063352E+00  0.39432019471E-01  0.12847841254E+00  0.24887949866E-01 0.  0.
         14    1    1    2    0    0 -0.21364508301E-02 -0.55081490629E-02  0.23619398337E-01  0.24347075924E-01  0.00000000000E+00 0.  1.
     999901    1    3    3    0    0  0.34678050729E-02  0.12521878258E+00 -0.63051417808E-01  0.89110451153E+00  0.88000000000E+00 0.  1.
        -11    1    4    4    0    0  0.47280487774E-02 -0.86909651352E-01  0.18161259029E-01  0.88914196807E-01  0.51100000000E-03 0. -1.
         11    1    4    4    0    0 -0.60594030202E-02 -0.32800982168E-01  0.21270760441E-01  0.39564215737E-01  0.51100000000E-03 0.  1.
</event>
<event>
 7    1  0.1052028E+005  0.1043930E+01  0.7957747E-01            NaN
         13   -1    0    0    0    0  0.00000000000E+00  0.00000000000E+00  0.74505805969E-08  0.10566000000E+00  0.10566000000E+00 0. -1.
     999900   -1    0    0    0    0 -0.00000000000E+00 -0.00000000000E+00 -0.74505805969E-08  0.93827000000E+00  0.93827000000E+00 0. -1.
     999903    2    1    2    0    0 -0.14299648126E-01 -0.97198357708E-01  0.36206021840E-01  0.10662865509E+00  0.20169119759E-01 0.  0.
         14    1    1    2    0    0 -0.31752877420E-01 -0.75329553906E-02 -0.37741463585E-01  0.49893974736E-01  0.00000000000E+00 0.  1.
     999901    1    1    2    0    0  0.46052525546E-01  0.10473131310E+00  0.15354417454E-02  0.88740737017E+00  0.88000000000E+00 0.  1.
        -11    1    3    3    0    0 -0.13300658729E-01 -0.27349120289E-01  0.10027805675E-01  0.32026550093E-01  0.51100000000E-03 0. -1.
         11    1    3    3    0    0 -0.99898939637E-03 -0.69849237419E-01  0.26178216165E-01  0.74602105000E-01  0.51100000000E-03 0.  1.
</event>
<event>
 8    1  0.1052028E+005  0.1043930E+01  0.7957747E-01            NaN
         13   -1    0    0    0    0  0.00000000000E+00  0.00000000000E+00  0.74505805969E-08  0.10566000000E+00  0.10566000000E+00 0.  1.
     999900   -1    0    0    0    0 -0.00000000000E+00 -0.00000000000E+00 -0.74505805969E-08  0.93827000000E+00  0.93827000000E+00 0.  1.
     999902    2    1    2    0    0  0.16567066022E-01 -0.13871321862E-02  0.17081778492E-01  0.10200934950E+01  0.10198149634E+01 0.  0.
     999903    2    3    3    0    0  0.12026128870E+00  0.39857637325E-01  0.34616820172E-01  0.13287249635E+00  0.20133733747E-01 0.  0.
         14    1    1    2    0    0 -0.16567066022E-01  0.13871321862E-02 -0.17081778492E-01  0.23836504960E-01  0.00000000000E+00 0. -1.
     999901    1    3    3    0    0 -0.10369422268E+00 -0.41244769511E-01 -0.17535041681E-01  0.88722099869E+00  0.88000000000E+00 0. -1.
        -11    1    4    4    0    0  0.65223058825E-01  0.16581988595E-01  0.27457251806E-01  0.72685428705E-01  0.51100000000E-03 0. -1.
         11    1    4    4    0    0  0.55038229875E-01  0.23275648730E-01  0.71595683659E-02  0.60187067645E-01  0.51100000000E-03 0.  1.
</event>
<event>
 8    1  0.1052028E+005  0.1043930E+01  0.7957747E-01            NaN
         13   -1    0    0    0    0  0.00000000000E+00  0.00000000000E+00  0.74505805969E-08  0.10566000000E+00  0.10566000000E+00 0. -1.
     999900   -1    0    0    0    0 -0.00000000000E+00 -0.00000000000E+00 -0.74505805969E-08  0.93827000000E+00  0.93827000000E+00 0.  1.
     999902    2    1    2    0    0 -0.12722922552E-01  0.19823097255E-01 -0.68437209255E-02  0.10194011505E+01  0.10191060009E+01 0.  0.
     999903    2    3    3    0    0 -0.53169474284E-01 -0.71990321608E-01 -0.91654912748E-01  0.12964918184E+00  0.19967171045E-01 0.  0.
         14    1    1    2    0    0  0.12722922552E-01 -0.19823097255E-01  0.68437209255E-02  0.24528849528E-01  0.00000000000E+00 0. -1.
     999901    1    3    3    0    0  0.40446551732E-01  0.91813418863E-01  0.84811191822E-01  0.88975196863E+00  0.88000000000E+00 0. -1.
        -11    1    4    4    0    0 -0.24115764205E-01 -0.40713657430E-01 -0.60442834452E-01  0.76764375476E-01  0.51100000000E-03 0. -1.
         11    1    4    4    0    0 -0.29053710079E-01 -0.31276664178E-01 -0.31212078296E-01  0.52884806362E-01  0.51100000000E-03 0.  1.
</event>
<event>
 8    1  0.1052028E+005  0.1043930E+01  0.7957747E-01            NaN
         13   -1    0    0    0    0  0.00000000000E+00  0.00000000000E+00  0.74505805969E-08  0.10566000000E+00  0.10566000000E+00 0.  1.
     999900   -1    0    0    0    0 -0.00000000000E+00 -0.00000000000E+00 -0.74505805969E-08  0.93827000000E+00  0.93827000000E+00 0. -1.
     999902    2    1    2    0    0  0.16791495300E-01 -0.11157669694E-01 -0.12773874346E-01  0.10200632915E+01  0.10197840453E+01 0.  0.
     999903    2    3    3    0    0 -0.30951213699E-01 -0.90917339919E-01 -0.88054301906E-01  0.13197088979E+00  0.20947919703E-01 0.  0.
         14    1    1    2    0    0 -0.16791495300E-01  0.11157669694E-01  0.12773874346E-01  0.23866708471E-01  0.00000000000E+00 0.  1.
     999901    1    3    3    0    0  0.47742708999E-01  0.79759670225E-01  0.75280427561E-01  0.88809240174E+00  0.88000000000E+00 0.  1.
        -11    1    4    4    0    0 -0.22387856239E-01 -0.66551039095E-01 -0.50928996855E-01  0.86742612096E-01  0.51100000000E-03 0.  1.
         11    1    4    4    0    0 -0.85633574601E-02 -0.24366300824E-01 -0.37125305051E-01  0.45228277692E-01  0.51100000000E-03 0. -1.
</event>
<event>
 8    1  0.1052028E+005  0.1043930E+01  0.7957747E-01            NaN
         13   -1    0    0    0    0  0.00000000000E+00  0.00000000000E+00  0.74505805969E-08  0.10566000000E+00  0.10566000000E+00 0.  1.
     999900   -1    0    0    0    0 -0.00000000000E+00 -0.00000000000E+00 -0.74505805969E-08  0.93827000000E+00  0.93827000000E+00 0. -1.
     999902    2    1    2    0    0  0.17733400092E-01 -0.11186925586E-01  0.11224079956E-01  0.10201476378E+01  0.10198703849E+01 0.  0.
     999903    2    3    3    0    0  0.12392541308E+00 -0.11687608357E-01 -0.39848280781E-01  0.13229326888E+00  0.20482073014E-01 0.  0.
         14    1    1    2    0    0 -0.17733400092E-01  0.11186925586E-01 -0.11224079956E-01  0.23782362241E-01  0.00000000000E+00 0. -1.
     999901    1    3    3    0    0 -0.10619201298E+00  0.50068277114E-03  0.51072360738E-01  0.88785436888E+00  0.88000000000E+00 0. -1.
        -11    1    4    4    0    0  0.42396598293E-01 -0.13351019732E-01 -0.17152391766E-01  0.47646478768E-01  0.51100000000E-03 0. -1.
         11    1    4    4    0    0  0.81528814782E-01  0.16634113745E-02 -0.22695889016E-01  0.84646790113E-01  0.51100000000E-03 0.  1.
</event>
<event>
 8    1  0.1052028E+005  0.1043930E+01  0.7957747E-01            NaN
         13   -1    0    0    0    0  0.00000000000E+00  0.00000000000E+00  0.74505805969E-08  0.10566000000E+00  0.10566000000E+00 0.  1.
     999900   -1    0    0    0    0 -0.00000000000E+00 -0.00000000000E+00 -0.74505805969E-08  0.93827000000E+00  0.93827000000E+00 0. -1.
     999902    2    1    2    0    0  0.89680538365E-02  0.63398032533E-02  0.20602979755E-01  0.10205825832E+01  0.10203154940E+01 0.  0.
     999903    2    3    3    0    0 -0.54081450335E-01 -0.96743966597E-01 -0.61746999390E-01  0.12851586900E+00  0.20480193042E-01 0.  0.
         14    1    1    2    0    0 -0.89680538365E-02 -0.63398032533E-02 -0.20602979755E-01  0.23347416767E-01  0.00000000000E+00 0. -1.
     999901    1    3    3    0    0  0.63049504171E-01  0.10308376985E+00  0.82349979145E-01  0.89206671424E+00  0.88000000000E+00 0.  1.
        -11    1    4    4    0    0 -0.28561101636E-01 -0.38885571986E-01 -0.17461875204E-01  0.51312790238E-01  0.51100000000E-03 0. -1.
         11    1    4    4    0    0 -0.25520348699E-01 -0.57858394611E-01 -0.44285124186E-01  0.77203078759E-01  0.51100000000E-03 0.  1.
</event>
<event>
 8    1  0.1246980E+005  0.1043930E+01  0.7957747E-01            NaN
         13   -1    0    0    0    0  0.00000000000E+00  0.00000000000E+00  0.74505805969E-08  0.10566000000E+00  0.10566000000E+00 0.  1.
     999900   -1    0    0    0    0 -0.00000000000E+00 -0.00000000000E+00 -0.74505805969E-08  0.93827000000E+00  0.93827000000E+00 0.  1.
     999902    2    1    2    0    0  0.33256649340E-02  0.59221086770E-03 -0.23627919129E-01  0.10200618345E+01  0.10197825537E+01 0.  0.
     999903    2    3    3    0    0 -0.78758947745E-01  0.31225219833E-01  0.93802171174E-01  0.12794856201E+00  0.19849458448E-01 0.  0.
         14    1    1    2    0    0 -0.33256649340E-02 -0.59221086770E-03  0.23627919129E-01  0.23868165479E-01  0.00000000000E+00 0.  1.
     999901    1    3    3    0    0  0.82084612679E-01 -0.30633008965E-01 -0.11743009030E+00  0.89211327251E+00  0.88000000000E+00 0.  1.
        -11    1    4    4    0    0 -0.30232434427E-01  0.18401851632E-01  0.50422372578E-01  0.61606046881E-01  0.51100000000E-03 0.  1.
         11    1    4    4    0    0 -0.48526513318E-01  0.12823368201E-01  0.43379798596E-01  0.66342515132E-01  0.51100000000E-03 0. -1.
</event>
<event>
 8    1  0.1052028E+005  0.1043930E+01  0.7957747E-01            NaN
         13   -1    0    0    0    0  0.00000000000E+00  0.00000000000E+00  0.74505805969E-08  0.10566000000E+00  0.10566000000E+00 0. -1.
     999900   -1    0    0    0    0 -0.00000000000E+00 -0.00000000000E+00 -0.74505805969E-08  0.93827000000E+00  0.93827000000E+00 0.  1.
     999902    2    1    2    0    0  0.41936101694E-02 -0.91379387168E-02 -0.21492240011E-01  0.10202022805E+01  0.10199263153E+01 0.  0.
     999903    2    3    3    0    0 -0.12629684682E+00 -0.16903122574E-01 -0.21214856344E-01  0.13054609167E+00  0.18857434905E-01 0.  0.
         14    1    1    2    0    0 -0.41936101694E-02  0.91379387168E-02  0.21492240011E-01  0.23727719464E-01  0.00000000000E+00 0. -1.
     999901    1    3    3    0    0  0.13049045699E+00  0.77651838570E-02 -0.27738366757E-03  0.88965618887E+00  0.88000000000E+00 0. -1.
        -11    1    4    4    0    0 -0.24428115894E-01  0.32974887621E-02 -0.57657765745E-03  0.24661707991E-01  0.51100000000E-03 0.  1.
         11    1    4    4    0    0 -0.10186873093E+00 -0.20200611336E-01 -0.20638278686E-01  0.10588438368E+00  0.51100000000E-03 0. -1.
</event>
<event>
 8    1  0.1052028E+005  0.1043930E+01  0.7957747E-01            NaN
         13   -1    0    0    0    0  0.00000000000E+00  0.00000000000E+00  0.74505805969E-08  0.10566000000E+00  0.10566000000E+00 0. -1.
     999900   -1    0    0    0    0 -0.00000000000E+00 -0.00000000000E+00 -0.74505805969E-08  0.93827000000E+00  0.93827000000E+00 0. -1.
     999902    2    1    2    0    0 -0.23149814502E-01 -0.63440169271E-02 -0.21699642921E-03  0.10199256764E+01  0.10196431620E+01 0.  0.
     999903    2    3    3    0    0  0.47448510840E-01  0.73309958980E-02  0.11811291894E+00  0.12909847749E+00  0.20264515448E-01 0.  0.
         14    1    1    2    0    0  0.23149814502E-01  0.63440169271E-02  0.21699642921E-03  0.24004323562E-01  0.00000000000E+00 0. -1.
     999901    1    3    3    0    0 -0.70598325342E-01 -0.13675012825E-01 -0.11832991537E+00  0.89082719895E+00  0.88000000000E+00 0.  1.
        -11    1    4    4    0    0  0.16268802205E-01 -0.40932081360E-02  0.23908166006E-01  0.29211124607E-01  0.51100000000E-03 0.  1.
         11    1    4    4    0    0  0.31179708635E-01  0.11424204034E-01  0.94204752938E-01  0.99887352881E-01  0.51100000000E-03 0. -1.
</event>
<event>
 8    1  0.1052028E+005  0.1043930E+01  0.7957747E-01            NaN
         13   -1    0    0    0    0  0.00000000000E+00  0.00000000000E+00  0.74505805969E-08  0.10566000000E+00  0.10566000000E+00 0.  1.
     999900   -1    0    0    0    0 -0.00000000000E+00 -0.00000000000E+00 -0.74505805969E-08  0.93827000000E+00  0.93827000000E+00 0.  1.
     999902    2    1    2    0    0 -0.16230209400E-01  0.56591427748E-02  0.14372526842E-01  0.10215243060E+01  0.10212785578E+01 0.  0.
     999903    2    3    3    0    0 -0.89058388365E-01  0.59375577959E-01 -0.75335751494E-01  0.13234661049E+00  0.19577897190E-01 0.  0.
         14    1    1    2    0    0  0.16230209400E-01 -0.56591427748E-02 -0.14372526842E-01  0.22405693963E-01  0.00000000000E+00 0.  1.
     999901    1    3    3    0    0  0.72828178965E-01 -0.53716435185E-01  0.89708278336E-01  0.88917769555E+00  0.88000000000E+00 0.  1.
        -11    1    4    4    0    0 -0.44522590649E-01  0.38900120085E-01 -0.33855851777E-01  0.68131932611E-01  0.51100000000E-03 0.  1.
         11    1    4    4    0    0 -0.44535797716E-01  0.20475457874E-01 -0.41479899717E-01  0.64214677877E-01  0.51100000000E-03 0. -1.
</event>
<event>
 8    1  0.1052028E+005  0.1043930E+01  0.7957747E-01            NaN
         13   -1    0    0    0    0  0.00000000000E+00  0.00000000000E+00  0.74505805969E-08  0.10566000000E+00  0.10566000000E+00 0.  1.
     999900   -1    0    0    0    0 -0.00000000000E+00 -0.00000000000E+00 -0.74505805969E-08  0.93827000000E+00  0.93827000000E+00 0.  1.
     999902    2    1    2    0    0  0.22553042915E-01 -0.10215100201E-02 -0.12712540713E-01  0.10180206982E+01  0.10176909404E+01 0.  0.
     999903    2    3    3    0    0  0.10024260991E+00  0.56235937397E-01 -0.60615343459E-01  0.13144934598E+00  0.19840594705E-01 0.  0.
         14    1    1    2    0    0 -0.22553042915E-01  0.10215100201E-02  0.12712540713E-01  0.25909301782E-01  0.00000000000E+00 0.  1.
     999901    1    3    3    0    0 -0.77689566996E-01 -0.57257447418E-01  0.47902802745E-01  0.88657135224E+00  0.88000000000E+00 0. -1.
        -11    1    4    4    0    0  0.45557772500E-01  0.18232762528E-01 -0.34157339605E-01  0.59790711941E-01  0.51100000000E-03 0. -1.
         11    1    4    4    0    0  0.54684837411E-01  0.38003174870E-01 -0.26458003854E-01  0.71658634035E-01  0.51100000000E-03 0.  1.
</event>
<event>
 8    1  0.1052028E+005  0.1043930E+01  0.7957747E-01            NaN
         13   -1    0    0    0    0  0.00000000000E+00  0.00000000000E+00  0.74505805969E-08  0.10566000000E+00  0.10566000000E+00 0.  1.
     999900   -1    0    0    0    0 -0.00000000000E+00 -0.00000000000E+00 -0.74505805969E-08  0.93827000000E+00  0.93827000000E+00 0.  1.
     999902    2    1    2    0    0 -0.62420130661E-02 -0.10305178624E-01 -0.19047596383E-01  0.10213918022E+01  0.10211431061E+01 0.  0.
     999903    2    3    3    0    0 -0.17624941696E-01 -0.12416259842E+00 -0.41842479795E-01  0.13369101372E+00  0.19887297861E-01 0.  0.
         14    1    1    2    0    0  0.62420130661E-02  0.10305178624E-01  0.19047596383E-01  0.22538197833E-01  0.00000000000E+00 0.  1.
     999901    1    3    3    0    0  0.11382928630E-01  0.11385741980E+00  0.22794883412E-01  0.88770078845E+00  0.88000000000E+00 0. -1.
        -11    1    4    4    0    0 -0.14217492597E-02 -0.12030441414E-01  0.18399648688E-02  0.12263746707E-01  0.51100000000E-03 0. -1.
         11    1    4    4    0    0 -0.16203192436E-01 -0.11213215701E+00 -0.43682444664E-01  0.12142726701E+00  0.51100000000E-03 0.  1.
</event>
<event>
 8    1  0.1052028E+005  0.1043930E+01  0.7957747E-01            NaN
         13   -1    0    0    0    0  0.00000000000E+00  0.00000000000E+00  0.74505805969E-08  0.10566000000E+00  0.10566000000E+00 0. -1.
     999900   -1    0    0    0    0 -0.00000000000E+00 -0.00000000000E+00 -0.74505805969E-08  0.93827000000E+00  0.93827000000E+00 0.  1.
     999902    2    1    2    0    0  0.56838356414E-02  0.23866887335E-01 -0.54640612364E-02  0.10187945616E+01  0.10184844468E+01 0.  0.
     999903    2    3    3    0    0 -0.12008088880E+00 -0.32613674310E-02  0.40596195104E-01  0.12824739533E+00  0.19216841042E-01 0.  0.
         14    1    1    2    0    0 -0.56838356414E-02 -0.23866887335E-01  0.54640612364E-02  0.25135438406E-01  0.00000000000E+00 0. -1.
     999901    1    3    3    0    0  0.12576472444E+00  0.27128254766E-01 -0.46060256341E-01  0.89054716626E+00  0.88000000000E+00 0.  1.
        -11    1    4    4    0    0 -0.14873109137E-01  0.40290372518E-02  0.10224471351E-01  0.18499823026E-01  0.51100000000E-03 0. -1.
         11    1    4    4    0    0 -0.10520777967E+00 -0.72904046828E-02  0.30371723753E-01  0.10974757231E+00  0.51100000000E-03 0.  1.
</event>
<event>
 8    1  0.1052028E+005  0.1043930E+01  0.7957747E-01            NaN
         13   -1    0    0    0    0  0.00000000000E+00  0.00000000000E+00  0.74505805969E-08  0.10566000000E+00  0.10566000000E+00 0.  1.
     999900   -1    0    0    0    0 -0.00000000000E+00 -0.00000000000E+00 -0.74505805969E-08  0.93827000000E+00  0.93827000000E+00 0.  1.
     999902    2    1    2    0    0  0.15397876709E-01  0.19966029605E-01  0.38843320714E-02  0.10184187284E+01  0.10180991510E+01 0.  0.
     999903    2    3    3    0    0  0.83907794387E-01 -0.85700505749E-02 -0.96439837979E-01  0.12961455657E+00  0.19629752894E-01 0.  0.
         14    1    1    2    0    0 -0.15397876709E-01 -0.19966029605E-01 -0.38843320714E-02  0.25511271646E-01  0.00000000000E+00 0. -1.
     999901    1    3    3    0    0 -0.68509917678E-01  0.28536080180E-01  0.10032417005E+00  0.88880417179E+00  0.88000000000E+00 0. -1.
        -11    1    4    4    0    0  0.47866629622E-01  0.46644062032E-02 -0.50447105207E-01  0.69700376336E-01  0.51100000000E-03 0.  1.
         11    1    4    4    0    0  0.36041164765E-01 -0.13234456778E-01 -0.45992732772E-01  0.59914180230E-01  0.51100000000E-03 0. -1.
</event>
<event>
 8    1  0.1052028E+005  0.1043930E+01  0.7957747E-01            NaN
         13   -1    0    0    0    0  0.00000000000E+00  0.00000000000E+00  0.74505805969E-08  0.10566000000E+00  0.10566000000E+00 0.  1.
     999900   -1    0    0    0    0 -0.00000000000E+00 -0.00000000000E+00 -0.74505805969E-08  0.93827000000E+00  0.93827000000E+00 0.  1.
     999902    2    1    2    0    0  0.21312851332E-02  0.17603527711E-01 -0.14819741954E-01  0.10208204497E+01  0.10205588367E+01 0.  0.
     999903    2    3    3    0    0  0.78369474741E-01  0.10633667740E-01  0.10093732942E+00  0.12994417316E+00  0.21030791887E-01 0.  0.
         14    1    1    2    0    0 -0.21312851332E-02 -0.17603527711E-01  0.14819741954E-01  0.23109550316E-01  0.00000000000E+00 0.  1.
     999901    1    3    3    0    0 -0.76238189608E-01  0.69698599709E-02 -0.11575707137E+00  0.89087627653E+00  0.88000000000E+00 0. -1.
        -11    1    4    4    0    0  0.29224075940E-02  0.29045507276E-02  0.13858058811E-01  0.14466644258E-01  0.51100000000E-03 0.  1.
         11    1    4    4    0    0  0.75447067147E-01  0.77291170126E-02  0.87079270606E-01  0.11547752890E+00  0.51100000000E-03 0. -1.
</event>
<event>
 8    1  0.1052028E+005  0.1043930E+01  0.7957747E-01            NaN
         13   -1    0    0    0    0  0.00000000000E+00  0.00000000000E+00  0.74505805969E-08  0.10566000000E+00  0.10566000000E+00 0. -1.
     999900   -1    0    0    0    0 -0.00000000000E+00 -0.00000000000E+00 -0.74505805969E-08  0.93827000000E+00  0.93827000000E+00 0.  1.
     999902    2    1    2    0    0 -0.46935197268E-02  0.21027454606E-01  0.14119171859E-01  0.10181708465E+01  0.10178449483E+01 0.  0.
     999903    2    3    3    0    0  0.99460109782E-01  0.65772237108E-01 -0.44674718395E-01  0.12895389006E+00  0.20370927479E-01 0.  0.
         14    1    1    2    0    0  0.46935197268E-02 -0.21027454606E-01 -0.14119171859E-01  0.25759153492E-01  0.00000000000E+00 0.  1.
     999901    1    3    3    0    0 -0.10415362951E+00 -0.44744782501E-01  0.58793890254E-01  0.88921695645E+00  0.88000000000E+00 0. -1.
        -11    1    4    4    0    0  0.95839230199E-01  0.60032280989E-01 -0.45880194934E-01  0.12204214933E+00  0.51100000000E-03 0.  1.
         11    1    4    4    0    0  0.36208795832E-02  0.57399561182E-02  0.12054765395E-02  0.69117407273E-02  0.51100000000E-03 0. -1.
</event>
<event>
 8    1  0.1052028E+005  0.1043930E+01  0.7957747E-01            NaN
         13   -1    0    0    0    0  0.00000000000E+00  0.00000000000E+00  0.74505805969E-08  0.10566000000E+00  0.10566000000E+00 0. -1.
     999900   -1    0    0    0    0 -0.00000000000E+00 -0.00000000000E+00 -0.74505805969E-08  0.93827000000E+00  0.93827000000E+00 0.  1.
     999902    2    1    2    0    0  0.19867621308E-01 -0.96265782867E-02 -0.88583963300E-02  0.10201420919E+01  0.10198647082E+01 0.  0.
     999903    2    3    3    0    0  0.75605859533E-01 -0.97903451140E-01 -0.44438701315E-01  0.13325680305E+00  0.21937311695E-01 0.  0.
         14    1    1    2    0    0 -0.19867621308E-01  0.96265782867E-02  0.88583963300E-02  0.23787908094E-01  0.00000000000E+00 0.  1.
     999901    1    3    3    0    0 -0.55738238224E-01  0.88276872853E-01  0.35580304985E-01  0.88688528885E+00  0.88000000000E+00 0. -1.
        -11    1    4    4    0    0  0.49114745420E-01 -0.47129069287E-01 -0.28599372213E-01  0.73834900971E-01  0.51100000000E-03 0. -1.
         11    1    4    4    0    0  0.26491114113E-01 -0.50774381853E-01 -0.15839329102E-01  0.59421902081E-01  0.51100000000E-03 0.  1.
</event>
<event>
 8    1  0.1052028E+005  0.1043930E+01  0.7957747E-01            NaN
         13   -1    0    0    0    0  0.00000000000E+00  0.00000000000E+00  0.74505805969E-08  0.10566000000E+00  0.10566000000E+00 0. -1.
     999900   -1    0    0    0    0 -0.00000000000E+00 -0.00000000000E+00 -0.74505805969E-08  0.93827000000E+00  0.93827000000E+00 0.  1.
     999902    2    1    2    0    0 -0.17205706121E-02  0.88306824417E-02  0.22140499032E-01  0.10200314014E+01  0.10197513996E+01 0.  0.
     999903    2    3    3    0    0 -0.67370796880E-01 -0.97708293083E-01  0.49340061687E-01  0.13076185753E+00  0.24051754384E-01 0.  0.
         14    1    1    2    0    0  0.17205706121E-02 -0.88306824417E-02 -0.22140499032E-01  0.23898598558E-01  0.00000000000E+00 0.  1.
     999901    1    3    3    0    0  0.65650226268E-01  0.10653897552E+00 -0.27199562655E-01  0.88926954391E+00  0.88000000000E+00 0.  1.
        -11    1    4    4    0    0 -0.37259210436E-01 -0.71220176126E-01  0.26654722646E-01  0.84683514394E-01  0.51100000000E-03 0.  1.
         11    1    4    4    0    0 -0.30111586444E-01 -0.26488116957E-01  0.22685339041E-01  0.46078343140E-01  0.51100000000E-03 0. -1.
</event>
<event>
 8    1  0.1052028E+005  0.1043930E+01  0.7957747E-01            NaN
         13   -1    0    0    0    0  0.00000000000E+00  0.00000000000E+00  0.74505805969E-08  0.10566000000E+00  0.10566000000E+00 0. -1.
     999900   -1    0    0    0    0 -0.00000000000E+00 -0.00000000000E+00 -0.74505805969E-08  0.93827000000E+00  0.93827000000E+00 0. -1.
     999902    2    1    2    0    0 -0.18983564098E-01 -0.13620690258E-01 -0.85574569090E-03  0.10205498544E+01  0.10202820071E+01 0.  0.
     999903    2    3    3    0    0  0.92368063616E-03  0.95456819389E-01 -0.85234572759E-01  0.12958746012E+00  0.20374490774E-01 0.  0.
         14    1    1    2    0    0  0.18983564098E-01  0.13620690258E-01  0.85574569090E-03  0.23380145629E-01  0.00000000000E+00 0. -1.
     999901    1    3    3    0    0 -0.19907244734E-01 -0.10907750965E+00  0.84378827068E-01  0.89096239425E+00  0.88000000000E+00 0.  1.
        -11    1    4    4    0    0 -0.58577746746E-02  0.18483912797E-01 -0.24823378487E-01  0.31502853790E-01  0.51100000000E-03 0.  1.
         11    1    4    4    0    0  0.67814553108E-02  0.76972906592E-01 -0.60411194273E-01  0.98084606334E-01  0.51100000000E-03 0. -1.
</event>
<event>
 8    1  0.1052028E+005  0.1043930E+01  0.7957747E-01            NaN
         13   -1    0    0    0    0  0.00000000000E+00  0.00000000000E+00  0.74505805969E-08  0.10566000000E+00  0.10566000000E+00 0.  1.
     999900   -1    0    0    0    0 -0.00000000000E+00 -0.00000000000E+00 -0.74505805969E-08  0.93827000000E+00  0.93827000000E+00 0.  1.
     999902    2    1    2    0    0 -0.20085635524E-01 -0.21380435068E-01 -0.37337335716E-04  0.10145947456E+01  0.10141705678E+01 0.  0.
     999903    2    3    3    0    0  0.34165859118E-01 -0.80078262466E-01  0.89607359645E-01  0.12643663391E+00  0.19414155765E-01 0.  0.
         14    1    1    2    0    0  0.20085635524E-01  0.21380435068E-01  0.37337335716E-04  0.29335254425E-01  0.00000000000E+00 0. -1.
     999901    1    3    3    0    0 -0.54251494643E-01  0.58697827398E-01 -0.89644696981E-01  0.88815811166E+00  0.88000000000E+00 0.  1.
        -11    1    4    4    0    0  0.14280293862E-01 -0.26347178391E-01  0.18917750934E-01  0.35443518778E-01  0.51100000000E-03 0. -1.
         11    1    4    4    0    0  0.19885565257E-01 -0.53731084074E-01  0.70689608711E-01  0.90993115136E-01  0.51100000000E-03 0.  1.
</event>
<event>
 8    1  0.1052028E+005  0.1043930E+01  0.7957747E-01            NaN
         13   -1    0    0    0    0  0.00000000000E+00  0.00000000000E+00  0.74505805969E-08  0.10566000000E+00  0.10566000000E+00 0.  1.
     999900   -1    0    0    0    0 -0.00000000000E+00 -0.00000000000E+00 -0.74505805969E-08  0.93827000000E+00  0.93827000000E+00 0. -1.
     999902    2    1    2    0    0  0.38897620791E-02 -0.23278785505E-01  0.24219461496E-02  0.10202045300E+01  0.10199286177E+01 0.  0.
     999903    2    3    3    0    0  0.31146534988E-01  0.89506341817E-01  0.84701038340E-01  0.12878248314E+00  0.20716423455E-01 0.  0.
         14    1    1    2    0    0 -0.38897620791E-02  0.23278785505E-01 -0.24219461496E-02  0.23725470001E-01  0.00000000000E+00 0. -1.
     999901    1    3    3    0    0 -0.27256772909E-01 -0.11278512732E+00 -0.82279092190E-01  0.89142204686E+00  0.88000000000E+00 0.  1.
        -11    1    4    4    0    0  0.10867939548E-01  0.60154364272E-01  0.57414505313E-01  0.83865047501E-01  0.51100000000E-03 0. -1.
         11    1    4    4    0    0  0.20278595440E-01  0.29351977545E-01  0.27286533027E-01  0.44917435640E-01  0.51100000000E-03 0.  1.
</event>
<event>
 8    1  0.1052028E+005  0.1043930E+01  0.7957747E-01            NaN
         13   -1    0    0    0    0  0.00000000000E+00  0.00000000000E+00  0.74505805969E-08  0.10566000000E+00  0.10566000000E+00 0. -1.
     999900   -1    0    0    0    0 -0.00000000000E+00 -0.00000000000E+00 -0.74505805969E-08  0.93827000000E+00  0.93827000000E+00 0. -1.
     999902    2    1    2    0    0 -0.58238311258E-02  0.21632443755E-01  0.57632335369E-02  0.10207978904E+01  0.10205357606E+01 0.  0.
     999903    2    3    3    0    0  0.12371937494E+00 -0.23449518883E-01  0.24646001942E-01  0.12997221471E+00  0.20712013752E-01 0.  0.
         14    1    1    2    0    0  0.58238311258E-02 -0.21632443755E-01 -0.57632335369E-02  0.23132109558E-01  0.00000000000E+00 0. -1.
     999901    1    3    3    0    0 -0.12954320607E+00  0.45081962638E-01 -0.18882768405E-01  0.89082567573E+00  0.88000000000E+00 0. -1.
        -11    1    4    4    0    0  0.42400408036E-01 -0.26836230055E-02  0.16752763995E-01  0.45671792789E-01  0.51100000000E-03 0.  1.
         11    1    4    4    0    0  0.81318966907E-01 -0.20765895877E-01  0.78932379467E-02  0.84300421925E-01  0.51100000000E-03 0. -1.
</event>
<event>
 8    1  0.1052028E+005  0.1043930E+01  0.7957747E-01            NaN
         13   -1    0    0    0    0  0.00000000000E+00  0.00000000000E+00  0.74505805969E-08  0.10566000000E+00  0.10566000000E+00 0.  1.
     999900   -1    0    0    0    0 -0.00000000000E+00 -0.00000000000E+00 -0.74505805969E-08  0.93827000000E+00  0.93827000000E+00 0. -1.
     999902    2    1    2    0    0  0.15248635998E-01 -0.14072291382E-01  0.15095010985E-01  0.10182705058E+01  0.10179471565E+01 0.  0.
     999903    2    3    3    0    0 -0.63936447515E-01  0.69333262730E-01 -0.80435894413E-01  0.12566033459E+00  0.20630461406E-01 0.  0.
         14    1    1    2    0    0 -0.15248635998E-01  0.14072291382E-01 -0.15095010985E-01  0.25659494173E-01  0.00000000000E+00 0. -1.
     999901    1    3    3    0    0  0.79185083513E-01 -0.83405554113E-01  0.95530905398E-01  0.89261017124E+00  0.88000000000E+00 0.  1.
        -11    1    4    4    0    0 -0.98513962209E-02  0.13298533627E-01 -0.51508367649E-02  0.17340508773E-01  0.51100000000E-03 0. -1.
         11    1    4    4    0    0 -0.54085051294E-01  0.56034729104E-01 -0.75285057648E-01  0.10831982582E+00  0.51100000000E-03 0.  1.
</event>
<event>
 8    1  0.1052028E+005  0.1043930E+01  0.7957747E-01            NaN
         13   -1    0    0    0    0  0.00000000000E+00  0.00000000000E+00  0.74505805969E-08  0.10566000000E+00  0.10566000000E+00 0.  1.
     999900   -1    0    0    0    0 -0.00000000000E+00 -0.00000000000E+00 -0.74505805969E-08  0.93827000000E+00  0.93827000000E+00 0. -1.
     999902    2    1    2    0    0 -0.84762160436E-02  0.11986864243E-01  0.15733032539E-01  0.10224111835E+01  0.10221847037E+01 0.  0.
     999903    2    3    3    0    0 -0.34848964163E-01  0.11665816416E+00  0.54586477611E-01  0.13496473827E+00  0.20303188670E-01 0.  0.
         14    1    1    2    0    0  0.84762160436E-02 -0.11986864243E-01 -0.15733032539E-01  0.21518816549E-01  0.00000000000E+00 0. -1.
     999901    1    3    3    0    0  0.26372748120E-01 -0.10467129992E+00 -0.38853445072E-01  0.88744644518E+00  0.88000000000E+00 0.  1.
        -11    1    4    4    0    0 -0.15539078892E-01  0.53284445603E-01  0.13912795376E-01  0.57223440233E-01  0.51100000000E-03 0.  1.
         11    1    4    4    0    0 -0.19309885271E-01  0.63373718556E-01  0.40673682235E-01  0.77741298037E-01  0.51100000000E-03 0. -1.
</event>
<event>
 8    1  0.1052028E+005  0.1043930E+01  0.7957747E-01            NaN
         13   -1    0    0    0    0  0.00000000000E+00  0.00000000000E+00  0.74505805969E-08  0.10566000000E+00  0.10566000000E+00 0.  1.
     999900   -1    0    0    0    0 -0.00000000000E+00 -0.00000000000E+00 -0.74505805969E-08  0.93827000000E+00  0.93827000000E+00 0. -1.
     999902    2    1    2    0    0 -0.32792546665E-02  0.10719081424E-01 -0.20923257510E-01  0.10201932158E+01  0.10199170372E+01 0.  0.
     999903    2    3    3    0    0  0.16190745156E-01  0.21739284416E-01 -0.12902889525E+00  0.13329561482E+00  0.19609395871E-01 0.  0.
         14    1    1    2    0    0  0.32792546665E-02 -0.10719081424E-01  0.20923257510E-01  0.23736784166E-01  0.00000000000E+00 0.  1.
     999901    1    3    3    0    0 -0.19469999822E-01 -0.11020202992E-01  0.10810563774E+00  0.88689760101E+00  0.88000000000E+00 0.  1.
        -11    1    4    4    0    0  0.11031344073E-01  0.15537444305E-01 -0.11849048221E+00  0.12001399178E+00  0.51100000000E-03 0.  1.
         11    1    4    4    0    0  0.51594010825E-02  0.62018401112E-02 -0.10538413038E-01  0.13281623043E-01  0.51100000000E-03 0. -1.
</event>
<event>
 8    1  0.1052028E+005  0.1043930E+01  0.7957747E-01            NaN
         13   -1    0    0    0    0  0.00000000000E+00  0.00000000000E+00  0.74505805969E-08  0.10566000000E+00  0.10566000000E+00 0.  1.
     999900   -1    0    0    0    0 -0.00000000000E+00 -0.00000000000E+00 -0.74505805969E-08  0.93827000000E+00  0.93827000000E+00 0.  1.
     999902    2    1    2    0    0 -0.51720816486E-02 -0.13131079816E-01 -0.17315742059E-01  0.10215914546E+01  0.10213471935E+01 0.  0.
     999903    2    3    3    0    0  0.52145061465E-01  0.19090458647E-02 -0.12132201997E+00  0.13348742576E+00  0.19419279417E-01 0.  0.
         14    1    1    2    0    0  0.51720816486E-02  0.13131079816E-01  0.17315742059E-01  0.22338545360E-01  0.00000000000E+00 0. -1.
     999901    1    3    3    0    0 -0.57317143113E-01 -0.15040125681E-01  0.10400627791E+00  0.88810402888E+00  0.88000000000E+00 0. -1.
        -11    1    4    4    0    0  0.10169569946E-01  0.73742856367E-02 -0.19328525247E-01  0.23057607221E-01  0.51100000000E-03 0. -1.
         11    1    4    4    0    0  0.41975491519E-01 -0.54652397719E-02 -0.10199349473E+00  0.11042981853E+00  0.51100000000E-03 0.  1.
</event>
<event>
 8    1  0.1052028E+005  0.1043930E+01  0.7957747E-01            NaN
         13   -1    0    0    0    0  0.00000000000E+00  0.00000000000E+00  0.74505805969E-08  0.10566000000E+00  0.10566000000E+00 0. -1.
     999900   -1    0    0    0    0 -0.00000000000E+00 -0.00000000000E+00 -0.74505805969E-08  0.93827000000E+00  0.93827000000E+00 0.  1.
     999902    2    1    2    0    0 -0.59366511930E-02  0.16667932215E-01  0.16281824330E-01  0.10198850089E+01  0.10196015250E+01 0.  0.
     999903    2    3    3    0    0  0.21809176203E-01  0.12728899596E+00 -0.17794586038E-01  0.13187146601E+00  0.19882343822E-01 0.  0.
         14    1    1    2    0    0  0.59366511930E-02 -0.16667932215E-01 -0.16281824330E-01  0.24044991063E-01  0.00000000000E+00 0.  1.
     999901    1    3    3    0    0 -0.27745827396E-01 -0.11062106374E+00  0.34076410368E-01  0.88801354293E+00  0.88000000000E+00 0.  1.
        -11    1    4    4    0    0  0.37358849669E-02  0.51501597226E-01  0.12837343337E-02  0.51655400958E-01  0.51100000000E-03 0. -1.
         11    1    4    4    0    0  0.18073291236E-01  0.75787398734E-01 -0.19078320372E-01  0.80216065050E-01  0.51100000000E-03 0.  1.
</event>
<event>
 8    1  0.1052028E+005  0.1043930E+01  0.7957747E-01            NaN
         13   -1    0    0    0    0  0.00000000000E+00  0.00000000000E+00  0.74505805969E-08  0.10566000000E+00  0.10566000000E+00 0. -1.
     999900   -1    0    0    0    0 -0.00000000000E+00 -0.00000000000E+00 -0.74505805969E-08  0.93827000000E+00  0.93827000000E+00 0.  1.
     999902    2    1    2    0    0  0.21183367255E-01  0.10669214628E-01  0.37930650947E-03  0.10202084684E+01  0.10199326487E+01 0.  0.
     999903    2    3    3    0    0  0.56934360074E-01  0.44010212990E-01 -0.10892026323E+00  0.13210028150E+00  0.20209909096E-01 0.  0.
         14    1    1    2    0    0 -0.21183367255E-01 -0.10669214628E-01 -0.37930650947E-03  0.23721531621E-01  0.00000000000E+00 0. -1.
     999901    1    3    3    0    0 -0.35750992819E-01 -0.33340998362E-01  0.10929956974E+00  0.88810818688E+00  0.88000000000E+00 0.  1.
        -11    1    4    4    0    0  0.22614115472E-01  0.61009823065E-02 -0.38543283117E-01  0.45105055128E-01  0.51100000000E-03 0. -1.
         11    1    4    4    0    0  0.34320244602E-01  0.37909230683E-01 -0.70376980112E-01  0.86995226370E-01  0.51100000000E-03 0.  1.
</event>
<event>
 8    1  0.1052028E+005  0.1043930E+01  0.7957747E-01            NaN
         13   -1    0    0    0    0  0.00000000000E+00  0.00000000000E+00  0.74505805969E-08  0.10566000000E+00  0.10566000000E+00 0.  1.
     999900   -1    0    0    0    0 -0.00000000000E+00 -0.00000000000E+00 -0.74505805969E-08  0.93827000000E+00  0.93827000000E+00 0.  1.
     999902    2    1    2    0    0  0.23402268996E-02 -0.21552336297E-01 -0.87420253130E-02  0.10205547381E+01  0.10202870040E+01 0.  0.
     999903    2    3    3    0    0  0.11557338284E+00 -0.55729445762E-01  0.23389180409E-01  0.13206037302E+00  0.20734281184E-01 0.  0.
         14    1    1    2    0    0 -0.23402268996E-02  0.21552336297E-01  0.87420253130E-02  0.23375261889E-01  0.00000000000E+00 0.  1.
     999901    1    3    3    0    0 -0.11323315594E+00  0.34177109465E-01 -0.32131205722E-01  0.88849436509E+00  0.88000000000E+00 0. -1.
        -11    1    4    4    0    0  0.72406639754E-01 -0.27169084032E-01  0.64910934935E-02  0.77609767577E-01  0.51100000000E-03 0.  1.
         11    1    4    4    0    0  0.43166743085E-01 -0.28560361731E-01  0.16898086916E-01  0.54450605444E-01  0.51100000000E-03 0. -1.
</event>
<event>
 8    1  0.1052028E+005  0.1043930E+01  0.7957747E-01            NaN
         13   -1    0    0    0    0  0.00000000000E+00  0.00000000000E+00  0.74505805969E-08  0.10566000000E+00  0.10566000000E+00 0. -1.
     999900   -1    0    0    0    0 -0.00000000000E+00 -0.00000000000E+00 -0.74505805969E-08  0.93827000000E+00  0.93827000000E+00 0. -1.
     999902    2    1    2    0    0 -0.11391566502E-02  0.17395557806E-01 -0.14916826819E-01  0.10209862681E+01  0.10207284384E+01 0.  0.
     999903    2    3    3    0    0  0.90810362227E-01  0.17760827727E-01  0.88966741959E-01  0.13011779115E+00  0.21297640913E-01 0.  0.
         14    1    1    2    0    0  0.11391566502E-02 -0.17395557806E-01  0.14916826819E-01  0.22943731858E-01  0.00000000000E+00 0. -1.
     999901    1    3    3    0    0 -0.91949518877E-01 -0.36526992122E-03 -0.10388356878E+00  0.89086847700E+00  0.88000000000E+00 0. -1.
        -11    1    4    4    0    0  0.25355526831E-01  0.85354385098E-02  0.38804918000E-01  0.47136389694E-01  0.51100000000E-03 0. -1.
         11    1    4    4    0    0  0.65454835396E-01  0.92253892174E-02  0.50161823959E-01  0.82981401451E-01  0.51100000000E-03 0.  1.
</event>
<event>
 8    1  0.1052028E+005  0.1043930E+01  0.7957747E-01            NaN
         13   -1    0    0    0    0  0.00000000000E+00  0.00000000000E+00  0.74505805969E-08  0.10566000000E+00  0.10566000000E+00 0. -1.
     999900   -1    0    0    0    0 -0.00000000000E+00 -0.00000000000E+00 -0.74505805969E-08  0.93827000000E+00  0.93827000000E+00 0. -1.
     999902    2    1    2    0    0  0.63558955306E-02  0.21223308330E-01 -0.80299724032E-02  0.10203650540E+01  0.10200929059E+01 0.  0.
     999903    2    3    3    0    0  0.11699483735E+00  0.58059347654E-01  0.10012342054E-01  0.13248927755E+00  0.19861567345E-01 0.  0.
         14    1    1    2    0    0 -0.63558955306E-02 -0.21223308330E-01  0.80299724032E-02  0.23564946027E-01  0.00000000000E+00 0. -1.
     999901    1    3    3    0    0 -0.11063894182E+00 -0.36836039324E-01 -0.18042314457E-01  0.88787577642E+00  0.88000000000E+00 0.  1.
        -11    1    4    4    0    0  0.61368738228E-01  0.34636336805E-01 -0.37920200770E-02  0.70572221137E-01  0.51100000000E-03 0. -1.
         11    1    4    4    0    0  0.55626099120E-01  0.23423010849E-01  0.13804362131E-01  0.61917056417E-01  0.51100000000E-03 0.  1.
</event>
<event>
 8    1  0.1052028E+005  0.1043930E+01  0.7957747E-01            NaN
         13   -1    0    0    0    0  0.00000000000E+00  0.00000000000E+00  0.74505805969E-08  0.10566000000E+00  0.10566000000E+00 0. -1.
     999900   -1    0    0    0    0 -0.00000000000E+00 -0.00000000000E+00 -0.74505805969E-08  0.93827000000E+00  0.93827000000E+00 0. -1.
     999902    2    1    2    0    0  0.18581565209E-01 -0.20546297452E-02 -0.14198449484E-01  0.10204546504E+01  0.10201845919E+01 0.  0.
     999903    2    3    3    0    0 -0.48267131927E-01 -0.90509945974E-01 -0.79303475075E-01  0.13111120968E+00  0.19476698886E-01 0.  0.
         14    1    1    2    0    0 -0.18581565209E-01  0.20546297452E-02  0.14198449484E-01  0.23475349556E-01  0.00000000000E+00 0. -1.
     999901    1    3    3    0    0  0.66848697136E-01  0.88455316229E-01  0.65105025590E-01  0.88934344077E+00  0.88000000000E+00 0.  1.
        -11    1    4    4    0    0 -0.17330670460E-01 -0.26783056154E-01 -0.35910710294E-01  0.48036699203E-01  0.51100000000E-03 0.  1.
         11    1    4    4    0    0 -0.30936461466E-01 -0.63726889820E-01 -0.43392764781E-01  0.83074510474E-01  0.51100000000E-03 0. -1.
</event>
<event>
 8    1  0.1052028E+005  0.1043930E+01  0.7957747E-01            NaN
         13   -1    0    0    0    0  0.00000000000E+00  0.00000000000E+00  0.74505805969E-08  0.10566000000E+00  0.10566000000E+00 0. -1.
     999900   -1    0    0    0    0 -0.00000000000E+00 -0.00000000000E+00 -0.74505805969E-08  0.93827000000E+00  0.93827000000E+00 0. -1.
     999902    2    1    2    0    0 -0.85718400084E-02 -0.11779974444E-01  0.18472597494E-01  0.10204038210E+01  0.10201325781E+01 0.  0.
     999903    2    3    3    0    0 -0.90578922724E-01 -0.65125429352E-01  0.70602421806E-01  0.13344924622E+00  0.19445733797E-01 0.  0.
         14    1    1    2    0    0  0.85718400084E-02  0.11779974444E-01 -0.18472597494E-01  0.23526178976E-01  0.00000000000E+00 0.  1.
     999901    1    3    3    0    0  0.82007082716E-01  0.53345454908E-01 -0.52129824312E-01  0.88695457480E+00  0.88000000000E+00 0. -1.
        -11    1    4    4    0    0 -0.42726701025E-01 -0.25738778568E-01  0.41905843693E-01  0.65149186943E-01  0.51100000000E-03 0. -1.
         11    1    4    4    0    0 -0.47852221699E-01 -0.39386650784E-01  0.28696578113E-01  0.68300059282E-01  0.51100000000E-03 0.  1.
</event>
<event>
 8    1  0.1052028E+005  0.1043930E+01  0.7957747E-01            NaN
         13   -1    0    0    0    0  0.00000000000E+00  0.00000000000E+00  0.74505805969E-08  0.10566000000E+00  0.10566000000E+00 0.  1.
     999900   -1    0    0    0    0 -0.00000000000E+00 -0.00000000000E+00 -0.74505805969E-08  0.93827000000E+00  0.93827000000E+00 0. -1.
     999902    2    1    2    0    0  0.57193246499E-02 -0.17492092811E-01  0.15336715655E-01  0.10199738143E+01  0.10196924453E+01 0.  0.
     999903    2    3    3    0    0 -0.44913071007E-01 -0.50597055494E-01 -0.10837589558E+00  0.12926376709E+00  0.19660640064E-01 0.  0.
         14    1    1    2    0    0 -0.57193246499E-02  0.17492092811E-01 -0.15336715655E-01  0.23956185682E-01  0.00000000000E+00 0. -1.
     999901    1    3    3    0    0  0.50632395657E-01  0.33104962683E-01  0.12371261124E+00  0.89071004722E+00  0.88000000000E+00 0.  1.
        -11    1    4    4    0    0 -0.20484550223E-01 -0.10192320373E-01 -0.41605946203E-01  0.47484903631E-01  0.51100000000E-03 0. -1.
         11    1    4    4    0    0 -0.24428520785E-01 -0.40404735122E-01 -0.66769949382E-01  0.81778863464E-01  0.51100000000E-03 0.  1.
</event>
<event>
 8    1  0.1052028E+005  0.1043930E+01  0.7957747E-01            NaN
         13   -1    0    0    0    0  0.00000000000E+00  0.00000000000E+00  0.74505805969E-08  0.10566000000E+00  0.10566000000E+00 0.  1.
     999900   -1    0    0    0    0 -0.00000000000E+00 -0.00000000000E+00 -0.74505805969E-08  0.93827000000E+00  0.93827000000E+00 0. -1.
     999902    2    1    2    0    0  0.54734703700E-02 -0.89015846122E-02  0.21179974466E-01  0.10203124556E+01  0.10200390770E+01 0.  0.
     999903    2    3    3    0    0 -0.11474037852E+00 -0.50389758921E-02 -0.54833794791E-01  0.12888417336E+00  0.20338125512E-01 0.  0.
         14    1    1    2    0    0 -0.54734703700E-02  0.89015846122E-02 -0.21179974466E-01  0.23617544430E-01  0.00000000000E+00 0. -1.
     999901    1    3    3    0    0  0.12021384889E+00 -0.38626087201E-02  0.76013769257E-01  0.89142828221E+00  0.88000000000E+00 0. -1.
        -11    1    4    4    0    0 -0.22957727703E-01 -0.49250747770E-02 -0.19528376010E-01  0.30543939062E-01  0.51100000000E-03 0.  1.
         11    1    4    4    0    0 -0.91782650820E-01 -0.11390111507E-03 -0.35305418780E-01  0.98340234295E-01  0.51100000000E-03 0. -1.
</event>
<event>
 8    1  0.1052028E+005  0.1043930E+01  0.7957747E-01            NaN
         13   -1    0    0    0    0  0.00000000000E+00  0.00000000000E+00  0.74505805969E-08  0.10566000000E+00  0.10566000000E+00 0. -1.
     999900   -1    0    0    0    0 -0.00000000000E+00 -0.00000000000E+00 -0.74505805969E-08  0.93827000000E+00  0.93827000000E+00 0.  1.
     999902    2    1    2    0    0 -0.15849502258E-01 -0.11907328603E-01  0.13048463658E-01  0.10201970356E+01  0.10199209468E+01 0.  0.
     999903    2    3    3    0    0 -0.11067386307E+00 -0.68881059112E-01  0.20443869773E-01  0.13324023990E+00  0.18485276471E-01 0.  0.
         14    1    1    2    0    0  0.15849502258E-01  0.11907328603E-01 -0.13048463658E-01  0.23732964419E-01  0.00000000000E+00 0.  1.
     999901    1    3    3    0    0  0.94824360812E-01  0.56973730509E-01 -0.73954061149E-02  0.88695679568E+00  0.88000000000E+00 0. -1.
        -11    1    4    4    0    0 -0.51928571996E-01 -0.42650774346E-01  0.13339408468E-01  0.68511795197E-01  0.51100000000E-03 0. -1.
         11    1    4    4    0    0 -0.58745291075E-01 -0.26230284766E-01  0.71044613043E-02  0.64728444704E-01  0.51100000000E-03 0.  1.
</event>
<event>
 8    1  0.1052028E+005  0.1043930E+01  0.7957747E-01            NaN
         13   -1    0    0    0    0  0.00000000000E+00  0.00000000000E+00  0.74505805969E-08  0.10566000000E+00  0.10566000000E+00 0. -1.
     999900   -1    0    0    0    0 -0.00000000000E+00 -0.00000000000E+00 -0.74505805969E-08  0.93827000000E+00  0.93827000000E+00 0.  1.
     999902    2    1    2    0    0 -0.16494969104E-02 -0.58503416823E-02  0.22565312542E-01  0.10205603473E+01  0.10202927432E+01 0.  0.
     999903    2    3    3    0    0  0.72611783003E-01 -0.10528844966E+00  0.25389785287E-01  0.13184742814E+00  0.19518566764E-01 0.  0.
         14    1    1    2    0    0  0.16494969104E-02  0.58503416823E-02 -0.22565312542E-01  0.23369652714E-01  0.00000000000E+00 0.  1.
     999901    1    3    3    0    0 -0.74261279913E-01  0.99438107973E-01 -0.28244727449E-02  0.88871291915E+00  0.88000000000E+00 0.  1.
        -11    1    4    4    0    0  0.64225633629E-01 -0.92750401855E-01  0.28667220135E-01  0.11640291960E+00  0.51100000000E-03 0.  1.
         11    1    4    4    0    0  0.83861493735E-02 -0.12538047800E-01 -0.32774348482E-02  0.15444508543E-01  0.51100000000E-03 0. -1.
</event>
<event>
 8    1  0.1052028E+005  0.1043930E+01  0.7957747E-01            NaN
         13   -1    0    0    0    0  0.00000000000E+00  0.00000000000E+00  0.74505805969E-08  0.10566000000E+00  0.10566000000E+00 0. -1.
     999900   -1    0    0    0    0 -0.00000000000E+00 -0.00000000000E+00 -0.74505805969E-08  0.93827000000E+00  0.93827000000E+00 0.  1.
     999902    2    1    2    0    0 -0.13177351935E-01  0.38293179991E-02 -0.17921651218E-01  0.10213580736E+01  0.10211086243E+01 0.  0.
     999903    2    3    3    0    0 -0.72656682715E-01 -0.48555669903E-01 -0.99500829242E-01  0.13403787204E+00  0.20714475604E-01 0.  0.
         14    1    1    2    0    0  0.13177351935E-01 -0.38293179991E-02  0.17921651218E-01  0.22571926430E-01  0.00000000000E+00 0. -1.
     999901    1    3    3    0    0  0.59479330780E-01  0.52384987902E-01  0.81579178023E-01  0.88732020153E+00  0.88000000000E+00 0. -1.
        -11    1    4    4    0    0 -0.34285400218E-01 -0.16231605299E-01 -0.55949771374E-01  0.67598755287E-01  0.51100000000E-03 0.  1.
         11    1    4    4    0    0 -0.38371282498E-01 -0.32324064604E-01 -0.43551057868E-01  0.66439116757E-01  0.51100000000E-03 0. -1.
</event>
<event>
 8    1  0.1052028E+005  0.1043930E+01  0.7957747E-01            NaN
         13   -1    0    0    0    0  0.00000000000E+00  0.00000000000E+00  0.74505805969E-08  0.10566000000E+00  0.10566000000E+00 0.  1.
     999900   -1    0    0    0    0 -0.00000000000E+00 -0.00000000000E+00 -0.74505805969E-08  0.93827000000E+00  0.93827000000E+00 0. -1.
     999902    2    1    2    0    0  0.41259008018E-02 -0.16176925729E-01  0.37940860828E-02  0.10268095131E+01  0.10266667741E+01 0.  0.
     999903    2    3    3    0    0  0.32606880936E-01  0.91453925741E-01  0.92411065947E-01  0.13537890134E+00  0.18989802520E-01 0.  0.
         14    1    1    2    0    0 -0.41259008018E-02  0.16176925729E-01 -0.37940860828E-02  0.17120486928E-01  0.00000000000E+00 0. -1.
     999901    1    3    3    0    0 -0.28480980135E-01 -0.10763085147E+00 -0.88616979865E-01  0.89143061173E+00  0.88000000000E+00 0. -1.
        -11    1    4    4    0    0  0.28648275337E-01  0.55797748632E-01  0.64010956654E-01  0.89620176997E-01  0.51100000000E-03 0. -1.
         11    1    4    4    0    0  0.39586055993E-02  0.35656177110E-01  0.28400109293E-01  0.45758724340E-01  0.51100000000E-03 0.  1.
</event>
<event>
 8    1  0.1052028E+005  0.1043930E+01  0.7957747E-01            NaN
         13   -1    0    0    0    0  0.00000000000E+00  0.00000000000E+00  0.74505805969E-08  0.10566000000E+00  0.10566000000E+00 0.  1.
     999900   -1    0    0    0    0 -0.00000000000E+00 -0.00000000000E+00 -0.74505805969E-08  0.93827000000E+00  0.93827000000E+00 0.  1.
     999902    2    1    2    0    0 -0.14387973740E-01  0.32550626686E-04  0.18683917703E-01  0.10203481504E+01  0.10200756072E+01 0.  0.
     999903    2    3    3    0    0 -0.60916296081E-01 -0.96620954039E-01  0.64439115770E-01  0.13265432772E+00  0.19959136613E-01 0.  0.
         14    1    1    2    0    0  0.14387973740E-01 -0.32550626686E-04 -0.18683917703E-01  0.23581849559E-01  0.00000000000E+00 0. -1.
     999901    1    3    3    0    0  0.46528322341E-01  0.96653504666E-01 -0.45755198067E-01  0.88769382272E+00  0.88000000000E+00 0. -1.
        -11    1    4    4    0    0 -0.24805961694E-01 -0.57958869219E-01  0.35080704407E-01  0.72149034639E-01  0.51100000000E-03 0.  1.
         11    1    4    4    0    0 -0.36110334387E-01 -0.38662084820E-01  0.29358411363E-01  0.60505293082E-01  0.51100000000E-03 0. -1.
</event>
<event>
 8    1  0.1052028E+005  0.1043930E+01  0.7957747E-01            NaN
         13   -1    0    0    0    0  0.00000000000E+00  0.00000000000E+00  0.74505805969E-08  0.10566000000E+00  0.10566000000E+00 0. -1.
     999900   -1    0    0    0    0 -0.00000000000E+00 -0.00000000000E+00 -0.74505805969E-08  0.93827000000E+00  0.93827000000E+00 0. -1.
     999902    2    1    2    0    0  0.17268503807E-01 -0.18437019238E-01 -0.32532053959E-02  0.10184602484E+01  0.10181417236E+01 0.  0.
     999903    2    3    3    0    0 -0.64316693689E-01  0.85180342072E-01 -0.64423563194E-01  0.12653283279E+00  0.21629482568E-01 0.  0.
         14    1    1    2    0    0 -0.17268503807E-01  0.18437019238E-01  0.32532053959E-02  0.25469751617E-01  0.00000000000E+00 0. -1.
     999901    1    3    3    0    0  0.81585197496E-01 -0.10361736131E+00  0.61170357798E-01  0.89192741559E+00  0.88000000000E+00 0.  1.
        -11    1    4    4    0    0 -0.56386644549E-01  0.72952754494E-01 -0.63430332197E-01  0.11191615717E+00  0.51100000000E-03 0. -1.
         11    1    4    4    0    0 -0.79300491402E-02  0.12227587578E-01 -0.99323099656E-03  0.14616675620E-01  0.51100000000E-03 0.  1.
</event>
<event>
 8    1  0.1052028E+005  0.1043930E+01  0.7957747E-01            NaN
         13   -1    0    0    0    0  0.00000000000E+00  0.00000000000E+00  0.74505805969E-08  0.10566000000E+00  0.10566000000E+00 0.  1.
     999900   -1    0    0    0    0 -0.00000000000E+00 -0.00000000000E+00 -0.74505805969E-08  0.93827000000E+00  0.93827000000E+00 0. -1.
     999902    2    1    2    0    0  0.22884485743E-01 -0.71413898108E-02 -0.52895450202E-02  0.10193804904E+01  0.10190848374E+01 0.  0.
     999903    2    3    3    0    0 -0.12471493155E+00 -0.11738188146E-01 -0.89169189562E-03  0.12706549014E+00  0.21289538712E-01 0.  0.
         14    1    1    2    0    0 -0.22884485743E-01  0.71413898108E-02  0.52895450202E-02  0.24549509622E-01  0.00000000000E+00 0. -1.
     999901    1    3    3    0    0  0.14759941729E+00  0.45967983353E-02 -0.43978531246E-02  0.89231500024E+00  0.88000000000E+00 0. -1.
        -11    1    4    4    0    0 -0.31185349763E-03  0.13617877261E-02 -0.12959312977E-02  0.19728855374E-02  0.51100000000E-03 0. -1.
         11    1    4    4    0    0 -0.12440307805E+00 -0.13099975872E-01  0.40423940213E-03  0.12509260460E+00  0.51100000000E-03 0.  1.
</event>
<event>
 8    1  0.1052028E+005  0.1043930E+01  0.7957747E-01            NaN
         13   -1    0    0    0    0  0.00000000000E+00  0.00000000000E+00  0.74505805969E-08  0.10566000000E+00  0.10566000000E+00 0. -1.
     999900   -1    0    0    0    0 -0.00000000000E+00 -0.00000000000E+00 -0.74505805969E-08  0.93827000000E+00  0.93827000000E+00 0. -1.
     999902    2    1    2    0    0  0.13607552334E-01  0.10680382350E-01 -0.16236270871E-01  0.10202054865E+01  0.10199295967E+01 0.  0.
     999903    2    3    3    0    0  0.65594047832E-01 -0.11048709646E+00 -0.10351685947E-01  0.13036348821E+00  0.19429463736E-01 0.  0.
         14    1    1    2    0    0 -0.13607552334E-01 -0.10680382350E-01  0.16236270871E-01  0.23724513471E-01  0.00000000000E+00 0.  1.
     999901    1    3    3    0    0 -0.51986495499E-01  0.12116747881E+00 -0.58845849242E-02  0.88984199832E+00  0.88000000000E+00 0.  1.
        -11    1    4    4    0    0  0.37731197448E-01 -0.47560726053E-01  0.36611330092E-03  0.60712940001E-01  0.51100000000E-03 0.  1.
         11    1    4    4    0    0  0.27862850384E-01 -0.62926370405E-01 -0.10717799248E-01  0.69650548207E-01  0.51100000000E-03 0. -1.
</event>
<event>
 8    1  0.1052028E+005  0.1043930E+01  0.7957747E-01            NaN
         13   -1    0    0    0    0  0.00000000000E+00  0.00000000000E+00  0.74505805969E-08  0.10566000000E+00  0.10566000000E+00 0. -1.
     999900   -1    0    0    0    0 -0.00000000000E+00 -0.00000000000E+00 -0.74505805969E-08  0.93827000000E+00  0.93827000000E+00 0. -1.
     999902    2    1    2    0    0 -0.16628773886E-01  0.89648610409E-02  0.13759812340E-01  0.10205587080E+01  0.10202910659E+01 0.  0.
     999903    2    3    3    0    0 -0.19138855688E-01  0.63251211066E-01  0.11412206742E+00  0.13318849745E+00  0.18663281673E-01 0.  0.
         14    1    1    2    0    0  0.16628773886E-01 -0.89648610409E-02 -0.13759812340E-01  0.23371292007E-01  0.00000000000E+00 0. -1.
     999901    1    3    3    0    0  0.25100818017E-02 -0.54286350025E-01 -0.10036225508E+00  0.88737021054E+00  0.88000000000E+00 0. -1.
        -11    1    4    4    0    0 -0.13561155336E-01  0.53873390254E-01  0.80291992626E-01  0.97638682459E-01  0.51100000000E-03 0.  1.
         11    1    4    4    0    0 -0.55777003523E-02  0.93778208117E-02  0.33830074795E-01  0.35549814993E-01  0.51100000000E-03 0. -1.
</event>
<event>
 8    1  0.1052028E+005  0.1043930E+01  0.7957747E-01            NaN
         13   -1    0    0    0    0  0.00000000000E+00  0.00000000000E+00  0.74505805969E-08  0.10566000000E+00  0.10566000000E+00 0.  1.
     999900   -1    0    0    0    0 -0.00000000000E+00 -0.00000000000E+00 -0.74505805969E-08  0.93827000000E+00  0.93827000000E+00 0. -1.
     999902    2    1    2    0    0 -0.19846878878E-01  0.10756932406E-01  0.79791306271E-02  0.10199868022E+01  0.10197057418E+01 0.  0.
     999903    2    3    3    0    0 -0.35351483591E-01 -0.11659679284E+00 -0.38292068017E-01  0.12948110994E+00  0.21319846732E-01 0.  0.
         14    1    1    2    0    0  0.19846878878E-01 -0.10756932406E-01 -0.79791306271E-02  0.23943197814E-01  0.00000000000E+00 0. -1.
     999901    1    3    3    0    0  0.15504604713E-01  0.12735372525E+00  0.46271198644E-01  0.89050569225E+00  0.88000000000E+00 0.  1.
        -11    1    4    4    0    0  0.23329037120E-02 -0.17490325091E-01 -0.50089729522E-02  0.18349518864E-01  0.51100000000E-03 0. -1.
         11    1    4    4    0    0 -0.37684387303E-01 -0.99106467751E-01 -0.33283095065E-01  0.11113159107E+00  0.51100000000E-03 0.  1.
</event>
<event>
 8    1  0.1052028E+005  0.1043930E+01  0.7957747E-01            NaN
         13   -1    0    0    0    0  0.00000000000E+00  0.00000000000E+00  0.74505805969E-08  0.10566000000E+00  0.10566000000E+00 0.  1.
     999900   -1    0    0    0    0 -0.00000000000E+00 -0.00000000000E+00 -0.74505805969E-08  0.93827000000E+00  0.93827000000E+00 0. -1.
     999902    2    1    2    0    0  0.12292085142E-01  0.15309746598E-01  0.13634969239E-01  0.10200261073E+01  0.10197459799E+01 0.  0.
     999903    2    3    3    0    0  0.71829317036E-01 -0.26679026112E-01  0.10716013392E+00  0.13207639286E+00  0.94687924426E-02 0.  0.
         14    1    1    2    0    0 -0.12292085142E-01 -0.15309746598E-01 -0.13634969239E-01  0.23903892657E-01  0.00000000000E+00 0. -1.
     999901    1    3    3    0    0 -0.59537231894E-01  0.41988772710E-01 -0.93525164679E-01  0.88794971448E+00  0.88000000000E+00 0. -1.
        -11    1    4    4    0    0  0.61934569504E-01 -0.20150692508E-01  0.86929433282E-01  0.10862287420E+00  0.51100000000E-03 0. -1.
         11    1    4    4    0    0  0.98947475320E-02 -0.65283336042E-02  0.20230700636E-01  0.23453518661E-01  0.51100000000E-03 0.  1.
</event>
<event>
 8    1  0.1052028E+005  0.1043930E+01  0.7957747E-01            NaN
         13   -1    0    0    0    0  0.00000000000E+00  0.00000000000E+00  0.74505805969E-08  0.10566000000E+00  0.10566000000E+00 0. -1.
     999900   -1    0    0    0    0 -0.00000000000E+00 -0.00000000000E+00 -0.74505805969E-08  0.93827000000E+00  0.93827000000E+00 0.  1.
     999902    2    1    2    0    0 -0.11392439662E-01 -0.11482729068E-01 -0.92888694504E-02  0.10252772832E+01  0.10251075961E+01 0.  0.
     999903    2    3    3    0    0  0.89612770150E-01 -0.60396309416E-01 -0.79328567396E-01  0.13538956554E+00  0.18951255575E-01 0.  0.
         14    1    1    2    0    0  0.11392439662E-01  0.11482729068E-01  0.92888694504E-02  0.18652716798E-01  0.00000000000E+00 0.  1.
     999901    1    3    3    0    0 -0.10100520981E+00  0.48913580348E-01  0.70039697945E-01  0.88988771766E+00  0.88000000000E+00 0.  1.
        -11    1    4    4    0    0  0.62359894165E-01 -0.43421635974E-01 -0.44691522886E-01  0.88157746170E-01  0.51100000000E-03 0.  1.
         11    1    4    4    0    0  0.27252875985E-01 -0.16974673442E-01 -0.34637044509E-01  0.47231819373E-01  0.51100000000E-03 0. -1.
</event>
<event>
 8    1  0.1052028E+005  0.1043930E+01  0.7957747E-01            NaN
         13   -1    0    0    0    0  0.00000000000E+00  0.00000000000E+00  0.74505805969E-08  0.10566000000E+00  0.10566000000E+00 0. -1.
     999900   -1    0    0    0    0 -0.00000000000E+00 -0.00000000000E+00 -0.74505805969E-08  0.93827000000E+00  0.93827000000E+00 0.  1.
     999902    2    1    2    0    0 -0.43146307694E-02 -0.22616159590E-01 -0.27131285693E-02  0.10207466486E+01  0.10204833428E+01 0.  0.
     999903    2    3    3    0    0  0.76979238253E-01  0.76504568059E-01  0.66418628766E-01  0.12877534212E+00  0.19821766725E-01 0.  0.
         14    1    1    2    0    0  0.43146307694E-02  0.22616159590E-01  0.27131285693E-02  0.23183351352E-01  0.00000000000E+00 0. -1.
     999901    1    3    3    0    0 -0.81293869023E-01 -0.99120727649E-01 -0.69131757335E-01  0.89197130652E+00  0.88000000000E+00 0.  1.
        -11    1    4    4    0    0  0.41825486997E-01  0.28642093557E-01  0.34853224190E-01  0.61520315696E-01  0.51100000000E-03 0. -1.
         11    1    4    4    0    0  0.35153751256E-01  0.47862474502E-01  0.31565404575E-01  0.67255026428E-01  0.51100000000E-03 0.  1.
</event>
<event>
 8    1  0.1052028E+005  0.1043930E+01  0.7957747E-01            NaN
         13   -1    0    0    0    0  0.00000000000E+00  0.00000000000E+00  0.74505805969E-08  0.10566000000E+00  0.10566000000E+00 0. -1.
     999900   -1    0    0    0    0 -0.00000000000E+00 -0.00000000000E+00 -0.74505805969E-08  0.93827000000E+00  0.93827000000E+00 0. -1.
     999902    2    1    2    0    0  0.19724461046E-02 -0.16858311242E-01 -0.15349305329E-01  0.10210456303E+01  0.10207891481E+01 0.  0.
     999903    2    3    3    0    0 -0.13429637093E-01 -0.70147110711E-01  0.10747242702E+00  0.13078606241E+00  0.21300217304E-01 0.  0.
         14    1    1    2    0    0 -0.19724461046E-02  0.16858311242E-01  0.15349305329E-01  0.22884369680E-01  0.00000000000E+00 0. -1.
     999901    1    3    3    0    0  0.15402083197E-01  0.53288799469E-01 -0.12282173235E+00  0.89025956791E+00  0.88000000000E+00 0. -1.
        -11    1    4    4    0    0 -0.73945126370E-03 -0.52977615334E-01  0.80687242480E-01  0.96529097866E-01  0.51100000000E-03 0. -1.
         11    1    4    4    0    0 -0.12690185829E-01 -0.17169495377E-01  0.26785184543E-01  0.34256964546E-01  0.51100000000E-03 0.  1.
</event>
<event>
 8    1  0.1052028E+005  0.1043930E+01  0.7957747E-01            NaN
         13   -1    0    0    0    0  0.00000000000E+00  0.00000000000E+00  0.74505805969E-08  0.10566000000E+00  0.10566000000E+00 0. -1.
     999900   -1    0    0    0    0 -0.00000000000E+00 -0.00000000000E+00 -0.74505805969E-08  0.93827000000E+00  0.93827000000E+00 0. -1.
     999902    2    1    2    0    0 -0.24053040790E-02 -0.20595645955E-01  0.11557068314E-01  0.10201911721E+01  0.10199149454E+01 0.  0.
     999903    2    3    3    0    0 -0.12892715466E+00 -0.34851810509E-03  0.11813528195E-01  0.13091180623E+00  0.19390948625E-01 0.  0.
         14    1    1    2    0    0  0.24053040790E-02  0.20595645955E-01 -0.11557068314E-01  0.23738827857E-01  0.00000000000E+00 0. -1.
     999901    1    3    3    0    0  0.12652185058E+00 -0.20247127850E-01 -0.25645988147E-03  0.88927936591E+00  0.88000000000E+00 0. -1.
        -11    1    4    4    0    0 -0.57075325805E-01 -0.10292619847E-02 -0.43738798863E-02  0.57254206328E-01  0.51100000000E-03 0. -1.
         11    1    4    4    0    0 -0.71851828857E-01  0.68074387957E-03  0.16187408082E-01  0.73657599905E-01  0.51100000000E-03 0.  1.
</event>
<event>
 8    1  0.1052028E+005  0.1043930E+01  0.7957747E-01            NaN
         13   -1    0    0    0    0  0.00000000000E+00  0.00000000000E+00  0.74505805969E-08  0.10566000000E+00  0.10566000000E+00 0. -1.
     999900   -1    0    0    0    0 -0.00000000000E+00 -0.00000000000E+00 -0.74505805969E-08  0.93827000000E+00  0.93827000000E+00 0.  1.
     999902    2    1    2    0    0 -0.16695544373E-01 -0.11548277538E-01 -0.11763103457E-01  0.10204678066E+01  0.10201980542E+01 0.  0.
     999903    2    3    3    0    0  0.48827148346E-01  0.11493045881E+00 -0.24525816787E-01  0.12892252965E+00  0.20649508087E-01 0.  0.
         14    1    1    2    0    0  0.16695544373E-01  0.11548277538E-01  0.11763103457E-01  0.23462193395E-01  0.00000000000E+00 0.  1.
     999901    1    3    3    0    0 -0.65522692719E-01 -0.12647873635E+00  0.12762713330E-01  0.89154527696E+00  0.88000000000E+00 0. -1.
        -11    1    4    4    0    0  0.29112389127E-01  0.77366857370E-01 -0.68040097684E-02  0.82944062416E-01  0.51100000000E-03 0. -1.
         11    1    4    4    0    0  0.19714759219E-01  0.37563601440E-01 -0.17721807018E-01  0.45978467234E-01  0.51100000000E-03 0.  1.
</event>
<event>
 8    1  0.1052028E+005  0.1043930E+01  0.7957747E-01            NaN
         13   -1    0    0    0    0  0.00000000000E+00  0.00000000000E+00  0.74505805969E-08  0.10566000000E+00  0.10566000000E+00 0. -1.
     999900   -1    0    0    0    0 -0.00000000000E+00 -0.00000000000E+00 -0.74505805969E-08  0.93827000000E+00  0.93827000000E+00 0.  1.
     999902    2    1    2    0    0  0.46962910143E-02 -0.21995023494E-01  0.66023453677E-02  0.10204901371E+01  0.10202209039E+01 0.  0.
     999903    2    3    3    0    0  0.51344879437E-01 -0.90179917884E-01 -0.79748399065E-01  0.13241259450E+00  0.20114019881E-01 0.  0.
         14    1    1    2    0    0 -0.46962910143E-02  0.21995023494E-01 -0.66023453677E-02  0.23439862887E-01  0.00000000000E+00 0.  1.
     999901    1    3    3    0    0 -0.46648588422E-01  0.68184894390E-01  0.86350744433E-01  0.88807754261E+00  0.88000000000E+00 0. -1.
        -11    1    4    4    0    0 -0.23089050118E-03 -0.10267629795E-01 -0.10985258577E-01  0.15047078090E-01  0.51100000000E-03 0.  1.
         11    1    4    4    0    0  0.51575769938E-01 -0.79912288088E-01 -0.68763140488E-01  0.11736551641E+00  0.51100000000E-03 0. -1.
</event>
<event>
 8    1  0.1052028E+005  0.1043930E+01  0.7957747E-01            NaN
         13   -1    0    0    0    0  0.00000000000E+00  0.00000000000E+00  0.74505805969E-08  0.10566000000E+00  0.10566000000E+00 0. -1.
     999900   -1    0    0    0    0 -0.00000000000E+00 -0.00000000000E+00 -0.74505805969E-08  0.93827000000E+00  0.93827000000E+00 0.  1.
     999902    2    1    2    0    0 -0.68825507691E-02 -0.21941549432E-01  0.61748745288E-02  0.10201197045E+01  0.10198417923E+01 0.  0.
     999903    2    3    3    0    0  0.59115339633E-01 -0.57234358313E-01  0.10134207178E+00  0.13183028132E+00  0.18401424071E-01 0.  0.
         14    1    1    2    0    0  0.68825507691E-02  0.21941549432E-01 -0.61748745288E-02  0.23810295504E-01  0.00000000000E+00 0.  1.
     999901    1    3    3    0    0 -0.65997890402E-01  0.35292808881E-01 -0.95167197253E-01  0.88828942318E+00  0.88000000000E+00 0.  1.
        -11    1    4    4    0    0  0.27798448445E-01 -0.23330915642E-01  0.58560058918E-01  0.68895768971E-01  0.51100000000E-03 0. -1.
         11    1    4    4    0    0  0.31316891188E-01 -0.33903442671E-01  0.42782012864E-01  0.62934512347E-01  0.51100000000E-03 0.  1.
</event>
<event>
 8    1  0.1052028E+005  0.1043930E+01  0.7957747E-01            NaN
         13   -1    0    0    0    0  0.00000000000E+00  0.00000000000E+00  0.74505805969E-08  0.10566000000E+00  0.10566000000E+00 0. -1.
     999900   -1    0    0    0    0 -0.00000000000E+00 -0.00000000000E+00 -0.74505805969E-08  0.93827000000E+00  0.93827000000E+00 0. -1.
     999902    2    1    2    0    0 -0.12544385050E-01  0.10187375450E-01  0.14853769645E-01  0.10219805424E+01  0.10217448069E+01 0.  0.
     999903    2    3    3    0    0  0.10820555285E+00  0.35109191632E-01 -0.60445010525E-01  0.13020055234E+00  0.18907340583E-01 0.  0.
         14    1    1    2    0    0  0.12544385050E-01 -0.10187375450E-01 -0.14853769645E-01  0.21949457567E-01  0.00000000000E+00 0.  1.
     999901    1    3    3    0    0 -0.12074993790E+00 -0.24921816182E-01  0.75298780170E-01  0.89177999009E+00  0.88000000000E+00 0.  1.
        -11    1    4    4    0    0  0.85809482447E-01  0.19706343742E-01 -0.43993459331E-01  0.98424046078E-01  0.51100000000E-03 0. -1.
         11    1    4    4    0    0  0.22396070408E-01  0.15402847890E-01 -0.16451551194E-01  0.31776506267E-01  0.51100000000E-03 0.  1.
</event>
<event>
 8    1  0.1052028E+005  0.1043930E+01  0.7957747E-01            NaN
         13   -1    0    0    0    0  0.00000000000E+00  0.00000000000E+00  0.74505805969E-08  0.10566000000E+00  0.10566000000E+00 0. -1.
     999900   -1    0    0    0    0 -0.00000000000E+00 -0.00000000000E+00 -0.74505805969E-08  0.93827000000E+00  0.93827000000E+00 0. -1.
     999902    2    1    2    0    0 -0.15464138423E-02 -0.38041741479E-02  0.24405630538E-01  0.10191813043E+01  0.10188807747E+01 0.  0.
     999903    2    3    3    0    0 -0.67918586853E-01 -0.63571584415E-01 -0.85386779554E-01  0.12787227709E+00  0.20152824618E-01 0.  0.
         14    1    1    2    0    0  0.15464138423E-02  0.38041741479E-02 -0.24405630538E-01  0.24748695697E-01  0.00000000000E+00 0.  1.
     999901    1    3    3    0    0  0.66372173011E-01  0.59767410267E-01  0.10979241009E+00  0.89130902721E+00  0.88000000000E+00 0.  1.
        -11    1    4    4    0    0 -0.51596951324E-01 -0.36376743055E-01 -0.61772226918E-01  0.88326564298E-01  0.51100000000E-03 0. -1.
         11    1    4    4    0    0 -0.16321635529E-01 -0.27194841360E-01 -0.23614552636E-01  0.39545712791E-01  0.51100000000E-03 0.  1.
</event>
<event>
 8    1  0.1052028E+005  0.1043930E+01  0.7957747E-01            NaN
         13   -1    0    0    0    0  0.00000000000E+00  0.00000000000E+00  0.74505805969E-08  0.10566000000E+00  0.10566000000E+00 0.  1.
     999900   -1    0    0    0    0 -0.00000000000E+00 -0.00000000000E+00 -0.74505805969E-08  0.93827000000E+00  0.93827000000E+00 0.  1.
     999902    2    1    2    0    0 -0.23212864890E-01 -0.20639728599E-02  0.58094835971E-02  0.10199123569E+01  0.10196295252E+01 0.  0.
     999903    2    3    3    0    0  0.40775281381E-01 -0.12098914615E+00  0.12001673056E-01  0.12958880733E+00  0.18660701241E-01 0.  0.
         14    1    1    2    0    0  0.23212864890E-01  0.20639728599E-02 -0.58094835971E-02  0.24017643099E-01  0.00000000000E+00 0. -1.
     999901    1    3    3    0    0 -0.63988146271E-01  0.11892517329E+00 -0.61921894590E-02  0.89032354957E+00  0.88000000000E+00 0. -1.
        -11    1    4    4    0    0  0.12808624342E-01 -0.50671062634E-01 -0.33334386039E-02  0.52373565659E-01  0.51100000000E-03 0.  1.
         11    1    4    4    0    0  0.27966657039E-01 -0.70318083521E-01  0.15335111660E-01  0.77215241673E-01  0.51100000000E-03 0. -1.
</event>
<event>
 7    1  0.1052028E+005  0.1043930E+01  0.7957747E-01            NaN
         13   -1    0    0    0    0  0.00000000000E+00  0.00000000000E+00  0.74505805969E-08  0.10566000000E+00  0.10566000000E+00 0. -1.
     999900   -1    0    0    0    0 -0.00000000000E+00 -0.00000000000E+00 -0.74505805969E-08  0.93827000000E+00  0.93827000000E+00 0. -1.
     999903    2    1    2    0    0  0.97614808436E-01  0.17602043695E-01 -0.58602668019E-01  0.11691326140E+00  0.19898623657E-01 0.  0.
         14    1    1    2    0    0 -0.30431066606E-01 -0.91765712624E-02  0.30374446931E-01  0.43964375366E-01  0.00000000000E+00 0. -1.
     999901    1    1    2    0    0 -0.67183741830E-01 -0.84254724325E-02  0.28228221087E-01  0.88305236324E+00  0.88000000000E+00 0. -1.
        -11    1    3    3    0    0  0.83807849620E-01  0.21940085344E-01 -0.48896359116E-01  0.99479837447E-01  0.51100000000E-03 0. -1.
         11    1    3    3    0    0  0.13806958817E-01 -0.43380416489E-02 -0.97063089030E-02  0.17433423950E-01  0.51100000000E-03 0.  1.
</event>
<event>
 8    1  0.1052028E+005  0.1043930E+01  0.7957747E-01            NaN
         13   -1    0    0    0    0  0.00000000000E+00  0.00000000000E+00  0.74505805969E-08  0.10566000000E+00  0.10566000000E+00 0. -1.
     999900   -1    0    0    0    0 -0.00000000000E+00 -0.00000000000E+00 -0.74505805969E-08  0.93827000000E+00  0.93827000000E+00 0.  1.
     999902    2    1    2    0    0 -0.25981930569E-02 -0.13202924724E-01  0.17445317856E-01  0.10218980472E+01  0.10216605170E+01 0.  0.
     999903    2    3    3    0    0  0.69292264194E-01  0.91066366203E-03 -0.10814781490E+00  0.12996695895E+00  0.19829608292E-01 0.  0.
         14    1    1    2    0    0  0.25981930569E-02  0.13202924724E-01 -0.17445317856E-01  0.22031952785E-01  0.00000000000E+00 0.  1.
     999901    1    3    3    0    0 -0.71890457251E-01 -0.14113588386E-01  0.12559313276E+00  0.89193108827E+00  0.88000000000E+00 0. -1.
        -11    1    4    4    0    0  0.23641148742E-01  0.69911298333E-02 -0.26309819063E-01  0.36058944942E-01  0.51100000000E-03 0.  1.
         11    1    4    4    0    0  0.45651115451E-01 -0.60804661713E-02 -0.81837995838E-01  0.93908014006E-01  0.51100000000E-03 0. -1.
</event>
<event>
 8    1  0.1052028E+005  0.1043930E+01  0.7957747E-01            NaN
         13   -1    0    0    0    0  0.00000000000E+00  0.00000000000E+00  0.74505805969E-08  0.10566000000E+00  0.10566000000E+00 0.  1.
     999900   -1    0    0    0    0 -0.00000000000E+00 -0.00000000000E+00 -0.74505805969E-08  0.93827000000E+00  0.93827000000E+00 0. -1.
     999902    2    1    2    0    0 -0.20543481421E-01 -0.82899805868E-02  0.71481322227E-02  0.10206522381E+01  0.10203867585E+01 0.  0.
     999903    2    3    3    0    0 -0.10982028791E+00  0.70222153462E-01 -0.10742026888E-01  0.13247738975E+00  0.21052818805E-01 0.  0.
         14    1    1    2    0    0  0.20543481421E-01  0.82899805868E-02 -0.71481322227E-02  0.23277761948E-01  0.00000000000E+00 0. -1.
     999901    1    3    3    0    0  0.89276806486E-01 -0.78512134048E-01  0.17890159110E-01  0.88817484831E+00  0.88000000000E+00 0. -1.
        -11    1    4    4    0    0 -0.98968923576E-01  0.54729312102E-01 -0.83065932047E-02  0.11339932120E+00  0.51100000000E-03 0. -1.
         11    1    4    4    0    0 -0.10851364331E-01  0.15492841360E-01 -0.24354336829E-02  0.19078068547E-01  0.51100000000E-03 0.  1.
</event>
<event>
 8    1  0.1052028E+005  0.1043930E+01  0.7957747E-01            NaN
         13   -1    0    0    0    0  0.00000000000E+00  0.00000000000E+00  0.74505805969E-08  0.10566000000E+00  0.10566000000E+00 0. -1.
     999900   -1    0    0    0    0 -0.00000000000E+00 -0.00000000000E+00 -0.74505805969E-08  0.93827000000E+00  0.93827000000E+00 0. -1.
     999902    2    1    2    0    0 -0.80269372306E-02  0.72341083929E-02 -0.24543659414E-01  0.10171129296E+01  0.10167593404E+01 0.  0.
     999903    2    3    3    0    0  0.10125353313E+00 -0.81370297937E-02 -0.76431424017E-01  0.12870377097E+00  0.20109919414E-01 0.  0.
         14    1    1    2    0    0  0.80269372306E-02 -0.72341083929E-02  0.24543659414E-01  0.26817070366E-01  0.00000000000E+00 0. -1.
     999901    1    3    3    0    0 -0.10928047036E+00  0.15371138187E-01  0.51887764602E-01  0.88840915867E+00  0.88000000000E+00 0. -1.
        -11    1    4    4    0    0  0.64354180441E-01 -0.14816077532E-01 -0.47916576941E-01  0.81591887835E-01  0.51100000000E-03 0.  1.
         11    1    4    4    0    0  0.36899352687E-01  0.66790477385E-02 -0.28514847075E-01  0.47111883131E-01  0.51100000000E-03 0. -1.
</event>
<event>
 8    1  0.1052028E+005  0.1043930E+01  0.7957747E-01            NaN
         13   -1    0    0    0    0  0.00000000000E+00  0.00000000000E+00  0.74505805969E-08  0.10566000000E+00  0.10566000000E+00 0. -1.
     999900   -1    0    0    0    0 -0.00000000000E+00 -0.00000000000E+00 -0.74505805969E-08  0.93827000000E+00  0.93827000000E+00 0. -1.
     999902    2    1    2    0    0 -0.23980259514E-01 -0.81337319607E-03  0.24579247197E-02  0.10198103852E+01  0.10195251179E+01 0.  0.
     999903    2    3    3    0    0 -0.10498961485E+00  0.61223390219E-01 -0.48876022365E-01  0.13242870310E+00  0.19426093465E-01 0.  0.
         14    1    1    2    0    0  0.23980259514E-01  0.81337319607E-03 -0.24579247197E-02  0.24119614762E-01  0.00000000000E+00 0.  1.
     999901    1    3    3    0    0  0.81009355334E-01 -0.62036763415E-01  0.51333947084E-01  0.88738168214E+00  0.88000000000E+00 0.  1.
        -11    1    4    4    0    0 -0.50661634485E-01  0.27472444006E-01 -0.12953535952E-01  0.59071072473E-01  0.51100000000E-03 0. -1.
         11    1    4    4    0    0 -0.54327980363E-01  0.33750946212E-01 -0.35922486413E-01  0.73357630630E-01  0.51100000000E-03 0.  1.
</event>
<event>
 8    1  0.1052028E+005  0.1043930E+01  0.7957747E-01            NaN
         13   -1    0    0    0    0  0.00000000000E+00  0.00000000000E+00  0.74505805969E-08  0.10566000000E+00  0.10566000000E+00 0.  1.
     999900   -1    0    0    0    0 -0.00000000000E+00 -0.00000000000E+00 -0.74505805969E-08  0.93827000000E+00  0.93827000000E+00 0. -1.
     999902    2    1    2    0    0 -0.18965952179E-01 -0.22646786693E-02  0.14993525619E-01  0.10196474564E+01  0.10193582753E+01 0.  0.
     999903    2    3    3    0    0 -0.12093218736E+00  0.42582032268E-01  0.28135974721E-01  0.13252792415E+00  0.18280978990E-01 0.  0.
         14    1    1    2    0    0  0.18965952179E-01  0.22646786693E-02 -0.14993525619E-01  0.24282543566E-01  0.00000000000E+00 0. -1.
     999901    1    3    3    0    0  0.10196623518E+00 -0.44846710937E-01 -0.13142449102E-01  0.88711953229E+00  0.88000000000E+00 0. -1.
        -11    1    4    4    0    0 -0.82643841673E-01  0.31149433043E-01  0.27703069912E-01  0.92563561670E-01  0.51100000000E-03 0. -1.
         11    1    4    4    0    0 -0.38288345688E-01  0.11432599225E-01  0.43290480921E-03  0.39964362476E-01  0.51100000000E-03 0.  1.
</event>
<event>
 8    1  0.1052028E+005  0.1043930E+01  0.7957747E-01            NaN
         13   -1    0    0    0    0  0.00000000000E+00  0.00000000000E+00  0.74505805969E-08  0.10566000000E+00  0.10566000000E+00 0. -1.
     999900   -1    0    0    0    0 -0.00000000000E+00 -0.00000000000E+00 -0.74505805969E-08  0.93827000000E+00  0.93827000000E+00 0. -1.
     999902    2    1    2    0    0  0.46216861682E-02  0.13983368077E-01  0.17524417954E-01  0.10210389583E+01  0.10207823248E+01 0.  0.
     999903    2    3    3    0    0  0.65974690214E-01 -0.50296015808E-01 -0.97131972791E-01  0.12916334015E+00  0.19136335740E-01 0.  0.
         14    1    1    2    0    0 -0.46216861682E-02 -0.13983368077E-01 -0.17524417954E-01  0.22891041708E-01  0.00000000000E+00 0.  1.
     999901    1    3    3    0    0 -0.61353004046E-01  0.64279383885E-01  0.11465639075E+00  0.89187561814E+00  0.88000000000E+00 0.  1.
        -11    1    4    4    0    0  0.80218487033E-02  0.46621141608E-03 -0.10447258870E-01  0.13189910864E-01  0.51100000000E-03 0. -1.
         11    1    4    4    0    0  0.57952841510E-01 -0.50762227224E-01 -0.86684713921E-01  0.11597342929E+00  0.51100000000E-03 0.  1.
</event>
<event>
 8    1  0.1052028E+005  0.1043930E+01  0.7957747E-01            NaN
         13   -1    0    0    0    0  0.00000000000E+00  0.00000000000E+00  0.74505805969E-08  0.10566000000E+00  0.10566000000E+00 0.  1.
     999900   -1    0    0    0    0 -0.00000000000E+00 -0.00000000000E+00 -0.74505805969E-08  0.93827000000E+00  0.93827000000E+00 0.  1.
     999902    2    1    2    0    0  0.10120538489E-01  0.55064995998E-02  0.20705502787E-01  0.10202347540E+01  0.10199595524E+01 0.  0.
     999903    2    3    3    0    0 -0.12365909146E+00 -0.26118861729E-01 -0.16958581983E-01  0.12876645050E+00  0.17872868653E-01 0.  0.
         14    1    1    2    0    0 -0.10120538489E-01 -0.55064995998E-02 -0.20705502787E-01  0.23695245996E-01  0.00000000000E+00 0. -1.
     999901    1    3    3    0    0  0.13377962995E+00  0.31625361329E-01  0.37664084770E-01  0.89146830350E+00  0.88000000000E+00 0. -1.
        -11    1    4    4    0    0 -0.45018224874E-02  0.58143807920E-04 -0.40648537889E-02  0.60871950631E-02  0.51100000000E-03 0.  1.
         11    1    4    4    0    0 -0.11915726897E+00 -0.26177005537E-01 -0.12893728194E-01  0.12267925544E+00  0.51100000000E-03 0. -1.
</event>
<event>
 8    1  0.1052028E+005  0.1043930E+01  0.7957747E-01            NaN
         13   -1    0    0    0    0  0.00000000000E+00  0.00000000000E+00  0.74505805969E-08  0.10566000000E+00  0.10566000000E+00 0. -1.
     999900   -1    0    0    0    0 -0.00000000000E+00 -0.00000000000E+00 -0.74505805969E-08  0.93827000000E+00  0.93827000000E+00 0.  1.
     999902    2    1    2    0    0 -0.11283499497E-01 -0.15801888115E-01 -0.13073350781E-01  0.10205221054E+01  0.10202536146E+01 0.  0.
     999903    2    3    3    0    0  0.59669469762E-01 -0.40397717937E-01 -0.10892565442E+00  0.13213764876E+00  0.20078316506E-01 0.  0.
         14    1    1    2    0    0  0.11283499497E-01  0.15801888115E-01  0.13073350781E-01  0.23407894599E-01  0.00000000000E+00 0. -1.
     999901    1    3    3    0    0 -0.70952969259E-01  0.24595829822E-01  0.95852303634E-01  0.88838445664E+00  0.88000000000E+00 0. -1.
        -11    1    4    4    0    0  0.26697427327E-01 -0.25146779098E-01 -0.69085280912E-01  0.78218605744E-01  0.51100000000E-03 0.  1.
         11    1    4    4    0    0  0.32972042435E-01 -0.15250938839E-01 -0.39840373503E-01  0.53919043015E-01  0.51100000000E-03 0. -1.
</event>
<event>
 8    1  0.1052028E+005  0.1043930E+01  0.7957747E-01            NaN
         13   -1    0    0    0    0  0.00000000000E+00  0.00000000000E+00  0.74505805969E-08  0.10566000000E+00  0.10566000000E+00 0. -1.
     999900   -1    0    0    0    0 -0.00000000000E+00 -0.00000000000E+00 -0.74505805969E-08  0.93827000000E+00  0.93827000000E+00 0. -1.
     999902    2    1    2    0    0 -0.61584491425E-02  0.20176818603E-01 -0.10012628040E-01  0.10205786997E+01  0.10203115206E+01 0.  0.
     999903    2    3    3    0    0 -0.11741297811E+00  0.50691127133E-01 -0.29331394899E-01  0.13283892478E+00  0.20747323020E-01 0.  0.
         14    1    1    2    0    0  0.61584491425E-02 -0.20176818603E-01  0.10012628040E-01  0.23351300286E-01  0.00000000000E+00 0. -1.
     999901    1    3    3    0    0  0.11125452897E+00 -0.30514308529E-01  0.19318766858E-01  0.88773977493E+00  0.88000000000E+00 0.  1.
        -11    1    4    4    0    0 -0.97110851750E-01  0.34230881925E-01 -0.18877700626E-01  0.10468476253E+00  0.51100000000E-03 0. -1.
         11    1    4    4    0    0 -0.20302126359E-01  0.16460245208E-01 -0.10453694272E-01  0.28154162249E-01  0.51100000000E-03 0.  1.
</event>
<event>
 8    1  0.1052028E+005  0.1043930E+01  0.7957747E-01            NaN
         13   -1    0    0    0    0  0.00000000000E+00  0.00000000000E+00  0.74505805969E-08  0.10566000000E+00  0.10566000000E+00 0. -1.
     999900   -1    0    0    0    0 -0.00000000000E+00 -0.00000000000E+00 -0.74505805969E-08  0.93827000000E+00  0.93827000000E+00 0.  1.
     999902    2    1    2    0    0  0.11954434159E-01 -0.14688009146E-01 -0.13931550659E-01  0.10204196999E+01  0.10201488272E+01 0.  0.
     999903    2    3    3    0    0 -0.75127438426E-01  0.97080512348E-02 -0.10520788870E+00  0.13108860844E+00  0.19420225357E-01 0.  0.
         14    1    1    2    0    0 -0.11954434159E-01  0.14688009146E-01  0.13931550659E-01  0.23510300136E-01  0.00000000000E+00 0. -1.
     999901    1    3    3    0    0  0.87081872585E-01 -0.24396060380E-01  0.91276338044E-01  0.88933109143E+00  0.88000000000E+00 0. -1.
        -11    1    4    4    0    0 -0.47418176613E-01  0.20079995839E-02 -0.50653579284E-01  0.69415860946E-01  0.51100000000E-03 0. -1.
         11    1    4    4    0    0 -0.27709261813E-01  0.77000516509E-02 -0.54554309419E-01  0.61672747489E-01  0.51100000000E-03 0.  1.
</event>
<event>
 8    1  0.1052028E+005  0.1043930E+01  0.7957747E-01            NaN
         13   -1    0    0    0    0  0.00000000000E+00  0.00000000000E+00  0.74505805969E-08  0.10566000000E+00  0.10566000000E+00 0.  1.
     999900   -1    0    0    0    0 -0.00000000000E+00 -0.00000000000E+00 -0.74505805969E-08  0.93827000000E+00  0.93827000000E+00 0. -1.
     999902    2    1    2    0    0 -0.97600258084E-02 -0.16615163752E-01 -0.13658189831E-01  0.10203107722E+01  0.10200373542E+01 0.  0.
     999903    2    3    3    0    0  0.11538776497E+00 -0.33584155780E-01 -0.47724038700E-01  0.13064207083E+00  0.18642289989E-01 0.  0.
         14    1    1    2    0    0  0.97600258084E-02  0.16615163752E-01  0.13658189831E-01  0.23619227755E-01  0.00000000000E+00 0.  1.
     999901    1    3    3    0    0 -0.12514779078E+00  0.16968992028E-01  0.34065848869E-01  0.88966870142E+00  0.88000000000E+00 0.  1.
        -11    1    4    4    0    0  0.45643817276E-01 -0.58320117370E-02 -0.12266163794E-01  0.47624471773E-01  0.51100000000E-03 0. -1.
         11    1    4    4    0    0  0.69743947691E-01 -0.27752144043E-01 -0.35457874906E-01  0.83017599052E-01  0.51100000000E-03 0.  1.
</event>
<event>
 8    1  0.1052028E+005  0.1043930E+01  0.7957747E-01            NaN
         13   -1    0    0    0    0  0.00000000000E+00  0.00000000000E+00  0.74505805969E-08  0.10566000000E+00  0.10566000000E+00 0. -1.
     999900   -1    0    0    0    0 -0.00000000000E+00 -0.00000000000E+00 -0.74505805969E-08  0.93827000000E+00  0.93827000000E+00 0. -1.
     999902    2    1    2    0    0 -0.14937398212E-01  0.10259184793E-02  0.17881634486E-01  0.10206076668E+01  0.10203411578E+01 0.  0.
     999903    2    3    3    0    0 -0.12336042307E+00 -0.21604625783E-02 -0.42930342701E-01  0.13186484578E+00  0.17968351321E-01 0.  0.
         14    1    1    2    0    0  0.14937398212E-01 -0.10259184793E-02 -0.17881634486E-01  0.23322333201E-01  0.00000000000E+00 0.  1.
     999901    1    3    3    0    0  0.10842302486E+00  0.31863810576E-02  0.60811977187E-01  0.88874282102E+00  0.88000000000E+00 0.  1.
        -11    1    4    4    0    0 -0.23630747138E-01 -0.65342251034E-02 -0.47075371156E-02  0.24970589394E-01  0.51100000000E-03 0. -1.
         11    1    4    4    0    0 -0.99729675934E-01  0.43737625251E-02 -0.38222805585E-01  0.10689425639E+00  0.51100000000E-03 0.  1.
</event>
<event>
 8    1  0.1052028E+005  0.1043930E+01  0.7957747E-01            NaN
         13   -1    0    0    0    0  0.00000000000E+00  0.00000000000E+00  0.74505805969E-08  0.10566000000E+00  0.10566000000E+00 0. -1.
     999900   -1    0    0    0    0 -0.00000000000E+00 -0.00000000000E+00 -0.74505805969E-08  0.93827000000E+00  0.93827000000E+00 0.  1.
     999902    2    1    2    0    0 -0.11396562627E-01  0.47469046684E-02  0.21473681311E-01  0.10191603869E+01  0.10188593428E+01 0.  0.
     999903    2    3    3    0    0 -0.46870858446E-01 -0.11629526377E+00 -0.23883463052E-01  0.12901045417E+00  0.18756644991E-01 0.  0.
         14    1    1    2    0    0  0.11396562627E-01 -0.47469046684E-02 -0.21473681311E-01  0.24769613092E-01  0.00000000000E+00 0.  1.
     999901    1    3    3    0    0  0.35474295819E-01  0.12104216844E+00  0.45357144363E-01  0.89014993274E+00  0.88000000000E+00 0. -1.
        -11    1    4    4    0    0 -0.21030684612E-01 -0.74210825932E-01 -0.18567343240E-01  0.79338160659E-01  0.51100000000E-03 0. -1.
         11    1    4    4    0    0 -0.25840173834E-01 -0.42084437840E-01 -0.53161198111E-02  0.49672293514E-01  0.51100000000E-03 0.  1.
</event>
<event>
 8    1  0.1052028E+005  0.1043930E+01  0.7957747E-01            NaN
         13   -1    0    0    0    0  0.00000000000E+00  0.00000000000E+00  0.74505805969E-08  0.10566000000E+00  0.10566000000E+00 0.  1.
     999900   -1    0    0    0    0 -0.00000000000E+00 -0.00000000000E+00 -0.74505805969E-08  0.93827000000E+00  0.93827000000E+00 0. -1.
     999902    2    1    2    0    0 -0.18730115125E-01  0.11854425587E-01 -0.87624365202E-02  0.10200946290E+01  0.10198161242E+01 0.  0.
     999903    2    3    3    0    0 -0.70792932021E-01  0.29119316569E-01 -0.10656556295E+00  0.13297904185E+00  0.21624813130E-01 0.  0.
         14    1    1    2    0    0  0.18730115125E-01 -0.11854425587E-01  0.87624365202E-02  0.23835371035E-01  0.00000000000E+00 0. -1.
     999901    1    3    3    0    0  0.52062816895E-01 -0.17264890981E-01  0.97803126429E-01  0.88711558712E+00  0.88000000000E+00 0.  1.
        -11    1    4    4    0    0 -0.13097401265E-01  0.80293405177E-02 -0.93843197286E-02  0.18009408842E-01  0.51100000000E-03 0.  1.
         11    1    4    4    0    0 -0.57695530755E-01  0.21089976051E-01 -0.97181243221E-01  0.11496963301E+00  0.51100000000E-03 0. -1.
</event>
<event>
 8    1  0.1052028E+005  0.1043930E+01  0.7957747E-01            NaN
         13   -1    0    0    0    0  0.00000000000E+00  0.00000000000E+00  0.74505805969E-08  0.10566000000E+00  0.10566000000E+00 0. -1.
     999900   -1    0    0    0    0 -0.00000000000E+00 -0.00000000000E+00 -0.74505805969E-08  0.93827000000E+00  0.93827000000E+00 0.  1.
     999902    2    1    2    0    0 -0.81886303699E-02  0.19110593892E-01  0.13183169007E-01  0.10193116245E+01  0.10190142901E+01 0.  0.
     999903    2    3    3    0    0  0.16837231748E-01  0.60682227970E-01  0.11446687237E+00  0.13217415879E+00  0.20037919500E-01 0.  0.
         14    1    1    2    0    0  0.81886303699E-02 -0.19110593892E-01 -0.13183169007E-01  0.24618375480E-01  0.00000000000E+00 0.  1.
     999901    1    3    3    0    0 -0.25025862118E-01 -0.41571634079E-01 -0.10128370336E+00  0.88713746573E+00  0.88000000000E+00 0.  1.
        -11    1    4    4    0    0  0.12920179624E-01  0.18984985484E-01  0.28988834343E-01  0.36986137307E-01  0.51100000000E-03 0.  1.
         11    1    4    4    0    0  0.39170521246E-02  0.41697242486E-01  0.85478038025E-01  0.95188021483E-01  0.51100000000E-03 0. -1.
</event>
<event>
 8    1  0.1052028E+005  0.1043930E+01  0.7957747E-01            NaN
         13   -1    0    0    0    0  0.00000000000E+00  0.00000000000E+00  0.74505805969E-08  0.10566000000E+00  0.10566000000E+00 0. -1.
     999900   -1    0    0    0    0 -0.00000000000E+00 -0.00000000000E+00 -0.74505805969E-08  0.93827000000E+00  0.93827000000E+00 0.  1.
     999902    2    1    2    0    0 -0.84215240316E-02 -0.55123860749E-02 -0.21257210041E-01  0.10204102754E+01  0.10201391830E+01 0.  0.
     999903    2    3    3    0    0  0.10025740824E+00 -0.23312647151E-01  0.74324632967E-01  0.12841036040E+00  0.19236480150E-01 0.  0.
         14    1    1    2    0    0  0.84215240316E-02  0.55123860749E-02  0.21257210041E-01  0.23519724615E-01  0.00000000000E+00 0. -1.
     999901    1    3    3    0    0 -0.10867893227E+00  0.17800261077E-01 -0.95581843007E-01  0.89199991498E+00  0.88000000000E+00 0.  1.
        -11    1    4    4    0    0  0.15654083330E-01  0.18036193024E-02  0.16933149617E-01  0.23136465686E-01  0.51100000000E-03 0.  1.
         11    1    4    4    0    0  0.84603324913E-01 -0.25116266454E-01  0.57391483349E-01  0.10527389472E+00  0.51100000000E-03 0. -1.
</event>
<event>
 8    1  0.1052028E+005  0.1043930E+01  0.7957747E-01            NaN
         13   -1    0    0    0    0  0.00000000000E+00  0.00000000000E+00  0.74505805969E-08  0.10566000000E+00  0.10566000000E+00 0.  1.
     999900   -1    0    0    0    0 -0.00000000000E+00 -0.00000000000E+00 -0.74505805969E-08  0.93827000000E+00  0.93827000000E+00 0.  1.
     999902    2    1    2    0    0  0.14020892427E-01  0.19908247548E-02 -0.18266991001E-01  0.10208165457E+01  0.10205548434E+01 0.  0.
     999903    2    3    3    0    0 -0.97514985641E-02  0.12836591247E+00  0.12574821840E-01  0.13093621289E+00  0.20328957033E-01 0.  0.
         14    1    1    2    0    0 -0.14020892427E-01 -0.19908247548E-02  0.18266991001E-01  0.23113454261E-01  0.00000000000E+00 0.  1.
     999901    1    3    3    0    0  0.23772390991E-01 -0.12637508771E+00 -0.30841812841E-01  0.88988033285E+00  0.88000000000E+00 0.  1.
        -11    1    4    4    0    0 -0.53734436559E-02  0.12096536288E+00  0.14939289482E-01  0.12200383766E+00  0.51100000000E-03 0. -1.
         11    1    4    4    0    0 -0.43780549083E-02  0.74005495897E-02 -0.23644676422E-02  0.89323752295E-02  0.51100000000E-03 0.  1.
</event>
<event>
 8    1  0.1052028E+005  0.1043930E+01  0.7957747E-01            NaN
         13   -1    0    0    0    0  0.00000000000E+00  0.00000000000E+00  0.74505805969E-08  0.10566000000E+00  0.10566000000E+00 0.  1.
     999900   -1    0    0    0    0 -0.00000000000E+00 -0.00000000000E+00 -0.74505805969E-08  0.93827000000E+00  0.93827000000E+00 0.  1.
     999902    2    1    2    0    0  0.20708494441E-01 -0.11210786483E-01  0.98667412286E-02  0.10183981364E+01  0.10180780364E+01 0.  0.
     999903    2    3    3    0    0  0.39538887703E-01 -0.85083768289E-01 -0.87485761100E-01  0.12975348817E+00  0.19484302130E-01 0.  0.
         14    1    1    2    0    0 -0.20708494441E-01  0.11210786483E-01 -0.98667412286E-02  0.25531863583E-01  0.00000000000E+00 0. -1.
     999901    1    3    3    0    0 -0.18830393262E-01  0.73872981805E-01  0.97352502329E-01  0.88864464825E+00  0.88000000000E+00 0. -1.
        -11    1    4    4    0    0  0.17158707794E-01 -0.33371741954E-01 -0.22569694130E-01  0.43792084083E-01  0.51100000000E-03 0. -1.
         11    1    4    4    0    0  0.22380179908E-01 -0.51712026335E-01 -0.64916066970E-01  0.85961404085E-01  0.51100000000E-03 0.  1.
</event>
<event>
 8    1  0.1052028E+005  0.1043930E+01  0.7957747E-01            NaN
         13   -1    0    0    0    0  0.00000000000E+00  0.00000000000E+00  0.74505805969E-08  0.10566000000E+00  0.10566000000E+00 0.  1.
     999900   -1    0    0    0    0 -0.00000000000E+00 -0.00000000000E+00 -0.74505805969E-08  0.93827000000E+00  0.93827000000E+00 0.  1.
     999902    2    1    2    0    0  0.11169514090E-01 -0.78009580872E-02  0.18701587036E-01  0.10207921014E+01  0.10205298389E+01 0.  0.
     999903    2    3    3    0    0  0.69369842965E-01 -0.10306126654E+00  0.43373611320E-01  0.13339674793E+00  0.21900283706E-01 0.  0.
         14    1    1    2    0    0 -0.11169514090E-01  0.78009580872E-02 -0.18701587036E-01  0.23137898559E-01  0.00000000000E+00 0. -1.
     999901    1    3    3    0    0 -0.58200328876E-01  0.95260308451E-01 -0.24672024284E-01  0.88739535351E+00  0.88000000000E+00 0.  1.
        -11    1    4    4    0    0  0.38819972907E-01 -0.51986772715E-01  0.11539268894E-01  0.65901674345E-01  0.51100000000E-03 0.  1.
         11    1    4    4    0    0  0.30549870058E-01 -0.51074493823E-01  0.31834342425E-01  0.67495073587E-01  0.51100000000E-03 0. -1.
</event>
<event>
 8    1  0.1052028E+005  0.1043930E+01  0.7957747E-01            NaN
         13   -1    0    0    0    0  0.00000000000E+00  0.00000000000E+00  0.74505805969E-08  0.10566000000E+00  0.10566000000E+00 0.  1.
     999900   -1    0    0    0    0 -0.00000000000E+00 -0.00000000000E+00 -0.74505805969E-08  0.93827000000E+00  0.93827000000E+00 0. -1.
     999902    2    1    2    0    0  0.31333482252E-02  0.23121411122E-01 -0.38958012011E-02  0.10202742440E+01  0.10199999697E+01 0.  0.
     999903    2    3    3    0    0 -0.51945213976E-01  0.48858417876E-01  0.10879663825E+00  0.13100733953E+00  0.15516580275E-01 0.  0.
         14    1    1    2    0    0 -0.31333482252E-02 -0.23121411122E-01  0.38958012011E-02  0.23655755967E-01  0.00000000000E+00 0. -1.
     999901    1    3    3    0    0  0.55078562201E-01 -0.25737006754E-01 -0.11269243946E+00  0.88926690450E+00  0.88000000000E+00 0. -1.
        -11    1    4    4    0    0 -0.23781137348E-01  0.20862172784E-01  0.34843372380E-01  0.47064790094E-01  0.51100000000E-03 0. -1.
         11    1    4    4    0    0 -0.28164076628E-01  0.27996245092E-01  0.73953265875E-01  0.83942549438E-01  0.51100000000E-03 0.  1.
</event>
<event>
 8    1  0.1052028E+005  0.1043930E+01  0.7957747E-01            NaN
         13   -1    0    0    0    0  0.00000000000E+00  0.00000000000E+00  0.74505805969E-08  0.10566000000E+00  0.10566000000E+00 0. -1.
     999900   -1    0    0    0    0 -0.00000000000E+00 -0.00000000000E+00 -0.74505805969E-08  0.93827000000E+00  0.93827000000E+00 0. -1.
     999902    2    1    2    0    0  0.30949708607E-02 -0.22995547738E-01 -0.65616641558E-02  0.10198171508E+01  0.10195320454E+01 0.  0.
     999903    2    3    3    0    0  0.63907478784E-01 -0.13980407170E-01 -0.11213641126E+00  0.13137724787E+00  0.20144202592E-01 0.  0.
         14    1    1    2    0    0 -0.30949708607E-02  0.22995547738E-01  0.65616641558E-02  0.24112849207E-01  0.00000000000E+00 0. -1.
     999901    1    3    3    0    0 -0.60812507923E-01 -0.90151405681E-02  0.10557474711E+00  0.88843990292E+00  0.88000000000E+00 0.  1.
        -11    1    4    4    0    0  0.64175779978E-01 -0.13751907701E-01 -0.10245224090E+00  0.12167320366E+00  0.51100000000E-03 0. -1.
         11    1    4    4    0    0 -0.26830119446E-03 -0.22849946907E-03 -0.96841703588E-02  0.97040442124E-02  0.51100000000E-03 0.  1.
</event>
<event>
 8    1  0.1052028E+005  0.1043930E+01  0.7957747E-01            NaN
         13   -1    0    0    0    0  0.00000000000E+00  0.00000000000E+00  0.74505805969E-08  0.10566000000E+00  0.10566000000E+00 0.  1.
     999900   -1    0    0    0    0 -0.00000000000E+00 -0.00000000000E+00 -0.74505805969E-08  0.93827000000E+00  0.93827000000E+00 0.  1.
     999902    2    1    2    0    0 -0.86725810295E-02  0.99711236121E-02  0.19014730863E-01  0.10207740729E+01  0.10205113968E+01 0.  0.
     999903    2    3    3    0    0  0.91795537943E-01 -0.85477744879E-01  0.24749030988E-01  0.12991088950E+00  0.23053394982E-01 0.  0.
         14    1    1    2    0    0  0.86725810295E-02 -0.99711236121E-02 -0.19014730863E-01  0.23155927051E-01  0.00000000000E+00 0. -1.
     999901    1    3    3    0    0 -0.10046811897E+00  0.95448868491E-01 -0.57343001251E-02  0.89086318345E+00  0.88000000000E+00 0. -1.
        -11    1    4    4    0    0  0.51469473865E-01 -0.37060210713E-01  0.20897455869E-01  0.66779718035E-01  0.51100000000E-03 0.  1.
         11    1    4    4    0    0  0.40326064078E-01 -0.48417534166E-01  0.38515751182E-02  0.63131171465E-01  0.51100000000E-03 0. -1.
</event>
<event>
 8    1  0.1052028E+005  0.1043930E+01  0.7957747E-01            NaN
         13   -1    0    0    0    0  0.00000000000E+00  0.00000000000E+00  0.74505805969E-08  0.10566000000E+00  0.10566000000E+00 0. -1.
     999900   -1    0    0    0    0 -0.00000000000E+00 -0.00000000000E+00 -0.74505805969E-08  0.93827000000E+00  0.93827000000E+00 0.  1.
     999902    2    1    2    0    0 -0.12894959010E-01 -0.48763742512E-02  0.19758889727E-01  0.10198369986E+01  0.10195523679E+01 0.  0.
     999903    2    3    3    0    0 -0.90092037780E-01 -0.76549031942E-01 -0.51555557119E-01  0.13069015517E+00  0.21109515063E-01 0.  0.
         14    1    1    2    0    0  0.12894959010E-01  0.48763742512E-02 -0.19758889727E-01  0.24093001411E-01  0.00000000000E+00 0.  1.
     999901    1    3    3    0    0  0.77197078770E-01  0.71672657691E-01  0.71314446847E-01  0.88914684342E+00  0.88000000000E+00 0. -1.
        -11    1    4    4    0    0 -0.24759524621E-01 -0.31034743677E-01 -0.10332495697E-01  0.41026954102E-01  0.51100000000E-03 0.  1.
         11    1    4    4    0    0 -0.65332513159E-01 -0.45514288265E-01 -0.41223061423E-01  0.89663201069E-01  0.51100000000E-03 0. -1.
</event>
<event>
 7    1  0.1052028E+005  0.1043930E+01  0.7957747E-01            NaN
         13   -1    0    0    0    0  0.00000000000E+00  0.00000000000E+00  0.74505805969E-08  0.10566000000E+00  0.10566000000E+00 0. -1.
     999900   -1    0    0    0    0 -0.00000000000E+00 -0.00000000000E+00 -0.74505805969E-08  0.93827000000E+00  0.93827000000E+00 0.  1.
     999903    2    1    2    0    0 -0.46818379188E-01  0.95120589569E-01  0.76929130437E-02  0.10830258386E+00  0.20745639793E-01 0.  0.
         14    1    1    2    0    0 -0.10898314772E-01  0.38888246577E-01  0.15637045830E-01  0.43308038388E-01  0.00000000000E+00 0.  1.
     999901    1    1    2    0    0  0.57716693960E-01 -0.13400883615E+00 -0.23329958874E-01  0.89231937775E+00  0.88000000000E+00 0.  1.
        -11    1    3    3    0    0 -0.31443574532E-01  0.54895970106E-01  0.13948107113E-01  0.64784849512E-01  0.51100000000E-03 0. -1.
         11    1    3    3    0    0 -0.15374804656E-01  0.40224619463E-01 -0.62551940696E-02  0.43517734350E-01  0.51100000000E-03 0.  1.
</event>
<event>
 8    1  0.1052028E+005  0.1043930E+01  0.7957747E-01            NaN
         13   -1    0    0    0    0  0.00000000000E+00  0.00000000000E+00  0.74505805969E-08  0.10566000000E+00  0.10566000000E+00 0. -1.
     999900   -1    0    0    0    0 -0.00000000000E+00 -0.00000000000E+00 -0.74505805969E-08  0.93827000000E+00  0.93827000000E+00 0. -1.
     999902    2    1    2    0    0 -0.14590252476E-01 -0.11325223637E-01 -0.14788345723E-01  0.10202692450E+01  0.10199948534E+01 0.  0.
     999903    2    3    3    0    0 -0.11915550067E+00 -0.41026348578E-01  0.34646870214E-01  0.13220399485E+00  0.19907185167E-01 0.  0.
         14    1    1    2    0    0  0.14590252476E-01  0.11325223637E-01  0.14788345723E-01  0.23660754996E-01  0.00000000000E+00 0. -1.
     999901    1    3    3    0    0  0.10456524820E+00  0.29701124941E-01 -0.49435215937E-01  0.88806525015E+00  0.88000000000E+00 0. -1.
        -11    1    4    4    0    0 -0.85728916655E-01 -0.38729907555E-01  0.25786088412E-01  0.97542997528E-01  0.51100000000E-03 0.  1.
         11    1    4    4    0    0 -0.33426584016E-01 -0.22964410228E-02  0.88607818018E-02  0.34660997324E-01  0.51100000000E-03 0. -1.
</event>
<event>
 8    1  0.1052028E+005  0.1043930E+01  0.7957747E-01            NaN
         13   -1    0    0    0    0  0.00000000000E+00  0.00000000000E+00  0.74505805969E-08  0.10566000000E+00  0.10566000000E+00 0.  1.
     999900   -1    0    0    0    0 -0.00000000000E+00 -0.00000000000E+00 -0.74505805969E-08  0.93827000000E+00  0.93827000000E+00 0. -1.
     999902    2    1    2    0    0  0.63481891584E-02  0.22554047821E-01 -0.66635272692E-02  0.10195704603E+01  0.10192794202E+01 0.  0.
     999903    2    3    3    0    0 -0.31376438276E-01  0.12280321530E+00 -0.33691826097E-01  0.13266371659E+00  0.19985294312E-01 0.  0.
         14    1    1    2    0    0 -0.63481891584E-02 -0.22554047821E-01  0.66635272692E-02  0.24359539699E-01  0.00000000000E+00 0.  1.
     999901    1    3    3    0    0  0.37724627435E-01 -0.10024916748E+00  0.27028298828E-01  0.88690674371E+00  0.88000000000E+00 0. -1.
        -11    1    4    4    0    0 -0.60541885722E-02  0.21719570463E-01 -0.14190689209E-01  0.26646382899E-01  0.51100000000E-03 0. -1.
         11    1    4    4    0    0 -0.25322249704E-01  0.10108364483E+00 -0.19501136888E-01  0.10601733370E+00  0.51100000000E-03 0.  1.
</event>
<event>
 8    1  0.1052028E+005  0.1043930E+01  0.7957747E-01            NaN
         13   -1    0    0    0    0  0.00000000000E+00  0.00000000000E+00  0.74505805969E-08  0.10566000000E+00  0.10566000000E+00 0.  1.
     999900   -1    0    0    0    0 -0.00000000000E+00 -0.00000000000E+00 -0.74505805969E-08  0.93827000000E+00  0.93827000000E+00 0. -1.
     999902    2    1    2    0    0  0.10919188296E-01 -0.19679397225E-01 -0.89537076033E-02  0.10197085998E+01  0.10194208906E+01 0.  0.
     999903    2    3    3    0    0 -0.53743908400E-01  0.19279210883E-02 -0.11717752606E+00  0.13046139729E+00  0.19936875351E-01 0.  0.
         14    1    1    2    0    0 -0.10919188296E-01  0.19679397225E-01  0.89537076033E-02  0.24221400208E-01  0.00000000000E+00 0.  1.
     999901    1    3    3    0    0  0.64663096697E-01 -0.21607318313E-01  0.10822381846E+00  0.88924720250E+00  0.88000000000E+00 0.  1.
        -11    1    4    4    0    0 -0.29085800173E-01  0.73896683649E-02 -0.80615713754E-01  0.86021772798E-01  0.51100000000E-03 0.  1.
         11    1    4    4    0    0 -0.24658108228E-01 -0.54617472766E-02 -0.36561812307E-01  0.44439624491E-01  0.51100000000E-03 0. -1.
</event>
<event>
 8    1  0.1052028E+005  0.1043930E+01  0.7957747E-01            NaN
         13   -1    0    0    0    0  0.00000000000E+00  0.00000000000E+00  0.74505805969E-08  0.10566000000E+00  0.10566000000E+00 0. -1.
     999900   -1    0    0    0    0 -0.00000000000E+00 -0.00000000000E+00 -0.74505805969E-08  0.93827000000E+00  0.93827000000E+00 0. -1.
     999902    2    1    2    0    0  0.87476972123E-03  0.24558288062E-01  0.20634144214E-01  0.10118419548E+01  0.10113330307E+01 0.  0.
     999903    2    3    3    0    0 -0.10457949689E+00 -0.10707625666E-01  0.62155140402E-01  0.12387332919E+00  0.20731999164E-01 0.  0.
         14    1    1    2    0    0 -0.87476972123E-03 -0.24558288062E-01 -0.20634144214E-01  0.32088045157E-01  0.00000000000E+00 0.  1.
     999901    1    3    3    0    0  0.10545426661E+00  0.35265913727E-01 -0.41520996188E-01  0.88796862565E+00  0.88000000000E+00 0.  1.
        -11    1    4    4    0    0 -0.27547869339E-01  0.44163235211E-03  0.26603408184E-01  0.38302514177E-01  0.51100000000E-03 0. -1.
         11    1    4    4    0    0 -0.77031627551E-01 -0.11149258018E-01  0.35551732218E-01  0.85570815014E-01  0.51100000000E-03 0.  1.
</event>
<event>
 8    1  0.1052028E+005  0.1043930E+01  0.7957747E-01            NaN
         13   -1    0    0    0    0  0.00000000000E+00  0.00000000000E+00  0.74505805969E-08  0.10566000000E+00  0.10566000000E+00 0. -1.
     999900   -1    0    0    0    0 -0.00000000000E+00 -0.00000000000E+00 -0.74505805969E-08  0.93827000000E+00  0.93827000000E+00 0. -1.
     999902    2    1    2    0    0  0.15871184858E-01  0.22316999413E-02  0.16072013143E-01  0.10212323217E+01  0.10209800538E+01 0.  0.
     999903    2    3    3    0    0  0.38487837533E-01  0.12473949425E+00  0.93169385038E-02  0.13243239840E+00  0.20255363210E-01 0.  0.
         14    1    1    2    0    0 -0.15871184858E-01 -0.22316999413E-02 -0.16072013143E-01  0.22697678293E-01  0.00000000000E+00 0.  1.
     999901    1    3    3    0    0 -0.22616652675E-01 -0.12250779431E+00  0.67550746390E-02  0.88879992331E+00  0.88000000000E+00 0. -1.
        -11    1    4    4    0    0  0.12821084801E-01  0.41098458890E-01  0.12656398680E-01  0.44876598436E-01  0.51100000000E-03 0. -1.
         11    1    4    4    0    0  0.25666752732E-01  0.83641035357E-01 -0.33394601758E-02  0.87555799960E-01  0.51100000000E-03 0.  1.
</event>
<event>
 8    1  0.1052028E+005  0.1043930E+01  0.7957747E-01            NaN
         13   -1    0    0    0    0  0.00000000000E+00  0.00000000000E+00  0.74505805969E-08  0.10566000000E+00  0.10566000000E+00 0.  1.
     999900   -1    0    0    0    0 -0.00000000000E+00 -0.00000000000E+00 -0.74505805969E-08  0.93827000000E+00  0.93827000000E+00 0.  1.
     999902    2    1    2    0    0  0.18203796280E-01  0.16110200094E-01  0.62210031056E-02  0.10188378174E+01  0.10185287824E+01 0.  0.
     999903    2    3    3    0    0  0.11516880507E+00  0.26361616975E-01  0.55600112303E-01  0.13207651872E+00  0.19850586833E-01 0.  0.
         14    1    1    2    0    0 -0.18203796280E-01 -0.16110200094E-01 -0.62210031056E-02  0.25092182561E-01  0.00000000000E+00 0. -1.
     999901    1    3    3    0    0 -0.96965008794E-01 -0.10251416881E-01 -0.49379109197E-01  0.88676129872E+00  0.88000000000E+00 0.  1.
        -11    1    4    4    0    0  0.62444322139E-01  0.23698553366E-01  0.34989066407E-01  0.75401662370E-01  0.51100000000E-03 0. -1.
         11    1    4    4    0    0  0.52724482934E-01  0.26630636093E-02  0.20611045896E-01  0.56674856351E-01  0.51100000000E-03 0.  1.
</event>
<event>
 8    1  0.1052028E+005  0.1043930E+01  0.7957747E-01            NaN
         13   -1    0    0    0    0  0.00000000000E+00  0.00000000000E+00  0.74505805969E-08  0.10566000000E+00  0.10566000000E+00 0. -1.
     999900   -1    0    0    0    0 -0.00000000000E+00 -0.00000000000E+00 -0.74505805969E-08  0.93827000000E+00  0.93827000000E+00 0. -1.
     999902    2    1    2    0    0  0.74300368617E-02 -0.18717744807E-01 -0.10452964405E-01  0.10212402692E+01  0.10209881799E+01 0.  0.
     999903    2    3    3    0    0  0.48208929727E-01  0.11096221735E+00  0.41283623742E-01  0.12930053737E+00  0.19431335273E-01 0.  0.
         14    1    1    2    0    0 -0.74300368617E-02  0.18717744807E-01  0.10452964405E-01  0.22689730789E-01  0.00000000000E+00 0.  1.
     999901    1    3    3    0    0 -0.40778892865E-01 -0.12967996215E+00 -0.51736588147E-01  0.89193973184E+00  0.88000000000E+00 0. -1.
        -11    1    4    4    0    0  0.14028739209E-01  0.56419128493E-01  0.18328583198E-01  0.60960000547E-01  0.51100000000E-03 0. -1.
         11    1    4    4    0    0  0.34180190518E-01  0.54543088853E-01  0.22955040544E-01  0.68340536820E-01  0.51100000000E-03 0.  1.
</event>
<event>
 8    1  0.1052028E+005  0.1043930E+01  0.7957747E-01            NaN
         13   -1    0    0    0    0  0.00000000000E+00  0.00000000000E+00  0.74505805969E-08  0.10566000000E+00  0.10566000000E+00 0. -1.
     999900   -1    0    0    0    0 -0.00000000000E+00 -0.00000000000E+00 -0.74505805969E-08  0.93827000000E+00  0.93827000000E+00 0.  1.
     999902    2    1    2    0    0 -0.30207710498E-03  0.22581560518E-01 -0.84024489890E-02  0.10198339573E+01  0.10195492539E+01 0.  0.
     999903    2    3    3    0    0  0.94407373789E-02 -0.11915598245E+00 -0.40773887293E-01  0.12785169089E+00  0.19906514111E-01 0.  0.
         14    1    1    2    0    0  0.30207710498E-03 -0.22581560518E-01  0.84024489890E-02  0.24096042725E-01  0.00000000000E+00 0. -1.
     999901    1    3    3    0    0 -0.97428144839E-02  0.14173754297E+00  0.32371438304E-01  0.89198226638E+00  0.88000000000E+00 0. -1.
        -11    1    4    4    0    0  0.12439928987E-01 -0.83527235600E-01 -0.35894945602E-01  0.91761970124E-01  0.51100000000E-03 0.  1.
         11    1    4    4    0    0 -0.29991916085E-02 -0.35628746847E-01 -0.48789416910E-02  0.36089720770E-01  0.51100000000E-03 0. -1.
</event>
<event>
 8    1  0.1276656E+005  0.1043930E+01  0.7957747E-01            NaN
         13   -1    0    0    0    0  0.00000000000E+00  0.00000000000E+00  0.74505805969E-08  0.10566000000E+00  0.10566000000E+00 0.  1.
     999900   -1    0    0    0    0 -0.00000000000E+00 -0.00000000000E+00 -0.74505805969E-08  0.93827000000E+00  0.93827000000E+00 0.  1.
     999902    2    1    2    0    0 -0.22838043004E-01 -0.39913940510E-02 -0.28593009786E-02  0.10205701405E+01  0.10203027632E+01 0.  0.
     999903    2    3    3    0    0  0.44203587329E-01 -0.55391236600E-01  0.10684782731E+00  0.12974345812E+00  0.19868580672E-01 0.  0.
         14    1    1    2    0    0  0.22838043004E-01  0.39913940510E-02  0.28593009786E-02  0.23359859521E-01  0.00000000000E+00 0. -1.
     999901    1    3    3    0    0 -0.67041630334E-01  0.51399842549E-01 -0.10970712829E+00  0.89082668236E+00  0.88000000000E+00 0.  1.
        -11    1    4    4    0    0  0.12815457308E-01 -0.24117700577E-01  0.55931596157E-01  0.62245513869E-01  0.51100000000E-03 0. -1.
         11    1    4    4    0    0  0.31388130022E-01 -0.31273536023E-01  0.50916231155E-01  0.67497944247E-01  0.51100000000E-03 0.  1.
</event>
<event>
 8    1  0.1052028E+005  0.1043930E+01  0.7957747E-01            NaN
         13   -1    0    0    0    0  0.00000000000E+00  0.00000000000E+00  0.74505805969E-08  0.10566000000E+00  0.10566000000E+00 0.  1.
     999900   -1    0    0    0    0 -0.00000000000E+00 -0.00000000000E+00 -0.74505805969E-08  0.93827000000E+00  0.93827000000E+00 0.  1.
     999902    2    1    2    0    0  0.10310968165E-01 -0.19996517327E-01  0.77580470478E-02  0.10201315954E+01  0.10198539639E+01 0.  0.
     999903    2    3    3    0    0  0.85536020985E-01 -0.23943573042E-01 -0.93986058415E-01  0.13107240114E+00  0.21374975744E-01 0.  0.
         14    1    1    2    0    0 -0.10310968165E-01  0.19996517327E-01 -0.77580470478E-02  0.23798404647E-01  0.00000000000E+00 0.  1.
     999901    1    3    3    0    0 -0.75225052819E-01  0.39470557150E-02  0.10174410546E+00  0.88905919421E+00  0.88000000000E+00 0. -1.
        -11    1    4    4    0    0  0.68008301549E-01 -0.16907888322E-01 -0.60311283384E-01  0.92459276395E-01  0.51100000000E-03 0.  1.
         11    1    4    4    0    0  0.17527719436E-01 -0.70356847200E-02 -0.33674775031E-01  0.38613124744E-01  0.51100000000E-03 0. -1.
</event>
<event>
 8    1  0.1052028E+005  0.1043930E+01  0.7957747E-01            NaN
         13   -1    0    0    0    0  0.00000000000E+00  0.00000000000E+00  0.74505805969E-08  0.10566000000E+00  0.10566000000E+00 0. -1.
     999900   -1    0    0    0    0 -0.00000000000E+00 -0.00000000000E+00 -0.74505805969E-08  0.93827000000E+00  0.93827000000E+00 0. -1.
     999902    2    1    2    0    0 -0.16468956928E-01  0.11211906776E-01 -0.11253723215E-01  0.10210481364E+01  0.10207917110E+01 0.  0.
     999903    2    3    3    0    0 -0.13144024103E+00 -0.55371635046E-02 -0.94584571108E-02  0.13340961171E+00  0.20036590150E-01 0.  0.
         14    1    1    2    0    0  0.16468956928E-01 -0.11211906776E-01  0.11253723215E-01  0.22881863605E-01  0.00000000000E+00 0.  1.
     999901    1    3    3    0    0  0.11497128410E+00  0.16749070280E-01 -0.17952661042E-02  0.88763852468E+00  0.88000000000E+00 0. -1.
        -11    1    4    4    0    0 -0.59783418917E-01  0.25210086921E-02 -0.12914709473E-01  0.61216529664E-01  0.51100000000E-03 0. -1.
         11    1    4    4    0    0 -0.71656822110E-01 -0.80581721966E-02  0.34562523623E-02  0.72193082047E-01  0.51100000000E-03 0.  1.
</event>
<event>
 8    1  0.1052028E+005  0.1043930E+01  0.7957747E-01            NaN
         13   -1    0    0    0    0  0.00000000000E+00  0.00000000000E+00  0.74505805969E-08  0.10566000000E+00  0.10566000000E+00 0.  1.
     999900   -1    0    0    0    0 -0.00000000000E+00 -0.00000000000E+00 -0.74505805969E-08  0.93827000000E+00  0.93827000000E+00 0.  1.
     999902    2    1    2    0    0 -0.11590371254E-01 -0.19835651422E-01  0.58012682197E-02  0.10202351802E+01  0.10199599886E+01 0.  0.
     999903    2    3    3    0    0  0.12168113394E+00 -0.32817445107E-01  0.24043378473E-01  0.12991917131E+00  0.20435850055E-01 0.  0.
         14    1    1    2    0    0  0.11590371254E-01  0.19835651422E-01 -0.58012682197E-02  0.23694819816E-01  0.00000000000E+00 0. -1.
     999901    1    3    3    0    0 -0.13327150519E+00  0.12981793685E-01 -0.18242110253E-01  0.89031600887E+00  0.88000000000E+00 0. -1.
        -11    1    4    4    0    0  0.10569437024E+00 -0.29381194486E-01  0.13679699311E-01  0.11055292752E+00  0.51100000000E-03 0. -1.
         11    1    4    4    0    0  0.15986763694E-01 -0.34362506215E-02  0.10363679162E-01  0.19366243790E-01  0.51100000000E-03 0.  1.
</event>
<event>
 8    1  0.1052028E+005  0.1043930E+01  0.7957747E-01            NaN
         13   -1    0    0    0    0  0.00000000000E+00  0.00000000000E+00  0.74505805969E-08  0.10566000000E+00  0.10566000000E+00 0. -1.
     999900   -1    0    0    0    0 -0.00000000000E+00 -0.00000000000E+00 -0.74505805969E-08  0.93827000000E+00  0.93827000000E+00 0.  1.
     999902    2    1    2    0    0  0.21918326048E-01  0.12990118388E-01 -0.35427332188E-02  0.10182063309E+01  0.10178813414E+01 0.  0.
     999903    2    3    3    0    0  0.72409012417E-01  0.90943477106E-01  0.56816582271E-01  0.13126254323E+00  0.22089593192E-01 0.  0.
         14    1    1    2    0    0 -0.21918326048E-01 -0.12990118388E-01  0.35427332188E-02  0.25723669084E-01  0.00000000000E+00 0. -1.
     999901    1    3    3    0    0 -0.50490686368E-01 -0.77953358718E-01 -0.60359315490E-01  0.88694378768E+00  0.88000000000E+00 0.  1.
        -11    1    4    4    0    0  0.60413936441E-01  0.65852217820E-01  0.35262740614E-01  0.96073306931E-01  0.51100000000E-03 0. -1.
         11    1    4    4    0    0  0.11995075975E-01  0.25091259286E-01  0.21553841657E-01  0.35189236300E-01  0.51100000000E-03 0.  1.
</event>
<event>
 8    1  0.1052028E+005  0.1043930E+01  0.7957747E-01            NaN
         13   -1    0    0    0    0  0.00000000000E+00  0.00000000000E+00  0.74505805969E-08  0.10566000000E+00  0.10566000000E+00 0. -1.
     999900   -1    0    0    0    0 -0.00000000000E+00 -0.00000000000E+00 -0.74505805969E-08  0.93827000000E+00  0.93827000000E+00 0.  1.
     999902    2    1    2    0    0 -0.10383186722E-01  0.20384631875E-01  0.23391549772E-02  0.10209340128E+01  0.10206749938E+01 0.  0.
     999903    2    3    3    0    0 -0.10391491786E+00  0.28843826714E-01  0.75408302985E-01  0.13292565520E+00  0.18776079391E-01 0.  0.
         14    1    1    2    0    0  0.10383186722E-01 -0.20384631875E-01 -0.23391549772E-02  0.22995987241E-01  0.00000000000E+00 0.  1.
     999901    1    3    3    0    0  0.93531731139E-01 -0.84591948396E-02 -0.73069148008E-01  0.88800835756E+00  0.88000000000E+00 0. -1.
        -11    1    4    4    0    0 -0.28420674630E-01  0.16789065424E-01  0.22938485737E-01  0.40200033745E-01  0.51100000000E-03 0. -1.
         11    1    4    4    0    0 -0.75494243231E-01  0.12054761290E-01  0.52469817248E-01  0.92725621453E-01  0.51100000000E-03 0.  1.
</event>
<event>
 8    1  0.1052028E+005  0.1043930E+01  0.7957747E-01            NaN
         13   -1    0    0    0    0  0.00000000000E+00  0.00000000000E+00  0.74505805969E-08  0.10566000000E+00  0.10566000000E+00 0.  1.
     999900   -1    0    0    0    0 -0.00000000000E+00 -0.00000000000E+00 -0.74505805969E-08  0.93827000000E+00  0.93827000000E+00 0.  1.
     999902    2    1    2    0    0 -0.23731320409E-02 -0.21068470330E-01 -0.95787742097E-02  0.10206648949E+01  0.10203997073E+01 0.  0.
     999903    2    3    3    0    0  0.54881557277E-01  0.82497506108E-01  0.79198466710E-01  0.12831663926E+00  0.19363340060E-01 0.  0.
         14    1    1    2    0    0  0.23731320409E-02  0.21068470330E-01  0.95787742097E-02  0.23265105052E-01  0.00000000000E+00 0. -1.
     999901    1    3    3    0    0 -0.57254689318E-01 -0.10356597644E+00 -0.88777240920E-01  0.89234825569E+00  0.88000000000E+00 0.  1.
        -11    1    4    4    0    0  0.52190869191E-02  0.14432492178E-01  0.20563140049E-01  0.25663973746E-01  0.51100000000E-03 0.  1.
         11    1    4    4    0    0  0.49662470358E-01  0.68065013930E-01  0.58635326661E-01  0.10265266551E+00  0.51100000000E-03 0. -1.
</event>
<event>
 8    1  0.1052028E+005  0.1043930E+01  0.7957747E-01            NaN
         13   -1    0    0    0    0  0.00000000000E+00  0.00000000000E+00  0.74505805969E-08  0.10566000000E+00  0.10566000000E+00 0.  1.
     999900   -1    0    0    0    0 -0.00000000000E+00 -0.00000000000E+00 -0.74505805969E-08  0.93827000000E+00  0.93827000000E+00 0.  1.
     999902    2    1    2    0    0 -0.15762300971E-01  0.17052893861E-01  0.36894561310E-02  0.10204169524E+01  0.10201460157E+01 0.  0.
     999903    2    3    3    0    0  0.26560134778E-01 -0.12325151016E+00 -0.10364435783E-01  0.12818714667E+00  0.20691726056E-01 0.  0.
         14    1    1    2    0    0  0.15762300971E-01 -0.17052893861E-01 -0.36894561310E-02  0.23513047601E-01  0.00000000000E+00 0. -1.
     999901    1    3    3    0    0 -0.42322435749E-01  0.14030440402E+00  0.14053891914E-01  0.89222980573E+00  0.88000000000E+00 0.  1.
        -11    1    4    4    0    0  0.38923600717E-02 -0.63585106331E-01 -0.13160333893E-02  0.63719771491E-01  0.51100000000E-03 0.  1.
         11    1    4    4    0    0  0.22667774706E-01 -0.59666403824E-01 -0.90484023933E-02  0.64467375178E-01  0.51100000000E-03 0. -1.
</event>
<event>
 8    1  0.1052028E+005  0.1043930E+01  0.7957747E-01            NaN
         13   -1    0    0    0    0  0.00000000000E+00  0.00000000000E+00  0.74505805969E-08  0.10566000000E+00  0.10566000000E+00 0.  1.
     999900   -1    0    0    0    0 -0.00000000000E+00 -0.00000000000E+00 -0.74505805969E-08  0.93827000000E+00  0.93827000000E+00 0. -1.
     999902    2    1    2    0    0  0.12294896104E-01 -0.10535255084E-01  0.16462052864E-01  0.10208398451E+01  0.10205786761E+01 0.  0.
     999903    2    3    3    0    0 -0.78353711772E-01 -0.45730538657E-01 -0.89765660390E-01  0.12913350039E+00  0.19672336486E-01 0.  0.
         14    1    1    2    0    0 -0.12294896104E-01  0.10535255084E-01 -0.16462052864E-01  0.23090154923E-01  0.00000000000E+00 0. -1.
     999901    1    3    3    0    0  0.90648607876E-01  0.35195283572E-01  0.10622771325E+00  0.89170634469E+00  0.88000000000E+00 0.  1.
        -11    1    4    4    0    0 -0.27446783908E-01 -0.27165161746E-01 -0.38729414947E-01  0.54694612739E-01  0.51100000000E-03 0. -1.
         11    1    4    4    0    0 -0.50906927864E-01 -0.18565376911E-01 -0.51036245443E-01  0.74438887649E-01  0.51100000000E-03 0.  1.
</event>
<event>
 8    1  0.1052028E+005  0.1043930E+01  0.7957747E-01            NaN
         13   -1    0    0    0    0  0.00000000000E+00  0.00000000000E+00  0.74505805969E-08  0.10566000000E+00  0.10566000000E+00 0. -1.
     999900   -1    0    0    0    0 -0.00000000000E+00 -0.00000000000E+00 -0.74505805969E-08  0.93827000000E+00  0.93827000000E+00 0.  1.
     999902    2    1    2    0    0  0.11925451074E-01  0.61212297992E-02  0.20432411597E-01  0.10194929527E+01  0.10192000350E+01 0.  0.
     999903    2    3    3    0    0  0.11675073004E+00 -0.39519976754E-01 -0.36521549024E-01  0.13027126353E+00  0.21076456755E-01 0.  0.
         14    1    1    2    0    0 -0.11925451074E-01 -0.61212297992E-02 -0.20432411597E-01  0.24437047310E-01  0.00000000000E+00 0.  1.
     999901    1    3    3    0    0 -0.10482527897E+00  0.45641206553E-01  0.56953960621E-01  0.88922168916E+00  0.88000000000E+00 0. -1.
        -11    1    4    4    0    0  0.33960570323E-01 -0.18285061274E-01 -0.19095187850E-01  0.43041272315E-01  0.51100000000E-03 0. -1.
         11    1    4    4    0    0  0.82790159721E-01 -0.21234915479E-01 -0.17426361174E-01  0.87229991212E-01  0.51100000000E-03 0.  1.
</event>
<event>
 8    1  0.1052028E+005  0.1043930E+01  0.7957747E-01            NaN
         13   -1    0    0    0    0  0.00000000000E+00  0.00000000000E+00  0.74505805969E-08  0.10566000000E+00  0.10566000000E+00 0.  1.
     999900   -1    0    0    0    0 -0.00000000000E+00 -0.00000000000E+00 -0.74505805969E-08  0.93827000000E+00  0.93827000000E+00 0.  1.
     999902    2    1    2    0    0 -0.13757455976E-01  0.74276039160E-03  0.18037485742E-01  0.10212326394E+01  0.10209803786E+01 0.  0.
     999903    2    3    3    0    0 -0.11660419597E+00  0.42685551569E-02 -0.60270782152E-01  0.13178220906E+00  0.10918990902E-01 0.  0.
         14    1    1    2    0    0  0.13757455976E-01 -0.74276039160E-03 -0.18037485742E-01  0.22697360636E-01  0.00000000000E+00 0. -1.
     999901    1    3    3    0    0  0.10284673999E+00 -0.35257947653E-02  0.78308267894E-01  0.88945043031E+00  0.88000000000E+00 0. -1.
        -11    1    4    4    0    0 -0.89896487519E-01 -0.56597716864E-03 -0.49027010685E-01  0.10239925633E+00  0.51100000000E-03 0. -1.
         11    1    4    4    0    0 -0.26707708447E-01  0.48345323255E-02 -0.11243771467E-01  0.29382952730E-01  0.51100000000E-03 0.  1.
</event>
<event>
 7    1  0.1052028E+005  0.1043930E+01  0.7957747E-01            NaN
         13   -1    0    0    0    0  0.00000000000E+00  0.00000000000E+00  0.74505805969E-08  0.10566000000E+00  0.10566000000E+00 0. -1.
     999900   -1    0    0    0    0 -0.00000000000E+00 -0.00000000000E+00 -0.74505805969E-08  0.93827000000E+00  0.93827000000E+00 0.  1.
     999902    2    1    2    0    0  0.12132160203E-01  0.38302502528E-02 -0.20065366218E-01  0.10201712322E+01  0.10198945357E+01 0.  0.
         14    1    1    2    0    0 -0.12132160203E-01 -0.38302502528E-02  0.20065366218E-01  0.23758767848E-01  0.00000000000E+00 0. -1.
     999901    1    3    3    0    0  0.84826626607E-02  0.10407111619E+00  0.48913025537E-01  0.88752196415E+00  0.88000000000E+00 0. -1.
        -11    1    3    3    0    0 -0.13692632708E-01 -0.88336080863E-01 -0.66598927046E-01  0.11147389639E+00  0.51100000000E-03 0. -1.
         11    1    3    3    0    0  0.17342130251E-01 -0.11904785072E-01 -0.23794647087E-02  0.21175371603E-01  0.51100000000E-03 0.  1.
</event>
<event>
 8    1  0.1052028E+005  0.1043930E+01  0.7957747E-01            NaN
         13   -1    0    0    0    0  0.00000000000E+00  0.00000000000E+00  0.74505805969E-08  0.10566000000E+00  0.10566000000E+00 0.  1.
     999900   -1    0    0    0    0 -0.00000000000E+00 -0.00000000000E+00 -0.74505805969E-08  0.93827000000E+00  0.93827000000E+00 0. -1.
     999902    2    1    2    0    0 -0.12167049648E-01  0.13793304655E-01 -0.14287844767E-01  0.10206397690E+01  0.10203740017E+01 0.  0.
     999903    2    3    3    0    0 -0.41208164090E-01 -0.32409378645E-01 -0.12015088966E+00  0.13261665078E+00  0.20061384948E-01 0.  0.
         14    1    1    2    0    0  0.12167049648E-01 -0.13793304655E-01  0.14287844767E-01  0.23290230967E-01  0.00000000000E+00 0.  1.
     999901    1    3    3    0    0  0.29041114442E-01  0.46202683300E-01  0.10586304490E+00  0.88802311825E+00  0.88000000000E+00 0.  1.
        -11    1    4    4    0    0 -0.21855464346E-01 -0.29146802023E-01 -0.74957421758E-01  0.83343107619E-01  0.51100000000E-03 0.  1.
         11    1    4    4    0    0 -0.19352699744E-01 -0.32625766221E-02 -0.45193467905E-01  0.49273543164E-01  0.51100000000E-03 0. -1.
</event>
<event>
 8    1  0.1052028E+005  0.1043930E+01  0.7957747E-01            NaN
         13   -1    0    0    0    0  0.00000000000E+00  0.00000000000E+00  0.74505805969E-08  0.10566000000E+00  0.10566000000E+00 0. -1.
     999900   -1    0    0    0    0 -0.00000000000E+00 -0.00000000000E+00 -0.74505805969E-08  0.93827000000E+00  0.93827000000E+00 0.  1.
     999902    2    1    2    0    0  0.11892690592E-01 -0.18136664912E-01 -0.67721746956E-02  0.10212091494E+01  0.10209563603E+01 0.  0.
     999903    2    3    3    0    0  0.10390250850E+00  0.58695561501E-01 -0.52281786651E-01  0.13191722744E+00  0.20685005903E-01 0.  0.
         14    1    1    2    0    0 -0.11892690592E-01  0.18136664912E-01  0.67721746956E-02  0.22720850639E-01  0.00000000000E+00 0. -1.
     999901    1    3    3    0    0 -0.92009817905E-01 -0.76832226412E-01  0.45509611955E-01  0.88929192192E+00  0.88000000000E+00 0.  1.
        -11    1    4    4    0    0  0.48384832182E-01  0.24498616292E-01 -0.12928147617E-01  0.55755468856E-01  0.51100000000E-03 0. -1.
         11    1    4    4    0    0  0.55517676316E-01  0.34196945208E-01 -0.39353639034E-01  0.76161758589E-01  0.51100000000E-03 0.  1.
</event>
<event>
 8    1  0.1052028E+005  0.1043930E+01  0.7957747E-01            NaN
         13   -1    0    0    0    0  0.00000000000E+00  0.00000000000E+00  0.74505805969E-08  0.10566000000E+00  0.10566000000E+00 0.  1.
     999900   -1    0    0    0    0 -0.00000000000E+00 -0.00000000000E+00 -0.74505805969E-08  0.93827000000E+00  0.93827000000E+00 0. -1.
     999902    2    1    2    0    0  0.96977469236E-02 -0.73638683377E-02  0.21930353802E-01  0.10188458761E+01  0.10185370421E+01 0.  0.
     999903    2    3    3    0    0  0.28681663470E-01 -0.10697718952E+00  0.68696023278E-01  0.13178881445E+00  0.19554822997E-01 0.  0.
         14    1    1    2    0    0 -0.96977469236E-02  0.73638683377E-02 -0.21930353802E-01  0.25084123867E-01  0.00000000000E+00 0. -1.
     999901    1    3    3    0    0 -0.18983916546E-01  0.99613321182E-01 -0.46765669476E-01  0.88705706169E+00  0.88000000000E+00 0. -1.
        -11    1    4    4    0    0  0.15648302077E-01 -0.82335876214E-01  0.44604563355E-01  0.94941529706E-01  0.51100000000E-03 0.  1.
         11    1    4    4    0    0  0.13033361393E-01 -0.24641313306E-01  0.24091459923E-01  0.36847284742E-01  0.51100000000E-03 0. -1.
</event>
<event>
 8    1  0.1052028E+005  0.1043930E+01  0.7957747E-01            NaN
         13   -1    0    0    0    0  0.00000000000E+00  0.00000000000E+00  0.74505805969E-08  0.10566000000E+00  0.10566000000E+00 0.  1.
     999900   -1    0    0    0    0 -0.00000000000E+00 -0.00000000000E+00 -0.74505805969E-08  0.93827000000E+00  0.93827000000E+00 0. -1.
     999902    2    1    2    0    0 -0.21576331830E-01 -0.43293310711E-02 -0.10691061932E-01  0.10194641052E+01  0.10191704871E+01 0.  0.
     999903    2    3    3    0    0  0.26175753700E-01 -0.12490283565E+00 -0.14787826695E-01  0.12995018448E+00  0.19557151971E-01 0.  0.
         14    1    1    2    0    0  0.21576331830E-01  0.43293310711E-02  0.10691061932E-01  0.24465894792E-01  0.00000000000E+00 0.  1.
     999901    1    3    3    0    0 -0.47752085530E-01  0.12057350458E+00  0.40967647627E-02  0.88951392072E+00  0.88000000000E+00 0. -1.
        -11    1    4    4    0    0  0.24912137238E-02 -0.25113765201E-01 -0.10379604001E-01  0.27292941370E-01  0.51100000000E-03 0.  1.
         11    1    4    4    0    0  0.23684539976E-01 -0.99789070452E-01 -0.44082226933E-02  0.10265724311E+00  0.51100000000E-03 0. -1.
</event>
<event>
 8    1  0.1052028E+005  0.1043930E+01  0.7957747E-01            NaN
         13   -1    0    0    0    0  0.00000000000E+00  0.00000000000E+00  0.74505805969E-08  0.10566000000E+00  0.10566000000E+00 0. -1.
     999900   -1    0    0    0    0 -0.00000000000E+00 -0.00000000000E+00 -0.74505805969E-08  0.93827000000E+00  0.93827000000E+00 0. -1.
     999902    2    1    2    0    0  0.14982357397E-01 -0.24902253399E-02 -0.18411159176E-01  0.10200628042E+01  0.10197835463E+01 0.  0.
     999903    2    3    3    0    0  0.65718243586E-01  0.10487697400E+00  0.35427186810E-01  0.13045591730E+00  0.21109087565E-01 0.  0.
         14    1    1    2    0    0 -0.14982357397E-01  0.24902253399E-02  0.18411159176E-01  0.23867195847E-01  0.00000000000E+00 0. -1.
     999901    1    3    3    0    0 -0.50735886189E-01 -0.10736719934E+00 -0.53838345986E-01  0.88960688685E+00  0.88000000000E+00 0.  1.
        -11    1    4    4    0    0  0.22643621966E-01  0.19527941007E-01  0.69781420157E-02  0.30708788363E-01  0.51100000000E-03 0.  1.
         11    1    4    4    0    0  0.43074621620E-01  0.85349032991E-01  0.28449044795E-01  0.99747128936E-01  0.51100000000E-03 0. -1.
</event>
<event>
 8    1  0.1052028E+005  0.1043930E+01  0.7957747E-01            NaN
         13   -1    0    0    0    0  0.00000000000E+00  0.00000000000E+00  0.74505805969E-08  0.10566000000E+00  0.10566000000E+00 0.  1.
     999900   -1    0    0    0    0 -0.00000000000E+00 -0.00000000000E+00 -0.74505805969E-08  0.93827000000E+00  0.93827000000E+00 0.  1.
     999902    2    1    2    0    0 -0.80275002521E-02 -0.80112480537E-02 -0.20502778237E-01  0.10204995760E+01  0.10202305621E+01 0.  0.
     999903    2    3    3    0    0 -0.70151025502E-01  0.78333736039E-01  0.72146937578E-01  0.12926517440E+00  0.21141526193E-01 0.  0.
         14    1    1    2    0    0  0.80275002521E-02  0.80112480537E-02  0.20502778237E-01  0.23430424049E-01  0.00000000000E+00 0.  1.
     999901    1    3    3    0    0  0.62123525250E-01 -0.86344984093E-01 -0.92649715815E-01  0.89123440155E+00  0.88000000000E+00 0.  1.
        -11    1    4    4    0    0 -0.39641205451E-01  0.28663533972E-01  0.34734547430E-01  0.59998110433E-01  0.51100000000E-03 0.  1.
         11    1    4    4    0    0 -0.30509820052E-01  0.49670202067E-01  0.37412390148E-01  0.69267063967E-01  0.51100000000E-03 0. -1.
</event>
<event>
 8    1  0.1052028E+005  0.1043930E+01  0.7957747E-01            NaN
         13   -1    0    0    0    0  0.00000000000E+00  0.00000000000E+00  0.74505805969E-08  0.10566000000E+00  0.10566000000E+00 0. -1.
     999900   -1    0    0    0    0 -0.00000000000E+00 -0.00000000000E+00 -0.74505805969E-08  0.93827000000E+00  0.93827000000E+00 0. -1.
     999902    2    1    2    0    0 -0.11896788554E-01  0.12484039881E-01  0.15254373145E-01  0.10209065179E+01  0.10206468721E+01 0.  0.
     999903    2    3    3    0    0 -0.75738969812E-01 -0.99178820899E-01  0.35503947865E-01  0.13132545699E+00  0.20322777294E-01 0.  0.
         14    1    1    2    0    0  0.11896788554E-01 -0.12484039881E-01 -0.15254373145E-01  0.23023482137E-01  0.00000000000E+00 0.  1.
     999901    1    3    3    0    0  0.63842181258E-01  0.11166286078E+00 -0.20249574721E-01  0.88958106087E+00  0.88000000000E+00 0. -1.
        -11    1    4    4    0    0 -0.48101877261E-01 -0.46312117327E-01  0.18269693905E-01  0.69228936463E-01  0.51100000000E-03 0.  1.
         11    1    4    4    0    0 -0.27637092551E-01 -0.52866703572E-01  0.17234253961E-01  0.62096520529E-01  0.51100000000E-03 0. -1.
</event>
<event>
 8    1  0.1052028E+005  0.1043930E+01  0.7957747E-01            NaN
         13   -1    0    0    0    0  0.00000000000E+00  0.00000000000E+00  0.74505805969E-08  0.10566000000E+00  0.10566000000E+00 0.  1.
     999900   -1    0    0    0    0 -0.00000000000E+00 -0.00000000000E+00 -0.74505805969E-08  0.93827000000E+00  0.93827000000E+00 0.  1.
     999902    2    1    2    0    0 -0.97858934341E-02  0.16527798727E-02 -0.20808289004E-01  0.10208761439E+01  0.10206158047E+01 0.  0.
     999903    2    3    3    0    0  0.10242734922E+00  0.72731134072E-01  0.25748717815E-01  0.12969069787E+00  0.19377845962E-01 0.  0.
         14    1    1    2    0    0  0.97858934341E-02 -0.16527798727E-02  0.20808289004E-01  0.23053856139E-01  0.00000000000E+00 0.  1.
     999901    1    3    3    0    0 -0.11221324265E+00 -0.71078354199E-01 -0.46557006819E-01  0.89118544599E+00  0.88000000000E+00 0.  1.
        -11    1    4    4    0    0  0.36413473179E-01  0.36345971707E-01  0.62402538227E-02  0.51828298998E-01  0.51100000000E-03 0. -1.
         11    1    4    4    0    0  0.66013876037E-01  0.36385162365E-01  0.19508463992E-01  0.77862398872E-01  0.51100000000E-03 0.  1.
</event>
<event>
 8    1  0.1052028E+005  0.1043930E+01  0.7957747E-01            NaN
         13   -1    0    0    0    0  0.00000000000E+00  0.00000000000E+00  0.74505805969E-08  0.10566000000E+00  0.10566000000E+00 0.  1.
     999900   -1    0    0    0    0 -0.00000000000E+00 -0.00000000000E+00 -0.74505805969E-08  0.93827000000E+00  0.93827000000E+00 0. -1.
     999902    2    1    2    0    0 -0.24092169180E-01 -0.15923625493E-03 -0.15627646934E-03  0.10198367978E+01  0.10195521623E+01 0.  0.
     999903    2    3    3    0    0 -0.98806779374E-01  0.83580640873E-01 -0.19314809558E-01  0.13250276292E+00  0.20866651214E-01 0.  0.
         14    1    1    2    0    0  0.24092169180E-01  0.15923625493E-03  0.15627646934E-03  0.24093202243E-01  0.00000000000E+00 0. -1.
     999901    1    3    3    0    0  0.74714610194E-01 -0.83739877128E-01  0.19158533088E-01  0.88733403484E+00  0.88000000000E+00 0.  1.
        -11    1    4    4    0    0 -0.43995981492E-01  0.49517039967E-01 -0.14345305024E-01  0.67776341977E-01  0.51100000000E-03 0.  1.
         11    1    4    4    0    0 -0.54810797883E-01  0.34063600906E-01 -0.49695045334E-02  0.64726420939E-01  0.51100000000E-03 0. -1.
</event>
<event>
 8    1  0.1052028E+005  0.1043930E+01  0.7957747E-01            NaN
         13   -1    0    0    0    0  0.00000000000E+00  0.00000000000E+00  0.74505805969E-08  0.10566000000E+00  0.10566000000E+00 0.  1.
     999900   -1    0    0    0    0 -0.00000000000E+00 -0.00000000000E+00 -0.74505805969E-08  0.93827000000E+00  0.93827000000E+00 0. -1.
     999902    2    1    2    0    0  0.93037596395E-02 -0.20437775913E-02  0.21223822444E-01  0.10206665607E+01  0.10204014114E+01 0.  0.
     999903    2    3    3    0    0  0.10722607567E+00  0.71271638164E-01  0.21862628662E-01  0.13220477858E+00  0.20568209367E-01 0.  0.
         14    1    1    2    0    0 -0.93037596395E-02  0.20437775913E-02 -0.21223822444E-01  0.23263439329E-01  0.00000000000E+00 0. -1.
     999901    1    3    3    0    0 -0.97922316032E-01 -0.73315415755E-01 -0.63880621780E-03  0.88846178209E+00  0.88000000000E+00 0. -1.
        -11    1    4    4    0    0  0.70111277529E-01  0.56372457651E-01  0.20018666802E-01  0.92165358784E-01  0.51100000000E-03 0.  1.
         11    1    4    4    0    0  0.37114798143E-01  0.14899180513E-01  0.18439618603E-02  0.40039419794E-01  0.51100000000E-03 0. -1.
</event>
<event>
 8    1  0.1052028E+005  0.1043930E+01  0.7957747E-01            NaN
         13   -1    0    0    0    0  0.00000000000E+00  0.00000000000E+00  0.74505805969E-08  0.10566000000E+00  0.10566000000E+00 0. -1.
     999900   -1    0    0    0    0 -0.00000000000E+00 -0.00000000000E+00 -0.74505805969E-08  0.93827000000E+00  0.93827000000E+00 0.  1.
     999902    2    1    2    0    0  0.76692162628E-02 -0.10638530550E-01 -0.19570102176E-01  0.10203718993E+01  0.10200999112E+01 0.  0.
     999903    2    3    3    0    0  0.87982734630E-01 -0.62244679950E-01  0.71036952453E-01  0.13058366929E+00  0.19760675476E-01 0.  0.
         14    1    1    2    0    0 -0.76692162628E-02  0.10638530550E-01  0.19570102176E-01  0.23558100720E-01  0.00000000000E+00 0. -1.
     999901    1    3    3    0    0 -0.80313518367E-01  0.51606149400E-01 -0.90607054629E-01  0.88978822999E+00  0.88000000000E+00 0. -1.
        -11    1    4    4    0    0  0.80792806442E-01 -0.49014691246E-01  0.60818863691E-01  0.11237932564E+00  0.51100000000E-03 0.  1.
         11    1    4    4    0    0  0.71899281879E-02 -0.13229988703E-01  0.10218088762E-01  0.18204343641E-01  0.51100000000E-03 0. -1.
</event>
<event>
 8    1  0.1052028E+005  0.1043930E+01  0.7957747E-01            NaN
         13   -1    0    0    0    0  0.00000000000E+00  0.00000000000E+00  0.74505805969E-08  0.10566000000E+00  0.10566000000E+00 0.  1.
     999900   -1    0    0    0    0 -0.00000000000E+00 -0.00000000000E+00 -0.74505805969E-08  0.93827000000E+00  0.93827000000E+00 0. -1.
     999902    2    1    2    0    0  0.27314478471E-03  0.12861294033E-01  0.17384177223E-01  0.10223036940E+01  0.10220749218E+01 0.  0.
     999903    2    3    3    0    0  0.60592418849E-01  0.79784126828E-01  0.88086623124E-01  0.13488275883E+00  0.19928806796E-01 0.  0.
         14    1    1    2    0    0 -0.27314478471E-03 -0.12861294033E-01 -0.17384177223E-01  0.21626305972E-01  0.00000000000E+00 0. -1.
     999901    1    3    3    0    0 -0.60319274064E-01 -0.66922832794E-01 -0.70702445901E-01  0.88742093520E+00  0.88000000000E+00 0.  1.
        -11    1    4    4    0    0  0.17968198528E-01  0.12383276377E-01  0.25069315282E-01  0.33240538231E-01  0.51100000000E-03 0. -1.
         11    1    4    4    0    0  0.42624220321E-01  0.67400850451E-01  0.63017307842E-01  0.10164222060E+00  0.51100000000E-03 0.  1.
</event>
<event>
 8    1  0.1052028E+005  0.1043930E+01  0.7957747E-01            NaN
         13   -1    0    0    0    0  0.00000000000E+00  0.00000000000E+00  0.74505805969E-08  0.10566000000E+00  0.10566000000E+00 0. -1.
     999900   -1    0    0    0    0 -0.00000000000E+00 -0.00000000000E+00 -0.74505805969E-08  0.93827000000E+00  0.93827000000E+00 0.  1.
     999902    2    1    2    0    0  0.15415923303E-01  0.10508507483E-01  0.13994016859E-01  0.10206080805E+01  0.10203415811E+01 0.  0.
     999903    2    3    3    0    0 -0.38359431301E-01  0.75380303910E-01  0.99968939165E-01  0.13241225413E+00  0.19636192571E-01 0.  0.
         14    1    1    2    0    0 -0.15415923303E-01 -0.10508507483E-01 -0.13994016859E-01  0.23321919490E-01  0.00000000000E+00 0.  1.
     999901    1    3    3    0    0  0.53775354605E-01 -0.64871796427E-01 -0.85974922306E-01  0.88819582638E+00  0.88000000000E+00 0.  1.
        -11    1    4    4    0    0 -0.18167968669E-01  0.37322130892E-01  0.64009627103E-01  0.76292267123E-01  0.51100000000E-03 0. -1.
         11    1    4    4    0    0 -0.20191462632E-01  0.38058173019E-01  0.35959312062E-01  0.56119987007E-01  0.51100000000E-03 0.  1.
</event>
<event>
 8    1  0.1052028E+005  0.1043930E+01  0.7957747E-01            NaN
         13   -1    0    0    0    0  0.00000000000E+00  0.00000000000E+00  0.74505805969E-08  0.10566000000E+00  0.10566000000E+00 0.  1.
     999900   -1    0    0    0    0 -0.00000000000E+00 -0.00000000000E+00 -0.74505805969E-08  0.93827000000E+00  0.93827000000E+00 0. -1.
     999902    2    1    2    0    0 -0.23349643281E-01 -0.43123784967E-02  0.10068837447E-02  0.10201641366E+01  0.10198872728E+01 0.  0.
     999903    2    3    3    0    0 -0.40073418690E-01 -0.91421769750E-01  0.83877924569E-01  0.13183123719E+00  0.19497435732E-01 0.  0.
         14    1    1    2    0    0  0.23349643281E-01  0.43123784967E-02 -0.10068837447E-02  0.23765863429E-01  0.00000000000E+00 0.  1.
     999901    1    3    3    0    0  0.16723775409E-01  0.87109391254E-01 -0.82871040825E-01  0.88833289938E+00  0.88000000000E+00 0. -1.
        -11    1    4    4    0    0 -0.19004333580E-01 -0.63592182232E-01  0.49148728631E-01  0.82589278862E-01  0.51100000000E-03 0. -1.
         11    1    4    4    0    0 -0.21069085111E-01 -0.27829587518E-01  0.34729195938E-01  0.49241958332E-01  0.51100000000E-03 0.  1.
</event>
<event>
 8    1  0.1052028E+005  0.1043930E+01  0.7957747E-01            NaN
         13   -1    0    0    0    0  0.00000000000E+00  0.00000000000E+00  0.74505805969E-08  0.10566000000E+00  0.10566000000E+00 0.  1.
     999900   -1    0    0    0    0 -0.00000000000E+00 -0.00000000000E+00 -0.74505805969E-08  0.93827000000E+00  0.93827000000E+00 0.  1.
     999902    2    1    2    0    0 -0.14225849963E-01  0.18122002581E-01 -0.85066576252E-02  0.10193709893E+01  0.10190751046E+01 0.  0.
     999903    2    3    3    0    0  0.90133052844E-01 -0.86790887687E-01  0.63622327530E-02  0.12689209369E+00  0.20112186203E-01 0.  0.
         14    1    1    2    0    0  0.14225849963E-01 -0.18122002581E-01  0.85066576252E-02  0.24559010743E-01  0.00000000000E+00 0. -1.
     999901    1    3    3    0    0 -0.10435890281E+00  0.10491289027E+00 -0.14868890378E-01  0.89247889557E+00  0.88000000000E+00 0.  1.
        -11    1    4    4    0    0  0.36201621983E-01 -0.48122097325E-01 -0.34116127477E-04  0.60220893135E-01  0.51100000000E-03 0.  1.
         11    1    4    4    0    0  0.53931430862E-01 -0.38668790362E-01  0.63963488805E-02  0.66671200551E-01  0.51100000000E-03 0. -1.
</event>
<event>
 8    1  0.1052028E+005  0.1043930E+01  0.7957747E-01            NaN
         13   -1    0    0    0    0  0.00000000000E+00  0.00000000000E+00  0.74505805969E-08  0.10566000000E+00  0.10566000000E+00 0. -1.
     999900   -1    0    0    0    0 -0.00000000000E+00 -0.00000000000E+00 -0.74505805969E-08  0.93827000000E+00  0.93827000000E+00 0.  1.
     999902    2    1    2    0    0  0.18018203136E-02 -0.16040538703E-01  0.17686420691E-01  0.10199851693E+01  0.10197040702E+01 0.  0.
     999903    2    3    3    0    0  0.10654400182E+00 -0.62908272556E-01 -0.37437371191E-01  0.13082481176E+00  0.20112173725E-01 0.  0.
         14    1    1    2    0    0 -0.18018203136E-02  0.16040538703E-01 -0.17686420691E-01  0.23944830656E-01  0.00000000000E+00 0.  1.
     999901    1    3    3    0    0 -0.10474218150E+00  0.46867733854E-01  0.55123791881E-01  0.88916035758E+00  0.88000000000E+00 0. -1.
        -11    1    4    4    0    0  0.45115225605E-01 -0.29739289031E-01 -0.26408366507E-01  0.60145422402E-01  0.51100000000E-03 0. -1.
         11    1    4    4    0    0  0.61428776212E-01 -0.33168983526E-01 -0.11029004684E-01  0.70679389360E-01  0.51100000000E-03 0.  1.
</event>
<event>
 8    1  0.1052028E+005  0.1043930E+01  0.7957747E-01            NaN
         13   -1    0    0    0    0  0.00000000000E+00  0.00000000000E+00  0.74505805969E-08  0.10566000000E+00  0.10566000000E+00 0. -1.
     999900   -1    0    0    0    0 -0.00000000000E+00 -0.00000000000E+00 -0.74505805969E-08  0.93827000000E+00  0.93827000000E+00 0.  1.
     999902    2    1    2    0    0 -0.11230231095E-01  0.83370652087E-02 -0.19556296403E-01  0.10198868414E+01  0.10196034012E+01 0.  0.
     999903    2    3    3    0    0  0.20568411907E-01 -0.12403762338E+00 -0.24351476418E-01  0.12940539542E+00  0.18557219008E-01 0.  0.
         14    1    1    2    0    0  0.11230231095E-01 -0.83370652087E-02  0.19556296403E-01  0.24043158606E-01  0.00000000000E+00 0. -1.
     999901    1    3    3    0    0 -0.31798643002E-01  0.13237468859E+00  0.47951800147E-02  0.89048144598E+00  0.88000000000E+00 0. -1.
        -11    1    4    4    0    0  0.17595626337E-01 -0.76939586485E-01 -0.22924028962E-01  0.82189283118E-01  0.51100000000E-03 0. -1.
         11    1    4    4    0    0  0.29727855698E-02 -0.47098036896E-01 -0.14274474562E-02  0.47216112300E-01  0.51100000000E-03 0.  1.
</event>
<event>
 8    1  0.1052028E+005  0.1043930E+01  0.7957747E-01            NaN
         13   -1    0    0    0    0  0.00000000000E+00  0.00000000000E+00  0.74505805969E-08  0.10566000000E+00  0.10566000000E+00 0. -1.
     999900   -1    0    0    0    0 -0.00000000000E+00 -0.00000000000E+00 -0.74505805969E-08  0.93827000000E+00  0.93827000000E+00 0. -1.
     999902    2    1    2    0    0 -0.73623170441E-02 -0.43579391177E-03  0.22054214331E-01  0.10206752801E+01  0.10204103319E+01 0.  0.
     999903    2    3    3    0    0 -0.11201723334E+00  0.41860073298E-02 -0.63395859000E-01  0.13035189637E+00  0.20179165651E-01 0.  0.
         14    1    1    2    0    0  0.73623170441E-02  0.43579391177E-03 -0.22054214331E-01  0.23254719915E-01  0.00000000000E+00 0.  1.
     999901    1    3    3    0    0  0.10465491630E+00 -0.46218012415E-02  0.85450073331E-01  0.89032338371E+00  0.88000000000E+00 0.  1.
        -11    1    4    4    0    0 -0.94898603388E-01  0.91254911982E-02 -0.47713792539E-01  0.10661091236E+00  0.51100000000E-03 0. -1.
         11    1    4    4    0    0 -0.17118629955E-01 -0.49394838684E-02 -0.15682066461E-01  0.23740984013E-01  0.51100000000E-03 0.  1.
</event>
<event>
 8    1  0.1052028E+005  0.1043930E+01  0.7957747E-01            NaN
         13   -1    0    0    0    0  0.00000000000E+00  0.00000000000E+00  0.74505805969E-08  0.10566000000E+00  0.10566000000E+00 0. -1.
     999900   -1    0    0    0    0 -0.00000000000E+00 -0.00000000000E+00 -0.74505805969E-08  0.93827000000E+00  0.93827000000E+00 0. -1.
     999902    2    1    2    0    0  0.18760126536E-01 -0.13855538380E-01 -0.44663343889E-02  0.10201841281E+01  0.10199077354E+01 0.  0.
     999903    2    3    3    0    0 -0.10168548980E+00 -0.72074906669E-02  0.75613534156E-01  0.12835223337E+00  0.19105038766E-01 0.  0.
         14    1    1    2    0    0 -0.18760126536E-01  0.13855538380E-01  0.44663343889E-02  0.23745871943E-01  0.00000000000E+00 0. -1.
     999901    1    3    3    0    0  0.12044561634E+00 -0.66480477131E-02 -0.80079868545E-01  0.89183189469E+00  0.88000000000E+00 0. -1.
        -11    1    4    4    0    0 -0.86461796361E-01  0.81816279459E-03  0.64210777609E-01  0.10770142386E+00  0.51100000000E-03 0.  1.
         11    1    4    4    0    0 -0.15223693440E-01 -0.80256534615E-02  0.11402756547E-01  0.20650809507E-01  0.51100000000E-03 0. -1.
</event>
<event>
 8    1  0.1052028E+005  0.1043930E+01  0.7957747E-01            NaN
         13   -1    0    0    0    0  0.00000000000E+00  0.00000000000E+00  0.74505805969E-08  0.10566000000E+00  0.10566000000E+00 0.  1.
     999900   -1    0    0    0    0 -0.00000000000E+00 -0.00000000000E+00 -0.74505805969E-08  0.93827000000E+00  0.93827000000E+00 0. -1.
     999902    2    1    2    0    0  0.26173570255E-02  0.20566240868E-01  0.14340449677E-01  0.10187214832E+01  0.10184095399E+01 0.  0.
     999903    2    3    3    0    0  0.22294970762E-01  0.38876118146E-01 -0.11857359919E+00  0.12833471082E+00  0.20041988209E-01 0.  0.
         14    1    1    2    0    0 -0.26173570255E-02 -0.20566240868E-01 -0.14340449677E-01  0.25208516779E-01  0.00000000000E+00 0. -1.
     999901    1    3    3    0    0 -0.19677613736E-01 -0.18309877277E-01  0.13291404887E+00  0.89038677241E+00  0.88000000000E+00 0.  1.
        -11    1    4    4    0    0  0.20320297548E-01  0.23163785526E-01 -0.57483320694E-01  0.65223222332E-01  0.51100000000E-03 0.  1.
         11    1    4    4    0    0  0.19746732139E-02  0.15712332620E-01 -0.61090278498E-01  0.63111488483E-01  0.51100000000E-03 0. -1.
</event>
<event>
 8    1  0.1052028E+005  0.1043930E+01  0.7957747E-01            NaN
         13   -1    0    0    0    0  0.00000000000E+00  0.00000000000E+00  0.74505805969E-08  0.10566000000E+00  0.10566000000E+00 0.  1.
     999900   -1    0    0    0    0 -0.00000000000E+00 -0.00000000000E+00 -0.74505805969E-08  0.93827000000E+00  0.93827000000E+00 0. -1.
     999902    2    1    2    0    0 -0.74999943953E-02 -0.83889424506E-02  0.70408711770E-02  0.10306560353E+01  0.10305705531E+01 0.  0.
     999903    2    3    3    0    0 -0.40429599871E-01  0.41687021299E-01 -0.12456959563E+00  0.13885265114E+00  0.19751310906E-01 0.  0.
         14    1    1    2    0    0  0.74999943953E-02  0.83889424506E-02 -0.70408711770E-02  0.13273964679E-01  0.00000000000E+00 0.  1.
     999901    1    3    3    0    0  0.32929605475E-01 -0.50075963750E-01  0.13161046681E+00  0.89180338418E+00  0.88000000000E+00 0.  1.
        -11    1    4    4    0    0 -0.18390358566E-01  0.19429132908E-01 -0.35639463410E-01  0.44566006854E-01  0.51100000000E-03 0.  1.
         11    1    4    4    0    0 -0.22039241304E-01  0.22257888391E-01 -0.88930132221E-01  0.94286644286E-01  0.51100000000E-03 0. -1.
</event>
<event>
 8    1  0.1052028E+005  0.1043930E+01  0.7957747E-01            NaN
         13   -1    0    0    0    0  0.00000000000E+00  0.00000000000E+00  0.74505805969E-08  0.10566000000E+00  0.10566000000E+00 0.  1.
     999900   -1    0    0    0    0 -0.00000000000E+00 -0.00000000000E+00 -0.74505805969E-08  0.93827000000E+00  0.93827000000E+00 0.  1.
     999902    2    1    2    0    0 -0.21230477483E-01  0.56839311277E-02  0.10370652756E-01  0.10196279284E+01  0.10193382763E+01 0.  0.
     999903    2    3    3    0    0  0.12343034633E+00  0.27081781227E-01 -0.12480088664E-01  0.12726769935E+00  0.85347182831E-02 0.  0.
         14    1    1    2    0    0  0.21230477483E-01 -0.56839311277E-02 -0.10370652756E-01  0.24302071636E-01  0.00000000000E+00 0. -1.
     999901    1    3    3    0    0 -0.14466082381E+00 -0.21397850100E-01  0.22850741420E-01  0.89236022901E+00  0.88000000000E+00 0.  1.
        -11    1    4    4    0    0  0.27100728732E-01  0.27378895648E-02 -0.41798949003E-02  0.27562260057E-01  0.51100000000E-03 0.  1.
         11    1    4    4    0    0  0.96329617598E-01  0.24343891663E-01 -0.83001937636E-02  0.99705439297E-01  0.51100000000E-03 0. -1.
</event>
<event>
 8    1  0.1052028E+005  0.1043930E+01  0.7957747E-01            NaN
         13   -1    0    0    0    0  0.00000000000E+00  0.00000000000E+00  0.74505805969E-08  0.10566000000E+00  0.10566000000E+00 0. -1.
     999900   -1    0    0    0    0 -0.00000000000E+00 -0.00000000000E+00 -0.74505805969E-08  0.93827000000E+00  0.93827000000E+00 0. -1.
     999902    2    1    2    0    0 -0.22152670692E-01  0.17710905295E-02  0.56105522453E-02  0.10210093570E+01  0.10207520517E+01 0.  0.
     999903    2    3    3    0    0 -0.11005452568E+00  0.72383373190E-01  0.11218607885E-01  0.13379783717E+00  0.20607103951E-01 0.  0.
         14    1    1    2    0    0  0.22152670692E-01 -0.17710905295E-02 -0.56105522453E-02  0.22920643031E-01  0.00000000000E+00 0. -1.
     999901    1    3    3    0    0  0.87901854984E-01 -0.70612282661E-01 -0.56080556399E-02  0.88721151980E+00  0.88000000000E+00 0.  1.
        -11    1    4    4    0    0 -0.10636809193E+00  0.65686502937E-01  0.13650449299E-01  0.12575962601E+00  0.51100000000E-03 0. -1.
         11    1    4    4    0    0 -0.36864337500E-02  0.66968702532E-02 -0.24318414142E-02  0.80382111595E-02  0.51100000000E-03 0.  1.
</event>
<event>
 8    1  0.1052028E+005  0.1043930E+01  0.7957747E-01            NaN
         13   -1    0    0    0    0  0.00000000000E+00  0.00000000000E+00  0.74505805969E-08  0.10566000000E+00  0.10566000000E+00 0.  1.
     999900   -1    0    0    0    0 -0.00000000000E+00 -0.00000000000E+00 -0.74505805969E-08  0.93827000000E+00  0.93827000000E+00 0. -1.
     999902    2    1    2    0    0  0.19357973829E-01  0.12358442274E-01 -0.13344740080E-02  0.10209247165E+01  0.10206654857E+01 0.  0.
     999903    2    3    3    0    0  0.33108402048E-01 -0.84071883375E-01  0.92144999091E-01  0.13062909492E+00  0.20224038228E-01 0.  0.
         14    1    1    2    0    0 -0.19357973829E-01 -0.12358442274E-01  0.13344740080E-02  0.23005283460E-01  0.00000000000E+00 0.  1.
     999901    1    3    3    0    0 -0.13750428219E-01  0.96430325649E-01 -0.93479473099E-01  0.89029562162E+00  0.88000000000E+00 0.  1.
        -11    1    4    4    0    0  0.23456603102E-01 -0.53838851460E-01  0.45893057341E-01  0.74533670168E-01  0.51100000000E-03 0. -1.
         11    1    4    4    0    0  0.96517989466E-02 -0.30233031915E-01  0.46251941750E-01  0.56095424754E-01  0.51100000000E-03 0.  1.
</event>
<event>
 8    1  0.1052028E+005  0.1043930E+01  0.7957747E-01            NaN
         13   -1    0    0    0    0  0.00000000000E+00  0.00000000000E+00  0.74505805969E-08  0.10566000000E+00  0.10566000000E+00 0.  1.
     999900   -1    0    0    0    0 -0.00000000000E+00 -0.00000000000E+00 -0.74505805969E-08  0.93827000000E+00  0.93827000000E+00 0.  1.
     999902    2    1    2    0    0 -0.19291157577E-01 -0.83364262310E-02 -0.12956842681E-01  0.10192414493E+01  0.10189423965E+01 0.  0.
     999903    2    3    3    0    0 -0.28833557067E-01 -0.26965191018E-01 -0.12430453422E+00  0.13197801792E+00  0.20201100145E-01 0.  0.
         14    1    1    2    0    0  0.19291157577E-01  0.83364262310E-02  0.12956842681E-01  0.24688550691E-01  0.00000000000E+00 0.  1.
     999901    1    3    3    0    0  0.95423994897E-02  0.18628764787E-01  0.11134769154E+00  0.88726343139E+00  0.88000000000E+00 0. -1.
        -11    1    4    4    0    0 -0.23575632687E-01 -0.30057649995E-01 -0.10569361903E+00  0.11238627587E+00  0.51100000000E-03 0.  1.
         11    1    4    4    0    0 -0.52579243795E-02  0.30924589771E-02 -0.18610915191E-01  0.19591742050E-01  0.51100000000E-03 0. -1.
</event>
<event>
 8    1  0.1052028E+005  0.1043930E+01  0.7957747E-01            NaN
         13   -1    0    0    0    0  0.00000000000E+00  0.00000000000E+00  0.74505805969E-08  0.10566000000E+00  0.10566000000E+00 0.  1.
     999900   -1    0    0    0    0 -0.00000000000E+00 -0.00000000000E+00 -0.74505805969E-08  0.93827000000E+00  0.93827000000E+00 0. -1.
     999902    2    1    2    0    0 -0.65480903206E-02 -0.79593531731E-02  0.20492450583E-01  0.10209916190E+01  0.10207339109E+01 0.  0.
     999903    2    3    3    0    0 -0.86250007004E-01 -0.92463677210E-01 -0.31515232712E-01  0.13183574102E+00  0.19971414746E-01 0.  0.
         14    1    1    2    0    0  0.65480903206E-02  0.79593531731E-02 -0.20492450583E-01  0.22938380951E-01  0.00000000000E+00 0. -1.
     999901    1    3    3    0    0  0.79701916684E-01  0.84504324037E-01  0.52007683295E-01  0.88915587802E+00  0.88000000000E+00 0.  1.
        -11    1    4    4    0    0 -0.63602598703E-01 -0.65298354179E-01 -0.13530168943E-01  0.92154718885E-01  0.51100000000E-03 0.  1.
         11    1    4    4    0    0 -0.22647408301E-01 -0.27165323032E-01 -0.17985063769E-01  0.39681022139E-01  0.51100000000E-03 0. -1.
</event>
<event>
 8    1  0.1052028E+005  0.1043930E+01  0.7957747E-01            NaN
         13   -1    0    0    0    0  0.00000000000E+00  0.00000000000E+00  0.74505805969E-08  0.10566000000E+00  0.10566000000E+00 0. -1.
     999900   -1    0    0    0    0 -0.00000000000E+00 -0.00000000000E+00 -0.74505805969E-08  0.93827000000E+00  0.93827000000E+00 0. -1.
     999902    2    1    2    0    0 -0.14578147300E-01 -0.19131811303E-01  0.44755362694E-02  0.10194641257E+01  0.10191705081E+01 0.  0.
     999903    2    3    3    0    0  0.11171634339E+00 -0.63700887520E-01 -0.90973705909E-02  0.12922768250E+00  0.88705873936E-02 0.  0.
         14    1    1    2    0    0  0.14578147300E-01  0.19131811303E-01 -0.44755362694E-02  0.24465874342E-01  0.00000000000E+00 0.  1.
     999901    1    3    3    0    0 -0.12629449069E+00  0.44569076217E-01  0.13572906860E-01  0.89023644316E+00  0.88000000000E+00 0.  1.
        -11    1    4    4    0    0  0.69019935607E-01 -0.35211118298E-01 -0.78511966574E-02  0.77881170850E-01  0.51100000000E-03 0.  1.
         11    1    4    4    0    0  0.42696407782E-01 -0.28489769222E-01 -0.12461739335E-02  0.51346511646E-01  0.51100000000E-03 0. -1.
</event>
<event>
 8    1  0.1052028E+005  0.1043930E+01  0.7957747E-01            NaN
         13   -1    0    0    0    0  0.00000000000E+00  0.00000000000E+00  0.74505805969E-08  0.10566000000E+00  0.10566000000E+00 0.  1.
     999900   -1    0    0    0    0 -0.00000000000E+00 -0.00000000000E+00 -0.74505805969E-08  0.93827000000E+00  0.93827000000E+00 0. -1.
     999902    2    1    2    0    0  0.10990035905E-01  0.19199482288E-02 -0.19760796239E-01  0.10212373545E+01  0.10209851998E+01 0.  0.
     999903    2    3    3    0    0  0.34307158429E-01 -0.12109268814E+00 -0.35381329239E-01  0.13223803059E+00  0.19865498613E-01 0.  0.
         14    1    1    2    0    0 -0.10990035905E-01 -0.19199482288E-02  0.19760796239E-01  0.22692645469E-01  0.00000000000E+00 0.  1.
     999901    1    3    3    0    0 -0.23317122524E-01  0.12301263637E+00  0.15620533000E-01  0.88899932394E+00  0.88000000000E+00 0. -1.
        -11    1    4    4    0    0  0.30812935312E-01 -0.91543771297E-01 -0.19625680848E-01  0.98565346423E-01  0.51100000000E-03 0.  1.
         11    1    4    4    0    0  0.34942231177E-02 -0.29548916847E-01 -0.15755648391E-01  0.33672684170E-01  0.51100000000E-03 0. -1.
</event>
<event>
 8    1  0.1052028E+005  0.1043930E+01  0.7957747E-01            NaN
         13   -1    0    0    0    0  0.00000000000E+00  0.00000000000E+00  0.74505805969E-08  0.10566000000E+00  0.10566000000E+00 0.  1.
     999900   -1    0    0    0    0 -0.00000000000E+00 -0.00000000000E+00 -0.74505805969E-08  0.93827000000E+00  0.93827000000E+00 0. -1.
     999902    2    1    2    0    0 -0.28856539985E-02 -0.20905941266E-01 -0.11129611561E-01  0.10200709633E+01  0.10197918986E+01 0.  0.
     999903    2    3    3    0    0 -0.45358447511E-01 -0.51806804568E-01 -0.11169778313E+00  0.13278704105E+00  0.20363441592E-01 0.  0.
         14    1    1    2    0    0  0.28856539985E-02  0.20905941266E-01  0.11129611561E-01  0.23859036709E-01  0.00000000000E+00 0.  1.
     999901    1    3    3    0    0  0.42472793513E-01  0.30900863302E-01  0.10056817157E+00  0.88728392224E+00  0.88000000000E+00 0.  1.
        -11    1    4    4    0    0 -0.18634637881E-02 -0.11544353962E-01 -0.11745086379E-01  0.16581700176E-01  0.51100000000E-03 0. -1.
         11    1    4    4    0    0 -0.43494983723E-01 -0.40262450606E-01 -0.99952696751E-01  0.11620534087E+00  0.51100000000E-03 0.  1.
</event>
<event>
 8    1  0.1052028E+005  0.1043930E+01  0.7957747E-01            NaN
         13   -1    0    0    0    0  0.00000000000E+00  0.00000000000E+00  0.74505805969E-08  0.10566000000E+00  0.10566000000E+00 0. -1.
     999900   -1    0    0    0    0 -0.00000000000E+00 -0.00000000000E+00 -0.74505805969E-08  0.93827000000E+00  0.93827000000E+00 0.  1.
     999902    2    1    2    0    0  0.15305714028E-01 -0.14724804956E-01 -0.13724775408E-01  0.10186425679E+01  0.10183286439E+01 0.  0.
     999903    2    3    3    0    0 -0.55088804921E-01  0.38252203546E-01 -0.10851176524E+00  0.12917838920E+00  0.20353022758E-01 0.  0.
         14    1    1    2    0    0 -0.15305714028E-01  0.14724804956E-01  0.13724775408E-01  0.25287432114E-01  0.00000000000E+00 0. -1.
     999901    1    3    3    0    0  0.70394518949E-01 -0.52977008502E-01  0.94786989837E-01  0.88946417869E+00  0.88000000000E+00 0. -1.
        -11    1    4    4    0    0 -0.35539843972E-01  0.17224271672E-01 -0.77040416904E-01  0.86575071481E-01  0.51100000000E-03 0.  1.
         11    1    4    4    0    0 -0.19548960950E-01  0.21027931874E-01 -0.31471348341E-01  0.42603317717E-01  0.51100000000E-03 0. -1.
</event>
<event>
 8    1  0.1052028E+005  0.1043930E+01  0.7957747E-01            NaN
         13   -1    0    0    0    0  0.00000000000E+00  0.00000000000E+00  0.74505805969E-08  0.10566000000E+00  0.10566000000E+00 0.  1.
     999900   -1    0    0    0    0 -0.00000000000E+00 -0.00000000000E+00 -0.74505805969E-08  0.93827000000E+00  0.93827000000E+00 0. -1.
     999902    2    1    2    0    0 -0.42432984364E-03 -0.27588910046E-01 -0.11737853515E-01  0.10139449167E+01  0.10135014499E+01 0.  0.
     999903    2    3    3    0    0  0.12154520833E+00  0.72633902867E-02 -0.18981055447E-01  0.12481966400E+00  0.19841208332E-01 0.  0.
         14    1    1    2    0    0  0.42432984364E-03  0.27588910046E-01  0.11737853515E-01  0.29985083266E-01  0.00000000000E+00 0. -1.
     999901    1    3    3    0    0 -0.12196953817E+00 -0.34852300333E-01  0.72432019328E-02  0.88912525274E+00  0.88000000000E+00 0. -1.
        -11    1    4    4    0    0  0.49935783508E-01  0.10492026203E-01 -0.14243576528E-01  0.52979294840E-01  0.51100000000E-03 0.  1.
         11    1    4    4    0    0  0.71609424821E-01 -0.32286359163E-02 -0.47374789199E-02  0.71840369157E-01  0.51100000000E-03 0. -1.
</event>
<event>
 8    1  0.1052028E+005  0.1043930E+01  0.7957747E-01            NaN
         13   -1    0    0    0    0  0.00000000000E+00  0.00000000000E+00  0.74505805969E-08  0.10566000000E+00  0.10566000000E+00 0. -1.
     999900   -1    0    0    0    0 -0.00000000000E+00 -0.00000000000E+00 -0.74505805969E-08  0.93827000000E+00  0.93827000000E+00 0. -1.
     999902    2    1    2    0    0 -0.12902552590E-01 -0.10970871970E-02 -0.18118857387E-01  0.10216595609E+01  0.10214168033E+01 0.  0.
     999903    2    3    3    0    0  0.31379240087E-01  0.11968360569E+00  0.36789871435E-01  0.13061308546E+00  0.19936430809E-01 0.  0.
         14    1    1    2    0    0  0.12902552590E-01  0.10970871970E-02  0.18118857387E-01  0.22270439077E-01  0.00000000000E+00 0. -1.
     999901    1    3    3    0    0 -0.44281792677E-01 -0.12078069289E+00 -0.54908728822E-01  0.89104647546E+00  0.88000000000E+00 0. -1.
        -11    1    4    4    0    0  0.83966095148E-02  0.67102925324E-01  0.24471430950E-01  0.71919522330E-01  0.51100000000E-03 0. -1.
         11    1    4    4    0    0  0.22982630573E-01  0.52580680366E-01  0.12318440485E-01  0.58693563129E-01  0.51100000000E-03 0.  1.
</event>
<event>
 8    1  0.1052028E+005  0.1043930E+01  0.7957747E-01            NaN
         13   -1    0    0    0    0  0.00000000000E+00  0.00000000000E+00  0.74505805969E-08  0.10566000000E+00  0.10566000000E+00 0. -1.
     999900   -1    0    0    0    0 -0.00000000000E+00 -0.00000000000E+00 -0.74505805969E-08  0.93827000000E+00  0.93827000000E+00 0. -1.
     999902    2    1    2    0    0  0.94939604049E-02  0.72928254901E-02 -0.19947840623E-01  0.10206655006E+01  0.10204003269E+01 0.  0.
     999903    2    3    3    0    0 -0.76631793076E-01  0.97044317188E-01  0.35590740910E-01  0.13018388386E+00  0.19776540898E-01 0.  0.
         14    1    1    2    0    0 -0.94939604049E-02 -0.72928254901E-02  0.19947840623E-01  0.23264499421E-01  0.00000000000E+00 0. -1.
     999901    1    3    3    0    0  0.86125753481E-01 -0.89751491698E-01 -0.55538581533E-01  0.89048161672E+00  0.88000000000E+00 0. -1.
        -11    1    4    4    0    0 -0.35281482391E-01  0.40082767061E-01  0.25138820089E-01  0.59022306049E-01  0.51100000000E-03 0.  1.
         11    1    4    4    0    0 -0.41350310685E-01  0.56961550128E-01  0.10451920821E-01  0.71161577811E-01  0.51100000000E-03 0. -1.
</event>
<event>
 8    1  0.1052028E+005  0.1043930E+01  0.7957747E-01            NaN
         13   -1    0    0    0    0  0.00000000000E+00  0.00000000000E+00  0.74505805969E-08  0.10566000000E+00  0.10566000000E+00 0.  1.
     999900   -1    0    0    0    0 -0.00000000000E+00 -0.00000000000E+00 -0.74505805969E-08  0.93827000000E+00  0.93827000000E+00 0. -1.
     999902    2    1    2    0    0  0.19229911227E-01  0.90172718315E-02 -0.12021308887E-01  0.10195248255E+01  0.10192326806E+01 0.  0.
     999903    2    3    3    0    0  0.23501120704E-01 -0.11125545159E+00  0.56830037054E-01  0.12866890048E+00  0.19898609409E-01 0.  0.
         14    1    1    2    0    0 -0.19229911227E-01 -0.90172718315E-02  0.12021308887E-01  0.24405174542E-01  0.00000000000E+00 0. -1.
     999901    1    3    3    0    0 -0.42712094768E-02  0.12027272342E+00 -0.68851345941E-01  0.89085592498E+00  0.88000000000E+00 0.  1.
        -11    1    4    4    0    0  0.23439512525E-01 -0.65847522248E-01  0.31443887655E-01  0.76643891638E-01  0.51100000000E-03 0.  1.
         11    1    4    4    0    0  0.61608179121E-04 -0.45407929342E-01  0.25386149399E-01  0.52025008842E-01  0.51100000000E-03 0. -1.
</event>
<event>
 7    1  0.1052028E+005  0.1043930E+01  0.7957747E-01            NaN
         13   -1    0    0    0    0  0.00000000000E+00  0.00000000000E+00  0.74505805969E-08  0.10566000000E+00  0.10566000000E+00 0.  1.
     999900   -1    0    0    0    0 -0.00000000000E+00 -0.00000000000E+00 -0.74505805969E-08  0.93827000000E+00  0.93827000000E+00 0. -1.
     999902    2    1    2    0    0  0.15695301271E-01  0.19386589685E-01 -0.13083596446E-01  0.10157633027E+01  0.10153727021E+01 0.  0.
         14    1    1    2    0    0 -0.15695301271E-01 -0.19386589685E-01  0.13083596446E-01  0.28166697313E-01  0.00000000000E+00 0.  1.
     999901    1    3    3    0    0  0.40800477467E-01  0.66142419604E-02 -0.11743898300E+00  0.88876337789E+00  0.88000000000E+00 0. -1.
        -11    1    3    3    0    0  0.41072847486E-02  0.57190756973E-02  0.95367729346E-01  0.95628670055E-01  0.51100000000E-03 0.  1.
         11    1    3    3    0    0 -0.29212460944E-01  0.70532720268E-02  0.89876572075E-02  0.31371254737E-01  0.51100000000E-03 0. -1.
</event>
<event>
 8    1  0.1052028E+005  0.1043930E+01  0.7957747E-01            NaN
         13   -1    0    0    0    0  0.00000000000E+00  0.00000000000E+00  0.74505805969E-08  0.10566000000E+00  0.10566000000E+00 0. -1.
     999900   -1    0    0    0    0 -0.00000000000E+00 -0.00000000000E+00 -0.74505805969E-08  0.93827000000E+00  0.93827000000E+00 0. -1.
     999902    2    1    2    0    0  0.13175352263E-01  0.18323404943E-02 -0.20039202126E-01  0.10198776196E+01  0.10195939594E+01 0.  0.
     999903    2    3    3    0    0 -0.58698537469E-01 -0.10820264032E-01 -0.11558132693E+00  0.13170295099E+00  0.20591934123E-01 0.  0.
         14    1    1    2    0    0 -0.13175352263E-01 -0.18323404943E-02  0.20039202126E-01  0.24052380356E-01  0.00000000000E+00 0. -1.
     999901    1    3    3    0    0  0.71873889732E-01  0.12652604526E-01  0.95542124799E-01  0.88817466865E+00  0.88000000000E+00 0.  1.
        -11    1    4    4    0    0 -0.28465183352E-01  0.45808226327E-03 -0.72372813024E-01  0.77772499565E-01  0.51100000000E-03 0. -1.
         11    1    4    4    0    0 -0.30233354118E-01 -0.11278346295E-01 -0.43208513902E-01  0.53930451425E-01  0.51100000000E-03 0.  1.
</event>
<event>
 8    1  0.1052028E+005  0.1043930E+01  0.7957747E-01            NaN
         13   -1    0    0    0    0  0.00000000000E+00  0.00000000000E+00  0.74505805969E-08  0.10566000000E+00  0.10566000000E+00 0.  1.
     999900   -1    0    0    0    0 -0.00000000000E+00 -0.00000000000E+00 -0.74505805969E-08  0.93827000000E+00  0.93827000000E+00 0.  1.
     999902    2    1    2    0    0 -0.12536378441E-01 -0.30730082008E-02  0.20968856638E-01  0.10193068988E+01  0.10190094488E+01 0.  0.
     999903    2    3    3    0    0 -0.10545715899E+00  0.56137646608E-01  0.51878291685E-01  0.13189742946E+00  0.20806897936E-01 0.  0.
         14    1    1    2    0    0  0.12536378441E-01  0.30730082008E-02 -0.20968856638E-01  0.24623101196E-01  0.00000000000E+00 0.  1.
     999901    1    3    3    0    0  0.92920780550E-01 -0.59210654808E-01 -0.30909435048E-01  0.88740946934E+00  0.88000000000E+00 0. -1.
        -11    1    4    4    0    0 -0.20631645453E-01  0.33309149073E-02  0.48381232188E-02  0.21457594122E-01  0.51100000000E-03 0. -1.
         11    1    4    4    0    0 -0.84825513537E-01  0.52806731700E-01  0.47040168467E-01  0.11043983534E+00  0.51100000000E-03 0.  1.
</event>
<event>
 8    1  0.1052028E+005  0.1043930E+01  0.7957747E-01            NaN
         13   -1    0    0    0    0  0.00000000000E+00  0.00000000000E+00  0.74505805969E-08  0.10566000000E+00  0.10566000000E+00 0. -1.
     999900   -1    0    0    0    0 -0.00000000000E+00 -0.00000000000E+00 -0.74505805969E-08  0.93827000000E+00  0.93827000000E+00 0. -1.
     999902    2    1    2    0    0  0.23653060637E-02 -0.61569714114E-02 -0.22530754055E-01  0.10204536747E+01  0.10201835935E+01 0.  0.
     999903    2    3    3    0    0 -0.17060067949E-01  0.88758009668E-01  0.88705158459E-01  0.12817590015E+00  0.19784489941E-01 0.  0.
         14    1    1    2    0    0 -0.23653060637E-02  0.61569714114E-02  0.22530754055E-01  0.23476325267E-01  0.00000000000E+00 0. -1.
     999901    1    3    3    0    0  0.19425374013E-01 -0.94914981080E-01 -0.11123591251E+00  0.89227777459E+00  0.88000000000E+00 0. -1.
        -11    1    4    4    0    0 -0.20419289445E-02  0.45375753951E-01  0.33889158142E-01  0.56673315423E-01  0.51100000000E-03 0. -1.
         11    1    4    4    0    0 -0.15018139005E-01  0.43382255717E-01  0.54816000318E-01  0.71502584723E-01  0.51100000000E-03 0.  1.
</event>
<event>
 8    1  0.1052028E+005  0.1043930E+01  0.7957747E-01            NaN
         13   -1    0    0    0    0  0.00000000000E+00  0.00000000000E+00  0.74505805969E-08  0.10566000000E+00  0.10566000000E+00 0. -1.
     999900   -1    0    0    0    0 -0.00000000000E+00 -0.00000000000E+00 -0.74505805969E-08  0.93827000000E+00  0.93827000000E+00 0. -1.
     999902    2    1    2    0    0 -0.20007438613E-01 -0.48720489603E-02 -0.12086049563E-01  0.10200530853E+01  0.10197735973E+01 0.  0.
     999903    2    3    3    0    0 -0.11825777855E+00 -0.45461024526E-01 -0.36614047154E-01  0.13331624898E+00  0.19519909212E-01 0.  0.
         14    1    1    2    0    0  0.20007438613E-01  0.48720489603E-02  0.12086049563E-01  0.23876914687E-01  0.00000000000E+00 0. -1.
     999901    1    3    3    0    0  0.98250339938E-01  0.40588975566E-01  0.24527997591E-01  0.88673683633E+00  0.88000000000E+00 0. -1.
        -11    1    4    4    0    0 -0.82186373990E-02 -0.31616947351E-02 -0.82151221800E-02  0.12053699338E-01  0.51100000000E-03 0.  1.
         11    1    4    4    0    0 -0.11003914115E+00 -0.42299329791E-01 -0.28398924974E-01  0.12126254965E+00  0.51100000000E-03 0. -1.
</event>
<event>
 8    1  0.1052028E+005  0.1043930E+01  0.7957747E-01            NaN
         13   -1    0    0    0    0  0.00000000000E+00  0.00000000000E+00  0.74505805969E-08  0.10566000000E+00  0.10566000000E+00 0. -1.
     999900   -1    0    0    0    0 -0.00000000000E+00 -0.00000000000E+00 -0.74505805969E-08  0.93827000000E+00  0.93827000000E+00 0.  1.
     999902    2    1    2    0    0  0.25680212512E-03 -0.12730320467E-01  0.20245099972E-01  0.10200136650E+01  0.10197332424E+01 0.  0.
     999903    2    3    3    0    0 -0.26078257943E-01 -0.65085563361E-01  0.11149701667E+00  0.13335616679E+00  0.20882442376E-01 0.  0.
         14    1    1    2    0    0 -0.25680212512E-03  0.12730320467E-01 -0.20245099972E-01  0.23916334991E-01  0.00000000000E+00 0.  1.
     999901    1    3    3    0    0  0.26335060068E-01  0.52355242894E-01 -0.91251916696E-01  0.88665749822E+00  0.88000000000E+00 0.  1.
        -11    1    4    4    0    0 -0.12000732573E-01 -0.36539643174E-01  0.42207200827E-01  0.57104045638E-01  0.51100000000E-03 0.  1.
         11    1    4    4    0    0 -0.14077525370E-01 -0.28545920187E-01  0.69289815841E-01  0.76252121152E-01  0.51100000000E-03 0. -1.
</event>
<event>
 8    1  0.1052028E+005  0.1043930E+01  0.7957747E-01            NaN
         13   -1    0    0    0    0  0.00000000000E+00  0.00000000000E+00  0.74505805969E-08  0.10566000000E+00  0.10566000000E+00 0.  1.
     999900   -1    0    0    0    0 -0.00000000000E+00 -0.00000000000E+00 -0.74505805969E-08  0.93827000000E+00  0.93827000000E+00 0.  1.
     999902    2    1    2    0    0  0.45445413601E-02  0.98535039267E-02 -0.19755934854E-01  0.10213902272E+01  0.10211414960E+01 0.  0.
     999903    2    3    3    0    0  0.73149539735E-03  0.10307624915E+00 -0.83511116652E-01  0.13416435813E+00  0.20017995962E-01 0.  0.
         14    1    1    2    0    0 -0.45445413601E-02 -0.98535039267E-02  0.19755934854E-01  0.22539772798E-01  0.00000000000E+00 0.  1.
     999901    1    3    3    0    0  0.38130459628E-02 -0.93222745228E-01  0.63755181797E-01  0.88722586907E+00  0.88000000000E+00 0. -1.
        -11    1    4    4    0    0  0.10233334098E-01  0.45315365014E-01 -0.37658180531E-01  0.59804708134E-01  0.51100000000E-03 0.  1.
         11    1    4    4    0    0 -0.95018387003E-02  0.57760884141E-01 -0.45852936121E-01  0.74359649995E-01  0.51100000000E-03 0. -1.
</event>
<event>
 8    1  0.1052028E+005  0.1043930E+01  0.7957747E-01            NaN
         13   -1    0    0    0    0  0.00000000000E+00  0.00000000000E+00  0.74505805969E-08  0.10566000000E+00  0.10566000000E+00 0.  1.
     999900   -1    0    0    0    0 -0.00000000000E+00 -0.00000000000E+00 -0.74505805969E-08  0.93827000000E+00  0.93827000000E+00 0.  1.
     999902    2    1    2    0    0 -0.16702057710E-01  0.11833494369E-01  0.10597981787E-01  0.10208798907E+01  0.10206196371E+01 0.  0.
     999903    2    3    3    0    0 -0.32434123871E-01  0.33715910608E-01  0.12305922694E+00  0.13331362855E+00  0.20981306026E-01 0.  0.
         14    1    1    2    0    0  0.16702057710E-01 -0.11833494369E-01 -0.10597981787E-01  0.23050109299E-01  0.00000000000E+00 0. -1.
     999901    1    3    3    0    0  0.15732066161E-01 -0.21882416239E-01 -0.11246124515E+00  0.88756626215E+00  0.88000000000E+00 0. -1.
        -11    1    4    4    0    0 -0.16284678835E-01  0.77516369074E-02  0.67767990364E-01  0.70128740745E-01  0.51100000000E-03 0. -1.
         11    1    4    4    0    0 -0.16149445036E-01  0.25964273701E-01  0.55291236576E-01  0.63184887805E-01  0.51100000000E-03 0.  1.
</event>
<event>
 8    1  0.1052028E+005  0.1043930E+01  0.7957747E-01            NaN
         13   -1    0    0    0    0  0.00000000000E+00  0.00000000000E+00  0.74505805969E-08  0.10566000000E+00  0.10566000000E+00 0.  1.
     999900   -1    0    0    0    0 -0.00000000000E+00 -0.00000000000E+00 -0.74505805969E-08  0.93827000000E+00  0.93827000000E+00 0. -1.
     999902    2    1    2    0    0  0.16068605855E-01  0.10148987863E-01 -0.16530095609E-01  0.10187417863E+01  0.10184303516E+01 0.  0.
     999903    2    3    3    0    0  0.88610415635E-01 -0.29625903353E-01  0.86804802284E-01  0.12884153500E+00  0.18318502466E-01 0.  0.
         14    1    1    2    0    0 -0.16068605855E-01 -0.10148987863E-01  0.16530095609E-01  0.25188213704E-01  0.00000000000E+00 0. -1.
     999901    1    3    3    0    0 -0.72541809779E-01  0.39774891216E-01 -0.10333489789E+00  0.88990025130E+00  0.88000000000E+00 0. -1.
        -11    1    4    4    0    0  0.33630684183E-01 -0.20480803247E-01  0.33138697628E-01  0.51467665788E-01  0.51100000000E-03 0.  1.
         11    1    4    4    0    0  0.54979731452E-01 -0.91451001065E-02  0.53666104656E-01  0.77373869209E-01  0.51100000000E-03 0. -1.
</event>
<event>
 8    1  0.1052028E+005  0.1043930E+01  0.7957747E-01            NaN
         13   -1    0    0    0    0  0.00000000000E+00  0.00000000000E+00  0.74505805969E-08  0.10566000000E+00  0.10566000000E+00 0. -1.
     999900   -1    0    0    0    0 -0.00000000000E+00 -0.00000000000E+00 -0.74505805969E-08  0.93827000000E+00  0.93827000000E+00 0. -1.
     999902    2    1    2    0    0 -0.22096175511E-01  0.11030722248E-01 -0.67958156264E-02  0.10183155331E+01  0.10179933320E+01 0.  0.
     999903    2    3    3    0    0 -0.11434880701E+00  0.42867943269E-01 -0.44992584215E-01  0.13209707819E+00  0.22627311100E-01 0.  0.
         14    1    1    2    0    0  0.22096175511E-01 -0.11030722248E-01  0.67958156264E-02  0.25614466919E-01  0.00000000000E+00 0. -1.
     999901    1    3    3    0    0  0.92252631496E-01 -0.31837221022E-01  0.38196768588E-01  0.88621845489E+00  0.88000000000E+00 0.  1.
        -11    1    4    4    0    0 -0.95292114873E-01  0.28751926978E-01 -0.29696415532E-01  0.10387203030E+00  0.51100000000E-03 0.  1.
         11    1    4    4    0    0 -0.19056692134E-01  0.14116016291E-01 -0.15296168683E-01  0.28225047890E-01  0.51100000000E-03 0. -1.
</event>
<event>
 8    1  0.1052028E+005  0.1043930E+01  0.7957747E-01            NaN
         13   -1    0    0    0    0  0.00000000000E+00  0.00000000000E+00  0.74505805969E-08  0.10566000000E+00  0.10566000000E+00 0.  1.
     999900   -1    0    0    0    0 -0.00000000000E+00 -0.00000000000E+00 -0.74505805969E-08  0.93827000000E+00  0.93827000000E+00 0. -1.
     999902    2    1    2    0    0 -0.12425065250E-01 -0.53350548587E-02 -0.20066673525E-01  0.10197325530E+01  0.10194454194E+01 0.  0.
     999903    2    3    3    0    0 -0.15515497429E-01  0.10753317726E+00 -0.70500200380E-01  0.13108620642E+00  0.20228702062E-01 0.  0.
         14    1    1    2    0    0  0.12425065250E-01  0.53350548587E-02  0.20066673525E-01  0.24197447038E-01  0.00000000000E+00 0.  1.
     999901    1    3    3    0    0  0.30904321791E-02 -0.11286823212E+00  0.50433526855E-01  0.88864634654E+00  0.88000000000E+00 0. -1.
        -11    1    4    4    0    0 -0.11670795335E-01  0.49996738425E-01 -0.44017430589E-01  0.67628962979E-01  0.51100000000E-03 0.  1.
         11    1    4    4    0    0 -0.38447020946E-02  0.57536438837E-01 -0.26482769791E-01  0.63457243440E-01  0.51100000000E-03 0. -1.
</event>
<event>
 8    1  0.1052028E+005  0.1043930E+01  0.7957747E-01            NaN
         13   -1    0    0    0    0  0.00000000000E+00  0.00000000000E+00  0.74505805969E-08  0.10566000000E+00  0.10566000000E+00 0. -1.
     999900   -1    0    0    0    0 -0.00000000000E+00 -0.00000000000E+00 -0.74505805969E-08  0.93827000000E+00  0.93827000000E+00 0. -1.
     999902    2    1    2    0    0 -0.87079978233E-02  0.24550295555E-02 -0.21743514251E-01  0.10203792716E+01  0.10201074557E+01 0.  0.
     999903    2    3    3    0    0 -0.79735374173E-01 -0.22679977740E-01 -0.10241491067E+00  0.13348326248E+00  0.21374193575E-01 0.  0.
         14    1    1    2    0    0  0.87079978233E-02 -0.24550295555E-02  0.21743514251E-01  0.23550728401E-01  0.00000000000E+00 0. -1.
     999901    1    3    3    0    0  0.71027376350E-01  0.25135007296E-01  0.80671396420E-01  0.88689600911E+00  0.88000000000E+00 0.  1.
        -11    1    4    4    0    0 -0.29049312823E-01 -0.17873180385E-01 -0.33605029230E-01  0.47883945777E-01  0.51100000000E-03 0.  1.
         11    1    4    4    0    0 -0.50686061350E-01 -0.48067973551E-02 -0.68809881441E-01  0.85599316708E-01  0.51100000000E-03 0. -1.
</event>
<event>
 8    1  0.1052028E+005  0.1043930E+01  0.7957747E-01            NaN
         13   -1    0    0    0    0  0.00000000000E+00  0.00000000000E+00  0.74505805969E-08  0.10566000000E+00  0.10566000000E+00 0.  1.
     999900   -1    0    0    0    0 -0.00000000000E+00 -0.00000000000E+00 -0.74505805969E-08  0.93827000000E+00  0.93827000000E+00 0.  1.
     999902    2    1    2    0    0 -0.72054192143E-02  0.21740782844E-01 -0.75726863204E-02  0.10198068724E+01  0.10195215210E+01 0.  0.
     999903    2    3    3    0    0 -0.93665308483E-01 -0.67746149484E-01 -0.55480917242E-01  0.12976281618E+00  0.19938041576E-01 0.  0.
         14    1    1    2    0    0  0.72054192143E-02 -0.21740782844E-01  0.75726863204E-02  0.24123127551E-01  0.00000000000E+00 0.  1.
     999901    1    3    3    0    0  0.86459889269E-01  0.89486932328E-01  0.47908230921E-01  0.89004405627E+00  0.88000000000E+00 0.  1.
        -11    1    4    4    0    0 -0.80487371092E-01 -0.65684812315E-01 -0.50532927504E-01  0.11552726673E+00  0.51100000000E-03 0. -1.
         11    1    4    4    0    0 -0.13177937391E-01 -0.20613371692E-02 -0.49479897372E-02  0.14235549453E-01  0.51100000000E-03 0.  1.
</event>
<event>
 8    1  0.1052028E+005  0.1043930E+01  0.7957747E-01            NaN
         13   -1    0    0    0    0  0.00000000000E+00  0.00000000000E+00  0.74505805969E-08  0.10566000000E+00  0.10566000000E+00 0.  1.
     999900   -1    0    0    0    0 -0.00000000000E+00 -0.00000000000E+00 -0.74505805969E-08  0.93827000000E+00  0.93827000000E+00 0.  1.
     999902    2    1    2    0    0 -0.48520544395E-02  0.11561612579E-01  0.20016882683E-01  0.10203103279E+01  0.10200368995E+01 0.  0.
     999903    2    3    3    0    0 -0.90225044899E-01  0.78834678083E-01  0.53789846785E-01  0.13298016052E+00  0.20854502610E-01 0.  0.
         14    1    1    2    0    0  0.48520544395E-02 -0.11561612579E-01 -0.20016882683E-01  0.23619672098E-01  0.00000000000E+00 0. -1.
     999901    1    3    3    0    0  0.85372990459E-01 -0.67273065504E-01 -0.33772964103E-01  0.88733016738E+00  0.88000000000E+00 0.  1.
        -11    1    4    4    0    0 -0.17069480686E-01  0.52822151091E-02  0.80277004381E-02  0.19595256126E-01  0.51100000000E-03 0.  1.
         11    1    4    4    0    0 -0.73155564213E-01  0.73552462974E-01  0.45762146347E-01  0.11338490439E+00  0.51100000000E-03 0. -1.
</event>
<event>
 8    1  0.1052028E+005  0.1043930E+01  0.7957747E-01            NaN
         13   -1    0    0    0    0  0.00000000000E+00  0.00000000000E+00  0.74505805969E-08  0.10566000000E+00  0.10566000000E+00 0.  1.
     999900   -1    0    0    0    0 -0.00000000000E+00 -0.00000000000E+00 -0.74505805969E-08  0.93827000000E+00  0.93827000000E+00 0. -1.
     999902    2    1    2    0    0  0.17644580993E-01 -0.12232755467E-01 -0.11371903229E-01  0.10196340800E+01  0.10193445764E+01 0.  0.
     999903    2    3    3    0    0 -0.16969560354E-01  0.56832006863E-01 -0.11435494106E+00  0.13026712186E+00  0.19355296724E-01 0.  0.
         14    1    1    2    0    0 -0.17644580993E-01  0.12232755467E-01  0.11371903229E-01  0.24295919983E-01  0.00000000000E+00 0.  1.
     999901    1    3    3    0    0  0.34614141347E-01 -0.69064762330E-01  0.10298303783E+00  0.88936695815E+00  0.88000000000E+00 0.  1.
        -11    1    4    4    0    0 -0.12639825182E-01  0.56569896875E-01 -0.10485694232E+00  0.11981301218E+00  0.51100000000E-03 0. -1.
         11    1    4    4    0    0 -0.43297351711E-02  0.26210998761E-03 -0.94979987360E-02  0.10454109684E-01  0.51100000000E-03 0.  1.
</event>
<event>
 8    1  0.1052028E+005  0.1043930E+01  0.7957747E-01            NaN
         13   -1    0    0    0    0  0.00000000000E+00  0.00000000000E+00  0.74505805969E-08  0.10566000000E+00  0.10566000000E+00 0.  1.
     999900   -1    0    0    0    0 -0.00000000000E+00 -0.00000000000E+00 -0.74505805969E-08  0.93827000000E+00  0.93827000000E+00 0. -1.
     999902    2    1    2    0    0  0.22002194261E-01  0.11272348521E-01 -0.79674792206E-02  0.10179561070E+01  0.10176246816E+01 0.  0.
     999903    2    3    3    0    0  0.58546368700E-01 -0.55690766043E-01  0.98019928544E-01  0.12831973969E+00  0.18135889620E-01 0.  0.
         14    1    1    2    0    0 -0.22002194261E-01 -0.11272348521E-01  0.79674792206E-02  0.25973893020E-01  0.00000000000E+00 0.  1.
     999901    1    3    3    0    0 -0.36544174440E-01  0.66963114565E-01 -0.10598740776E+00  0.88963636729E+00  0.88000000000E+00 0. -1.
        -11    1    4    4    0    0  0.28146198544E-01 -0.28467475579E-01  0.34663739071E-01  0.52956978631E-01  0.51100000000E-03 0.  1.
         11    1    4    4    0    0  0.30400170157E-01 -0.27223290465E-01  0.63356189472E-01  0.75362761061E-01  0.51100000000E-03 0. -1.
</event>
<event>
 8    1  0.1052028E+005  0.1043930E+01  0.7957747E-01            NaN
         13   -1    0    0    0    0  0.00000000000E+00  0.00000000000E+00  0.74505805969E-08  0.10566000000E+00  0.10566000000E+00 0. -1.
     999900   -1    0    0    0    0 -0.00000000000E+00 -0.00000000000E+00 -0.74505805969E-08  0.93827000000E+00  0.93827000000E+00 0. -1.
     999902    2    1    2    0    0  0.22889150378E-01  0.40744027475E-02 -0.34282209030E-02  0.10204296455E+01  0.10201590046E+01 0.  0.
     999903    2    3    3    0    0 -0.37070311435E-02 -0.79932576345E-01  0.10002398250E+00  0.12999891390E+00  0.22180209589E-01 0.  0.
         14    1    1    2    0    0 -0.22889150378E-01 -0.40744027475E-02  0.34282209030E-02  0.23500354493E-01  0.00000000000E+00 0. -1.
     999901    1    3    3    0    0  0.26596181521E-01  0.84006979092E-01 -0.10345220341E+00  0.89043073161E+00  0.88000000000E+00 0. -1.
        -11    1    4    4    0    0 -0.94587667212E-02 -0.44154019292E-01  0.42514288216E-01  0.62022346868E-01  0.51100000000E-03 0.  1.
         11    1    4    4    0    0  0.57517355777E-02 -0.35778557053E-01  0.57509694287E-01  0.67976567028E-01  0.51100000000E-03 0. -1.
</event>
<event>
 8    1  0.1052028E+005  0.1043930E+01  0.7957747E-01            NaN
         13   -1    0    0    0    0  0.00000000000E+00  0.00000000000E+00  0.74505805969E-08  0.10566000000E+00  0.10566000000E+00 0. -1.
     999900   -1    0    0    0    0 -0.00000000000E+00 -0.00000000000E+00 -0.74505805969E-08  0.93827000000E+00  0.93827000000E+00 0.  1.
     999902    2    1    2    0    0 -0.18600971806E-01  0.27759608699E-02 -0.14192478030E-01  0.10203688340E+01  0.10200967743E+01 0.  0.
     999903    2    3    3    0    0  0.87456741187E-01  0.75731404936E-01 -0.55946172834E-01  0.13002389728E+00  0.19806875991E-01 0.  0.
         14    1    1    2    0    0  0.18600971806E-01 -0.27759608699E-02  0.14192478030E-01  0.23561166005E-01  0.00000000000E+00 0. -1.
     999901    1    3    3    0    0 -0.10605771299E+00 -0.72955444066E-01  0.41753694804E-01  0.89034493671E+00  0.88000000000E+00 0. -1.
        -11    1    4    4    0    0  0.74549876477E-01  0.54595036172E-01 -0.40987477476E-01  0.10108677702E+00  0.51100000000E-03 0.  1.
         11    1    4    4    0    0  0.12906864711E-01  0.21136368764E-01 -0.14958695358E-01  0.28937120261E-01  0.51100000000E-03 0. -1.
</event>
<event>
 8    1  0.1052028E+005  0.1043930E+01  0.7957747E-01            NaN
         13   -1    0    0    0    0  0.00000000000E+00  0.00000000000E+00  0.74505805969E-08  0.10566000000E+00  0.10566000000E+00 0.  1.
     999900   -1    0    0    0    0 -0.00000000000E+00 -0.00000000000E+00 -0.74505805969E-08  0.93827000000E+00  0.93827000000E+00 0.  1.
     999902    2    1    2    0    0 -0.10180873799E-01 -0.72692318592E-02 -0.20139384475E-01  0.10202216316E+01  0.10199461216E+01 0.  0.
     999903    2    3    3    0    0 -0.73225801857E-01 -0.10807995156E+00 -0.19560288422E-02  0.13203916245E+00  0.19677916161E-01 0.  0.
         14    1    1    2    0    0  0.10180873799E-01  0.72692318592E-02  0.20139384475E-01  0.23708368357E-01  0.00000000000E+00 0.  1.
     999901    1    3    3    0    0  0.63044928059E-01  0.10081071970E+00 -0.18183355633E-01  0.88818246919E+00  0.88000000000E+00 0. -1.
        -11    1    4    4    0    0 -0.29604602791E-01 -0.31024595989E-01 -0.64979664973E-02  0.43375600887E-01  0.51100000000E-03 0. -1.
         11    1    4    4    0    0 -0.43621199066E-01 -0.77055355572E-01  0.45419376551E-02  0.88663561562E-01  0.51100000000E-03 0.  1.
</event>
<event>
 8    1  0.1052028E+005  0.1043930E+01  0.7957747E-01            NaN
         13   -1    0    0    0    0  0.00000000000E+00  0.00000000000E+00  0.74505805969E-08  0.10566000000E+00  0.10566000000E+00 0. -1.
     999900   -1    0    0    0    0 -0.00000000000E+00 -0.00000000000E+00 -0.74505805969E-08  0.93827000000E+00  0.93827000000E+00 0.  1.
     999902    2    1    2    0    0 -0.75583996591E-02  0.21693200629E-01  0.84382809501E-02  0.10194569752E+01  0.10191631838E+01 0.  0.
     999903    2    3    3    0    0 -0.35364672820E-01 -0.96480877754E-01 -0.72279108920E-01  0.12746280554E+00  0.21523878687E-01 0.  0.
         14    1    1    2    0    0  0.75583996591E-02 -0.21693200629E-01 -0.84382809501E-02  0.24473024830E-01  0.00000000000E+00 0. -1.
     999901    1    3    3    0    0  0.27806273161E-01  0.11817407838E+00  0.80717389870E-01  0.89199416963E+00  0.88000000000E+00 0. -1.
        -11    1    4    4    0    0 -0.35036196209E-02 -0.31019291698E-01 -0.14052137113E-01  0.34237340527E-01  0.51100000000E-03 0.  1.
         11    1    4    4    0    0 -0.31861053199E-01 -0.65461586056E-01 -0.58226971807E-01  0.93225465012E-01  0.51100000000E-03 0. -1.
</event>
<event>
 8    1  0.1398761E+005  0.1043930E+01  0.7957747E-01            NaN
         13   -1    0    0    0    0  0.00000000000E+00  0.00000000000E+00  0.74505805969E-08  0.10566000000E+00  0.10566000000E+00 0. -1.
     999900   -1    0    0    0    0 -0.00000000000E+00 -0.00000000000E+00 -0.74505805969E-08  0.93827000000E+00  0.93827000000E+00 0.  1.
     999902    2    1    2    0    0  0.17984721769E-01  0.23089814384E-01 -0.16652291725E-01  0.10102567381E+01  0.10096953939E+01 0.  0.
     999903    2    3    3    0    0 -0.55029006596E-01  0.90249563529E-01  0.56837597093E-01  0.12163859731E+00  0.19805570629E-01 0.  0.
         14    1    1    2    0    0 -0.17984721769E-01 -0.23089814384E-01  0.16652291725E-01  0.33673261871E-01  0.00000000000E+00 0.  1.
     999901    1    3    3    0    0  0.73013728365E-01 -0.67159749145E-01 -0.73489888817E-01  0.88861814082E+00  0.88000000000E+00 0.  1.
        -11    1    4    4    0    0 -0.40494949531E-01  0.48094578659E-01  0.31004902262E-01  0.70103455829E-01  0.51100000000E-03 0. -1.
         11    1    4    4    0    0 -0.14534057065E-01  0.42154984870E-01  0.25832694831E-01  0.51535141480E-01  0.51100000000E-03 0.  1.
</event>
<event>
 8    1  0.1052028E+005  0.1043930E+01  0.7957747E-01            NaN
         13   -1    0    0    0    0  0.00000000000E+00  0.00000000000E+00  0.74505805969E-08  0.10566000000E+00  0.10566000000E+00 0.  1.
     999900   -1    0    0    0    0 -0.00000000000E+00 -0.00000000000E+00 -0.74505805969E-08  0.93827000000E+00  0.93827000000E+00 0.  1.
     999902    2    1    2    0    0 -0.14767707314E-01 -0.18666327372E-01 -0.29631548261E-02  0.10199446452E+01  0.10196625825E+01 0.  0.
     999903    2    3    3    0    0 -0.42435039501E-01 -0.64188194028E-01  0.10508757607E+00  0.13173707824E+00  0.19758600885E-01 0.  0.
         14    1    1    2    0    0  0.14767707314E-01  0.18666327372E-01  0.29631548261E-02  0.23985354769E-01  0.00000000000E+00 0.  1.
     999901    1    3    3    0    0  0.27667332187E-01  0.45521866656E-01 -0.10805073090E+00  0.88820756699E+00  0.88000000000E+00 0.  1.
        -11    1    4    4    0    0 -0.10554842133E-01 -0.17424464070E-01  0.14837984549E-01  0.25208005615E-01  0.51100000000E-03 0.  1.
         11    1    4    4    0    0 -0.31880197367E-01 -0.46763729958E-01  0.90249591520E-01  0.10652907262E+00  0.51100000000E-03 0. -1.
</event>
<event>
 8    1  0.1052028E+005  0.1043930E+01  0.7957747E-01            NaN
         13   -1    0    0    0    0  0.00000000000E+00  0.00000000000E+00  0.74505805969E-08  0.10566000000E+00  0.10566000000E+00 0.  1.
     999900   -1    0    0    0    0 -0.00000000000E+00 -0.00000000000E+00 -0.74505805969E-08  0.93827000000E+00  0.93827000000E+00 0. -1.
     999902    2    1    2    0    0 -0.98791083459E-02 -0.55578713190E-02  0.20062285727E-01  0.10208869528E+01  0.10206268605E+01 0.  0.
     999903    2    3    3    0    0 -0.52409602803E-01 -0.11523165510E+00  0.35346196728E-01  0.13292818139E+00  0.19885848722E-01 0.  0.
         14    1    1    2    0    0  0.98791083459E-02  0.55578713190E-02 -0.20062285727E-01  0.23043047192E-01  0.00000000000E+00 0.  1.
     999901    1    3    3    0    0  0.42530494457E-01  0.10967378379E+00 -0.15283911001E-01  0.88795877142E+00  0.88000000000E+00 0.  1.
        -11    1    4    4    0    0 -0.22730337463E-01 -0.33838859909E-01  0.47305028751E-02  0.41041143498E-01  0.51100000000E-03 0.  1.
         11    1    4    4    0    0 -0.29679265339E-01 -0.81392795195E-01  0.30615693853E-01  0.91887037888E-01  0.51100000000E-03 0. -1.
</event>
<event>
 8    1  0.1052028E+005  0.1043930E+01  0.7957747E-01            NaN
         13   -1    0    0    0    0  0.00000000000E+00  0.00000000000E+00  0.74505805969E-08  0.10566000000E+00  0.10566000000E+00 0.  1.
     999900   -1    0    0    0    0 -0.00000000000E+00 -0.00000000000E+00 -0.74505805969E-08  0.93827000000E+00  0.93827000000E+00 0.  1.
     999902    2    1    2    0    0  0.39450910628E-02  0.16193457615E-01 -0.18332329002E-01  0.10191536786E+01  0.10188524695E+01 0.  0.
     999903    2    3    3    0    0 -0.18694751999E-01  0.11541231362E+00 -0.59138673937E-01  0.13234924606E+00  0.18693429047E-01 0.  0.
         14    1    1    2    0    0 -0.39450910628E-02 -0.16193457615E-01  0.18332329002E-01  0.24776321350E-01  0.00000000000E+00 0.  1.
     999901    1    3    3    0    0  0.22639843062E-01 -0.99218856004E-01  0.40806344936E-01  0.88680443259E+00  0.88000000000E+00 0. -1.
        -11    1    4    4    0    0 -0.14329978476E-01  0.47093250328E-01 -0.31952628902E-01  0.58688620058E-01  0.51100000000E-03 0.  1.
         11    1    4    4    0    0 -0.43647735226E-02  0.68319063290E-01 -0.27186045036E-01  0.73660625998E-01  0.51100000000E-03 0. -1.
</event>
<event>
 8    1  0.1052028E+005  0.1043930E+01  0.7957747E-01            NaN
         13   -1    0    0    0    0  0.00000000000E+00  0.00000000000E+00  0.74505805969E-08  0.10566000000E+00  0.10566000000E+00 0. -1.
     999900   -1    0    0    0    0 -0.00000000000E+00 -0.00000000000E+00 -0.74505805969E-08  0.93827000000E+00  0.93827000000E+00 0.  1.
     999902    2    1    2    0    0 -0.20958040981E-01 -0.12863243531E-01  0.40209452201E-02  0.10190127265E+01  0.10187080378E+01 0.  0.
     999903    2    3    3    0    0 -0.12623240309E+00 -0.20784044250E-01  0.28038642908E-01  0.13237735606E+00  0.19261433334E-01 0.  0.
         14    1    1    2    0    0  0.20958040981E-01  0.12863243531E-01 -0.40209452201E-02  0.24917273454E-01  0.00000000000E+00 0. -1.
     999901    1    3    3    0    0  0.10527436211E+00  0.79208007190E-02 -0.24017697687E-01  0.88663537049E+00  0.88000000000E+00 0. -1.
        -11    1    4    4    0    0 -0.10227612942E-01 -0.72769797607E-02  0.34439340393E-02  0.13026139244E-01  0.51100000000E-03 0. -1.
         11    1    4    4    0    0 -0.11600479015E+00 -0.13507064489E-01  0.24594708868E-01  0.11935121681E+00  0.51100000000E-03 0.  1.
</event>
<event>
 8    1  0.1052028E+005  0.1043930E+01  0.7957747E-01            NaN
         13   -1    0    0    0    0  0.00000000000E+00  0.00000000000E+00  0.74505805969E-08  0.10566000000E+00  0.10566000000E+00 0. -1.
     999900   -1    0    0    0    0 -0.00000000000E+00 -0.00000000000E+00 -0.74505805969E-08  0.93827000000E+00  0.93827000000E+00 0.  1.
     999902    2    1    2    0    0 -0.35222943928E-02 -0.52931988320E-02 -0.22782974674E-01  0.10202764919E+01  0.10200022703E+01 0.  0.
     999903    2    3    3    0    0  0.12717266258E+00  0.28682863836E-02 -0.22496600881E-01  0.13058673492E+00  0.19122894979E-01 0.  0.
         14    1    1    2    0    0  0.35222943928E-02  0.52931988320E-02  0.22782974674E-01  0.23653508126E-01  0.00000000000E+00 0. -1.
     999901    1    3    3    0    0 -0.13069495697E+00 -0.81614852155E-02 -0.28637379323E-03  0.88968975695E+00  0.88000000000E+00 0.  1.
        -11    1    4    4    0    0  0.91879387542E-01 -0.64325195129E-02 -0.14906412643E-01  0.93304133999E-01  0.51100000000E-03 0. -1.
         11    1    4    4    0    0  0.35293275035E-01  0.93008058965E-02 -0.75901882375E-02  0.37282600922E-01  0.51100000000E-03 0.  1.
</event>
<event>
 8    1  0.1052028E+005  0.1043930E+01  0.7957747E-01            NaN
         13   -1    0    0    0    0  0.00000000000E+00  0.00000000000E+00  0.74505805969E-08  0.10566000000E+00  0.10566000000E+00 0. -1.
     999900   -1    0    0    0    0 -0.00000000000E+00 -0.00000000000E+00 -0.74505805969E-08  0.93827000000E+00  0.93827000000E+00 0. -1.
     999902    2    1    2    0    0 -0.24377117449E-01  0.67209510745E-03  0.76827332773E-02  0.10183620521E+01  0.10180410352E+01 0.  0.
     999903    2    3    3    0    0 -0.32788019386E-01 -0.80473044082E-01 -0.92567596519E-01  0.12892098860E+00  0.22380713542E-01 0.  0.
         14    1    1    2    0    0  0.24377117449E-01 -0.67209510745E-03 -0.76827332773E-02  0.25567947856E-01  0.00000000000E+00 0. -1.
     999901    1    3    3    0    0  0.84109019375E-02  0.81145139189E-01  0.10025032980E+00  0.88944106354E+00  0.88000000000E+00 0.  1.
        -11    1    4    4    0    0 -0.71925251601E-02 -0.34662041925E-01 -0.50438970479E-01  0.61624187074E-01  0.51100000000E-03 0. -1.
         11    1    4    4    0    0 -0.25595494226E-01 -0.45811002157E-01 -0.42128626040E-01  0.67296801531E-01  0.51100000000E-03 0.  1.
</event>
<event>
 8    1  0.1052028E+005  0.1043930E+01  0.7957747E-01            NaN
         13   -1    0    0    0    0  0.00000000000E+00  0.00000000000E+00  0.74505805969E-08  0.10566000000E+00  0.10566000000E+00 0. -1.
     999900   -1    0    0    0    0 -0.00000000000E+00 -0.00000000000E+00 -0.74505805969E-08  0.93827000000E+00  0.93827000000E+00 0. -1.
     999902    2    1    2    0    0 -0.84194668466E-02  0.12080572176E-01 -0.19921723561E-01  0.10191569760E+01  0.10188558481E+01 0.  0.
     999903    2    3    3    0    0  0.81823748377E-01 -0.17340250162E-01  0.93346053750E-01  0.12683471808E+00  0.19435788812E-01 0.  0.
         14    1    1    2    0    0  0.84194668466E-02 -0.12080572176E-01  0.19921723561E-01  0.24773023952E-01  0.00000000000E+00 0.  1.
     999901    1    3    3    0    0 -0.90243215223E-01  0.29420822338E-01 -0.11326777731E+00  0.89232225796E+00  0.88000000000E+00 0.  1.
        -11    1    4    4    0    0  0.62416392479E-01 -0.20925471047E-01  0.67211839624E-01  0.94081740499E-01  0.51100000000E-03 0.  1.
         11    1    4    4    0    0  0.19407355898E-01  0.35852208854E-02  0.26134214126E-01  0.32752977586E-01  0.51100000000E-03 0. -1.
</event>
<event>
 8    1  0.1052028E+005  0.1043930E+01  0.7957747E-01            NaN
         13   -1    0    0    0    0  0.00000000000E+00  0.00000000000E+00  0.74505805969E-08  0.10566000000E+00  0.10566000000E+00 0. -1.
     999900   -1    0    0    0    0 -0.00000000000E+00 -0.00000000000E+00 -0.74505805969E-08  0.93827000000E+00  0.93827000000E+00 0. -1.
     999902    2    1    2    0    0 -0.43784471685E-02 -0.11238932034E-01  0.19969407833E-01  0.10206005842E+01  0.10203339114E+01 0.  0.
     999903    2    3    3    0    0 -0.89117645006E-01  0.53987010148E-01 -0.73719652975E-01  0.12919001924E+00  0.19973029836E-01 0.  0.
         14    1    1    2    0    0  0.43784471685E-02  0.11238932034E-01 -0.19969407833E-01  0.23329415811E-01  0.00000000000E+00 0.  1.
     999901    1    3    3    0    0  0.84739197838E-01 -0.65225942183E-01  0.93689060808E-01  0.89141056495E+00  0.88000000000E+00 0.  1.
        -11    1    4    4    0    0 -0.58840889810E-01  0.46234287800E-01 -0.52080638798E-01  0.91172987999E-01  0.51100000000E-03 0.  1.
         11    1    4    4    0    0 -0.30276755196E-01  0.77527223486E-02 -0.21639014177E-01  0.38017031244E-01  0.51100000000E-03 0. -1.
</event>
<event>
 8    1  0.1052028E+005  0.1043930E+01  0.7957747E-01            NaN
         13   -1    0    0    0    0  0.00000000000E+00  0.00000000000E+00  0.74505805969E-08  0.10566000000E+00  0.10566000000E+00 0.  1.
     999900   -1    0    0    0    0 -0.00000000000E+00 -0.00000000000E+00 -0.74505805969E-08  0.93827000000E+00  0.93827000000E+00 0.  1.
     999902    2    1    2    0    0  0.62689358067E-02 -0.17442256242E-01  0.10377572342E-01  0.10226879223E+01  0.10224672907E+01 0.  0.
     999903    2    3    3    0    0 -0.10307194555E+00  0.65238644028E-01  0.43803801660E-01  0.13144784663E+00  0.21905631914E-01 0.  0.
         14    1    1    2    0    0 -0.62689358067E-02  0.17442256242E-01 -0.10377572342E-01  0.21242077739E-01  0.00000000000E+00 0. -1.
     999901    1    3    3    0    0  0.10934088136E+00 -0.82680900270E-01 -0.33426229318E-01  0.89124007563E+00  0.88000000000E+00 0.  1.
        -11    1    4    4    0    0 -0.52000459838E-01  0.27143055378E-01  0.31396877726E-01  0.66534339483E-01  0.51100000000E-03 0.  1.
         11    1    4    4    0    0 -0.51071485712E-01  0.38095588650E-01  0.12406923934E-01  0.64913507146E-01  0.51100000000E-03 0. -1.
</event>
<event>
 8    1  0.1052028E+005  0.1043930E+01  0.7957747E-01            NaN
         13   -1    0    0    0    0  0.00000000000E+00  0.00000000000E+00  0.74505805969E-08  0.10566000000E+00  0.10566000000E+00 0.  1.
     999900   -1    0    0    0    0 -0.00000000000E+00 -0.00000000000E+00 -0.74505805969E-08  0.93827000000E+00  0.93827000000E+00 0. -1.
     999902    2    1    2    0    0 -0.15480574298E-01  0.18831269381E-01  0.20458814267E-02  0.10194667517E+01  0.10191731979E+01 0.  0.
     999903    2    3    3    0    0  0.87650006280E-01  0.16346429587E-01 -0.90545061498E-01  0.12861593714E+00  0.19847462369E-01 0.  0.
         14    1    1    2    0    0  0.15480574298E-01 -0.18831269381E-01 -0.20458814267E-02  0.24463248311E-01  0.00000000000E+00 0. -1.
     999901    1    3    3    0    0 -0.10313058058E+00  0.24848397942E-02  0.92590942924E-01  0.89085081455E+00  0.88000000000E+00 0. -1.
        -11    1    4    4    0    0  0.33958590383E-01  0.15709734937E-01 -0.41674760208E-01  0.56009181319E-01  0.51100000000E-03 0.  1.
         11    1    4    4    0    0  0.53691415897E-01  0.63669464995E-03 -0.48870301289E-01  0.72606755817E-01  0.51100000000E-03 0. -1.
</event>
<event>
 8    1  0.1052028E+005  0.1043930E+01  0.7957747E-01            NaN
         13   -1    0    0    0    0  0.00000000000E+00  0.00000000000E+00  0.74505805969E-08  0.10566000000E+00  0.10566000000E+00 0.  1.
     999900   -1    0    0    0    0 -0.00000000000E+00 -0.00000000000E+00 -0.74505805969E-08  0.93827000000E+00  0.93827000000E+00 0. -1.
     999902    2    1    2    0    0 -0.59497899096E-02 -0.21266566803E-01 -0.46787870423E-02  0.10213566105E+01  0.10211071286E+01 0.  0.
     999903    2    3    3    0    0 -0.50248149429E-01 -0.75012076498E-01  0.95480869006E-01  0.13294067126E+00  0.20123061071E-01 0.  0.
         14    1    1    2    0    0  0.59497899096E-02  0.21266566803E-01  0.46787870423E-02  0.22573389461E-01  0.00000000000E+00 0. -1.
     999901    1    3    3    0    0  0.44298359519E-01  0.53745509695E-01 -0.10015965605E+00  0.88841593928E+00  0.88000000000E+00 0. -1.
        -11    1    4    4    0    0 -0.35172970178E-01 -0.61525284962E-01  0.63850352185E-01  0.95391965678E-01  0.51100000000E-03 0. -1.
         11    1    4    4    0    0 -0.15075179251E-01 -0.13486791536E-01  0.31630516821E-01  0.37548705580E-01  0.51100000000E-03 0.  1.
</event>
<event>
 8    1  0.1052028E+005  0.1043930E+01  0.7957747E-01            NaN
         13   -1    0    0    0    0  0.00000000000E+00  0.00000000000E+00  0.74505805969E-08  0.10566000000E+00  0.10566000000E+00 0. -1.
     999900   -1    0    0    0    0 -0.00000000000E+00 -0.00000000000E+00 -0.74505805969E-08  0.93827000000E+00  0.93827000000E+00 0. -1.
     999902    2    1    2    0    0  0.20025373056E-02  0.24543806895E-01  0.31993153473E-02  0.10190976777E+01  0.10187950885E+01 0.  0.
     999903    2    3    3    0    0 -0.58436608349E-01 -0.10258737715E+00  0.42450697538E-01  0.12704616612E+00  0.19991484661E-01 0.  0.
         14    1    1    2    0    0 -0.20025373056E-02 -0.24543806895E-01 -0.31993153473E-02  0.24832322309E-01  0.00000000000E+00 0.  1.
     999901    1    3    3    0    0  0.60439145654E-01  0.12713118405E+00 -0.39251382190E-01  0.89205151157E+00  0.88000000000E+00 0. -1.
        -11    1    4    4    0    0 -0.42491150622E-01 -0.83412816842E-01  0.40586729107E-01  0.10203303188E+00  0.51100000000E-03 0. -1.
         11    1    4    4    0    0 -0.15945457726E-01 -0.19174560311E-01  0.18639684302E-02  0.25013134240E-01  0.51100000000E-03 0.  1.
</event>
<event>
 8    1  0.1052028E+005  0.1043930E+01  0.7957747E-01            NaN
         13   -1    0    0    0    0  0.00000000000E+00  0.00000000000E+00  0.74505805969E-08  0.10566000000E+00  0.10566000000E+00 0.  1.
     999900   -1    0    0    0    0 -0.00000000000E+00 -0.00000000000E+00 -0.74505805969E-08  0.93827000000E+00  0.93827000000E+00 0. -1.
     999902    2    1    2    0    0 -0.12775876703E-01  0.79590925990E-02 -0.18709331998E-01  0.10199173099E+01  0.10196345962E+01 0.  0.
     999903    2    3    3    0    0  0.31427556928E-01 -0.11786930917E+00 -0.38978024333E-01  0.12963783127E+00  0.20144863801E-01 0.  0.
         14    1    1    2    0    0  0.12775876703E-01 -0.79590925990E-02  0.18709331998E-01  0.24012690069E-01  0.00000000000E+00 0.  1.
     999901    1    3    3    0    0 -0.44203433631E-01  0.12582840177E+00  0.20268692335E-01  0.89027947866E+00  0.88000000000E+00 0. -1.
        -11    1    4    4    0    0  0.14278801776E-01 -0.42594191504E-01 -0.47230484984E-02  0.45174302852E-01  0.51100000000E-03 0.  1.
         11    1    4    4    0    0  0.17148755152E-01 -0.75275117663E-01 -0.34254975835E-01  0.84463528418E-01  0.51100000000E-03 0. -1.
</event>
<event>
 8    1  0.1052028E+005  0.1043930E+01  0.7957747E-01            NaN
         13   -1    0    0    0    0  0.00000000000E+00  0.00000000000E+00  0.74505805969E-08  0.10566000000E+00  0.10566000000E+00 0.  1.
     999900   -1    0    0    0    0 -0.00000000000E+00 -0.00000000000E+00 -0.74505805969E-08  0.93827000000E+00  0.93827000000E+00 0.  1.
     999902    2    1    2    0    0 -0.34023177363E-02  0.24043645759E-01 -0.11060362155E-02  0.10196216479E+01  0.10193318443E+01 0.  0.
     999903    2    3    3    0    0 -0.14011023551E-01  0.11776737564E+00 -0.57530161555E-01  0.13278436623E+00  0.16015769733E-01 0.  0.
         14    1    1    2    0    0  0.34023177363E-02 -0.24043645759E-01  0.11060362155E-02  0.24308352135E-01  0.00000000000E+00 0.  1.
     999901    1    3    3    0    0  0.10608705814E-01 -0.93723729880E-01  0.56424125339E-01  0.88683728164E+00  0.88000000000E+00 0. -1.
        -11    1    4    4    0    0 -0.79924291274E-02  0.35621166430E-01 -0.10754452884E-01  0.38061342581E-01  0.51100000000E-03 0. -1.
         11    1    4    4    0    0 -0.60185944233E-02  0.82146209209E-01 -0.46775708670E-01  0.94723023647E-01  0.51100000000E-03 0.  1.
</event>
<event>
 8    1  0.1052028E+005  0.1043930E+01  0.7957747E-01            NaN
         13   -1    0    0    0    0  0.00000000000E+00  0.00000000000E+00  0.74505805969E-08  0.10566000000E+00  0.10566000000E+00 0. -1.
     999900   -1    0    0    0    0 -0.00000000000E+00 -0.00000000000E+00 -0.74505805969E-08  0.93827000000E+00  0.93827000000E+00 0. -1.
     999902    2    1    2    0    0 -0.31431331378E-02 -0.24082926570E-01  0.30257143408E-02  0.10194550825E+01  0.10191612452E+01 0.  0.
     999903    2    3    3    0    0 -0.12704254121E+00  0.12632324623E-01  0.14031573076E-01  0.12994948843E+00  0.19763643333E-01 0.  0.
         14    1    1    2    0    0  0.31431331378E-02  0.24082926570E-01 -0.30257143408E-02  0.24474917475E-01  0.00000000000E+00 0. -1.
     999901    1    3    3    0    0  0.12389940808E+00 -0.36715251193E-01 -0.11005858736E-01  0.88950559409E+00  0.88000000000E+00 0. -1.
        -11    1    4    4    0    0 -0.47302310126E-01  0.94880785932E-02  0.13664134215E-01  0.50144808938E-01  0.51100000000E-03 0.  1.
         11    1    4    4    0    0 -0.79740231089E-01  0.31442460297E-02  0.36743886157E-03  0.79804679497E-01  0.51100000000E-03 0. -1.
</event>
<event>
 8    1  0.1052028E+005  0.1043930E+01  0.7957747E-01            NaN
         13   -1    0    0    0    0  0.00000000000E+00  0.00000000000E+00  0.74505805969E-08  0.10566000000E+00  0.10566000000E+00 0.  1.
     999900   -1    0    0    0    0 -0.00000000000E+00 -0.00000000000E+00 -0.74505805969E-08  0.93827000000E+00  0.93827000000E+00 0. -1.
     999902    2    1    2    0    0  0.85459733905E-02 -0.18745107421E-01 -0.11460889399E-01  0.10203553378E+01  0.10200829626E+01 0.  0.
     999903    2    3    3    0    0  0.47181658166E-01  0.78404276852E-01 -0.91325526712E-01  0.13057498325E+00  0.18333982786E-01 0.  0.
         14    1    1    2    0    0 -0.85459733905E-02  0.18745107421E-01  0.11460889399E-01  0.23574662229E-01  0.00000000000E+00 0.  1.
     999901    1    3    3    0    0 -0.38635684775E-01 -0.97149384273E-01  0.79864637313E-01  0.88978035452E+00  0.88000000000E+00 0.  1.
        -11    1    4    4    0    0  0.20117223628E-01  0.44566362144E-01 -0.38411809150E-01  0.62181922811E-01  0.51100000000E-03 0.  1.
         11    1    4    4    0    0  0.27064434538E-01  0.33837914708E-01 -0.52913717562E-01  0.68393060436E-01  0.51100000000E-03 0. -1.
</event>
<event>
 8    1  0.1052028E+005  0.1043930E+01  0.7957747E-01            NaN
         13   -1    0    0    0    0  0.00000000000E+00  0.00000000000E+00  0.74505805969E-08  0.10566000000E+00  0.10566000000E+00 0.  1.
     999900   -1    0    0    0    0 -0.00000000000E+00 -0.00000000000E+00 -0.74505805969E-08  0.93827000000E+00  0.93827000000E+00 0.  1.
     999902    2    1    2    0    0  0.18549225319E-01 -0.19926407047E-01 -0.23517399098E-02  0.10166048076E+01  0.10162375061E+01 0.  0.
     999903    2    3    3    0    0 -0.11835364590E+00  0.32196858050E-01  0.62294475804E-02  0.12445410977E+00  0.20144385195E-01 0.  0.
         14    1    1    2    0    0 -0.18549225319E-01  0.19926407047E-01  0.23517399098E-02  0.27325192375E-01  0.00000000000E+00 0. -1.
     999901    1    3    3    0    0  0.13690287122E+00 -0.52123265097E-01 -0.85811874902E-02  0.89215069786E+00  0.88000000000E+00 0.  1.
        -11    1    4    4    0    0 -0.13770070195E-01  0.71222042638E-02 -0.50568604791E-02  0.16314827172E-01  0.51100000000E-03 0.  1.
         11    1    4    4    0    0 -0.10458357570E+00  0.25074653786E-01  0.11286308060E-01  0.10813928259E+00  0.51100000000E-03 0. -1.
</event>
<event>
 8    1  0.1052028E+005  0.1043930E+01  0.7957747E-01            NaN
         13   -1    0    0    0    0  0.00000000000E+00  0.00000000000E+00  0.74505805969E-08  0.10566000000E+00  0.10566000000E+00 0. -1.
     999900   -1    0    0    0    0 -0.00000000000E+00 -0.00000000000E+00 -0.74505805969E-08  0.93827000000E+00  0.93827000000E+00 0. -1.
     999902    2    1    2    0    0 -0.12165471609E-01 -0.19471780349E-01 -0.71553418703E-02  0.10198811363E+01  0.10195975600E+01 0.  0.
     999903    2    3    3    0    0 -0.12322392530E+00  0.33541729767E-01 -0.22008656377E-01  0.13119388344E+00  0.20451667304E-01 0.  0.
         14    1    1    2    0    0  0.12165471609E-01  0.19471780349E-01  0.71553418703E-02  0.24048863730E-01  0.00000000000E+00 0. -1.
     999901    1    3    3    0    0  0.11105845369E+00 -0.53013510117E-01  0.14853314507E-01  0.88868725283E+00  0.88000000000E+00 0.  1.
        -11    1    4    4    0    0 -0.44949697567E-01  0.61118349284E-02  0.56528528747E-04  0.45366222612E-01  0.51100000000E-03 0.  1.
         11    1    4    4    0    0 -0.78274227728E-01  0.27429894839E-01 -0.22065184906E-01  0.85827660828E-01  0.51100000000E-03 0. -1.
</event>
<event>
 8    1  0.1052028E+005  0.1043930E+01  0.7957747E-01            NaN
         13   -1    0    0    0    0  0.00000000000E+00  0.00000000000E+00  0.74505805969E-08  0.10566000000E+00  0.10566000000E+00 0. -1.
     999900   -1    0    0    0    0 -0.00000000000E+00 -0.00000000000E+00 -0.74505805969E-08  0.93827000000E+00  0.93827000000E+00 0.  1.
     999902    2    1    2    0    0 -0.20066785375E-01  0.62849510455E-02  0.11890132394E-01  0.10197731845E+01  0.10194870260E+01 0.  0.
     999903    2    3    3    0    0  0.13311634455E-02  0.34826672865E-01  0.12542455888E+00  0.13176272959E+00  0.20382046047E-01 0.  0.
         14    1    1    2    0    0  0.20066785375E-01 -0.62849510455E-02 -0.11890132394E-01  0.24156815462E-01  0.00000000000E+00 0.  1.
     999901    1    3    3    0    0 -0.21397948820E-01 -0.28541721820E-01 -0.11353442648E+00  0.88801045495E+00  0.88000000000E+00 0.  1.
        -11    1    4    4    0    0  0.97125235251E-02  0.26178205579E-01  0.78687121503E-01  0.83495842843E-01  0.51100000000E-03 0. -1.
         11    1    4    4    0    0 -0.83813600796E-02  0.86484672857E-02  0.46737437373E-01  0.48266886748E-01  0.51100000000E-03 0.  1.
</event>
<event>
 8    1  0.1052028E+005  0.1043930E+01  0.7957747E-01            NaN
         13   -1    0    0    0    0  0.00000000000E+00  0.00000000000E+00  0.74505805969E-08  0.10566000000E+00  0.10566000000E+00 0. -1.
     999900   -1    0    0    0    0 -0.00000000000E+00 -0.00000000000E+00 -0.74505805969E-08  0.93827000000E+00  0.93827000000E+00 0.  1.
     999902    2    1    2    0    0  0.63936328646E-02  0.16879393480E-01 -0.14916469552E-01  0.10205143315E+01  0.10202456603E+01 0.  0.
     999903    2    3    3    0    0 -0.95221192012E-01 -0.73387444524E-01 -0.45625160615E-01  0.12955041623E+00  0.15775380905E-01 0.  0.
         14    1    1    2    0    0 -0.63936328646E-02 -0.16879393480E-01  0.14916469552E-01  0.23415668458E-01  0.00000000000E+00 0.  1.
     999901    1    3    3    0    0  0.10161482488E+00  0.90266838004E-01  0.30708691064E-01  0.89096391531E+00  0.88000000000E+00 0. -1.
        -11    1    4    4    0    0 -0.18778547691E-01 -0.22948778089E-01 -0.11817357056E-01  0.31924775926E-01  0.51100000000E-03 0. -1.
         11    1    4    4    0    0 -0.76442644321E-01 -0.50438666435E-01 -0.33807803559E-01  0.97625640305E-01  0.51100000000E-03 0.  1.
</event>
<event>
 8    1  0.1052028E+005  0.1043930E+01  0.7957747E-01            NaN
         13   -1    0    0    0    0  0.00000000000E+00  0.00000000000E+00  0.74505805969E-08  0.10566000000E+00  0.10566000000E+00 0. -1.
     999900   -1    0    0    0    0 -0.00000000000E+00 -0.00000000000E+00 -0.74505805969E-08  0.93827000000E+00  0.93827000000E+00 0.  1.
     999902    2    1    2    0    0 -0.13608306348E-01  0.57396256462E-03  0.19943267838E-01  0.10197794438E+01  0.10194934353E+01 0.  0.
     999903    2    3    3    0    0 -0.10557971720E+00  0.73230678976E-01  0.22595789542E-01  0.13200426122E+00  0.20118306331E-01 0.  0.
         14    1    1    2    0    0  0.13608306348E-01 -0.57396256462E-03 -0.19943267838E-01  0.24150556241E-01  0.00000000000E+00 0.  1.
     999901    1    3    3    0    0  0.91971410849E-01 -0.72656716411E-01 -0.26525217037E-02  0.88777518253E+00  0.88000000000E+00 0. -1.
        -11    1    4    4    0    0 -0.54768539387E-01  0.40896983948E-01  0.21126439253E-02  0.68387722495E-01  0.51100000000E-03 0.  1.
         11    1    4    4    0    0 -0.50811177810E-01  0.32333695028E-01  0.20483145616E-01  0.63616538730E-01  0.51100000000E-03 0. -1.
</event>
<event>
 8    1  0.1052028E+005  0.1043930E+01  0.7957747E-01            NaN
         13   -1    0    0    0    0  0.00000000000E+00  0.00000000000E+00  0.74505805969E-08  0.10566000000E+00  0.10566000000E+00 0. -1.
     999900   -1    0    0    0    0 -0.00000000000E+00 -0.00000000000E+00 -0.74505805969E-08  0.93827000000E+00  0.93827000000E+00 0.  1.
     999902    2    1    2    0    0  0.28985855497E-02  0.78553612326E-02 -0.21783777148E-01  0.10205924456E+01  0.10203255846E+01 0.  0.
     999903    2    3    3    0    0 -0.12644142677E+00 -0.10270223972E-01 -0.25881874722E-01  0.13094410495E+00  0.19585077921E-01 0.  0.
         14    1    1    2    0    0 -0.28985855497E-02 -0.78553612326E-02  0.21783777148E-01  0.23337554395E-01  0.00000000000E+00 0. -1.
     999901    1    3    3    0    0  0.12934001232E+00  0.18125585205E-01  0.40980975744E-02  0.88964834066E+00  0.88000000000E+00 0.  1.
        -11    1    4    4    0    0 -0.93977588147E-01 -0.15419342249E-01 -0.22797152813E-01  0.97926066431E-01  0.51100000000E-03 0.  1.
         11    1    4    4    0    0 -0.32463838627E-01  0.51491182771E-02 -0.30847219095E-02  0.33018038519E-01  0.51100000000E-03 0. -1.
</event>
<event>
 8    1  0.1052028E+005  0.1043930E+01  0.7957747E-01            NaN
         13   -1    0    0    0    0  0.00000000000E+00  0.00000000000E+00  0.74505805969E-08  0.10566000000E+00  0.10566000000E+00 0.  1.
     999900   -1    0    0    0    0 -0.00000000000E+00 -0.00000000000E+00 -0.74505805969E-08  0.93827000000E+00  0.93827000000E+00 0. -1.
     999902    2    1    2    0    0 -0.16471477679E-01 -0.10968679327E-02 -0.16031641445E-01  0.10209185632E+01  0.10206591921E+01 0.  0.
     999903    2    3    3    0    0  0.70375148942E-01 -0.25992250001E-02  0.10537737516E+00  0.12834658126E+00  0.20224642544E-01 0.  0.
         14    1    1    2    0    0  0.16471477679E-01  0.10968679327E-02  0.16031641445E-01  0.23011436800E-01  0.00000000000E+00 0.  1.
     999901    1    3    3    0    0 -0.86846626621E-01  0.15023570674E-02 -0.12140901661E+00  0.89257198194E+00  0.88000000000E+00 0. -1.
        -11    1    4    4    0    0  0.45594939748E-01  0.32967084486E-02  0.52253852284E-01  0.69429770393E-01  0.51100000000E-03 0.  1.
         11    1    4    4    0    0  0.24780209194E-01 -0.58959334487E-02  0.53123522876E-01  0.58916810866E-01  0.51100000000E-03 0. -1.
</event>
<event>
 8    1  0.1052028E+005  0.1043930E+01  0.7957747E-01            NaN
         13   -1    0    0    0    0  0.00000000000E+00  0.00000000000E+00  0.74505805969E-08  0.10566000000E+00  0.10566000000E+00 0.  1.
     999900   -1    0    0    0    0 -0.00000000000E+00 -0.00000000000E+00 -0.74505805969E-08  0.93827000000E+00  0.93827000000E+00 0. -1.
     999902    2    1    2    0    0 -0.16216251509E-02 -0.30352409902E-02  0.11654211504E-01  0.10317783334E+01  0.10317067734E+01 0.  0.
     999903    2    3    3    0    0  0.30059430744E-02  0.10234238649E+00  0.95473328905E-01  0.14152471603E+00  0.20762681629E-01 0.  0.
         14    1    1    2    0    0  0.16216251509E-02  0.30352409902E-02 -0.11654211504E-01  0.12151666626E-01  0.00000000000E+00 0. -1.
     999901    1    3    3    0    0 -0.46275682253E-02 -0.10537762748E+00 -0.83819117401E-01  0.89025361735E+00  0.88000000000E+00 0. -1.
        -11    1    4    4    0    0  0.10423337666E-01  0.47235944130E-01  0.37620663978E-01  0.61281774330E-01  0.51100000000E-03 0. -1.
         11    1    4    4    0    0 -0.74173945920E-02  0.55106442357E-01  0.57852664927E-01  0.80242941695E-01  0.51100000000E-03 0.  1.
</event>
<event>
 7    1  0.1052028E+005  0.1043930E+01  0.7957747E-01            NaN
         13   -1    0    0    0    0  0.00000000000E+00  0.00000000000E+00  0.74505805969E-08  0.10566000000E+00  0.10566000000E+00 0. -1.
     999900   -1    0    0    0    0 -0.00000000000E+00 -0.00000000000E+00 -0.74505805969E-08  0.93827000000E+00  0.93827000000E+00 0. -1.
     999903    2    1    2    0    0  0.96017286659E-01 -0.21327792969E-01 -0.48561854062E-01  0.11142864349E+00  0.19593234294E-01 0.  0.
         14    1    1    2    0    0 -0.26597849872E-01  0.36137442191E-01  0.20147363992E-01  0.49186142578E-01  0.00000000000E+00 0. -1.
     999901    1    1    2    0    0 -0.69419436787E-01 -0.14809649221E-01  0.28414490070E-01  0.88331521393E+00  0.88000000000E+00 0. -1.
        -11    1    3    3    0    0  0.80666514851E-02  0.34875834745E-02 -0.57256703454E-02  0.10501358321E-01  0.51100000000E-03 0.  1.
         11    1    3    3    0    0  0.87950635174E-01 -0.24815376444E-01 -0.42836183717E-01  0.10092728517E+00  0.51100000000E-03 0. -1.
</event>
<event>
 8    1  0.1052028E+005  0.1043930E+01  0.7957747E-01            NaN
         13   -1    0    0    0    0  0.00000000000E+00  0.00000000000E+00  0.74505805969E-08  0.10566000000E+00  0.10566000000E+00 0.  1.
     999900   -1    0    0    0    0 -0.00000000000E+00 -0.00000000000E+00 -0.74505805969E-08  0.93827000000E+00  0.93827000000E+00 0. -1.
     999902    2    1    2    0    0 -0.90812687932E-02 -0.20077079980E-01 -0.10254038126E-01  0.10196255995E+01  0.10193358913E+01 0.  0.
     999903    2    3    3    0    0 -0.75642343376E-01  0.80471184536E-02 -0.10551186030E+00  0.13154035596E+00  0.19585513961E-01 0.  0.
         14    1    1    2    0    0  0.90812687932E-02  0.20077079980E-01  0.10254038126E-01  0.24304400451E-01  0.00000000000E+00 0.  1.
     999901    1    3    3    0    0  0.66561074583E-01 -0.28124198433E-01  0.95257822171E-01  0.88808524358E+00  0.88000000000E+00 0.  1.
        -11    1    4    4    0    0 -0.33288131500E-01 -0.58911572202E-02 -0.41515352124E-01  0.53540554864E-01  0.51100000000E-03 0.  1.
         11    1    4    4    0    0 -0.42354211876E-01  0.13938275674E-01 -0.63996508173E-01  0.77999801101E-01  0.51100000000E-03 0. -1.
</event>
<event>
 8    1  0.1052028E+005  0.1043930E+01  0.7957747E-01            NaN
         13   -1    0    0    0    0  0.00000000000E+00  0.00000000000E+00  0.74505805969E-08  0.10566000000E+00  0.10566000000E+00 0.  1.
     999900   -1    0    0    0    0 -0.00000000000E+00 -0.00000000000E+00 -0.74505805969E-08  0.93827000000E+00  0.93827000000E+00 0. -1.
     999902    2    1    2    0    0  0.39830932906E-02 -0.96217730130E-02 -0.21030983999E-01  0.10204620253E+01  0.10201921384E+01 0.  0.
     999903    2    3    3    0    0 -0.11651679119E+00 -0.78743394346E-04 -0.57502540471E-01  0.13145051470E+00  0.19912981258E-01 0.  0.
         14    1    1    2    0    0 -0.39830932906E-02  0.96217730130E-02  0.21030983999E-01  0.23467974690E-01  0.00000000000E+00 0.  1.
     999901    1    3    3    0    0  0.12049988448E+00 -0.95430296187E-02  0.36471556472E-01  0.88901151062E+00  0.88000000000E+00 0.  1.
        -11    1    4    4    0    0 -0.45421282245E-01  0.82836882866E-02 -0.17026083732E-01  0.49212407182E-01  0.51100000000E-03 0. -1.
         11    1    4    4    0    0 -0.71095508948E-01 -0.83624316810E-02 -0.40476456739E-01  0.82238107513E-01  0.51100000000E-03 0.  1.
</event>
<event>
 8    1  0.1052028E+005  0.1043930E+01  0.7957747E-01            NaN
         13   -1    0    0    0    0  0.00000000000E+00  0.00000000000E+00  0.74505805969E-08  0.10566000000E+00  0.10566000000E+00 0.  1.
     999900   -1    0    0    0    0 -0.00000000000E+00 -0.00000000000E+00 -0.74505805969E-08  0.93827000000E+00  0.93827000000E+00 0.  1.
     999902    2    1    2    0    0  0.17332042623E-01 -0.10270897170E-01 -0.12280920088E-01  0.10203352542E+01  0.10200624094E+01 0.  0.
     999903    2    3    3    0    0  0.17929362768E-01  0.79572467079E-01  0.97778959424E-01  0.12894007588E+00  0.20287402390E-01 0.  0.
         14    1    1    2    0    0 -0.17332042623E-01  0.10270897170E-01  0.12280920088E-01  0.23594745779E-01  0.00000000000E+00 0.  1.
     999901    1    3    3    0    0 -0.59732014556E-03 -0.89843364250E-01 -0.11005987951E+00  0.89139517834E+00  0.88000000000E+00 0. -1.
        -11    1    4    4    0    0  0.57533666263E-02  0.52884266639E-01  0.74200572301E-01  0.91300782780E-01  0.51100000000E-03 0.  1.
         11    1    4    4    0    0  0.12175996142E-01  0.26688200440E-01  0.23578387123E-01  0.37639293100E-01  0.51100000000E-03 0. -1.
</event>
<event>
 8    1  0.1052028E+005  0.1043930E+01  0.7957747E-01            NaN
         13   -1    0    0    0    0  0.00000000000E+00  0.00000000000E+00  0.74505805969E-08  0.10566000000E+00  0.10566000000E+00 0.  1.
     999900   -1    0    0    0    0 -0.00000000000E+00 -0.00000000000E+00 -0.74505805969E-08  0.93827000000E+00  0.93827000000E+00 0.  1.
     999902    2    1    2    0    0  0.32993890869E-02  0.24320840754E-01  0.43116574957E-02  0.10190105366E+01  0.10187057937E+01 0.  0.
     999903    2    3    3    0    0  0.51594423630E-01 -0.99481847594E-01 -0.56332569722E-01  0.12696948474E+00  0.19729903497E-01 0.  0.
         14    1    1    2    0    0 -0.32993890869E-02 -0.24320840754E-01 -0.43116574957E-02  0.24919463351E-01  0.00000000000E+00 0.  1.
     999901    1    3    3    0    0 -0.48295034543E-01  0.12380268835E+00  0.60644227218E-01  0.89204105191E+00  0.88000000000E+00 0. -1.
        -11    1    4    4    0    0  0.17117887591E-01 -0.45201353272E-01 -0.33151541311E-01  0.58612884467E-01  0.51100000000E-03 0. -1.
         11    1    4    4    0    0  0.34476536039E-01 -0.54280494322E-01 -0.23181028411E-01  0.68356600269E-01  0.51100000000E-03 0.  1.
</event>
<event>
 8    1  0.1052028E+005  0.1043930E+01  0.7957747E-01            NaN
         13   -1    0    0    0    0  0.00000000000E+00  0.00000000000E+00  0.74505805969E-08  0.10566000000E+00  0.10566000000E+00 0.  1.
     999900   -1    0    0    0    0 -0.00000000000E+00 -0.00000000000E+00 -0.74505805969E-08  0.93827000000E+00  0.93827000000E+00 0. -1.
     999902    2    1    2    0    0  0.84979924704E-02 -0.19656153761E-01 -0.11269339539E-01  0.10197312754E+01  0.10194441112E+01 0.  0.
     999903    2    3    3    0    0  0.16839227787E-01 -0.80274204295E-01 -0.10266846594E+00  0.13288409325E+00  0.19744894823E-01 0.  0.
         14    1    1    2    0    0 -0.84979924704E-02  0.19656153761E-01  0.11269339539E-01  0.24198724561E-01  0.00000000000E+00 0.  1.
     999901    1    3    3    0    0 -0.83412353170E-02  0.60618050534E-01  0.91399126401E-01  0.88684718219E+00  0.88000000000E+00 0.  1.
        -11    1    4    4    0    0  0.99886190663E-02 -0.68478171576E-01 -0.75117498957E-01  0.10213683108E+00  0.51100000000E-03 0. -1.
         11    1    4    4    0    0  0.68506087210E-02 -0.11796032719E-01 -0.27550966983E-01  0.30747262162E-01  0.51100000000E-03 0.  1.
</event>
<event>
 8    1  0.1052028E+005  0.1043930E+01  0.7957747E-01            NaN
         13   -1    0    0    0    0  0.00000000000E+00  0.00000000000E+00  0.74505805969E-08  0.10566000000E+00  0.10566000000E+00 0. -1.
     999900   -1    0    0    0    0 -0.00000000000E+00 -0.00000000000E+00 -0.74505805969E-08  0.93827000000E+00  0.93827000000E+00 0. -1.
     999902    2    1    2    0    0 -0.99040393725E-02  0.20731910991E-02  0.22353459402E-01  0.10193929818E+01  0.10190976332E+01 0.  0.
     999903    2    3    3    0    0  0.73175692716E-01  0.51429589425E-01 -0.88299267692E-01  0.12721456801E+00  0.19674881590E-01 0.  0.
         14    1    1    2    0    0  0.99040393725E-02 -0.20731910991E-02 -0.22353459402E-01  0.24537018247E-01  0.00000000000E+00 0.  1.
     999901    1    3    3    0    0 -0.83079732089E-01 -0.49356398325E-01  0.11065272709E+00  0.89217841375E+00  0.88000000000E+00 0.  1.
        -11    1    4    4    0    0  0.57772080811E-01  0.40448181554E-01 -0.57182896307E-01  0.90795448472E-01  0.51100000000E-03 0. -1.
         11    1    4    4    0    0  0.15403611905E-01  0.10981407871E-01 -0.31116371385E-01  0.36419119535E-01  0.51100000000E-03 0.  1.
</event>
<event>
 8    1  0.1052028E+005  0.1043930E+01  0.7957747E-01            NaN
         13   -1    0    0    0    0  0.00000000000E+00  0.00000000000E+00  0.74505805969E-08  0.10566000000E+00  0.10566000000E+00 0.  1.
     999900   -1    0    0    0    0 -0.00000000000E+00 -0.00000000000E+00 -0.74505805969E-08  0.93827000000E+00  0.93827000000E+00 0.  1.
     999902    2    1    2    0    0 -0.39746582503E-02 -0.23094560184E-01  0.15195586461E-01  0.10160004016E+01  0.10156164402E+01 0.  0.
     999903    2    3    3    0    0 -0.25230897045E-01 -0.98709597345E-01 -0.72523763104E-01  0.12815799115E+00  0.28010564187E-01 0.  0.
         14    1    1    2    0    0  0.39746582503E-02  0.23094560184E-01 -0.15195586461E-01  0.27929598389E-01  0.00000000000E+00 0. -1.
     999901    1    3    3    0    0  0.21256238795E-01  0.75615037161E-01  0.87719349564E-01  0.88784241047E+00  0.88000000000E+00 0. -1.
        -11    1    4    4    0    0 -0.20365104848E-01 -0.30217300549E-01 -0.31501009067E-01  0.48170503850E-01  0.51100000000E-03 0. -1.
         11    1    4    4    0    0 -0.48657921969E-02 -0.68492296796E-01 -0.41022754037E-01  0.79987487295E-01  0.51100000000E-03 0.  1.
</event>
<event>
 8    1  0.1052028E+005  0.1043930E+01  0.7957747E-01            NaN
         13   -1    0    0    0    0  0.00000000000E+00  0.00000000000E+00  0.74505805969E-08  0.10566000000E+00  0.10566000000E+00 0. -1.
     999900   -1    0    0    0    0 -0.00000000000E+00 -0.00000000000E+00 -0.74505805969E-08  0.93827000000E+00  0.93827000000E+00 0. -1.
     999902    2    1    2    0    0  0.86877549550E-02  0.42548780510E-02  0.26721722986E-01  0.10155111409E+01  0.10151134152E+01 0.  0.
     999903    2    3    3    0    0 -0.78957031221E-01  0.74604012557E-01 -0.57467289963E-01  0.12437793022E+00  0.19167906544E-01 0.  0.
         14    1    1    2    0    0 -0.86877549550E-02 -0.42548780510E-02 -0.26721722986E-01  0.28418859103E-01  0.00000000000E+00 0.  1.
     999901    1    3    3    0    0  0.87644786176E-01 -0.70349134506E-01  0.84189012949E-01  0.89113321068E+00  0.88000000000E+00 0. -1.
        -11    1    4    4    0    0 -0.50104121435E-01  0.55828440041E-01 -0.32011583713E-01  0.81561267247E-01  0.51100000000E-03 0. -1.
         11    1    4    4    0    0 -0.28852909787E-01  0.18775572516E-01 -0.25455706250E-01  0.42816662973E-01  0.51100000000E-03 0.  1.
</event>
<event>
 8    1  0.1052028E+005  0.1043930E+01  0.7957747E-01            NaN
         13   -1    0    0    0    0  0.00000000000E+00  0.00000000000E+00  0.74505805969E-08  0.10566000000E+00  0.10566000000E+00 0.  1.
     999900   -1    0    0    0    0 -0.00000000000E+00 -0.00000000000E+00 -0.74505805969E-08  0.93827000000E+00  0.93827000000E+00 0.  1.
     999902    2    1    2    0    0  0.93825306545E-02  0.20290200546E-01  0.17068182843E-02  0.10215104249E+01  0.10212643687E+01 0.  0.
     999903    2    3    3    0    0  0.10299036402E+00 -0.78580508545E-01  0.18249707767E-02  0.13103984281E+00  0.19651933261E-01 0.  0.
         14    1    1    2    0    0 -0.93825306545E-02 -0.20290200546E-01 -0.17068182843E-02  0.22419575115E-01  0.00000000000E+00 0. -1.
     999901    1    3    3    0    0 -0.93607833366E-01  0.98870709090E-01 -0.11815249244E-03  0.89047058208E+00  0.88000000000E+00 0. -1.
        -11    1    4    4    0    0  0.43046263599E-01 -0.42440321562E-01 -0.52830439614E-02  0.60682232808E-01  0.51100000000E-03 0.  1.
         11    1    4    4    0    0  0.59944100421E-01 -0.36140186983E-01  0.71080147381E-02  0.70357610001E-01  0.51100000000E-03 0. -1.
</event>
<event>
 8    1  0.1052028E+005  0.1043930E+01  0.7957747E-01            NaN
         13   -1    0    0    0    0  0.00000000000E+00  0.00000000000E+00  0.74505805969E-08  0.10566000000E+00  0.10566000000E+00 0. -1.
     999900   -1    0    0    0    0 -0.00000000000E+00 -0.00000000000E+00 -0.74505805969E-08  0.93827000000E+00  0.93827000000E+00 0. -1.
     999902    2    1    2    0    0 -0.20323225423E-01  0.29093090522E-02  0.11595347813E-01  0.10203514152E+01  0.10200789483E+01 0.  0.
     999903    2    3    3    0    0 -0.11513728175E+00  0.31977067954E-01 -0.53341803632E-01  0.13240351496E+00  0.20154806743E-01 0.  0.
         14    1    1    2    0    0  0.20323225423E-01 -0.29093090522E-02 -0.11595347813E-01  0.23578584810E-01  0.00000000000E+00 0.  1.
     999901    1    3    3    0    0  0.94814056330E-01 -0.29067758902E-01  0.64937151445E-01  0.88794790023E+00  0.88000000000E+00 0. -1.
        -11    1    4    4    0    0 -0.46052187586E-01  0.11576193305E-01 -0.32033573147E-01  0.57281961929E-01  0.51100000000E-03 0. -1.
         11    1    4    4    0    0 -0.69085094166E-01  0.20400874648E-01 -0.21308230486E-01  0.75121553031E-01  0.51100000000E-03 0.  1.
</event>
<event>
 8    1  0.1052028E+005  0.1043930E+01  0.7957747E-01            NaN
         13   -1    0    0    0    0  0.00000000000E+00  0.00000000000E+00  0.74505805969E-08  0.10566000000E+00  0.10566000000E+00 0. -1.
     999900   -1    0    0    0    0 -0.00000000000E+00 -0.00000000000E+00 -0.74505805969E-08  0.93827000000E+00  0.93827000000E+00 0. -1.
     999902    2    1    2    0    0 -0.33580693986E-02 -0.18397055940E-01 -0.14420368457E-01  0.10203148497E+01  0.10200415272E+01 0.  0.
     999903    2    3    3    0    0 -0.30584969812E-01  0.11027576308E+00  0.53790576118E-01  0.12792999359E+00  0.19402909032E-01 0.  0.
         14    1    1    2    0    0  0.33580693986E-02  0.18397055940E-01  0.14420368457E-01  0.23615150302E-01  0.00000000000E+00 0. -1.
     999901    1    3    3    0    0  0.27226900413E-01 -0.12867281902E+00 -0.68210944575E-01  0.89238485611E+00  0.88000000000E+00 0. -1.
        -11    1    4    4    0    0 -0.15591589340E-01  0.30348408462E-01  0.99582970440E-02  0.35546481617E-01  0.51100000000E-03 0. -1.
         11    1    4    4    0    0 -0.14993380472E-01  0.79927354615E-01  0.43832279074E-01  0.92383511968E-01  0.51100000000E-03 0.  1.
</event>
<event>
 8    1  0.1052028E+005  0.1043930E+01  0.7957747E-01            NaN
         13   -1    0    0    0    0  0.00000000000E+00  0.00000000000E+00  0.74505805969E-08  0.10566000000E+00  0.10566000000E+00 0.  1.
     999900   -1    0    0    0    0 -0.00000000000E+00 -0.00000000000E+00 -0.74505805969E-08  0.93827000000E+00  0.93827000000E+00 0. -1.
     999902    2    1    2    0    0  0.71113278363E-02 -0.18677264973E-01  0.15298205676E-01  0.10187616407E+01  0.10184507030E+01 0.  0.
     999903    2    3    3    0    0 -0.62963465869E-01  0.12978030970E-01  0.11151406574E+00  0.13018411110E+00  0.19485599846E-01 0.  0.
         14    1    1    2    0    0 -0.71113278363E-02  0.18677264973E-01 -0.15298205676E-01  0.25168359251E-01  0.00000000000E+00 0.  1.
     999901    1    3    3    0    0  0.70074793705E-01 -0.31655295943E-01 -0.96215860068E-01  0.88857752965E+00  0.88000000000E+00 0. -1.
        -11    1    4    4    0    0 -0.48237244192E-01  0.10856874400E-01  0.67165937797E-01  0.83404003322E-01  0.51100000000E-03 0. -1.
         11    1    4    4    0    0 -0.14726221677E-01  0.21211565698E-02  0.44348127947E-01  0.46780107775E-01  0.51100000000E-03 0.  1.
</event>
<event>
 8    1  0.1052028E+005  0.1043930E+01  0.7957747E-01            NaN
         13   -1    0    0    0    0  0.00000000000E+00  0.00000000000E+00  0.74505805969E-08  0.10566000000E+00  0.10566000000E+00 0. -1.
     999900   -1    0    0    0    0 -0.00000000000E+00 -0.00000000000E+00 -0.74505805969E-08  0.93827000000E+00  0.93827000000E+00 0. -1.
     999902    2    1    2    0    0  0.73257624698E-02 -0.12228187563E-01  0.24888274482E-01  0.10152486197E+01  0.10148434058E+01 0.  0.
     999903    2    3    3    0    0 -0.97532555651E-01 -0.73226357686E-01 -0.22451356134E-01  0.12566608604E+00  0.20327393263E-01 0.  0.
         14    1    1    2    0    0 -0.73257624698E-02  0.12228187563E-01 -0.24888274482E-01  0.28681380258E-01  0.00000000000E+00 0.  1.
     999901    1    3    3    0    0  0.10485831812E+00  0.60998170123E-01  0.47339630616E-01  0.88958253370E+00  0.88000000000E+00 0.  1.
        -11    1    4    4    0    0 -0.31097155400E-01 -0.13573030028E-01 -0.15811371768E-02  0.33970889507E-01  0.51100000000E-03 0. -1.
         11    1    4    4    0    0 -0.66435400252E-01 -0.59653327658E-01 -0.20870218957E-01  0.91695196535E-01  0.51100000000E-03 0.  1.
</event>
<event>
 8    1  0.1052028E+005  0.1043930E+01  0.7957747E-01            NaN
         13   -1    0    0    0    0  0.00000000000E+00  0.00000000000E+00  0.74505805969E-08  0.10566000000E+00  0.10566000000E+00 0.  1.
     999900   -1    0    0    0    0 -0.00000000000E+00 -0.00000000000E+00 -0.74505805969E-08  0.93827000000E+00  0.93827000000E+00 0. -1.
     999902    2    1    2    0    0 -0.28464704667E-02 -0.14916508371E-01  0.17118834735E-01  0.10210464007E+01  0.10207899359E+01 0.  0.
     999903    2    3    3    0    0  0.96570493874E-01 -0.24828124897E-01  0.85324401070E-01  0.13277055824E+00  0.20136326510E-01 0.  0.
         14    1    1    2    0    0  0.28464704667E-02  0.14916508371E-01 -0.17118834735E-01  0.22883599341E-01  0.00000000000E+00 0.  1.
     999901    1    3    3    0    0 -0.99416964341E-01  0.99116165257E-02 -0.68205566335E-01  0.88827584242E+00  0.88000000000E+00 0. -1.
        -11    1    4    4    0    0  0.54323043386E-01 -0.80419976967E-02  0.35867732473E-01  0.65592851161E-01  0.51100000000E-03 0. -1.
         11    1    4    4    0    0  0.42247450488E-01 -0.16786127200E-01  0.49456668597E-01  0.67177707082E-01  0.51100000000E-03 0.  1.
</event>
<event>
 8    1  0.1052028E+005  0.1043930E+01  0.7957747E-01            NaN
         13   -1    0    0    0    0  0.00000000000E+00  0.00000000000E+00  0.74505805969E-08  0.10566000000E+00  0.10566000000E+00 0.  1.
     999900   -1    0    0    0    0 -0.00000000000E+00 -0.00000000000E+00 -0.74505805969E-08  0.93827000000E+00  0.93827000000E+00 0.  1.
     999902    2    1    2    0    0 -0.22563477614E-01  0.68423908433E-02 -0.46869971422E-02  0.10198905163E+01  0.10196071638E+01 0.  0.
     999903    2    3    3    0    0  0.80238152478E-01 -0.72095605723E-01 -0.66685660882E-01  0.12823855687E+00  0.19031884359E-01 0.  0.
         14    1    1    2    0    0  0.22563477614E-01 -0.68423908433E-02  0.46869971422E-02  0.24039483703E-01  0.00000000000E+00 0. -1.
     999901    1    3    3    0    0 -0.10280163009E+00  0.78937996567E-01  0.61998663740E-01  0.89165195943E+00  0.88000000000E+00 0. -1.
        -11    1    4    4    0    0  0.62485204010E-02 -0.56400861033E-02 -0.12219902778E-01  0.14847279999E-01  0.51100000000E-03 0.  1.
         11    1    4    4    0    0  0.73989632077E-01 -0.66455519620E-01 -0.54465758103E-01  0.11339127687E+00  0.51100000000E-03 0. -1.
</event>
<event>
 8    1  0.1052028E+005  0.1043930E+01  0.7957747E-01            NaN
         13   -1    0    0    0    0  0.00000000000E+00  0.00000000000E+00  0.74505805969E-08  0.10566000000E+00  0.10566000000E+00 0.  1.
     999900   -1    0    0    0    0 -0.00000000000E+00 -0.00000000000E+00 -0.74505805969E-08  0.93827000000E+00  0.93827000000E+00 0. -1.
     999902    2    1    2    0    0  0.64414535898E-02 -0.66617320862E-02  0.21429319234E-01  0.10205829076E+01  0.10203158259E+01 0.  0.
     999903    2    3    3    0    0 -0.10367388983E+00  0.50477338538E-01  0.59049209479E-01  0.13108556735E+00  0.20009489940E-01 0.  0.
         14    1    1    2    0    0 -0.64414535898E-02  0.66617320862E-02 -0.21429319234E-01  0.23347092358E-01  0.00000000000E+00 0. -1.
     999901    1    3    3    0    0  0.11011534342E+00 -0.57139070625E-01 -0.37619890245E-01  0.88949734029E+00  0.88000000000E+00 0.  1.
        -11    1    4    4    0    0 -0.83977239400E-01  0.34126829187E-01  0.39541692370E-01  0.98897036175E-01  0.51100000000E-03 0. -1.
         11    1    4    4    0    0 -0.19696650433E-01  0.16350509351E-01  0.19507517108E-01  0.32188531173E-01  0.51100000000E-03 0.  1.
</event>
<event>
 8    1  0.1052028E+005  0.1043930E+01  0.7957747E-01            NaN
         13   -1    0    0    0    0  0.00000000000E+00  0.00000000000E+00  0.74505805969E-08  0.10566000000E+00  0.10566000000E+00 0. -1.
     999900   -1    0    0    0    0 -0.00000000000E+00 -0.00000000000E+00 -0.74505805969E-08  0.93827000000E+00  0.93827000000E+00 0. -1.
     999902    2    1    2    0    0 -0.20916666736E-01 -0.13767345657E-03  0.90631797031E-02  0.10211337914E+01  0.10208793037E+01 0.  0.
     999903    2    3    3    0    0  0.69415740975E-01 -0.10505391005E+00  0.26188753469E-01  0.13014521352E+00  0.19926281243E-01 0.  0.
         14    1    1    2    0    0  0.20916666736E-01  0.13767345657E-03 -0.90631797031E-02  0.22796208625E-01  0.00000000000E+00 0. -1.
     999901    1    3    3    0    0 -0.90332407711E-01  0.10491623659E+00 -0.17125573766E-01  0.89098857785E+00  0.88000000000E+00 0.  1.
        -11    1    4    4    0    0  0.36493702336E-01 -0.48908392230E-01  0.31726562384E-02  0.61107675535E-01  0.51100000000E-03 0.  1.
         11    1    4    4    0    0  0.32922038639E-01 -0.56145517816E-01  0.23016097231E-01  0.69037537990E-01  0.51100000000E-03 0. -1.
</event>
<event>
 8    1  0.1052028E+005  0.1043930E+01  0.7957747E-01            NaN
         13   -1    0    0    0    0  0.00000000000E+00  0.00000000000E+00  0.74505805969E-08  0.10566000000E+00  0.10566000000E+00 0. -1.
     999900   -1    0    0    0    0 -0.00000000000E+00 -0.00000000000E+00 -0.74505805969E-08  0.93827000000E+00  0.93827000000E+00 0.  1.
     999902    2    1    2    0    0 -0.63930449931E-02 -0.21929087193E-01 -0.73125591129E-02  0.10199460593E+01  0.10196640302E+01 0.  0.
     999903    2    3    3    0    0  0.12069571480E+00 -0.43639023654E-01  0.10909064184E-01  0.13036475233E+00  0.20103258711E-01 0.  0.
         14    1    1    2    0    0  0.63930449931E-02  0.21929087193E-01  0.73125591129E-02  0.23983940673E-01  0.00000000000E+00 0. -1.
     999901    1    3    3    0    0 -0.12708875980E+00  0.21709936461E-01 -0.18221623297E-01  0.88958130700E+00  0.88000000000E+00 0. -1.
        -11    1    4    4    0    0  0.88917840578E-01 -0.28333155344E-01 -0.38595427414E-03  0.93325024224E-01  0.51100000000E-03 0.  1.
         11    1    4    4    0    0  0.31777874225E-01 -0.15305868310E-01  0.11295018459E-01  0.37039728103E-01  0.51100000000E-03 0. -1.
</event>
<event>
 8    1  0.1052028E+005  0.1043930E+01  0.7957747E-01            NaN
         13   -1    0    0    0    0  0.00000000000E+00  0.00000000000E+00  0.74505805969E-08  0.10566000000E+00  0.10566000000E+00 0. -1.
     999900   -1    0    0    0    0 -0.00000000000E+00 -0.00000000000E+00 -0.74505805969E-08  0.93827000000E+00  0.93827000000E+00 0.  1.
     999902    2    1    2    0    0  0.17498832582E-01 -0.55371106359E-02 -0.15214557845E-01  0.10200898761E+01  0.10198112589E+01 0.  0.
     999903    2    3    3    0    0  0.81467126431E-01  0.61571014422E-01 -0.80279216533E-01  0.13283069591E+00  0.27773344470E-01 0.  0.
         14    1    1    2    0    0 -0.17498832582E-01  0.55371106359E-02  0.15214557845E-01  0.23840123874E-01  0.00000000000E+00 0. -1.
     999901    1    3    3    0    0 -0.63968293849E-01 -0.67108125058E-01  0.65064658688E-01  0.88725918022E+00  0.88000000000E+00 0.  1.
        -11    1    4    4    0    0  0.99456848357E-02  0.13887039339E-01 -0.26176553691E-01  0.31260831605E-01  0.51100000000E-03 0. -1.
         11    1    4    4    0    0  0.71521441595E-01  0.47683975083E-01 -0.54102662841E-01  0.10156986431E+00  0.51100000000E-03 0.  1.
</event>
<event>
 8    1  0.1052028E+005  0.1043930E+01  0.7957747E-01            NaN
         13   -1    0    0    0    0  0.00000000000E+00  0.00000000000E+00  0.74505805969E-08  0.10566000000E+00  0.10566000000E+00 0.  1.
     999900   -1    0    0    0    0 -0.00000000000E+00 -0.00000000000E+00 -0.74505805969E-08  0.93827000000E+00  0.93827000000E+00 0. -1.
     999902    2    1    2    0    0  0.10522381452E-01 -0.75410127150E-02 -0.20837355207E-01  0.10193987392E+01  0.10191035309E+01 0.  0.
     999903    2    3    3    0    0 -0.77613173565E-01 -0.13908998804E-01 -0.10285395700E+00  0.13117852424E+00  0.20288020899E-01 0.  0.
         14    1    1    2    0    0 -0.10522381452E-01  0.75410127150E-02  0.20837355207E-01  0.24531260795E-01  0.00000000000E+00 0.  1.
     999901    1    3    3    0    0  0.88135555017E-01  0.63679860891E-02  0.82016601794E-01  0.88822021497E+00  0.88000000000E+00 0.  1.
        -11    1    4    4    0    0 -0.10156835230E-02  0.18036393801E-02 -0.78454244771E-02  0.81299775066E-02  0.51100000000E-03 0. -1.
         11    1    4    4    0    0 -0.76597490042E-01 -0.15712638184E-01 -0.95008532524E-01  0.12304854673E+00  0.51100000000E-03 0.  1.
</event>
<event>
 8    1  0.1052028E+005  0.1043930E+01  0.7957747E-01            NaN
         13   -1    0    0    0    0  0.00000000000E+00  0.00000000000E+00  0.74505805969E-08  0.10566000000E+00  0.10566000000E+00 0.  1.
     999900   -1    0    0    0    0 -0.00000000000E+00 -0.00000000000E+00 -0.74505805969E-08  0.93827000000E+00  0.93827000000E+00 0.  1.
     999902    2    1    2    0    0  0.15047039906E-01  0.16125732618E-01 -0.41198573615E-02  0.10214928458E+01  0.10212463994E+01 0.  0.
     999903    2    3    3    0    0  0.56345111647E-01 -0.11362532210E+00 -0.24804167672E-01  0.13078037392E+00  0.20069231166E-01 0.  0.
         14    1    1    2    0    0 -0.15047039906E-01 -0.16125732618E-01  0.41198573615E-02  0.22437154166E-01  0.00000000000E+00 0.  1.
     999901    1    3    3    0    0 -0.41298071741E-01  0.12975105472E+00  0.20684310311E-01  0.89071247191E+00  0.88000000000E+00 0. -1.
        -11    1    4    4    0    0  0.40843170736E-01 -0.84946360756E-01 -0.27157692674E-01  0.98091030140E-01  0.51100000000E-03 0. -1.
         11    1    4    4    0    0  0.15501940911E-01 -0.28678961344E-01  0.23535250020E-02  0.32689343780E-01  0.51100000000E-03 0.  1.
</event>
<event>
 8    1  0.1052028E+005  0.1043930E+01  0.7957747E-01            NaN
         13   -1    0    0    0    0  0.00000000000E+00  0.00000000000E+00  0.74505805969E-08  0.10566000000E+00  0.10566000000E+00 0. -1.
     999900   -1    0    0    0    0 -0.00000000000E+00 -0.00000000000E+00 -0.74505805969E-08  0.93827000000E+00  0.93827000000E+00 0. -1.
     999902    2    1    2    0    0  0.10856723483E-02  0.87268418513E-02 -0.22533842176E-01  0.10197409426E+01  0.10194540105E+01 0.  0.
     999903    2    3    3    0    0  0.12679761024E-01  0.49643316590E-01  0.11559691999E+00  0.12795134399E+00  0.19587324863E-01 0.  0.
         14    1    1    2    0    0 -0.10856723483E-02 -0.87268418513E-02  0.22533842176E-01  0.24189057368E-01  0.00000000000E+00 0. -1.
     999901    1    3    3    0    0 -0.11594088676E-01 -0.40916474739E-01 -0.13813076216E+00  0.89178959865E+00  0.88000000000E+00 0. -1.
        -11    1    4    4    0    0 -0.21629485761E-02  0.27246147560E-01  0.68047007825E-01  0.73332716425E-01  0.51100000000E-03 0. -1.
         11    1    4    4    0    0  0.14842709600E-01  0.22397169030E-01  0.47549912164E-01  0.54618627560E-01  0.51100000000E-03 0.  1.
</event>
<event>
 8    1  0.1052028E+005  0.1043930E+01  0.7957747E-01            NaN
         13   -1    0    0    0    0  0.00000000000E+00  0.00000000000E+00  0.74505805969E-08  0.10566000000E+00  0.10566000000E+00 0.  1.
     999900   -1    0    0    0    0 -0.00000000000E+00 -0.00000000000E+00 -0.74505805969E-08  0.93827000000E+00  0.93827000000E+00 0. -1.
     999902    2    1    2    0    0  0.16544046951E-01  0.17003147550E-01 -0.34921267861E-02  0.10199506867E+01  0.10196687677E+01 0.  0.
     999903    2    3    3    0    0 -0.20346731315E-01 -0.76386962006E-01  0.99229648373E-01  0.12830366845E+00  0.19140292121E-01 0.  0.
         14    1    1    2    0    0 -0.16544046951E-01 -0.17003147550E-01  0.34921267861E-02  0.23979313285E-01  0.00000000000E+00 0. -1.
     999901    1    3    3    0    0  0.36890778266E-01  0.93390109556E-01 -0.10272177516E+00  0.89164701826E+00  0.88000000000E+00 0. -1.
        -11    1    4    4    0    0 -0.25909623349E-02 -0.46420732102E-01  0.56148806258E-01  0.72900939774E-01  0.51100000000E-03 0. -1.
         11    1    4    4    0    0 -0.17755768980E-01 -0.29966229904E-01  0.43080842115E-01  0.55402728679E-01  0.51100000000E-03 0.  1.
</event>
<event>
 7    1  0.1052028E+005  0.1043930E+01  0.7957747E-01            NaN
         13   -1    0    0    0    0  0.00000000000E+00  0.00000000000E+00  0.74505805969E-08  0.10566000000E+00  0.10566000000E+00 0. -1.
     999900   -1    0    0    0    0 -0.00000000000E+00 -0.00000000000E+00 -0.74505805969E-08  0.93827000000E+00  0.93827000000E+00 0. -1.
     999903    2    1    2    0    0 -0.61158629129E-02  0.97646345823E-01 -0.29486090246E-01  0.10391150470E+00  0.18866866704E-01 0.  0.
         14    1    1    2    0    0 -0.14421991517E-01  0.23380969120E-01  0.43429050793E-01  0.51388189393E-01  0.00000000000E+00 0. -1.
     999901    1    1    2    0    0  0.20537854430E-01 -0.12102731494E+00 -0.13942960548E-01  0.88863030591E+00  0.88000000000E+00 0. -1.
        -11    1    3    3    0    0  0.11792763337E-02  0.60563612950E-01 -0.26108131736E-01  0.65963911118E-01  0.51100000000E-03 0. -1.
         11    1    3    3    0    0 -0.72951392467E-02  0.37082732874E-01 -0.33779585102E-02  0.37947593582E-01  0.51100000000E-03 0.  1.
</event>
<event>
 8    1  0.1052028E+005  0.1043930E+01  0.7957747E-01            NaN
         13   -1    0    0    0    0  0.00000000000E+00  0.00000000000E+00  0.74505805969E-08  0.10566000000E+00  0.10566000000E+00 0.  1.
     999900   -1    0    0    0    0 -0.00000000000E+00 -0.00000000000E+00 -0.74505805969E-08  0.93827000000E+00  0.93827000000E+00 0.  1.
     999902    2    1    2    0    0  0.69631090843E-02 -0.19453470265E-01 -0.10570585788E-01  0.10207209570E+01  0.10204570605E+01 0.  0.
     999903    2    3    3    0    0  0.10409848164E+00 -0.67587384105E-01  0.41907556277E-01  0.13251708982E+00  0.19999686260E-01 0.  0.
         14    1    1    2    0    0 -0.69631090843E-02  0.19453470265E-01  0.10570585788E-01  0.23209043009E-01  0.00000000000E+00 0.  1.
     999901    1    3    3    0    0 -0.97135372559E-01  0.48133913840E-01 -0.52478142065E-01  0.88820386717E+00  0.88000000000E+00 0.  1.
        -11    1    4    4    0    0  0.48269660533E-02 -0.88233800322E-02  0.10115491958E-02  0.10121066606E-01  0.51100000000E-03 0. -1.
         11    1    4    4    0    0  0.99271515590E-01 -0.58764004073E-01  0.40896007081E-01  0.12239602321E+00  0.51100000000E-03 0.  1.
</event>
<event>
 8    1  0.1052028E+005  0.1043930E+01  0.7957747E-01            NaN
         13   -1    0    0    0    0  0.00000000000E+00  0.00000000000E+00  0.74505805969E-08  0.10566000000E+00  0.10566000000E+00 0.  1.
     999900   -1    0    0    0    0 -0.00000000000E+00 -0.00000000000E+00 -0.74505805969E-08  0.93827000000E+00  0.93827000000E+00 0. -1.
     999902    2    1    2    0    0  0.16420307200E-01  0.15772052897E-01  0.67868421214E-02  0.10201719410E+01  0.10198952612E+01 0.  0.
     999903    2    3    3    0    0 -0.10024886121E+00  0.37477414794E-01 -0.70308910236E-01  0.12886583611E+00  0.14445416753E-01 0.  0.
         14    1    1    2    0    0 -0.16420307200E-01 -0.15772052897E-01 -0.67868421214E-02  0.23758058993E-01  0.00000000000E+00 0. -1.
     999901    1    3    3    0    0  0.11666916841E+00 -0.21705361897E-01  0.77095752357E-01  0.89130610490E+00  0.88000000000E+00 0.  1.
        -11    1    4    4    0    0 -0.75661344078E-01  0.24009805022E-01 -0.45933855267E-01  0.91713084702E-01  0.51100000000E-03 0.  1.
         11    1    4    4    0    0 -0.24587517129E-01  0.13467609772E-01 -0.24375054969E-01  0.37152751409E-01  0.51100000000E-03 0. -1.
</event>
<event>
 8    1  0.1052028E+005  0.1043930E+01  0.7957747E-01            NaN
         13   -1    0    0    0    0  0.00000000000E+00  0.00000000000E+00  0.74505805969E-08  0.10566000000E+00  0.10566000000E+00 0.  1.
     999900   -1    0    0    0    0 -0.00000000000E+00 -0.00000000000E+00 -0.74505805969E-08  0.93827000000E+00  0.93827000000E+00 0. -1.
     999902    2    1    2    0    0  0.14346214920E-01 -0.16259819964E-01  0.12481576733E-01  0.10189103001E+01  0.10186030700E+01 0.  0.
     999903    2    3    3    0    0 -0.11333030953E+00  0.40836776453E-01 -0.33937319957E-01  0.12665695588E+00  0.19463848966E-01 0.  0.
         14    1    1    2    0    0 -0.14346214920E-01  0.16259819964E-01 -0.12481576733E-01  0.25019699949E-01  0.00000000000E+00 0.  1.
     999901    1    3    3    0    0  0.12767652445E+00 -0.57096596416E-01  0.46418896690E-01  0.89225334417E+00  0.88000000000E+00 0.  1.
        -11    1    4    4    0    0 -0.86829966600E-01  0.28639778458E-01 -0.17252231904E-01  0.93046121018E-01  0.51100000000E-03 0.  1.
         11    1    4    4    0    0 -0.26500342933E-01  0.12196997994E-01 -0.16685088053E-01  0.33610834860E-01  0.51100000000E-03 0. -1.
</event>
<event>
 8    1  0.1052028E+005  0.1043930E+01  0.7957747E-01            NaN
         13   -1    0    0    0    0  0.00000000000E+00  0.00000000000E+00  0.74505805969E-08  0.10566000000E+00  0.10566000000E+00 0.  1.
     999900   -1    0    0    0    0 -0.00000000000E+00 -0.00000000000E+00 -0.74505805969E-08  0.93827000000E+00  0.93827000000E+00 0. -1.
     999902    2    1    2    0    0 -0.24190221150E-01  0.22236437224E-02 -0.50064632370E-03  0.10196326331E+01  0.10193430946E+01 0.  0.
     999903    2    3    3    0    0 -0.11936060428E+00 -0.35429060144E-01 -0.41984542068E-01  0.13273013479E+00  0.18772712976E-01 0.  0.
         14    1    1    2    0    0  0.24190221150E-01 -0.22236437224E-02  0.50064632370E-03  0.24297366883E-01  0.00000000000E+00 0. -1.
     999901    1    3    3    0    0  0.95170383128E-01  0.37652703866E-01  0.41483895744E-01  0.88690249833E+00  0.88000000000E+00 0.  1.
        -11    1    4    4    0    0 -0.51167790053E-01 -0.63349786809E-02 -0.21024131234E-01  0.55682581737E-01  0.51100000000E-03 0.  1.
         11    1    4    4    0    0 -0.68192814225E-01 -0.29094081463E-01 -0.20960410834E-01  0.77047553053E-01  0.51100000000E-03 0. -1.
</event>
<event>
 8    1  0.1052028E+005  0.1043930E+01  0.7957747E-01            NaN
         13   -1    0    0    0    0  0.00000000000E+00  0.00000000000E+00  0.74505805969E-08  0.10566000000E+00  0.10566000000E+00 0. -1.
     999900   -1    0    0    0    0 -0.00000000000E+00 -0.00000000000E+00 -0.74505805969E-08  0.93827000000E+00  0.93827000000E+00 0.  1.
     999902    2    1    2    0    0  0.83483650925E-02 -0.21490543622E-01 -0.58188312046E-02  0.10201519122E+01  0.10198747602E+01 0.  0.
     999903    2    3    3    0    0  0.11661970981E+00 -0.29854393660E-02  0.56487704065E-01  0.13113716126E+00  0.19925480895E-01 0.  0.
         14    1    1    2    0    0 -0.83483650925E-02  0.21490543622E-01  0.58188312046E-02  0.23778087843E-01  0.00000000000E+00 0.  1.
     999901    1    3    3    0    0 -0.10827134472E+00 -0.18505104256E-01 -0.62306535270E-01  0.88901475089E+00  0.88000000000E+00 0.  1.
        -11    1    4    4    0    0  0.33147670446E-01 -0.19154788296E-02  0.26321252330E-01  0.42373418087E-01  0.51100000000E-03 0. -1.
         11    1    4    4    0    0  0.83472039364E-01 -0.10699605364E-02  0.30166451735E-01  0.88763743175E-01  0.51100000000E-03 0.  1.
</event>
<event>
 8    1  0.1052028E+005  0.1043930E+01  0.7957747E-01            NaN
         13   -1    0    0    0    0  0.00000000000E+00  0.00000000000E+00  0.74505805969E-08  0.10566000000E+00  0.10566000000E+00 0.  1.
     999900   -1    0    0    0    0 -0.00000000000E+00 -0.00000000000E+00 -0.74505805969E-08  0.93827000000E+00  0.93827000000E+00 0.  1.
     999902    2    1    2    0    0 -0.64360681826E-02 -0.13313829055E-01 -0.18546773576E-01  0.10202094640E+01  0.10199336678E+01 0.  0.
     999903    2    3    3    0    0 -0.11003489019E+00  0.31591211250E-01  0.57507642156E-01  0.12974135525E+00  0.20494112994E-01 0.  0.
         14    1    1    2    0    0  0.64360681826E-02  0.13313829055E-01  0.18546773576E-01  0.23720535994E-01  0.00000000000E+00 0.  1.
     999901    1    3    3    0    0  0.10359882201E+00 -0.44905040305E-01 -0.76054415732E-01  0.89046810876E+00  0.88000000000E+00 0.  1.
        -11    1    4    4    0    0 -0.61418932182E-01  0.28049700464E-01  0.34841753799E-01  0.75982102204E-01  0.51100000000E-03 0.  1.
         11    1    4    4    0    0 -0.48615958008E-01  0.35415107858E-02  0.22665888357E-01  0.53759253043E-01  0.51100000000E-03 0. -1.
</event>
<event>
 8    1  0.1052028E+005  0.1043930E+01  0.7957747E-01            NaN
         13   -1    0    0    0    0  0.00000000000E+00  0.00000000000E+00  0.74505805969E-08  0.10566000000E+00  0.10566000000E+00 0. -1.
     999900   -1    0    0    0    0 -0.00000000000E+00 -0.00000000000E+00 -0.74505805969E-08  0.93827000000E+00  0.93827000000E+00 0. -1.
     999902    2    1    2    0    0 -0.17518283639E-02  0.64190227230E-02 -0.21982393298E-01  0.10209626673E+01  0.10207043008E+01 0.  0.
     999903    2    3    3    0    0 -0.12638705370E+00  0.23298648006E-01  0.16552922750E-01  0.13118526160E+00  0.20470937129E-01 0.  0.
         14    1    1    2    0    0  0.17518283639E-02 -0.64190227230E-02  0.21982393298E-01  0.22967332680E-01  0.00000000000E+00 0. -1.
     999901    1    3    3    0    0  0.12463522534E+00 -0.16879625283E-01 -0.38535316048E-01  0.88977740572E+00  0.88000000000E+00 0. -1.
        -11    1    4    4    0    0 -0.31691219611E-01 -0.29935199795E-02  0.50637258834E-02  0.32236578651E-01  0.51100000000E-03 0. -1.
         11    1    4    4    0    0 -0.94695834093E-01  0.26292167985E-01  0.11489196866E-01  0.98948682950E-01  0.51100000000E-03 0.  1.
</event>
<event>
 8    1  0.1052028E+005  0.1043930E+01  0.7957747E-01            NaN
         13   -1    0    0    0    0  0.00000000000E+00  0.00000000000E+00  0.74505805969E-08  0.10566000000E+00  0.10566000000E+00 0. -1.
     999900   -1    0    0    0    0 -0.00000000000E+00 -0.00000000000E+00 -0.74505805969E-08  0.93827000000E+00  0.93827000000E+00 0.  1.
     999902    2    1    2    0    0  0.19494764430E-01  0.87057452200E-02  0.12150111430E-01  0.10193645558E+01  0.10190685142E+01 0.  0.
     999903    2    3    3    0    0 -0.83673545945E-01 -0.34936605410E-01  0.89474775450E-01  0.12889981272E+00  0.19687498296E-01 0.  0.
         14    1    1    2    0    0 -0.19494764430E-01 -0.87057452200E-02 -0.12150111430E-01  0.24565444181E-01  0.00000000000E+00 0. -1.
     999901    1    3    3    0    0  0.10316831038E+00  0.43642350630E-01 -0.77324664020E-01  0.89046474310E+00  0.88000000000E+00 0.  1.
        -11    1    4    4    0    0 -0.27885238527E-01 -0.38759478599E-02  0.35342036309E-01  0.45187721242E-01  0.51100000000E-03 0. -1.
         11    1    4    4    0    0 -0.55788307418E-01 -0.31060657550E-01  0.54132739141E-01  0.83712091480E-01  0.51100000000E-03 0.  1.
</event>
<event>
 8    1  0.1052028E+005  0.1043930E+01  0.7957747E-01            NaN
         13   -1    0    0    0    0  0.00000000000E+00  0.00000000000E+00  0.74505805969E-08  0.10566000000E+00  0.10566000000E+00 0.  1.
     999900   -1    0    0    0    0 -0.00000000000E+00 -0.00000000000E+00 -0.74505805969E-08  0.93827000000E+00  0.93827000000E+00 0.  1.
     999902    2    1    2    0    0 -0.23177385208E-01 -0.10608575752E-02  0.73118200849E-02  0.10196034853E+01  0.10193132433E+01 0.  0.
     999903    2    3    3    0    0  0.81337342008E-01  0.84288837784E-02 -0.96627126109E-01  0.12729373644E+00  0.13419558504E-01 0.  0.
         14    1    1    2    0    0  0.23177385208E-01  0.10608575752E-02 -0.73118200849E-02  0.24326514687E-01  0.00000000000E+00 0. -1.
     999901    1    3    3    0    0 -0.10451472722E+00 -0.94897413536E-02  0.10393894619E+00  0.89230974887E+00  0.88000000000E+00 0. -1.
        -11    1    4    4    0    0  0.53696996571E-01  0.44605033486E-02 -0.53644695816E-01  0.76034716025E-01  0.51100000000E-03 0. -1.
         11    1    4    4    0    0  0.27640345437E-01  0.39683804297E-02 -0.42982430293E-01  0.51259020416E-01  0.51100000000E-03 0.  1.
</event>
<event>
 8    1  0.1052028E+005  0.1043930E+01  0.7957747E-01            NaN
         13   -1    0    0    0    0  0.00000000000E+00  0.00000000000E+00  0.74505805969E-08  0.10566000000E+00  0.10566000000E+00 0.  1.
     999900   -1    0    0    0    0 -0.00000000000E+00 -0.00000000000E+00 -0.74505805969E-08  0.93827000000E+00  0.93827000000E+00 0. -1.
     999902    2    1    2    0    0  0.16146852510E-01  0.42664031941E-02  0.16883725049E-01  0.10201816692E+01  0.10199052187E+01 0.  0.
     999903    2    3    3    0    0 -0.50153207545E-01  0.10997107674E+00  0.46320741011E-01  0.13089222599E+00  0.19446897696E-01 0.  0.
         14    1    1    2    0    0 -0.16146852510E-01 -0.42664031941E-02 -0.16883725049E-01  0.23748330757E-01  0.00000000000E+00 0. -1.
     999901    1    3    3    0    0  0.66300060055E-01 -0.10570467355E+00 -0.29437015962E-01  0.88928944325E+00  0.88000000000E+00 0.  1.
        -11    1    4    4    0    0 -0.17439805378E-01  0.45086138457E-01  0.89020582130E-02  0.49157038703E-01  0.51100000000E-03 0. -1.
         11    1    4    4    0    0 -0.32713402166E-01  0.64884938285E-01  0.37418682798E-01  0.81735187287E-01  0.51100000000E-03 0.  1.
</event>
<event>
 8    1  0.1052028E+005  0.1043930E+01  0.7957747E-01            NaN
         13   -1    0    0    0    0  0.00000000000E+00  0.00000000000E+00  0.74505805969E-08  0.10566000000E+00  0.10566000000E+00 0.  1.
     999900   -1    0    0    0    0 -0.00000000000E+00 -0.00000000000E+00 -0.74505805969E-08  0.93827000000E+00  0.93827000000E+00 0. -1.
     999902    2    1    2    0    0  0.25980446731E-03 -0.14385510915E-02  0.23073121873E-01  0.10208106168E+01  0.10205487786E+01 0.  0.
     999903    2    3    3    0    0  0.26586352140E-02 -0.91270734028E-01 -0.89192370638E-01  0.12913852666E+00  0.19597572750E-01 0.  0.
         14    1    1    2    0    0 -0.25980446731E-03  0.14385510915E-02 -0.23073121873E-01  0.23119383222E-01  0.00000000000E+00 0. -1.
     999901    1    3    3    0    0 -0.23988307467E-02  0.89832182936E-01  0.11226549251E+00  0.89167209011E+00  0.88000000000E+00 0.  1.
        -11    1    4    4    0    0  0.10812264961E-01 -0.60431629228E-01 -0.55937196743E-01  0.83054909459E-01  0.51100000000E-03 0.  1.
         11    1    4    4    0    0 -0.81536297471E-02 -0.30839104799E-01 -0.33255173895E-01  0.46083617204E-01  0.51100000000E-03 0. -1.
</event>
<event>
 8    1  0.1052028E+005  0.1043930E+01  0.7957747E-01            NaN
         13   -1    0    0    0    0  0.00000000000E+00  0.00000000000E+00  0.74505805969E-08  0.10566000000E+00  0.10566000000E+00 0.  1.
     999900   -1    0    0    0    0 -0.00000000000E+00 -0.00000000000E+00 -0.74505805969E-08  0.93827000000E+00  0.93827000000E+00 0.  1.
     999902    2    1    2    0    0 -0.99149464032E-02 -0.19269215081E-01 -0.11485655638E-01  0.10194039099E+01  0.10191088275E+01 0.  0.
     999903    2    3    3    0    0 -0.70196893636E-02 -0.24522592365E-02 -0.12971391456E+00  0.13133346574E+00  0.19170028110E-01 0.  0.
         14    1    1    2    0    0  0.99149464032E-02  0.19269215081E-01  0.11485655638E-01  0.24526090138E-01  0.00000000000E+00 0. -1.
     999901    1    3    3    0    0 -0.28952570396E-02 -0.16816955845E-01  0.11822825892E+00  0.88807044412E+00  0.88000000000E+00 0. -1.
        -11    1    4    4    0    0 -0.12059552296E-01  0.33381420238E-02 -0.91474048796E-01  0.92327345451E-01  0.51100000000E-03 0. -1.
         11    1    4    4    0    0  0.50398629324E-02 -0.57904012603E-02 -0.38239865766E-01  0.39006120288E-01  0.51100000000E-03 0.  1.
</event>
<event>
 8    1  0.1052028E+005  0.1043930E+01  0.7957747E-01            NaN
         13   -1    0    0    0    0  0.00000000000E+00  0.00000000000E+00  0.74505805969E-08  0.10566000000E+00  0.10566000000E+00 0.  1.
     999900   -1    0    0    0    0 -0.00000000000E+00 -0.00000000000E+00 -0.74505805969E-08  0.93827000000E+00  0.93827000000E+00 0.  1.
     999902    2    1    2    0    0  0.11875401348E-01 -0.10934941654E-01  0.18194490161E-01  0.10196063987E+01  0.10193162271E+01 0.  0.
     999903    2    3    3    0    0 -0.33792821207E-01  0.79956335495E-01 -0.89706687339E-01  0.12719983505E+00  0.24444589005E-01 0.  0.
         14    1    1    2    0    0 -0.11875401348E-01  0.10934941654E-01 -0.18194490161E-01  0.24323601263E-01  0.00000000000E+00 0. -1.
     999901    1    3    3    0    0  0.45668222556E-01 -0.90891277149E-01  0.10790117750E+00  0.89240656369E+00  0.88000000000E+00 0. -1.
        -11    1    4    4    0    0 -0.16198826660E-01  0.42974102608E-01 -0.30227711712E-01  0.54983189763E-01  0.51100000000E-03 0. -1.
         11    1    4    4    0    0 -0.17593994548E-01  0.36982232886E-01 -0.59478975627E-01  0.72216645284E-01  0.51100000000E-03 0.  1.
</event>
<event>
 8    1  0.1052028E+005  0.1043930E+01  0.7957747E-01            NaN
         13   -1    0    0    0    0  0.00000000000E+00  0.00000000000E+00  0.74505805969E-08  0.10566000000E+00  0.10566000000E+00 0.  1.
     999900   -1    0    0    0    0 -0.00000000000E+00 -0.00000000000E+00 -0.74505805969E-08  0.93827000000E+00  0.93827000000E+00 0. -1.
     999902    2    1    2    0    0 -0.19342325526E-01  0.13701880177E-02  0.13250264654E-01  0.10204444196E+01  0.10201741229E+01 0.  0.
     999903    2    3    3    0    0  0.35299907839E-01  0.11146597466E+00 -0.52021056583E-01  0.12950828203E+00  0.19886120451E-01 0.  0.
         14    1    1    2    0    0  0.19342325526E-01 -0.13701880177E-02 -0.13250264654E-01  0.23485580371E-01  0.00000000000E+00 0. -1.
     999901    1    3    3    0    0 -0.54642233364E-01 -0.11009578664E+00  0.65271321237E-01  0.89093613760E+00  0.88000000000E+00 0.  1.
        -11    1    4    4    0    0  0.34969299729E-01  0.82407139161E-01 -0.38393495290E-01  0.97406930502E-01  0.51100000000E-03 0.  1.
         11    1    4    4    0    0  0.33060810980E-03  0.29058835497E-01 -0.13627561293E-01  0.32101351529E-01  0.51100000000E-03 0. -1.
</event>
<event>
 8    1  0.1052028E+005  0.1043930E+01  0.7957747E-01            NaN
         13   -1    0    0    0    0  0.00000000000E+00  0.00000000000E+00  0.74505805969E-08  0.10566000000E+00  0.10566000000E+00 0.  1.
     999900   -1    0    0    0    0 -0.00000000000E+00 -0.00000000000E+00 -0.74505805969E-08  0.93827000000E+00  0.93827000000E+00 0. -1.
     999902    2    1    2    0    0 -0.20369518698E-01  0.15251202479E-02 -0.11831546055E-01  0.10203243065E+01  0.10200512054E+01 0.  0.
     999903    2    3    3    0    0  0.10910554318E+00 -0.47162323327E-01  0.42778835628E-01  0.12784654621E+00  0.19657220227E-01 0.  0.
         14    1    1    2    0    0  0.20369518698E-01 -0.15251202479E-02  0.11831546055E-01  0.23605693504E-01  0.00000000000E+00 0.  1.
     999901    1    3    3    0    0 -0.12947506188E+00  0.48687443575E-01 -0.54610381683E-01  0.89247776028E+00  0.88000000000E+00 0. -1.
        -11    1    4    4    0    0  0.82678320401E-01 -0.26211945105E-01  0.31661949719E-01  0.92333693262E-01  0.51100000000E-03 0. -1.
         11    1    4    4    0    0  0.26427222779E-01 -0.20950378222E-01  0.11116885910E-01  0.35512852952E-01  0.51100000000E-03 0.  1.
</event>
<event>
 8    1  0.1052028E+005  0.1043930E+01  0.7957747E-01            NaN
         13   -1    0    0    0    0  0.00000000000E+00  0.00000000000E+00  0.74505805969E-08  0.10566000000E+00  0.10566000000E+00 0. -1.
     999900   -1    0    0    0    0 -0.00000000000E+00 -0.00000000000E+00 -0.74505805969E-08  0.93827000000E+00  0.93827000000E+00 0. -1.
     999902    2    1    2    0    0 -0.92317108520E-02  0.22109625977E-01  0.21396673000E-02  0.10198750998E+01  0.10195913794E+01 0.  0.
     999903    2    3    3    0    0  0.49646585901E-01 -0.51586738820E-01  0.10530988804E+00  0.12884092402E+00  0.19591734732E-01 0.  0.
         14    1    1    2    0    0  0.92317108520E-02 -0.22109625977E-01 -0.21396673000E-02  0.24054900172E-01  0.00000000000E+00 0. -1.
     999901    1    3    3    0    0 -0.58878296753E-01  0.73696364798E-01 -0.10317022074E+00  0.89103417581E+00  0.88000000000E+00 0. -1.
        -11    1    4    4    0    0  0.17679888854E-01 -0.83116090032E-02  0.37419837962E-01  0.42215716366E-01  0.51100000000E-03 0.  1.
         11    1    4    4    0    0  0.31966697047E-01 -0.43275129817E-01  0.67890050076E-01  0.86625207654E-01  0.51100000000E-03 0. -1.
</event>
<event>
 8    1  0.1052028E+005  0.1043930E+01  0.7957747E-01            NaN
         13   -1    0    0    0    0  0.00000000000E+00  0.00000000000E+00  0.74505805969E-08  0.10566000000E+00  0.10566000000E+00 0.  1.
     999900   -1    0    0    0    0 -0.00000000000E+00 -0.00000000000E+00 -0.74505805969E-08  0.93827000000E+00  0.93827000000E+00 0.  1.
     999902    2    1    2    0    0 -0.35220190194E-02  0.12498629655E-01  0.20226011899E-01  0.10198943615E+01  0.10196111007E+01 0.  0.
     999903    2    3    3    0    0 -0.98607245935E-01 -0.14853466085E-01 -0.79104369638E-01  0.12879623995E+00  0.19671190194E-01 0.  0.
         14    1    1    2    0    0  0.35220190194E-02 -0.12498629655E-01 -0.20226011899E-01  0.24035638510E-01  0.00000000000E+00 0. -1.
     999901    1    3    3    0    0  0.95085226915E-01  0.27352095740E-01  0.99330381536E-01  0.89109812154E+00  0.88000000000E+00 0. -1.
        -11    1    4    4    0    0 -0.59203680295E-02  0.22108677020E-02 -0.10346021066E-01  0.12134247669E-01  0.51100000000E-03 0. -1.
         11    1    4    4    0    0 -0.92686877905E-01 -0.17064333787E-01 -0.68758348572E-01  0.11666199228E+00  0.51100000000E-03 0.  1.
</event>
<event>
 8    1  0.1052028E+005  0.1043930E+01  0.7957747E-01            NaN
         13   -1    0    0    0    0  0.00000000000E+00  0.00000000000E+00  0.74505805969E-08  0.10566000000E+00  0.10566000000E+00 0. -1.
     999900   -1    0    0    0    0 -0.00000000000E+00 -0.00000000000E+00 -0.74505805969E-08  0.93827000000E+00  0.93827000000E+00 0.  1.
     999902    2    1    2    0    0  0.14884879378E-01  0.18131931972E-01  0.43758622665E-03  0.10204668785E+01  0.10201971045E+01 0.  0.
     999903    2    3    3    0    0 -0.96601076266E-01 -0.79045093952E-01  0.20318030411E-01  0.12790442980E+00  0.19152701901E-01 0.  0.
         14    1    1    2    0    0 -0.14884879378E-01 -0.18131931972E-01 -0.43758622665E-03  0.23463121549E-01  0.00000000000E+00 0. -1.
     999901    1    3    3    0    0  0.11148595564E+00  0.97177025924E-01 -0.19880444185E-01  0.89256244865E+00  0.88000000000E+00 0. -1.
        -11    1    4    4    0    0 -0.62229334894E-01 -0.39919509194E-01  0.78410012974E-02  0.74349174562E-01  0.51100000000E-03 0.  1.
         11    1    4    4    0    0 -0.34371741372E-01 -0.39125584758E-01  0.12477029114E-01  0.53555255243E-01  0.51100000000E-03 0. -1.
</event>
<event>
 8    1  0.1052028E+005  0.1043930E+01  0.7957747E-01            NaN
         13   -1    0    0    0    0  0.00000000000E+00  0.00000000000E+00  0.74505805969E-08  0.10566000000E+00  0.10566000000E+00 0. -1.
     999900   -1    0    0    0    0 -0.00000000000E+00 -0.00000000000E+00 -0.74505805969E-08  0.93827000000E+00  0.93827000000E+00 0.  1.
     999902    2    1    2    0    0 -0.10910020673E-01 -0.21639209145E-02  0.20277635577E-01  0.10208022329E+01  0.10205402026E+01 0.  0.
     999903    2    3    3    0    0 -0.34535548835E-01 -0.12421629933E+00  0.20202754520E-01  0.13206438955E+00  0.20259776536E-01 0.  0.
         14    1    1    2    0    0  0.10910020673E-01  0.21639209145E-02 -0.20277635577E-01  0.23127767064E-01  0.00000000000E+00 0.  1.
     999901    1    3    3    0    0  0.23625528162E-01  0.12205237841E+00  0.74881056552E-04  0.88873784338E+00  0.88000000000E+00 0. -1.
        -11    1    4    4    0    0 -0.35084036109E-01 -0.97009062823E-01  0.18395038720E-01  0.10478686192E+00  0.51100000000E-03 0.  1.
         11    1    4    4    0    0  0.54848727408E-03 -0.27207236504E-01  0.18077157995E-02  0.27277527635E-01  0.51100000000E-03 0. -1.
</event>
<event>
 8    1  0.1052028E+005  0.1043930E+01  0.7957747E-01            NaN
         13   -1    0    0    0    0  0.00000000000E+00  0.00000000000E+00  0.74505805969E-08  0.10566000000E+00  0.10566000000E+00 0. -1.
     999900   -1    0    0    0    0 -0.00000000000E+00 -0.00000000000E+00 -0.74505805969E-08  0.93827000000E+00  0.93827000000E+00 0.  1.
     999902    2    1    2    0    0  0.17191256104E-01 -0.89462987780E-02 -0.14121574226E-01  0.10199509590E+01  0.10196690465E+01 0.  0.
     999903    2    3    3    0    0  0.65372184994E-01 -0.35247036233E-01  0.10513901979E+00  0.13021154773E+00  0.19620335002E-01 0.  0.
         14    1    1    2    0    0 -0.17191256104E-01  0.89462987780E-02  0.14121574226E-01  0.23979040992E-01  0.00000000000E+00 0. -1.
     999901    1    3    3    0    0 -0.48180928890E-01  0.26300737455E-01 -0.11926059402E+00  0.88973941128E+00  0.88000000000E+00 0.  1.
        -11    1    4    4    0    0  0.61363440861E-01 -0.26985252086E-01  0.97119551665E-01  0.11800908499E+00  0.51100000000E-03 0.  1.
         11    1    4    4    0    0  0.40087441328E-02 -0.82617841462E-02  0.80194681244E-02  0.12202462735E-01  0.51100000000E-03 0. -1.
</event>
<event>
 8    1  0.1052028E+005  0.1043930E+01  0.7957747E-01            NaN
         13   -1    0    0    0    0  0.00000000000E+00  0.00000000000E+00  0.74505805969E-08  0.10566000000E+00  0.10566000000E+00 0. -1.
     999900   -1    0    0    0    0 -0.00000000000E+00 -0.00000000000E+00 -0.74505805969E-08  0.93827000000E+00  0.93827000000E+00 0.  1.
     999902    2    1    2    0    0 -0.99359584243E-02  0.21017678371E-01 -0.23389171220E-02  0.10205647136E+01  0.10202972107E+01 0.  0.
     999903    2    3    3    0    0  0.15062848534E-01 -0.79493269586E-01  0.98169314388E-01  0.12880841530E+00  0.20207034646E-01 0.  0.
         14    1    1    2    0    0  0.99359584243E-02 -0.21017678371E-01  0.23389171220E-02  0.23365286371E-01  0.00000000000E+00 0. -1.
     999901    1    3    3    0    0 -0.24998806959E-01  0.10051094796E+00 -0.10050823151E+00  0.89175629833E+00  0.88000000000E+00 0.  1.
        -11    1    4    4    0    0 -0.32459821259E-02 -0.34463277708E-01  0.44806983431E-01  0.56623147171E-01  0.51100000000E-03 0.  1.
         11    1    4    4    0    0  0.18308830660E-01 -0.45029991878E-01  0.53362330957E-01  0.72185268129E-01  0.51100000000E-03 0. -1.
</event>
<event>
 8    1  0.1052028E+005  0.1043930E+01  0.7957747E-01            NaN
         13   -1    0    0    0    0  0.00000000000E+00  0.00000000000E+00  0.74505805969E-08  0.10566000000E+00  0.10566000000E+00 0.  1.
     999900   -1    0    0    0    0 -0.00000000000E+00 -0.00000000000E+00 -0.74505805969E-08  0.93827000000E+00  0.93827000000E+00 0. -1.
     999902    2    1    2    0    0  0.14523120637E-02 -0.19653908236E-01 -0.14427423520E-01  0.10195059162E+01  0.10192133130E+01 0.  0.
     999903    2    3    3    0    0  0.67380804220E-01 -0.10981642624E+00 -0.22930422461E-01  0.13240493734E+00  0.20135612930E-01 0.  0.
         14    1    1    2    0    0 -0.14523120637E-02  0.19653908236E-01  0.14427423520E-01  0.24424083785E-01  0.00000000000E+00 0.  1.
     999901    1    3    3    0    0 -0.65928492156E-01  0.90162518005E-01  0.85029989408E-02  0.88710097888E+00  0.88000000000E+00 0.  1.
        -11    1    4    4    0    0  0.45326711540E-01 -0.63881403933E-01 -0.53989470398E-02  0.78515949320E-01  0.51100000000E-03 0. -1.
         11    1    4    4    0    0  0.22054092680E-01 -0.45935022308E-01 -0.17531475421E-01  0.53888988020E-01  0.51100000000E-03 0.  1.
</event>
<event>
 8    1  0.1052028E+005  0.1043930E+01  0.7957747E-01            NaN
         13   -1    0    0    0    0  0.00000000000E+00  0.00000000000E+00  0.74505805969E-08  0.10566000000E+00  0.10566000000E+00 0. -1.
     999900   -1    0    0    0    0 -0.00000000000E+00 -0.00000000000E+00 -0.74505805969E-08  0.93827000000E+00  0.93827000000E+00 0. -1.
     999902    2    1    2    0    0 -0.61390209595E-02  0.23059341241E-01 -0.57439946227E-04  0.10200673913E+01  0.10197882420E+01 0.  0.
     999903    2    3    3    0    0 -0.91143423049E-01  0.52406389897E-01  0.77410649339E-01  0.13209875302E+00  0.20102702552E-01 0.  0.
         14    1    1    2    0    0  0.61390209595E-02 -0.23059341241E-01  0.57439946227E-04  0.23862608745E-01  0.00000000000E+00 0. -1.
     999901    1    3    3    0    0  0.85004402089E-01 -0.29347048657E-01 -0.77468089286E-01  0.88796863824E+00  0.88000000000E+00 0. -1.
        -11    1    4    4    0    0 -0.31525035323E-01  0.10300927624E-01  0.16572330585E-01  0.37078837955E-01  0.51100000000E-03 0.  1.
         11    1    4    4    0    0 -0.59618387725E-01  0.42105462274E-01  0.60838318754E-01  0.95019915060E-01  0.51100000000E-03 0. -1.
</event>
<event>
 8    1  0.1052028E+005  0.1043930E+01  0.7957747E-01            NaN
         13   -1    0    0    0    0  0.00000000000E+00  0.00000000000E+00  0.74505805969E-08  0.10566000000E+00  0.10566000000E+00 0.  1.
     999900   -1    0    0    0    0 -0.00000000000E+00 -0.00000000000E+00 -0.74505805969E-08  0.93827000000E+00  0.93827000000E+00 0.  1.
     999902    2    1    2    0    0  0.21211758242E-01 -0.61997935411E-02 -0.52077202920E-02  0.10212254525E+01  0.10209730302E+01 0.  0.
     999903    2    3    3    0    0  0.13124256205E+00 -0.14538137053E-01 -0.10141750882E-01  0.13432035585E+00  0.22430679052E-01 0.  0.
         14    1    1    2    0    0 -0.21211758242E-01  0.61997935411E-02  0.52077202920E-02  0.22704547525E-01  0.00000000000E+00 0.  1.
     999901    1    3    3    0    0 -0.11003080381E+00  0.83383435118E-02  0.49340305902E-02  0.88690509662E+00  0.88000000000E+00 0. -1.
        -11    1    4    4    0    0  0.74339301887E-01 -0.16689979324E-01 -0.13044886914E-01  0.77300177299E-01  0.51100000000E-03 0.  1.
         11    1    4    4    0    0  0.56903260163E-01  0.21518422709E-02  0.29031360316E-02  0.57020178553E-01  0.51100000000E-03 0. -1.
</event>
<event>
 8    1  0.1052028E+005  0.1043930E+01  0.7957747E-01            NaN
         13   -1    0    0    0    0  0.00000000000E+00  0.00000000000E+00  0.74505805969E-08  0.10566000000E+00  0.10566000000E+00 0.  1.
     999900   -1    0    0    0    0 -0.00000000000E+00 -0.00000000000E+00 -0.74505805969E-08  0.93827000000E+00  0.93827000000E+00 0. -1.
     999902    2    1    2    0    0 -0.11697735668E-01 -0.95567369146E-02  0.16636938877E-01  0.10214587745E+01  0.10212115707E+01 0.  0.
     999903    2    3    3    0    0 -0.10245570371E+00  0.87192056527E-02  0.83733188367E-01  0.13406206190E+00  0.19702635253E-01 0.  0.
         14    1    1    2    0    0  0.11697735668E-01  0.95567369146E-02 -0.16636938877E-01  0.22471225498E-01  0.00000000000E+00 0. -1.
     999901    1    3    3    0    0  0.90757968047E-01 -0.18275942567E-01 -0.67096249490E-01  0.88739671260E+00  0.88000000000E+00 0. -1.
        -11    1    4    4    0    0 -0.58136016152E-01  0.12265685997E-01  0.39541414891E-01  0.71372459952E-01  0.51100000000E-03 0. -1.
         11    1    4    4    0    0 -0.44319687563E-01 -0.35464803441E-02  0.44191773475E-01  0.62689601948E-01  0.51100000000E-03 0.  1.
</event>
<event>
 8    1  0.1052028E+005  0.1043930E+01  0.7957747E-01            NaN
         13   -1    0    0    0    0  0.00000000000E+00  0.00000000000E+00  0.74505805969E-08  0.10566000000E+00  0.10566000000E+00 0.  1.
     999900   -1    0    0    0    0 -0.00000000000E+00 -0.00000000000E+00 -0.74505805969E-08  0.93827000000E+00  0.93827000000E+00 0.  1.
     999902    2    1    2    0    0  0.10805055045E-01 -0.82171061766E-02 -0.19883688712E-01  0.10198544704E+01  0.10195702574E+01 0.  0.
     999903    2    3    3    0    0  0.61167988262E-01 -0.15555832453E-01  0.11056522660E+00  0.12878365310E+00  0.19417859329E-01 0.  0.
         14    1    1    2    0    0 -0.10805055045E-01  0.82171061766E-02  0.19883688712E-01  0.24075529594E-01  0.00000000000E+00 0.  1.
     999901    1    3    3    0    0 -0.50362933217E-01  0.73387262760E-02 -0.13044891531E+00  0.89107081730E+00  0.88000000000E+00 0.  1.
        -11    1    4    4    0    0  0.72567062388E-02 -0.51208811693E-02  0.29939157860E-01  0.31232955412E-01  0.51100000000E-03 0. -1.
         11    1    4    4    0    0  0.53911282023E-01 -0.10434951283E-01  0.80626068742E-01  0.97550697689E-01  0.51100000000E-03 0.  1.
</event>
<event>
 8    1  0.1052028E+005  0.1043930E+01  0.7957747E-01            NaN
         13   -1    0    0    0    0  0.00000000000E+00  0.00000000000E+00  0.74505805969E-08  0.10566000000E+00  0.10566000000E+00 0. -1.
     999900   -1    0    0    0    0 -0.00000000000E+00 -0.00000000000E+00 -0.74505805969E-08  0.93827000000E+00  0.93827000000E+00 0. -1.
     999902    2    1    2    0    0  0.61667322913E-02  0.20625769294E-01  0.10136870569E-01  0.10201348935E+01  0.10198573400E+01 0.  0.
     999903    2    3    3    0    0 -0.33539684810E-01  0.70470713519E-01 -0.10355531478E+00  0.13053552809E+00  0.14992963455E-01 0.  0.
         14    1    1    2    0    0 -0.61667322913E-02 -0.20625769294E-01 -0.10136870569E-01  0.23795106452E-01  0.00000000000E+00 0. -1.
     999901    1    3    3    0    0  0.39706417101E-01 -0.49844944225E-01  0.11369218534E+00  0.88959936546E+00  0.88000000000E+00 0.  1.
        -11    1    4    4    0    0 -0.18345120434E-01  0.22388400807E-01 -0.34736054163E-01  0.45217679222E-01  0.51100000000E-03 0. -1.
         11    1    4    4    0    0 -0.15194564376E-01  0.48082312712E-01 -0.68819260612E-01  0.85317848863E-01  0.51100000000E-03 0.  1.
</event>
<event>
 8    1  0.1052028E+005  0.1043930E+01  0.7957747E-01            NaN
         13   -1    0    0    0    0  0.00000000000E+00  0.00000000000E+00  0.74505805969E-08  0.10566000000E+00  0.10566000000E+00 0. -1.
     999900   -1    0    0    0    0 -0.00000000000E+00 -0.00000000000E+00 -0.74505805969E-08  0.93827000000E+00  0.93827000000E+00 0.  1.
     999902    2    1    2    0    0 -0.41642376547E-02 -0.21334922466E-01  0.75735088277E-02  0.10209109247E+01  0.10206513794E+01 0.  0.
     999903    2    3    3    0    0  0.84902365804E-01 -0.74395762676E-01 -0.65164198562E-01  0.13184451171E+00  0.19835858234E-01 0.  0.
         14    1    1    2    0    0  0.41642376547E-02  0.21334922466E-01 -0.75735088277E-02  0.23019075304E-01  0.00000000000E+00 0.  1.
     999901    1    3    3    0    0 -0.89066603458E-01  0.53060840209E-01  0.72737707389E-01  0.88906641298E+00  0.88000000000E+00 0. -1.
        -11    1    4    4    0    0  0.43206876459E-01 -0.48736248889E-01 -0.43373415105E-01  0.78253245223E-01  0.51100000000E-03 0. -1.
         11    1    4    4    0    0  0.41695489345E-01 -0.25659513787E-01 -0.21790783457E-01  0.53591266492E-01  0.51100000000E-03 0.  1.
</event>
<event>
 8    1  0.1052028E+005  0.1043930E+01  0.7957747E-01            NaN
         13   -1    0    0    0    0  0.00000000000E+00  0.00000000000E+00  0.74505805969E-08  0.10566000000E+00  0.10566000000E+00 0. -1.
     999900   -1    0    0    0    0 -0.00000000000E+00 -0.00000000000E+00 -0.74505805969E-08  0.93827000000E+00  0.93827000000E+00 0.  1.
     999902    2    1    2    0    0  0.10101069183E-01  0.22083608976E-01 -0.79505571927E-02  0.10183775296E+01  0.10180569061E+01 0.  0.
     999903    2    3    3    0    0 -0.86568413639E-01  0.40668877348E-01  0.82991712292E-01  0.12823097004E+00  0.20186865626E-01 0.  0.
         14    1    1    2    0    0 -0.10101069183E-01 -0.22083608976E-01  0.79505571927E-02  0.25552470403E-01  0.00000000000E+00 0. -1.
     999901    1    3    3    0    0  0.96669482821E-01 -0.18585268372E-01 -0.90942269485E-01  0.89014655956E+00  0.88000000000E+00 0.  1.
        -11    1    4    4    0    0 -0.35853543913E-01  0.15980177564E-01  0.21393676103E-01  0.44707864904E-01  0.51100000000E-03 0.  1.
         11    1    4    4    0    0 -0.50714869726E-01  0.24688699784E-01  0.61598036189E-01  0.83523105137E-01  0.51100000000E-03 0. -1.
</event>
<event>
 8    1  0.1052028E+005  0.1043930E+01  0.7957747E-01            NaN
         13   -1    0    0    0    0  0.00000000000E+00  0.00000000000E+00  0.74505805969E-08  0.10566000000E+00  0.10566000000E+00 0.  1.
     999900   -1    0    0    0    0 -0.00000000000E+00 -0.00000000000E+00 -0.74505805969E-08  0.93827000000E+00  0.93827000000E+00 0. -1.
     999902    2    1    2    0    0 -0.42242491736E-02 -0.78266240459E-02 -0.22749110618E-01  0.10195041457E+01  0.10192114995E+01 0.  0.
     999903    2    3    3    0    0  0.47769042870E-01 -0.99213530330E-01 -0.69978334942E-01  0.13198768461E+00  0.19964354969E-01 0.  0.
         14    1    1    2    0    0  0.42242491736E-02  0.78266240459E-02  0.22749110618E-01  0.24425854314E-01  0.00000000000E+00 0.  1.
     999901    1    3    3    0    0 -0.51993292044E-01  0.91386906284E-01  0.47229224324E-01  0.88751646108E+00  0.88000000000E+00 0. -1.
        -11    1    4    4    0    0  0.35420906332E-01 -0.53850483349E-01 -0.46167858688E-01  0.79285859137E-01  0.51100000000E-03 0. -1.
         11    1    4    4    0    0  0.12348136538E-01 -0.45363046981E-01 -0.23810476254E-01  0.52701825469E-01  0.51100000000E-03 0.  1.
</event>
<event>
 8    1  0.1115158E+005  0.1043930E+01  0.7957747E-01            NaN
         13   -1    0    0    0    0  0.00000000000E+00  0.00000000000E+00  0.74505805969E-08  0.10566000000E+00  0.10566000000E+00 0.  1.
     999900   -1    0    0    0    0 -0.00000000000E+00 -0.00000000000E+00 -0.74505805969E-08  0.93827000000E+00  0.93827000000E+00 0.  1.
     999902    2    1    2    0    0 -0.42732756321E-02  0.14931493016E-02  0.23206550768E-01  0.10202860922E+01  0.10200120957E+01 0.  0.
     999903    2    3    3    0    0 -0.86776801412E-02 -0.70390626475E-01  0.11073054521E+00  0.13301661472E+00  0.20050529179E-01 0.  0.
         14    1    1    2    0    0  0.42732756321E-02 -0.14931493016E-02 -0.23206550768E-01  0.23643907841E-01  0.00000000000E+00 0. -1.
     999901    1    3    3    0    0  0.44044045091E-02  0.71883775777E-01 -0.87523994440E-01  0.88726947744E+00  0.88000000000E+00 0.  1.
        -11    1    4    4    0    0  0.58539263626E-02 -0.34167987782E-01  0.51666187275E-01  0.62220381479E-01  0.51100000000E-03 0.  1.
         11    1    4    4    0    0 -0.14531606504E-01 -0.36222638693E-01  0.59064357933E-01  0.70796233237E-01  0.51100000000E-03 0. -1.
</event>
<event>
 8    1  0.1052028E+005  0.1043930E+01  0.7957747E-01            NaN
         13   -1    0    0    0    0  0.00000000000E+00  0.00000000000E+00  0.74505805969E-08  0.10566000000E+00  0.10566000000E+00 0.  1.
     999900   -1    0    0    0    0 -0.00000000000E+00 -0.00000000000E+00 -0.74505805969E-08  0.93827000000E+00  0.93827000000E+00 0.  1.
     999902    2    1    2    0    0 -0.15813935269E-02  0.20140747930E-02  0.23188781280E-01  0.10206002576E+01  0.10203335773E+01 0.  0.
     999903    2    3    3    0    0 -0.74156136860E-01  0.66679076204E-01  0.84981714130E-01  0.13309418871E+00  0.23386737594E-01 0.  0.
         14    1    1    2    0    0  0.15813935269E-02 -0.20140747930E-02 -0.23188781280E-01  0.23329742391E-01  0.00000000000E+00 0. -1.
     999901    1    3    3    0    0  0.72574743333E-01 -0.64665001411E-01 -0.61792932850E-01  0.88750606890E+00  0.88000000000E+00 0.  1.
        -11    1    4    4    0    0 -0.16746481947E-01  0.17263129312E-01  0.86746055269E-02  0.25572840931E-01  0.51100000000E-03 0.  1.
         11    1    4    4    0    0 -0.57409654913E-01  0.49415946892E-01  0.76307108603E-01  0.10752134778E+00  0.51100000000E-03 0. -1.
</event>
<event>
 8    1  0.1052028E+005  0.1043930E+01  0.7957747E-01            NaN
         13   -1    0    0    0    0  0.00000000000E+00  0.00000000000E+00  0.74505805969E-08  0.10566000000E+00  0.10566000000E+00 0.  1.
     999900   -1    0    0    0    0 -0.00000000000E+00 -0.00000000000E+00 -0.74505805969E-08  0.93827000000E+00  0.93827000000E+00 0. -1.
     999902    2    1    2    0    0 -0.17012499482E-01  0.12121593273E-01  0.10642908717E-01  0.10204858180E+01  0.10202164844E+01 0.  0.
     999903    2    3    3    0    0  0.27813621668E-01  0.43753829338E-01 -0.11696999802E+00  0.12959018247E+00  0.20582512572E-01 0.  0.
         14    1    1    2    0    0  0.17012499482E-01 -0.12121593273E-01 -0.10642908717E-01  0.23444181966E-01  0.00000000000E+00 0.  1.
     999901    1    3    3    0    0 -0.44826121150E-01 -0.31632236065E-01  0.12761290674E+00  0.89089563556E+00  0.88000000000E+00 0.  1.
        -11    1    4    4    0    0  0.11944291669E-01  0.36295376570E-01 -0.78300153983E-01  0.87127468106E-01  0.51100000000E-03 0.  1.
         11    1    4    4    0    0  0.15869329999E-01  0.74584527688E-02 -0.38669844039E-01  0.42462714366E-01  0.51100000000E-03 0. -1.
</event>
<event>
 8    1  0.1052028E+005  0.1043930E+01  0.7957747E-01            NaN
         13   -1    0    0    0    0  0.00000000000E+00  0.00000000000E+00  0.74505805969E-08  0.10566000000E+00  0.10566000000E+00 0.  1.
     999900   -1    0    0    0    0 -0.00000000000E+00 -0.00000000000E+00 -0.74505805969E-08  0.93827000000E+00  0.93827000000E+00 0.  1.
     999902    2    1    2    0    0 -0.19031382775E-01 -0.18453161587E-03 -0.56170113904E-02  0.10240861496E+01  0.10238938731E+01 0.  0.
     999903    2    3    3    0    0  0.73529889791E-01  0.10843291639E+00 -0.64966623993E-03  0.13257618682E+00  0.20289928443E-01 0.  0.
         14    1    1    2    0    0  0.19031382775E-01  0.18453161587E-03  0.56170113904E-02  0.19843850412E-01  0.00000000000E+00 0. -1.
     999901    1    3    3    0    0 -0.92561272566E-01 -0.10861744801E+00 -0.49673451505E-02  0.89150996276E+00  0.88000000000E+00 0. -1.
        -11    1    4    4    0    0  0.57421066086E-01  0.68153849456E-01  0.15944503966E-02  0.89134333560E-01  0.51100000000E-03 0. -1.
         11    1    4    4    0    0  0.16108823705E-01  0.40279066936E-01 -0.22441166365E-02  0.43441853263E-01  0.51100000000E-03 0.  1.
</event>
<event>
 8    1  0.1052028E+005  0.1043930E+01  0.7957747E-01            NaN
         13   -1    0    0    0    0  0.00000000000E+00  0.00000000000E+00  0.74505805969E-08  0.10566000000E+00  0.10566000000E+00 0.  1.
     999900   -1    0    0    0    0 -0.00000000000E+00 -0.00000000000E+00 -0.74505805969E-08  0.93827000000E+00  0.93827000000E+00 0. -1.
     999902    2    1    2    0    0  0.48582514058E-02  0.12162379259E-01  0.15342821649E-01  0.10237575373E+01  0.10235587755E+01 0.  0.
     999903    2    3    3    0    0  0.75861116503E-01 -0.57412375179E-01 -0.89583670657E-01  0.13196629372E+00  0.18405944930E-01 0.  0.
         14    1    1    2    0    0 -0.48582514058E-02 -0.12162379259E-01 -0.15342821649E-01  0.20172462718E-01  0.00000000000E+00 0.  1.
     999901    1    3    3    0    0 -0.71002865097E-01  0.69574754439E-01  0.10492649231E+00  0.89179124356E+00  0.88000000000E+00 0. -1.
        -11    1    4    4    0    0  0.81043460448E-02 -0.14710255167E-01 -0.16124968952E-01  0.23288361398E-01  0.51100000000E-03 0.  1.
         11    1    4    4    0    0  0.67756770458E-01 -0.42702120013E-01 -0.73458701705E-01  0.10867793232E+00  0.51100000000E-03 0. -1.
</event>
<event>
 8    1  0.1052028E+005  0.1043930E+01  0.7957747E-01            NaN
         13   -1    0    0    0    0  0.00000000000E+00  0.00000000000E+00  0.74505805969E-08  0.10566000000E+00  0.10566000000E+00 0.  1.
     999900   -1    0    0    0    0 -0.00000000000E+00 -0.00000000000E+00 -0.74505805969E-08  0.93827000000E+00  0.93827000000E+00 0. -1.
     999902    2    1    2    0    0  0.17287935028E-01 -0.11569459427E-01  0.10769902164E-01  0.10205053147E+01  0.10202364341E+01 0.  0.
     999903    2    3    3    0    0  0.10560528404E+00  0.55884578413E-01  0.53712685140E-01  0.13247711471E+00  0.19737559536E-01 0.  0.
         14    1    1    2    0    0 -0.17287935028E-01  0.11569459427E-01 -0.10769902164E-01  0.23424685304E-01  0.00000000000E+00 0. -1.
     999901    1    3    3    0    0 -0.88317349009E-01 -0.67454037840E-01 -0.42942782976E-01  0.88802819998E+00  0.88000000000E+00 0. -1.
        -11    1    4    4    0    0  0.51207268795E-01  0.17313066906E-01  0.19020716711E-01  0.57305980912E-01  0.51100000000E-03 0. -1.
         11    1    4    4    0    0  0.54398015243E-01  0.38571511507E-01  0.34691968429E-01  0.75171133800E-01  0.51100000000E-03 0.  1.
</event>
<event>
 8    1  0.1052028E+005  0.1043930E+01  0.7957747E-01            NaN
         13   -1    0    0    0    0  0.00000000000E+00  0.00000000000E+00  0.74505805969E-08  0.10566000000E+00  0.10566000000E+00 0. -1.
     999900   -1    0    0    0    0 -0.00000000000E+00 -0.00000000000E+00 -0.74505805969E-08  0.93827000000E+00  0.93827000000E+00 0. -1.
     999902    2    1    2    0    0  0.15811094487E-01  0.48439234688E-02  0.14211793080E-01  0.10221256572E+01  0.10218930618E+01 0.  0.
     999903    2    3    3    0    0  0.40830497551E-01 -0.12421860605E+00  0.66406525785E-02  0.13232768616E+00  0.19212668695E-01 0.  0.
         14    1    1    2    0    0 -0.15811094487E-01 -0.48439234688E-02 -0.14211793080E-01  0.21804342824E-01  0.00000000000E+00 0.  1.
     999901    1    3    3    0    0 -0.25019403063E-01  0.12906252952E+00  0.75711405015E-02  0.88979797102E+00  0.88000000000E+00 0. -1.
        -11    1    4    4    0    0 -0.15043860039E-03 -0.51306718637E-02  0.37041890076E-02  0.63504773639E-02  0.51100000000E-03 0. -1.
         11    1    4    4    0    0  0.40980936151E-01 -0.11908793419E+00  0.29364635709E-02  0.12597720880E+00  0.51100000000E-03 0.  1.
</event>
<event>
 8    1  0.1052028E+005  0.1043930E+01  0.7957747E-01            NaN
         13   -1    0    0    0    0  0.00000000000E+00  0.00000000000E+00  0.74505805969E-08  0.10566000000E+00  0.10566000000E+00 0. -1.
     999900   -1    0    0    0    0 -0.00000000000E+00 -0.00000000000E+00 -0.74505805969E-08  0.93827000000E+00  0.93827000000E+00 0. -1.
     999902    2    1    2    0    0 -0.60824412706E-02  0.50491098126E-02 -0.22324110164E-01  0.10202476121E+01  0.10199727126E+01 0.  0.
     999903    2    3    3    0    0  0.97875999256E-02  0.94131474620E-01  0.85508484771E-01  0.12905998065E+00  0.19703959293E-01 0.  0.
         14    1    1    2    0    0  0.60824412706E-02 -0.50491098126E-02  0.22324110164E-01  0.23682387893E-01  0.00000000000E+00 0. -1.
     999901    1    3    3    0    0 -0.15870041196E-01 -0.89082364807E-01 -0.10783259493E+00  0.89118763145E+00  0.88000000000E+00 0.  1.
        -11    1    4    4    0    0  0.65959953606E-03  0.18863255186E-01  0.28544778263E-01  0.34224595758E-01  0.51100000000E-03 0.  1.
         11    1    4    4    0    0  0.91280003895E-02  0.75268219434E-01  0.56963706508E-01  0.94835384894E-01  0.51100000000E-03 0. -1.
</event>
<event>
 8    1  0.1052028E+005  0.1043930E+01  0.7957747E-01            NaN
         13   -1    0    0    0    0  0.00000000000E+00  0.00000000000E+00  0.74505805969E-08  0.10566000000E+00  0.10566000000E+00 0. -1.
     999900   -1    0    0    0    0 -0.00000000000E+00 -0.00000000000E+00 -0.74505805969E-08  0.93827000000E+00  0.93827000000E+00 0.  1.
     999902    2    1    2    0    0  0.16132224871E-01  0.10753627438E-01 -0.12122275212E-01  0.10210643328E+01  0.10208082743E+01 0.  0.
     999903    2    3    3    0    0  0.21251912471E-01  0.90888268286E-01 -0.93530591216E-01  0.13366640297E+00  0.20159729522E-01 0.  0.
         14    1    1    2    0    0 -0.16132224871E-01 -0.10753627438E-01  0.12122275212E-01  0.22865667248E-01  0.00000000000E+00 0. -1.
     999901    1    3    3    0    0 -0.51196876006E-02 -0.80134640848E-01  0.81408316003E-01  0.88739792978E+00  0.88000000000E+00 0.  1.
        -11    1    4    4    0    0 -0.25703652772E-02  0.28880576557E-01 -0.26187020404E-01  0.39073208706E-01  0.51100000000E-03 0. -1.
         11    1    4    4    0    0  0.23822277749E-01  0.62007691729E-01 -0.67343570811E-01  0.94593194265E-01  0.51100000000E-03 0.  1.
</event>
<event>
 8    1  0.1052028E+005  0.1043930E+01  0.7957747E-01            NaN
         13   -1    0    0    0    0  0.00000000000E+00  0.00000000000E+00  0.74505805969E-08  0.10566000000E+00  0.10566000000E+00 0.  1.
     999900   -1    0    0    0    0 -0.00000000000E+00 -0.00000000000E+00 -0.74505805969E-08  0.93827000000E+00  0.93827000000E+00 0. -1.
     999902    2    1    2    0    0 -0.98238513114E-02  0.58766484717E-02  0.20656827431E-01  0.10203133201E+01  0.10200399617E+01 0.  0.
     999903    2    3    3    0    0 -0.14387140990E-01  0.47372747212E-01 -0.11709050393E+00  0.12861994388E+00  0.19538087174E-01 0.  0.
         14    1    1    2    0    0  0.98238513114E-02 -0.58766484717E-02 -0.20656827431E-01  0.23616679939E-01  0.00000000000E+00 0.  1.
     999901    1    3    3    0    0  0.45632896788E-02 -0.41496098740E-01  0.13774733136E+00  0.89169337618E+00  0.88000000000E+00 0.  1.
        -11    1    4    4    0    0  0.29950442305E-02  0.12314541077E-01 -0.42967424889E-01  0.44800434534E-01  0.51100000000E-03 0. -1.
         11    1    4    4    0    0 -0.17382185221E-01  0.35058206135E-01 -0.74123079038E-01  0.83819509349E-01  0.51100000000E-03 0.  1.
</event>
<event>
 8    1  0.1052028E+005  0.1043930E+01  0.7957747E-01            NaN
         13   -1    0    0    0    0  0.00000000000E+00  0.00000000000E+00  0.74505805969E-08  0.10566000000E+00  0.10566000000E+00 0.  1.
     999900   -1    0    0    0    0 -0.00000000000E+00 -0.00000000000E+00 -0.74505805969E-08  0.93827000000E+00  0.93827000000E+00 0.  1.
     999902    2    1    2    0    0 -0.16643356309E-01  0.70604365691E-02 -0.14555137844E-01  0.10207200213E+01  0.10204561033E+01 0.  0.
     999903    2    3    3    0    0  0.37333584578E-01 -0.10843684431E+00  0.55148613570E-01  0.12880537011E+00  0.19927570048E-01 0.  0.
         14    1    1    2    0    0  0.16643356309E-01 -0.70604365691E-02  0.14555137844E-01  0.23209978704E-01  0.00000000000E+00 0.  1.
     999901    1    3    3    0    0 -0.53976940887E-01  0.11549728088E+00 -0.69703751415E-01  0.89191465119E+00  0.88000000000E+00 0.  1.
        -11    1    4    4    0    0  0.36544711271E-01 -0.81240114782E-01  0.39884953161E-01  0.97604010068E-01  0.51100000000E-03 0. -1.
         11    1    4    4    0    0  0.78887330666E-03 -0.27196729533E-01  0.15263660409E-01  0.31201360042E-01  0.51100000000E-03 0.  1.
</event>
<event>
 8    1  0.1052028E+005  0.1043930E+01  0.7957747E-01            NaN
         13   -1    0    0    0    0  0.00000000000E+00  0.00000000000E+00  0.74505805969E-08  0.10566000000E+00  0.10566000000E+00 0.  1.
     999900   -1    0    0    0    0 -0.00000000000E+00 -0.00000000000E+00 -0.74505805969E-08  0.93827000000E+00  0.93827000000E+00 0. -1.
     999902    2    1    2    0    0 -0.33799641136E-02 -0.94610739794E-02  0.21397864262E-01  0.10202909502E+01  0.10200170677E+01 0.  0.
     999903    2    3    3    0    0  0.10048539928E+00 -0.63957198853E-01 -0.47762081600E-01  0.12981863768E+00  0.19591413821E-01 0.  0.
         14    1    1    2    0    0  0.33799641136E-02  0.94610739794E-02 -0.21397864262E-01  0.23639049753E-01  0.00000000000E+00 0. -1.
     999901    1    3    3    0    0 -0.10386536340E+00  0.54496124874E-01  0.69159945863E-01  0.89047231257E+00  0.88000000000E+00 0.  1.
        -11    1    4    4    0    0  0.38989072226E-01 -0.21215144025E-01 -0.27556453311E-01  0.52247960048E-01  0.51100000000E-03 0. -1.
         11    1    4    4    0    0  0.61496327058E-01 -0.42742054828E-01 -0.20205628289E-01  0.77570677631E-01  0.51100000000E-03 0.  1.
</event>
<event>
 8    1  0.1052028E+005  0.1043930E+01  0.7957747E-01            NaN
         13   -1    0    0    0    0  0.00000000000E+00  0.00000000000E+00  0.74505805969E-08  0.10566000000E+00  0.10566000000E+00 0.  1.
     999900   -1    0    0    0    0 -0.00000000000E+00 -0.00000000000E+00 -0.74505805969E-08  0.93827000000E+00  0.93827000000E+00 0. -1.
     999902    2    1    2    0    0 -0.13120246204E-01  0.14085020742E-01  0.30942838777E-02  0.10244337629E+01  0.10242482274E+01 0.  0.
     999903    2    3    3    0    0  0.40406522643E-01 -0.98463611302E-01  0.76588251237E-01  0.13261894307E+00  0.19855830679E-01 0.  0.
         14    1    1    2    0    0  0.13120246204E-01 -0.14085020742E-01 -0.30942838777E-02  0.19496237136E-01  0.00000000000E+00 0.  1.
     999901    1    3    3    0    0 -0.53526768847E-01  0.11254863204E+00 -0.73493967359E-01  0.89181481979E+00  0.88000000000E+00 0.  1.
        -11    1    4    4    0    0  0.16185137786E-02 -0.24239441670E-01  0.20839474280E-01  0.32011168810E-01  0.51100000000E-03 0. -1.
         11    1    4    4    0    0  0.38788008865E-01 -0.74224169632E-01  0.55748776956E-01  0.10060777426E+00  0.51100000000E-03 0.  1.
</event>
<event>
 8    1  0.1052028E+005  0.1043930E+01  0.7957747E-01            NaN
         13   -1    0    0    0    0  0.00000000000E+00  0.00000000000E+00  0.74505805969E-08  0.10566000000E+00  0.10566000000E+00 0.  1.
     999900   -1    0    0    0    0 -0.00000000000E+00 -0.00000000000E+00 -0.74505805969E-08  0.93827000000E+00  0.93827000000E+00 0. -1.
     999902    2    1    2    0    0 -0.50718371211E-02  0.15542604160E-02 -0.23222959581E-01  0.10201088936E+01  0.10198307260E+01 0.  0.
     999903    2    3    3    0    0  0.12307118991E+00  0.11721755333E-01 -0.31195148863E-01  0.13073407437E+00  0.28885005701E-01 0.  0.
         14    1    1    2    0    0  0.50718371211E-02 -0.15542604160E-02  0.23222959581E-01  0.23821106375E-01  0.00000000000E+00 0.  1.
     999901    1    3    3    0    0 -0.12814302703E+00 -0.10167494917E-01  0.79721892819E-02  0.88937481926E+00  0.88000000000E+00 0. -1.
        -11    1    4    4    0    0  0.86922541789E-01  0.39039642115E-02 -0.34493719404E-01  0.93599396403E-01  0.51100000000E-03 0. -1.
         11    1    4    4    0    0  0.36148648119E-01  0.78177911210E-02  0.32985705408E-02  0.37134677964E-01  0.51100000000E-03 0.  1.
</event>
<event>
 8    1  0.1052028E+005  0.1043930E+01  0.7957747E-01            NaN
         13   -1    0    0    0    0  0.00000000000E+00  0.00000000000E+00  0.74505805969E-08  0.10566000000E+00  0.10566000000E+00 0.  1.
     999900   -1    0    0    0    0 -0.00000000000E+00 -0.00000000000E+00 -0.74505805969E-08  0.93827000000E+00  0.93827000000E+00 0. -1.
     999902    2    1    2    0    0  0.21352090057E-01  0.15686611508E-02 -0.90627669562E-02  0.10206812109E+01  0.10204163994E+01 0.  0.
     999903    2    3    3    0    0  0.28285052882E-01 -0.11038126115E+00 -0.63263688108E-01  0.13190756657E+00  0.20328424857E-01 0.  0.
         14    1    1    2    0    0 -0.21352090057E-01 -0.15686611508E-02  0.90627669562E-02  0.23248789055E-01  0.00000000000E+00 0.  1.
     999901    1    3    3    0    0 -0.69329628252E-02  0.11194992230E+00  0.54200921152E-01  0.88877364437E+00  0.88000000000E+00 0.  1.
        -11    1    4    4    0    0  0.24565969842E-01 -0.77371200957E-01 -0.35461690544E-01  0.88586580412E-01  0.51100000000E-03 0. -1.
         11    1    4    4    0    0  0.37190830403E-02 -0.33010060190E-01 -0.27801997565E-01  0.43320986162E-01  0.51100000000E-03 0.  1.
</event>
<event>
 8    1  0.1052028E+005  0.1043930E+01  0.7957747E-01            NaN
         13   -1    0    0    0    0  0.00000000000E+00  0.00000000000E+00  0.74505805969E-08  0.10566000000E+00  0.10566000000E+00 0.  1.
     999900   -1    0    0    0    0 -0.00000000000E+00 -0.00000000000E+00 -0.74505805969E-08  0.93827000000E+00  0.93827000000E+00 0. -1.
     999902    2    1    2    0    0 -0.15634087592E-02 -0.16219241383E-02  0.20256211558E-01  0.10235489060E+01  0.10233459699E+01 0.  0.
     999903    2    3    3    0    0 -0.13563333532E-01 -0.32441678052E-02 -0.12869613973E+00  0.13094964946E+00  0.19764252341E-01 0.  0.
         14    1    1    2    0    0  0.15634087592E-02  0.16219241383E-02 -0.20256211558E-01  0.20381093973E-01  0.00000000000E+00 0. -1.
     999901    1    3    3    0    0  0.11999924773E-01  0.16222436669E-02  0.14895235129E+00  0.89259925657E+00  0.88000000000E+00 0.  1.
        -11    1    4    4    0    0 -0.16032262676E-01  0.12572234623E-02 -0.11780022328E+00  0.11889393502E+00  0.51100000000E-03 0. -1.
         11    1    4    4    0    0  0.24689291445E-02 -0.45013912675E-02 -0.10895916447E-01  0.12055714441E-01  0.51100000000E-03 0.  1.
</event>
<event>
 8    1  0.1052028E+005  0.1043930E+01  0.7957747E-01            NaN
         13   -1    0    0    0    0  0.00000000000E+00  0.00000000000E+00  0.74505805969E-08  0.10566000000E+00  0.10566000000E+00 0.  1.
     999900   -1    0    0    0    0 -0.00000000000E+00 -0.00000000000E+00 -0.74505805969E-08  0.93827000000E+00  0.93827000000E+00 0.  1.
     999902    2    1    2    0    0  0.19475676025E-01  0.12852877521E-01 -0.21775573038E-02  0.10204941264E+01  0.10202249859E+01 0.  0.
     999903    2    3    3    0    0  0.89209143963E-02 -0.79628571176E-01 -0.10077860877E+00  0.13010859824E+00  0.18751727619E-01 0.  0.
         14    1    1    2    0    0 -0.19475676025E-01 -0.12852877521E-01  0.21775573038E-02  0.23435873634E-01  0.00000000000E+00 0.  1.
     999901    1    3    3    0    0  0.10554761628E-01  0.92481448697E-01  0.98601051468E-01  0.89038552813E+00  0.88000000000E+00 0. -1.
        -11    1    4    4    0    0 -0.44983407655E-02 -0.31834098916E-01 -0.46684237432E-01  0.56686189403E-01  0.51100000000E-03 0. -1.
         11    1    4    4    0    0  0.13419255162E-01 -0.47794472260E-01 -0.54094371340E-01  0.73422408837E-01  0.51100000000E-03 0.  1.
</event>
<event>
 8    1  0.1052028E+005  0.1043930E+01  0.7957747E-01            NaN
         13   -1    0    0    0    0  0.00000000000E+00  0.00000000000E+00  0.74505805969E-08  0.10566000000E+00  0.10566000000E+00 0. -1.
     999900   -1    0    0    0    0 -0.00000000000E+00 -0.00000000000E+00 -0.74505805969E-08  0.93827000000E+00  0.93827000000E+00 0. -1.
     999902    2    1    2    0    0 -0.17230019601E-01 -0.85353340470E-02  0.16813362459E-02  0.10246283836E+01  0.10244465687E+01 0.  0.
     999903    2    3    3    0    0 -0.10688501321E+00 -0.24166022041E-02 -0.81963507168E-01  0.13610606169E+00  0.19406120372E-01 0.  0.
         14    1    1    2    0    0  0.17230019601E-01  0.85353340470E-02 -0.16813362459E-02  0.19301616365E-01  0.00000000000E+00 0. -1.
     999901    1    3    3    0    0  0.89654993607E-01 -0.61187318429E-02  0.83644843414E-01  0.88852232194E+00  0.88000000000E+00 0.  1.
        -11    1    4    4    0    0 -0.43822234640E-01  0.68646255166E-02 -0.26945389384E-01  0.51902085338E-01  0.51100000000E-03 0. -1.
         11    1    4    4    0    0 -0.63062778567E-01 -0.92812277208E-02 -0.55018117785E-01  0.84203976356E-01  0.51100000000E-03 0.  1.
</event>
<event>
 8    1  0.1052028E+005  0.1043930E+01  0.7957747E-01            NaN
         13   -1    0    0    0    0  0.00000000000E+00  0.00000000000E+00  0.74505805969E-08  0.10566000000E+00  0.10566000000E+00 0.  1.
     999900   -1    0    0    0    0 -0.00000000000E+00 -0.00000000000E+00 -0.74505805969E-08  0.93827000000E+00  0.93827000000E+00 0.  1.
     999902    2    1    2    0    0 -0.22771320692E-01  0.22055881553E-02  0.81930461132E-02  0.10196293072E+01  0.10193396885E+01 0.  0.
     999903    2    3    3    0    0  0.44378168292E-01 -0.11144778529E+00 -0.41571501737E-01  0.12839272056E+00  0.19143413238E-01 0.  0.
         14    1    1    2    0    0  0.22771320692E-01 -0.22055881553E-02 -0.81930461132E-02  0.24300692784E-01  0.00000000000E+00 0. -1.
     999901    1    3    3    0    0 -0.67149488984E-01  0.11365337344E+00  0.49764547851E-01  0.89123658665E+00  0.88000000000E+00 0. -1.
        -11    1    4    4    0    0  0.29930543019E-01 -0.93950558325E-01 -0.31064820352E-01  0.10338195684E+00  0.51100000000E-03 0. -1.
         11    1    4    4    0    0  0.14447625273E-01 -0.17497226963E-01 -0.10506681386E-01  0.25010763726E-01  0.51100000000E-03 0.  1.
</event>
<event>
 8    1  0.1052028E+005  0.1043930E+01  0.7957747E-01            NaN
         13   -1    0    0    0    0  0.00000000000E+00  0.00000000000E+00  0.74505805969E-08  0.10566000000E+00  0.10566000000E+00 0. -1.
     999900   -1    0    0    0    0 -0.00000000000E+00 -0.00000000000E+00 -0.74505805969E-08  0.93827000000E+00  0.93827000000E+00 0. -1.
     999902    2    1    2    0    0  0.41357644210E-02 -0.15295642055E-01 -0.17038009737E-01  0.10206629635E+01  0.10203977313E+01 0.  0.
     999903    2    3    3    0    0  0.21568144550E-01 -0.25168389432E-01  0.12334918233E+00  0.12931010252E+00  0.20185369620E-01 0.  0.
         14    1    1    2    0    0 -0.41357644210E-02  0.15295642055E-01  0.17038009737E-01  0.23267036533E-01  0.00000000000E+00 0. -1.
     999901    1    3    3    0    0 -0.17432380129E-01  0.98727473769E-02 -0.14038719207E+00  0.89135286094E+00  0.88000000000E+00 0. -1.
        -11    1    4    4    0    0  0.19915542045E-01 -0.13156484318E-01  0.56008138609E-01  0.60884272239E-01  0.51100000000E-03 0. -1.
         11    1    4    4    0    0  0.16526025054E-02 -0.12011905114E-01  0.67341043722E-01  0.68425830284E-01  0.51100000000E-03 0.  1.
</event>
<event>
 8    1  0.1052028E+005  0.1043930E+01  0.7957747E-01            NaN
         13   -1    0    0    0    0  0.00000000000E+00  0.00000000000E+00  0.74505805969E-08  0.10566000000E+00  0.10566000000E+00 0.  1.
     999900   -1    0    0    0    0 -0.00000000000E+00 -0.00000000000E+00 -0.74505805969E-08  0.93827000000E+00  0.93827000000E+00 0. -1.
     999902    2    1    2    0    0  0.74968831920E-03 -0.19485290327E-01  0.13303680915E-01  0.10203243545E+01  0.10200512546E+01 0.  0.
     999903    2    3    3    0    0  0.46465218809E-01 -0.11874685404E+00  0.33737334546E-01  0.13332925762E+00  0.19458964293E-01 0.  0.
         14    1    1    2    0    0 -0.74968831920E-03  0.19485290327E-01 -0.13303680915E-01  0.23605645460E-01  0.00000000000E+00 0. -1.
     999901    1    3    3    0    0 -0.45715530490E-01  0.99261563715E-01 -0.20433653631E-01  0.88699509692E+00  0.88000000000E+00 0. -1.
        -11    1    4    4    0    0  0.25071879001E-01 -0.85342689642E-01  0.18640203718E-01  0.90882848259E-01  0.51100000000E-03 0.  1.
         11    1    4    4    0    0  0.21393339808E-01 -0.33404164400E-01  0.15097130829E-01  0.42446409362E-01  0.51100000000E-03 0. -1.
</event>
<event>
 8    1  0.1052028E+005  0.1043930E+01  0.7957747E-01            NaN
         13   -1    0    0    0    0  0.00000000000E+00  0.00000000000E+00  0.74505805969E-08  0.10566000000E+00  0.10566000000E+00 0. -1.
     999900   -1    0    0    0    0 -0.00000000000E+00 -0.00000000000E+00 -0.74505805969E-08  0.93827000000E+00  0.93827000000E+00 0.  1.
     999902    2    1    2    0    0  0.78299065167E-02  0.53633998777E-02 -0.21996777832E-01  0.10199731277E+01  0.10196917424E+01 0.  0.
     999903    2    3    3    0    0  0.69630238871E-01 -0.68440076652E-01  0.81425380563E-01  0.12870303562E+00  0.20049052868E-01 0.  0.
         14    1    1    2    0    0 -0.78299065167E-02 -0.53633998777E-02  0.21996777832E-01  0.23956872277E-01  0.00000000000E+00 0. -1.
     999901    1    3    3    0    0 -0.61800332355E-01  0.73803476530E-01 -0.10342215840E+00  0.89127009210E+00  0.88000000000E+00 0.  1.
        -11    1    4    4    0    0  0.33406317599E-01 -0.19434906858E-01  0.29142145297E-01  0.48406852961E-01  0.51100000000E-03 0. -1.
         11    1    4    4    0    0  0.36223921273E-01 -0.49005169794E-01  0.52283235266E-01  0.80296182661E-01  0.51100000000E-03 0.  1.
</event>
<event>
 8    1  0.1052028E+005  0.1043930E+01  0.7957747E-01            NaN
         13   -1    0    0    0    0  0.00000000000E+00  0.00000000000E+00  0.74505805969E-08  0.10566000000E+00  0.10566000000E+00 0. -1.
     999900   -1    0    0    0    0 -0.00000000000E+00 -0.00000000000E+00 -0.74505805969E-08  0.93827000000E+00  0.93827000000E+00 0.  1.
     999902    2    1    2    0    0  0.18126190008E-01 -0.15051592164E-01 -0.50250676596E-03  0.10203638865E+01  0.10200917112E+01 0.  0.
     999903    2    3    3    0    0 -0.55851924704E-01  0.99942941705E-01  0.53920582763E-01  0.12814285061E+00  0.20127886781E-01 0.  0.
         14    1    1    2    0    0 -0.18126190008E-01  0.15051592164E-01  0.50250676596E-03  0.23566113467E-01  0.00000000000E+00 0.  1.
     999901    1    3    3    0    0  0.73978114712E-01 -0.11499453387E+00 -0.54423089529E-01  0.89222103593E+00  0.88000000000E+00 0.  1.
        -11    1    4    4    0    0 -0.23843921063E-01  0.24238222098E-01  0.17449180252E-01  0.38219876957E-01  0.51100000000E-03 0.  1.
         11    1    4    4    0    0 -0.32008003641E-01  0.75704719607E-01  0.36471402511E-01  0.89922973650E-01  0.51100000000E-03 0. -1.
</event>
<event>
 8    1  0.1052028E+005  0.1043930E+01  0.7957747E-01            NaN
         13   -1    0    0    0    0  0.00000000000E+00  0.00000000000E+00  0.74505805969E-08  0.10566000000E+00  0.10566000000E+00 0.  1.
     999900   -1    0    0    0    0 -0.00000000000E+00 -0.00000000000E+00 -0.74505805969E-08  0.93827000000E+00  0.93827000000E+00 0.  1.
     999902    2    1    2    0    0 -0.20416242632E-01 -0.11001806064E-01 -0.38733799819E-02  0.10204169021E+01  0.10201459642E+01 0.  0.
     999903    2    3    3    0    0 -0.76911403058E-01  0.52066728918E-01  0.90855561540E-01  0.13129209894E+00  0.18883167107E-01 0.  0.
         14    1    1    2    0    0  0.20416242632E-01  0.11001806064E-01  0.38733799819E-02  0.23513097889E-01  0.00000000000E+00 0. -1.
     999901    1    3    3    0    0  0.56495160427E-01 -0.63068534982E-01 -0.94728941522E-01  0.88912480317E+00  0.88000000000E+00 0.  1.
        -11    1    4    4    0    0 -0.31544546266E-01  0.32131615456E-01  0.39100488379E-01  0.59637307312E-01  0.51100000000E-03 0. -1.
         11    1    4    4    0    0 -0.45366856792E-01  0.19935113462E-01  0.51755073161E-01  0.71654791625E-01  0.51100000000E-03 0.  1.
</event>
<event>
 8    1  0.1052028E+005  0.1043930E+01  0.7957747E-01            NaN
         13   -1    0    0    0    0  0.00000000000E+00  0.00000000000E+00  0.74505805969E-08  0.10566000000E+00  0.10566000000E+00 0.  1.
     999900   -1    0    0    0    0 -0.00000000000E+00 -0.00000000000E+00 -0.74505805969E-08  0.93827000000E+00  0.93827000000E+00 0. -1.
     999902    2    1    2    0    0 -0.63417593367E-02 -0.18176955348E-01 -0.24276366094E-01  0.10129467534E+01  0.10124727965E+01 0.  0.
     999903    2    3    3    0    0 -0.81796629883E-01 -0.51866319164E-01 -0.76665547656E-01  0.12752423448E+00  0.31686281860E-01 0.  0.
         14    1    1    2    0    0  0.63417593367E-02  0.18176955348E-01  0.24276366094E-01  0.30983246569E-01  0.00000000000E+00 0.  1.
     999901    1    3    3    0    0  0.75454870546E-01  0.33689363816E-01  0.52389181562E-01  0.88542251895E+00  0.88000000000E+00 0.  1.
        -11    1    4    4    0    0 -0.32036935547E-01 -0.96868600987E-02 -0.41822917032E-01  0.53568815629E-01  0.51100000000E-03 0.  1.
         11    1    4    4    0    0 -0.49759694336E-01 -0.42179459065E-01 -0.34842630624E-01  0.73955418849E-01  0.51100000000E-03 0. -1.
</event>
<event>
 8    1  0.1052028E+005  0.1043930E+01  0.7957747E-01            NaN
         13   -1    0    0    0    0  0.00000000000E+00  0.00000000000E+00  0.74505805969E-08  0.10566000000E+00  0.10566000000E+00 0.  1.
     999900   -1    0    0    0    0 -0.00000000000E+00 -0.00000000000E+00 -0.74505805969E-08  0.93827000000E+00  0.93827000000E+00 0.  1.
     999902    2    1    2    0    0  0.11727191587E-01 -0.19067199798E-01 -0.82313674967E-02  0.10200796218E+01  0.10198007620E+01 0.  0.
     999903    2    3    3    0    0 -0.11929132523E+00  0.30056771091E-01 -0.21703790669E-01  0.12892277674E+00  0.31877861766E-01 0.  0.
         14    1    1    2    0    0 -0.11727191587E-01  0.19067199798E-01  0.82313674967E-02  0.23850378226E-01  0.00000000000E+00 0. -1.
     999901    1    3    3    0    0  0.13101851681E+00 -0.49123970888E-01  0.13472423173E-01  0.89115684503E+00  0.88000000000E+00 0.  1.
        -11    1    4    4    0    0 -0.10200671119E+00  0.22120173150E-01 -0.29335401745E-01  0.10842277484E+00  0.51100000000E-03 0. -1.
         11    1    4    4    0    0 -0.17284614034E-01  0.79365979408E-02  0.76316110758E-02  0.20500001898E-01  0.51100000000E-03 0.  1.
</event>
<event>
 8    1  0.1052028E+005  0.1043930E+01  0.7957747E-01            NaN
         13   -1    0    0    0    0  0.00000000000E+00  0.00000000000E+00  0.74505805969E-08  0.10566000000E+00  0.10566000000E+00 0.  1.
     999900   -1    0    0    0    0 -0.00000000000E+00 -0.00000000000E+00 -0.74505805969E-08  0.93827000000E+00  0.93827000000E+00 0. -1.
     999902    2    1    2    0    0 -0.16057115893E-01  0.16178918575E-01  0.49544022651E-02  0.10206033097E+01  0.10203367000E+01 0.  0.
     999903    2    3    3    0    0  0.46684645937E-01 -0.50985617484E-01  0.10812435555E+00  0.12982183101E+00  0.19591890845E-01 0.  0.
         14    1    1    2    0    0  0.16057115893E-01 -0.16178918575E-01 -0.49544022651E-02  0.23326690268E-01  0.00000000000E+00 0. -1.
     999901    1    3    3    0    0 -0.62741761830E-01  0.67164536059E-01 -0.10316995328E+00  0.89078147873E+00  0.88000000000E+00 0. -1.
        -11    1    4    4    0    0  0.99761984576E-02 -0.23994265287E-01  0.45054974271E-01  0.52014047428E-01  0.51100000000E-03 0.  1.
         11    1    4    4    0    0  0.36708447479E-01 -0.26991352197E-01  0.63069381276E-01  0.77807783578E-01  0.51100000000E-03 0. -1.
</event>
<event>
 8    1  0.1052028E+005  0.1043930E+01  0.7957747E-01            NaN
         13   -1    0    0    0    0  0.00000000000E+00  0.00000000000E+00  0.74505805969E-08  0.10566000000E+00  0.10566000000E+00 0. -1.
     999900   -1    0    0    0    0 -0.00000000000E+00 -0.00000000000E+00 -0.74505805969E-08  0.93827000000E+00  0.93827000000E+00 0. -1.
     999902    2    1    2    0    0  0.75081521807E-02  0.16473903867E-01 -0.17134772901E-01  0.10190028602E+01  0.10186979271E+01 0.  0.
     999903    2    3    3    0    0  0.70262786648E-01 -0.86600672452E-01 -0.63216362380E-01  0.12957269129E+00  0.18874273433E-01 0.  0.
         14    1    1    2    0    0 -0.75081521807E-02 -0.16473903867E-01  0.17134772901E-01  0.24927139831E-01  0.00000000000E+00 0.  1.
     999901    1    3    3    0    0 -0.62754634467E-01  0.10307457632E+00  0.46081589479E-01  0.88943016888E+00  0.88000000000E+00 0.  1.
        -11    1    4    4    0    0  0.43682625674E-01 -0.66944439403E-01 -0.42153707969E-01  0.90371046078E-01  0.51100000000E-03 0.  1.
         11    1    4    4    0    0  0.26580160974E-01 -0.19656233050E-01 -0.21062654411E-01  0.39201645207E-01  0.51100000000E-03 0. -1.
</event>
<event>
 8    1  0.1052028E+005  0.1043930E+01  0.7957747E-01            NaN
         13   -1    0    0    0    0  0.00000000000E+00  0.00000000000E+00  0.74505805969E-08  0.10566000000E+00  0.10566000000E+00 0. -1.
     999900   -1    0    0    0    0 -0.00000000000E+00 -0.00000000000E+00 -0.74505805969E-08  0.93827000000E+00  0.93827000000E+00 0. -1.
     999902    2    1    2    0    0 -0.89306064864E-02 -0.20311586145E-01  0.83963754391E-02  0.10202062696E+01  0.10199303982E+01 0.  0.
     999903    2    3    3    0    0  0.47910417194E-01 -0.85728552818E-01  0.86531535328E-01  0.13250396324E+00  0.20610696808E-01 0.  0.
         14    1    1    2    0    0  0.89306064864E-02  0.20311586145E-01 -0.83963754391E-02  0.23723730407E-01  0.00000000000E+00 0. -1.
     999901    1    3    3    0    0 -0.56841023680E-01  0.65416966673E-01 -0.78135159889E-01  0.88770230636E+00  0.88000000000E+00 0. -1.
        -11    1    4    4    0    0  0.25152745699E-01 -0.48706843872E-01  0.61354276822E-01  0.82277734908E-01  0.51100000000E-03 0.  1.
         11    1    4    4    0    0  0.22757671495E-01 -0.37021708946E-01  0.25177258506E-01  0.50226228327E-01  0.51100000000E-03 0. -1.
</event>
<event>
 8    1  0.1052028E+005  0.1043930E+01  0.7957747E-01            NaN
         13   -1    0    0    0    0  0.00000000000E+00  0.00000000000E+00  0.74505805969E-08  0.10566000000E+00  0.10566000000E+00 0. -1.
     999900   -1    0    0    0    0 -0.00000000000E+00 -0.00000000000E+00 -0.74505805969E-08  0.93827000000E+00  0.93827000000E+00 0. -1.
     999902    2    1    2    0    0 -0.80074993964E-03  0.15700239855E-01 -0.17522255688E-01  0.10203892231E+01  0.10201176395E+01 0.  0.
     999903    2    3    3    0    0  0.47662092120E-01  0.54507798887E-01  0.10567595271E+00  0.12964095775E+00  0.19914712630E-01 0.  0.
         14    1    1    2    0    0  0.80074993964E-03 -0.15700239855E-01  0.17522255688E-01  0.23540776885E-01  0.00000000000E+00 0. -1.
     999901    1    3    3    0    0 -0.48462842059E-01 -0.38807559032E-01 -0.12319820840E+00  0.89074826537E+00  0.88000000000E+00 0. -1.
        -11    1    4    4    0    0  0.34431450468E-01  0.30696775630E-01  0.52472163295E-01  0.69867058456E-01  0.51100000000E-03 0. -1.
         11    1    4    4    0    0  0.13230641652E-01  0.23811023257E-01  0.53203789420E-01  0.59773899294E-01  0.51100000000E-03 0.  1.
</event>
<event>
 8    1  0.1052028E+005  0.1043930E+01  0.7957747E-01            NaN
         13   -1    0    0    0    0  0.00000000000E+00  0.00000000000E+00  0.74505805969E-08  0.10566000000E+00  0.10566000000E+00 0. -1.
     999900   -1    0    0    0    0 -0.00000000000E+00 -0.00000000000E+00 -0.74505805969E-08  0.93827000000E+00  0.93827000000E+00 0. -1.
     999902    2    1    2    0    0 -0.14777336242E-01 -0.16706575147E-01 -0.45740919410E-02  0.10211615649E+01  0.10209077040E+01 0.  0.
     999903    2    3    3    0    0  0.11270882703E+00  0.58746565166E-01 -0.26713250723E-02  0.12877738826E+00  0.20543639899E-01 0.  0.
         14    1    1    2    0    0  0.14777336242E-01  0.16706575147E-01  0.45740919410E-02  0.22768435094E-01  0.00000000000E+00 0. -1.
     999901    1    3    3    0    0 -0.12748616327E+00 -0.75453140313E-01 -0.19027668687E-02  0.89238417665E+00  0.88000000000E+00 0. -1.
        -11    1    4    4    0    0  0.86760102984E-01  0.52021582431E-01 -0.78667688274E-02  0.10146776671E+00  0.51100000000E-03 0.  1.
         11    1    4    4    0    0  0.25948724044E-01  0.67249827344E-02  0.51954437551E-02  0.27309621549E-01  0.51100000000E-03 0. -1.
</event>
<event>
 8    1  0.1052028E+005  0.1043930E+01  0.7957747E-01            NaN
         13   -1    0    0    0    0  0.00000000000E+00  0.00000000000E+00  0.74505805969E-08  0.10566000000E+00  0.10566000000E+00 0.  1.
     999900   -1    0    0    0    0 -0.00000000000E+00 -0.00000000000E+00 -0.74505805969E-08  0.93827000000E+00  0.93827000000E+00 0.  1.
     999902    2    1    2    0    0 -0.62087591137E-02 -0.22753322489E-01 -0.84970793288E-02  0.10188608410E+01  0.10185523799E+01 0.  0.
     999903    2    3    3    0    0  0.57906296327E-01 -0.74215934057E-01  0.87212062253E-01  0.12986175189E+00  0.19924527066E-01 0.  0.
         14    1    1    2    0    0  0.62087591137E-02  0.22753322489E-01  0.84970793288E-02  0.25069158963E-01  0.00000000000E+00 0.  1.
     999901    1    3    3    0    0 -0.64115055441E-01  0.51462611568E-01 -0.95709141582E-01  0.88899908915E+00  0.88000000000E+00 0.  1.
        -11    1    4    4    0    0  0.19567379976E-01 -0.38424559467E-01  0.46875547061E-01  0.63693854983E-01  0.51100000000E-03 0. -1.
         11    1    4    4    0    0  0.38338916351E-01 -0.35791374590E-01  0.40336515193E-01  0.66167896906E-01  0.51100000000E-03 0.  1.
</event>
<event>
 8    1  0.1052028E+005  0.1043930E+01  0.7957747E-01            NaN
         13   -1    0    0    0    0  0.00000000000E+00  0.00000000000E+00  0.74505805969E-08  0.10566000000E+00  0.10566000000E+00 0. -1.
     999900   -1    0    0    0    0 -0.00000000000E+00 -0.00000000000E+00 -0.74505805969E-08  0.93827000000E+00  0.93827000000E+00 0.  1.
     999902    2    1    2    0    0  0.12599360037E-01 -0.19726142826E-01  0.94265353350E-02  0.10186966064E+01  0.10183840394E+01 0.  0.
     999903    2    3    3    0    0  0.35907079537E-02 -0.12990264948E+00 -0.73629866357E-02  0.13162169047E+00  0.19556694604E-01 0.  0.
         14    1    1    2    0    0 -0.12599360037E-01  0.19726142826E-01 -0.94265353350E-02  0.25233393599E-01  0.00000000000E+00 0.  1.
     999901    1    3    3    0    0  0.90086520832E-02  0.11017650665E+00  0.16789521971E-01  0.88707491593E+00  0.88000000000E+00 0.  1.
        -11    1    4    4    0    0 -0.53486530180E-02 -0.66652476011E-01 -0.10380697315E-01  0.67669643454E-01  0.51100000000E-03 0.  1.
         11    1    4    4    0    0  0.89393609716E-02 -0.63250173468E-01  0.30177106796E-02  0.63952047013E-01  0.51100000000E-03 0. -1.
</event>
<event>
 7    1  0.1052028E+005  0.1043930E+01  0.7957747E-01            NaN
         13   -1    0    0    0    0  0.00000000000E+00  0.00000000000E+00  0.74505805969E-08  0.10566000000E+00  0.10566000000E+00 0. -1.
     999900   -1    0    0    0    0 -0.00000000000E+00 -0.00000000000E+00 -0.74505805969E-08  0.93827000000E+00  0.93827000000E+00 0. -1.
     999903    2    1    2    0    0  0.90239809209E-01 -0.36878971151E-01  0.12067402976E-01  0.10017132543E+00  0.19631366322E-01 0.  0.
         14    1    1    2    0    0  0.48083476808E-01  0.16311549815E-01  0.12822160512E-01  0.52368838058E-01  0.00000000000E+00 0. -1.
     999901    1    1    2    0    0 -0.13832328602E+00  0.20567421336E-01 -0.24889563488E-01  0.89138983652E+00  0.88000000000E+00 0.  1.
        -11    1    3    3    0    0  0.53021666034E-01 -0.31806778292E-01  0.60626694800E-02  0.62128779938E-01  0.51100000000E-03 0.  1.
         11    1    3    3    0    0  0.37218143175E-01 -0.50721928582E-02  0.60047334956E-02  0.38042545487E-01  0.51100000000E-03 0. -1.
</event>
<event>
 8    1  0.1052028E+005  0.1043930E+01  0.7957747E-01            NaN
         13   -1    0    0    0    0  0.00000000000E+00  0.00000000000E+00  0.74505805969E-08  0.10566000000E+00  0.10566000000E+00 0.  1.
     999900   -1    0    0    0    0 -0.00000000000E+00 -0.00000000000E+00 -0.74505805969E-08  0.93827000000E+00  0.93827000000E+00 0.  1.
     999902    2    1    2    0    0  0.10839649082E-01  0.14188989550E-01 -0.15143066900E-01  0.10205176551E+01  0.10202490610E+01 0.  0.
     999903    2    3    3    0    0 -0.29963310578E-01 -0.12412963876E+00 -0.52049022672E-02  0.12872412995E+00  0.15389718134E-01 0.  0.
         14    1    1    2    0    0 -0.10839649082E-01 -0.14188989550E-01  0.15143066900E-01  0.23412344859E-01  0.00000000000E+00 0.  1.
     999901    1    3    3    0    0  0.40802959659E-01  0.13831862831E+00 -0.99381646323E-02  0.89179352519E+00  0.88000000000E+00 0.  1.
        -11    1    4    4    0    0 -0.20105546636E-01 -0.86011107749E-01  0.34882374882E-02  0.88400071173E-01  0.51100000000E-03 0. -1.
         11    1    4    4    0    0 -0.98577639421E-02 -0.38118531012E-01 -0.86931397554E-02  0.40324058777E-01  0.51100000000E-03 0.  1.
</event>
<event>
 8    1  0.1060353E+005  0.1043930E+01  0.7957747E-01            NaN
         13   -1    0    0    0    0  0.00000000000E+00  0.00000000000E+00  0.74505805969E-08  0.10566000000E+00  0.10566000000E+00 0. -1.
     999900   -1    0    0    0    0 -0.00000000000E+00 -0.00000000000E+00 -0.74505805969E-08  0.93827000000E+00  0.93827000000E+00 0.  1.
     999902    2    1    2    0    0  0.17053764730E-01 -0.20986497782E-01  0.10083208156E-01  0.10150693855E+01  0.10146590178E+01 0.  0.
     999903    2    3    3    0    0 -0.47985183265E-01 -0.79920173058E-01 -0.82149912199E-01  0.12590675062E+00  0.20349199065E-01 0.  0.
         14    1    1    2    0    0 -0.17053764730E-01  0.20986497782E-01 -0.10083208156E-01  0.28860614466E-01  0.00000000000E+00 0. -1.
     999901    1    3    3    0    0  0.65038947995E-01  0.58933675277E-01  0.92233120355E-01  0.88916263491E+00  0.88000000000E+00 0. -1.
        -11    1    4    4    0    0 -0.11924527587E-01 -0.37002889595E-01 -0.27539421090E-01  0.47645451320E-01  0.51100000000E-03 0. -1.
         11    1    4    4    0    0 -0.36060655678E-01 -0.42917283464E-01 -0.54610491109E-01  0.78261299300E-01  0.51100000000E-03 0.  1.
</event>
<event>
 8    1  0.1052028E+005  0.1043930E+01  0.7957747E-01            NaN
         13   -1    0    0    0    0  0.00000000000E+00  0.00000000000E+00  0.74505805969E-08  0.10566000000E+00  0.10566000000E+00 0.  1.
     999900   -1    0    0    0    0 -0.00000000000E+00 -0.00000000000E+00 -0.74505805969E-08  0.93827000000E+00  0.93827000000E+00 0.  1.
     999902    2    1    2    0    0 -0.55733028601E-02  0.17510470544E-01  0.14636084236E-01  0.10204375918E+01  0.10201671360E+01 0.  0.
     999903    2    3    3    0    0 -0.88010032476E-01  0.97564213325E-01  0.55307767075E-02  0.13292008615E+00  0.19303322872E-01 0.  0.
         14    1    1    2    0    0  0.55733028601E-02 -0.17510470544E-01 -0.14636084236E-01  0.23492408246E-01  0.00000000000E+00 0. -1.
     999901    1    3    3    0    0  0.82436729615E-01 -0.80053742781E-01  0.91053075283E-02  0.88751750560E+00  0.88000000000E+00 0. -1.
        -11    1    4    4    0    0 -0.60956120056E-01  0.56099308715E-01  0.87411129673E-02  0.83303356400E-01  0.51100000000E-03 0.  1.
         11    1    4    4    0    0 -0.27053912420E-01  0.41464904610E-01 -0.32103362598E-02  0.49616729753E-01  0.51100000000E-03 0. -1.
</event>
<event>
 8    1  0.1052028E+005  0.1043930E+01  0.7957747E-01            NaN
         13   -1    0    0    0    0  0.00000000000E+00  0.00000000000E+00  0.74505805969E-08  0.10566000000E+00  0.10566000000E+00 0. -1.
     999900   -1    0    0    0    0 -0.00000000000E+00 -0.00000000000E+00 -0.74505805969E-08  0.93827000000E+00  0.93827000000E+00 0. -1.
     999902    2    1    2    0    0 -0.20125891227E-01  0.12235878695E-01 -0.27845365221E-02  0.10202124565E+01  0.10199367307E+01 0.  0.
     999903    2    3    3    0    0 -0.12454599824E+00 -0.20970231616E-01  0.34919927991E-01  0.13261579634E+00  0.20398327804E-01 0.  0.
         14    1    1    2    0    0  0.20125891227E-01 -0.12235878695E-01  0.27845365221E-02  0.23717543481E-01  0.00000000000E+00 0.  1.
     999901    1    3    3    0    0  0.10442010701E+00  0.33206110311E-01 -0.37704464514E-01  0.88759666018E+00  0.88000000000E+00 0. -1.
        -11    1    4    4    0    0 -0.95195261398E-01 -0.71675081596E-02  0.27337087103E-01  0.99303013138E-01  0.51100000000E-03 0. -1.
         11    1    4    4    0    0 -0.29350736842E-01 -0.13802723457E-01  0.75828408882E-02  0.33312783206E-01  0.51100000000E-03 0.  1.
</event>
<event>
 8    1  0.1052028E+005  0.1043930E+01  0.7957747E-01            NaN
         13   -1    0    0    0    0  0.00000000000E+00  0.00000000000E+00  0.74505805969E-08  0.10566000000E+00  0.10566000000E+00 0.  1.
     999900   -1    0    0    0    0 -0.00000000000E+00 -0.00000000000E+00 -0.74505805969E-08  0.93827000000E+00  0.93827000000E+00 0.  1.
     999902    2    1    2    0    0 -0.90522344153E-02 -0.23879024072E-01  0.89756848705E-02  0.10168613159E+01  0.10165009701E+01 0.  0.
     999903    2    3    3    0    0 -0.54999047403E-01 -0.10761668732E+00  0.44968477573E-01  0.13096144179E+00  0.22858010747E-01 0.  0.
         14    1    1    2    0    0  0.90522344153E-02  0.23879024072E-01 -0.89756848705E-02  0.27068684073E-01  0.00000000000E+00 0.  1.
     999901    1    3    3    0    0  0.45946812987E-01  0.83737663249E-01 -0.35992792702E-01  0.88589987414E+00  0.88000000000E+00 0. -1.
        -11    1    4    4    0    0 -0.52713988585E-01 -0.97887033570E-01  0.47074412748E-01  0.12073482261E+00  0.51100000000E-03 0.  1.
         11    1    4    4    0    0 -0.22850588175E-02 -0.97296537511E-02 -0.21059351758E-02  0.10226619181E-01  0.51100000000E-03 0. -1.
</event>
<event>
 8    1  0.1052028E+005  0.1043930E+01  0.7957747E-01            NaN
         13   -1    0    0    0    0  0.00000000000E+00  0.00000000000E+00  0.74505805969E-08  0.10566000000E+00  0.10566000000E+00 0.  1.
     999900   -1    0    0    0    0 -0.00000000000E+00 -0.00000000000E+00 -0.74505805969E-08  0.93827000000E+00  0.93827000000E+00 0.  1.
     999902    2    1    2    0    0  0.29018568838E-01 -0.85755531196E-02  0.15538909241E-01  0.10099141927E+01  0.10093411719E+01 0.  0.
     999903    2    3    3    0    0  0.63871881310E-01 -0.88416518944E-01 -0.52571182731E-01  0.12299349843E+00  0.21600309232E-01 0.  0.
         14    1    1    2    0    0 -0.29018568838E-01  0.85755531196E-02 -0.15538909241E-01  0.34015807342E-01  0.00000000000E+00 0. -1.
     999901    1    3    3    0    0 -0.34853312472E-01  0.79840965825E-01  0.68110091972E-01  0.88692069422E+00  0.88000000000E+00 0. -1.
        -11    1    4    4    0    0  0.34627656121E-01 -0.43251361318E-01 -0.15117071572E-01  0.57432933045E-01  0.51100000000E-03 0.  1.
         11    1    4    4    0    0  0.29244225190E-01 -0.45165157626E-01 -0.37454111159E-01  0.65560565389E-01  0.51100000000E-03 0. -1.
</event>
<event>
 8    1  0.1052028E+005  0.1043930E+01  0.7957747E-01            NaN
         13   -1    0    0    0    0  0.00000000000E+00  0.00000000000E+00  0.74505805969E-08  0.10566000000E+00  0.10566000000E+00 0.  1.
     999900   -1    0    0    0    0 -0.00000000000E+00 -0.00000000000E+00 -0.74505805969E-08  0.93827000000E+00  0.93827000000E+00 0.  1.
     999902    2    1    2    0    0 -0.97555004933E-02 -0.12124808800E-01  0.19067665845E-01  0.10193178758E+01  0.10190206942E+01 0.  0.
     999903    2    3    3    0    0  0.80289528513E-01  0.91008487831E-01 -0.32919934874E-01  0.12721513799E+00  0.19261775005E-01 0.  0.
         14    1    1    2    0    0  0.97555004933E-02  0.12124808800E-01 -0.19067665845E-01  0.24612124229E-01  0.00000000000E+00 0. -1.
     999901    1    3    3    0    0 -0.90045029006E-01 -0.10313329663E+00  0.51987600718E-01  0.89210273778E+00  0.88000000000E+00 0. -1.
        -11    1    4    4    0    0  0.42706446919E-01  0.40397637202E-01 -0.75937980007E-02  0.59276779510E-01  0.51100000000E-03 0. -1.
         11    1    4    4    0    0  0.37583081594E-01  0.50610850629E-01 -0.25326136873E-01  0.67938358483E-01  0.51100000000E-03 0.  1.
</event>
<event>
 8    1  0.1052028E+005  0.1043930E+01  0.7957747E-01            NaN
         13   -1    0    0    0    0  0.00000000000E+00  0.00000000000E+00  0.74505805969E-08  0.10566000000E+00  0.10566000000E+00 0.  1.
     999900   -1    0    0    0    0 -0.00000000000E+00 -0.00000000000E+00 -0.74505805969E-08  0.93827000000E+00  0.93827000000E+00 0. -1.
     999902    2    1    2    0    0  0.50842923423E-02  0.16318280951E-01 -0.15334749441E-01  0.10209671852E+01  0.10207089215E+01 0.  0.
     999903    2    3    3    0    0 -0.61817385478E-01  0.54146211430E-01  0.98976234878E-01  0.13025186148E+00  0.20397327993E-01 0.  0.
         14    1    1    2    0    0 -0.50842923423E-02 -0.16318280951E-01  0.15334749441E-01  0.22962814772E-01  0.00000000000E+00 0.  1.
     999901    1    3    3    0    0  0.66901677820E-01 -0.37827930479E-01 -0.11431098432E+00  0.89071532375E+00  0.88000000000E+00 0. -1.
        -11    1    4    4    0    0 -0.91136925899E-02  0.19639251831E-01  0.26475023994E-01  0.34204497096E-01  0.51100000000E-03 0.  1.
         11    1    4    4    0    0 -0.52703692888E-01  0.34506959600E-01  0.72501210884E-01  0.96047364386E-01  0.51100000000E-03 0. -1.
</event>
<event>
 8    1  0.1052028E+005  0.1043930E+01  0.7957747E-01            NaN
         13   -1    0    0    0    0  0.00000000000E+00  0.00000000000E+00  0.74505805969E-08  0.10566000000E+00  0.10566000000E+00 0. -1.
     999900   -1    0    0    0    0 -0.00000000000E+00 -0.00000000000E+00 -0.74505805969E-08  0.93827000000E+00  0.93827000000E+00 0.  1.
     999902    2    1    2    0    0  0.47340227687E-02  0.22973677751E-01 -0.67381791867E-04  0.10204735429E+01  0.10202039239E+01 0.  0.
     999903    2    3    3    0    0  0.70777459576E-01  0.23155461560E-01 -0.10673464586E+00  0.13157553195E+00  0.19344554722E-01 0.  0.
         14    1    1    2    0    0 -0.47340227687E-02 -0.22973677751E-01  0.67381791867E-04  0.23456457134E-01  0.00000000000E+00 0. -1.
     999901    1    3    3    0    0 -0.66043436807E-01 -0.18178380903E-03  0.10666726406E+00  0.88889801092E+00  0.88000000000E+00 0. -1.
        -11    1    4    4    0    0  0.33239740376E-01  0.14715148715E-01 -0.36649138603E-01  0.51622053653E-01  0.51100000000E-03 0. -1.
         11    1    4    4    0    0  0.37537719199E-01  0.84403128446E-02 -0.70085507253E-01  0.79953478295E-01  0.51100000000E-03 0.  1.
</event>
<event>
 8    1  0.1052028E+005  0.1043930E+01  0.7957747E-01            NaN
         13   -1    0    0    0    0  0.00000000000E+00  0.00000000000E+00  0.74505805969E-08  0.10566000000E+00  0.10566000000E+00 0. -1.
     999900   -1    0    0    0    0 -0.00000000000E+00 -0.00000000000E+00 -0.74505805969E-08  0.93827000000E+00  0.93827000000E+00 0. -1.
     999902    2    1    2    0    0  0.18890841416E-01  0.28228869043E-02  0.15023529209E-01  0.10196289916E+01  0.10193393652E+01 0.  0.
     999903    2    3    3    0    0  0.10937158323E+00  0.60103836906E-01  0.40478384101E-01  0.13277171925E+00  0.20376835463E-01 0.  0.
         14    1    1    2    0    0 -0.18890841416E-01 -0.28228869043E-02 -0.15023529209E-01  0.24301008410E-01  0.00000000000E+00 0.  1.
     999901    1    3    3    0    0 -0.90480741812E-01 -0.57280950002E-01 -0.25454854892E-01  0.88685727234E+00  0.88000000000E+00 0.  1.
        -11    1    4    4    0    0  0.64983097872E-01  0.30501836347E-01  0.13738852109E-01  0.73090233327E-01  0.51100000000E-03 0. -1.
         11    1    4    4    0    0  0.44388485356E-01  0.29602000559E-01  0.26739531992E-01  0.59681485918E-01  0.51100000000E-03 0.  1.
</event>
<event>
 8    1  0.1052028E+005  0.1043930E+01  0.7957747E-01            NaN
         13   -1    0    0    0    0  0.00000000000E+00  0.00000000000E+00  0.74505805969E-08  0.10566000000E+00  0.10566000000E+00 0.  1.
     999900   -1    0    0    0    0 -0.00000000000E+00 -0.00000000000E+00 -0.74505805969E-08  0.93827000000E+00  0.93827000000E+00 0.  1.
     999902    2    1    2    0    0 -0.17671031850E-01 -0.81336594988E-02  0.14825374499E-01  0.10194715963E+01  0.10191781601E+01 0.  0.
     999903    2    3    3    0    0  0.96862826295E-02  0.18600013312E-01  0.12801843814E+00  0.13139739804E+00  0.20899070344E-01 0.  0.
         14    1    1    2    0    0  0.17671031850E-01  0.81336594988E-02 -0.14825374499E-01  0.24458403720E-01  0.00000000000E+00 0. -1.
     999901    1    3    3    0    0 -0.27357314479E-01 -0.26733672810E-01 -0.11319306364E+00  0.88807419824E+00  0.88000000000E+00 0.  1.
        -11    1    4    4    0    0 -0.62039795654E-02  0.58029102293E-02  0.51770133515E-01  0.52464949964E-01  0.51100000000E-03 0.  1.
         11    1    4    4    0    0  0.15890262195E-01  0.12797103082E-01  0.76248304629E-01  0.78932448079E-01  0.51100000000E-03 0. -1.
</event>
<event>
 8    1  0.1052028E+005  0.1043930E+01  0.7957747E-01            NaN
         13   -1    0    0    0    0  0.00000000000E+00  0.00000000000E+00  0.74505805969E-08  0.10566000000E+00  0.10566000000E+00 0.  1.
     999900   -1    0    0    0    0 -0.00000000000E+00 -0.00000000000E+00 -0.74505805969E-08  0.93827000000E+00  0.93827000000E+00 0. -1.
     999902    2    1    2    0    0 -0.14644164587E-01  0.15725683817E-02 -0.18652233878E-01  0.10201638401E+01  0.10198869694E+01 0.  0.
     999903    2    3    3    0    0  0.61700992579E-01 -0.10968726185E+00  0.22368034194E-01  0.12893435493E+00  0.16894704205E-01 0.  0.
         14    1    1    2    0    0  0.14644164587E-01 -0.15725683817E-02  0.18652233878E-01  0.23766159900E-01  0.00000000000E+00 0.  1.
     999901    1    3    3    0    0 -0.76345157166E-01  0.11125983023E+00 -0.41020268072E-01  0.89122948517E+00  0.88000000000E+00 0. -1.
        -11    1    4    4    0    0  0.15941438075E-01 -0.22515233519E-01  0.11462553462E-01  0.29878360751E-01  0.51100000000E-03 0. -1.
         11    1    4    4    0    0  0.45759554503E-01 -0.87172028330E-01  0.10905480731E-01  0.99055994177E-01  0.51100000000E-03 0.  1.
</event>
<event>
 8    1  0.1052028E+005  0.1043930E+01  0.7957747E-01            NaN
         13   -1    0    0    0    0  0.00000000000E+00  0.00000000000E+00  0.74505805969E-08  0.10566000000E+00  0.10566000000E+00 0.  1.
     999900   -1    0    0    0    0 -0.00000000000E+00 -0.00000000000E+00 -0.74505805969E-08  0.93827000000E+00  0.93827000000E+00 0. -1.
     999902    2    1    2    0    0  0.13265685983E-01 -0.11712034896E-01  0.59562436413E-02  0.10252584434E+01  0.10250884102E+01 0.  0.
     999903    2    3    3    0    0  0.46878446072E-02  0.89908063170E-01 -0.95856232852E-01  0.13353763284E+00  0.23204445638E-01 0.  0.
         14    1    1    2    0    0 -0.13265685983E-01  0.11712034896E-01 -0.59562436413E-02  0.18671556559E-01  0.00000000000E+00 0. -1.
     999901    1    3    3    0    0  0.85778413758E-02 -0.10162009807E+00  0.10181247649E+00  0.89172081060E+00  0.88000000000E+00 0.  1.
        -11    1    4    4    0    0 -0.36992289480E-02  0.48222043400E-01 -0.36850351459E-01  0.60805092617E-01  0.51100000000E-03 0. -1.
         11    1    4    4    0    0  0.83870735552E-02  0.41686019770E-01 -0.59005881393E-01  0.72732540221E-01  0.51100000000E-03 0.  1.
</event>
<event>
 8    1  0.1052028E+005  0.1043930E+01  0.7957747E-01            NaN
         13   -1    0    0    0    0  0.00000000000E+00  0.00000000000E+00  0.74505805969E-08  0.10566000000E+00  0.10566000000E+00 0. -1.
     999900   -1    0    0    0    0 -0.00000000000E+00 -0.00000000000E+00 -0.74505805969E-08  0.93827000000E+00  0.93827000000E+00 0.  1.
     999902    2    1    2    0    0 -0.37589033138E-02  0.19023682852E-01 -0.13563305570E-01  0.10202658262E+01  0.10199913544E+01 0.  0.
     999903    2    3    3    0    0  0.76348510312E-01  0.27010031803E-01 -0.10254540070E+00  0.13212237341E+00  0.19548030756E-01 0.  0.
         14    1    1    2    0    0  0.37589033138E-02 -0.19023682852E-01  0.13563305570E-01  0.23664173794E-01  0.00000000000E+00 0. -1.
     999901    1    3    3    0    0 -0.80107413626E-01 -0.79863489514E-02  0.88982095130E-01  0.88814345279E+00  0.88000000000E+00 0. -1.
        -11    1    4    4    0    0  0.23343515813E-01 -0.77268181792E-03 -0.25903843914E-01  0.34882474371E-01  0.51100000000E-03 0.  1.
         11    1    4    4    0    0  0.53004994499E-01  0.27782713621E-01 -0.76641556786E-01  0.97239899041E-01  0.51100000000E-03 0. -1.
</event>
<event>
 8    1  0.1052028E+005  0.1043930E+01  0.7957747E-01            NaN
         13   -1    0    0    0    0  0.00000000000E+00  0.00000000000E+00  0.74505805969E-08  0.10566000000E+00  0.10566000000E+00 0. -1.
     999900   -1    0    0    0    0 -0.00000000000E+00 -0.00000000000E+00 -0.74505805969E-08  0.93827000000E+00  0.93827000000E+00 0.  1.
     999902    2    1    2    0    0  0.11471583212E-01 -0.15858999020E-01  0.13381333556E-01  0.10202199777E+01  0.10199444287E+01 0.  0.
     999903    2    3    3    0    0  0.56950537260E-01  0.53320361708E-01  0.10415544796E+00  0.13168519554E+00  0.20154620250E-01 0.  0.
         14    1    1    2    0    0 -0.11471583212E-01  0.15858999020E-01 -0.13381333556E-01  0.23710022333E-01  0.00000000000E+00 0. -1.
     999901    1    3    3    0    0 -0.45478954048E-01 -0.69179360728E-01 -0.90774114400E-01  0.88853478213E+00  0.88000000000E+00 0. -1.
        -11    1    4    4    0    0  0.49538197882E-01  0.36174245393E-01  0.85962280111E-01  0.10560484744E+00  0.51100000000E-03 0.  1.
         11    1    4    4    0    0  0.74123393773E-02  0.17146116314E-01  0.18193167846E-01  0.26080348099E-01  0.51100000000E-03 0. -1.
</event>
<event>
 8    1  0.1052028E+005  0.1043930E+01  0.7957747E-01            NaN
         13   -1    0    0    0    0  0.00000000000E+00  0.00000000000E+00  0.74505805969E-08  0.10566000000E+00  0.10566000000E+00 0.  1.
     999900   -1    0    0    0    0 -0.00000000000E+00 -0.00000000000E+00 -0.74505805969E-08  0.93827000000E+00  0.93827000000E+00 0. -1.
     999902    2    1    2    0    0  0.10344371180E-01 -0.16966385232E-01 -0.12337401197E-01  0.10205403503E+01  0.10202722828E+01 0.  0.
     999903    2    3    3    0    0 -0.63421039868E-04  0.27548611201E-01 -0.12734129806E+00  0.13188079610E+00  0.20440356826E-01 0.  0.
         14    1    1    2    0    0 -0.10344371180E-01  0.16966385232E-01  0.12337401197E-01  0.23389649661E-01  0.00000000000E+00 0.  1.
     999901    1    3    3    0    0  0.10407792220E-01 -0.44514996433E-01  0.11500389686E+00  0.88865955424E+00  0.88000000000E+00 0.  1.
        -11    1    4    4    0    0  0.74209176222E-04  0.48874829264E-02 -0.36297614627E-02  0.61097696874E-02  0.51100000000E-03 0.  1.
         11    1    4    4    0    0 -0.13763021609E-03  0.22661128274E-01 -0.12371153660E+00  0.12577102641E+00  0.51100000000E-03 0. -1.
</event>
<event>
 8    1  0.1052028E+005  0.1043930E+01  0.7957747E-01            NaN
         13   -1    0    0    0    0  0.00000000000E+00  0.00000000000E+00  0.74505805969E-08  0.10566000000E+00  0.10566000000E+00 0.  1.
     999900   -1    0    0    0    0 -0.00000000000E+00 -0.00000000000E+00 -0.74505805969E-08  0.93827000000E+00  0.93827000000E+00 0.  1.
     999902    2    1    2    0    0 -0.21035661319E-01 -0.87679979968E-03  0.96877009311E-02  0.10207541640E+01  0.10204910308E+01 0.  0.
     999903    2    3    3    0    0  0.14272636991E-01 -0.89527372415E-01  0.93571802024E-01  0.13162979566E+00  0.18757995460E-01 0.  0.
         14    1    1    2    0    0  0.21035661319E-01  0.87679979968E-03 -0.96877009311E-02  0.23175836001E-01  0.00000000000E+00 0. -1.
     999901    1    3    3    0    0 -0.35308298310E-01  0.88650572616E-01 -0.83884101093E-01  0.88912436834E+00  0.88000000000E+00 0.  1.
        -11    1    4    4    0    0  0.38540814072E-02 -0.48834689153E-01  0.38178188127E-01  0.62108904175E-01  0.51100000000E-03 0.  1.
         11    1    4    4    0    0  0.10418555584E-01 -0.40692683263E-01  0.55393613897E-01  0.69520891487E-01  0.51100000000E-03 0. -1.
</event>
<event>
 8    1  0.1052028E+005  0.1043930E+01  0.7957747E-01            NaN
         13   -1    0    0    0    0  0.00000000000E+00  0.00000000000E+00  0.74505805969E-08  0.10566000000E+00  0.10566000000E+00 0.  1.
     999900   -1    0    0    0    0 -0.00000000000E+00 -0.00000000000E+00 -0.74505805969E-08  0.93827000000E+00  0.93827000000E+00 0.  1.
     999902    2    1    2    0    0 -0.13415131169E-01 -0.54409225167E-02 -0.18751558115E-01  0.10202405442E+01  0.10199654787E+01 0.  0.
     999903    2    3    3    0    0 -0.12478850431E+00 -0.38899977695E-01 -0.74669640811E-02  0.13251824607E+00  0.20492703948E-01 0.  0.
         14    1    1    2    0    0  0.13415131169E-01  0.54409225167E-02  0.18751558115E-01  0.23689455752E-01  0.00000000000E+00 0.  1.
     999901    1    3    3    0    0  0.11137337315E+00  0.33459055178E-01 -0.11284594034E-01  0.88772229818E+00  0.88000000000E+00 0.  1.
        -11    1    4    4    0    0 -0.71862000982E-01 -0.28594907147E-01 -0.12553590250E-01  0.78356044114E-01  0.51100000000E-03 0.  1.
         11    1    4    4    0    0 -0.52926503332E-01 -0.10305070547E-01  0.50866261691E-02  0.54162201956E-01  0.51100000000E-03 0. -1.
</event>
<event>
 8    1  0.1052028E+005  0.1043930E+01  0.7957747E-01            NaN
         13   -1    0    0    0    0  0.00000000000E+00  0.00000000000E+00  0.74505805969E-08  0.10566000000E+00  0.10566000000E+00 0. -1.
     999900   -1    0    0    0    0 -0.00000000000E+00 -0.00000000000E+00 -0.74505805969E-08  0.93827000000E+00  0.93827000000E+00 0. -1.
     999902    2    1    2    0    0  0.70994305184E-02 -0.17295979110E-01  0.16176057047E-01  0.10192071840E+01  0.10189072904E+01 0.  0.
     999903    2    3    3    0    0  0.12563245275E+00  0.16528918587E-01  0.23881547066E-01  0.13058264261E+00  0.20610189869E-01 0.  0.
         14    1    1    2    0    0 -0.70994305184E-02  0.17295979110E-01 -0.16176057047E-01  0.24722815954E-01  0.00000000000E+00 0.  1.
     999901    1    3    3    0    0 -0.11853302224E+00 -0.33824897697E-01 -0.77054900188E-02  0.88862454144E+00  0.88000000000E+00 0.  1.
        -11    1    4    4    0    0  0.78177268785E-01  0.18838939809E-01  0.97142246217E-02  0.81001347450E-01  0.51100000000E-03 0.  1.
         11    1    4    4    0    0  0.47455183969E-01 -0.23100212216E-02  0.14167322444E-01  0.49581295161E-01  0.51100000000E-03 0. -1.
</event>
<event>
 8    1  0.1113291E+005  0.1043930E+01  0.7957747E-01            NaN
         13   -1    0    0    0    0  0.00000000000E+00  0.00000000000E+00  0.74505805969E-08  0.10566000000E+00  0.10566000000E+00 0. -1.
     999900   -1    0    0    0    0 -0.00000000000E+00 -0.00000000000E+00 -0.74505805969E-08  0.93827000000E+00  0.93827000000E+00 0. -1.
     999902    2    1    2    0    0 -0.29552020137E-01 -0.10953241824E-02 -0.39422792818E-02  0.10140960731E+01  0.10136571325E+01 0.  0.
     999903    2    3    3    0    0  0.78156303031E-01 -0.34338987182E-01  0.85424373543E-01  0.12241640939E+00  0.20021986631E-01 0.  0.
         14    1    1    2    0    0  0.29552020137E-01  0.10953241824E-02  0.39422792818E-02  0.29833926915E-01  0.00000000000E+00 0.  1.
     999901    1    3    3    0    0 -0.10770832317E+00  0.33243662999E-01 -0.89366652825E-01  0.89167966369E+00  0.88000000000E+00 0. -1.
        -11    1    4    4    0    0  0.30295169190E-01 -0.13947243057E-01  0.47468744460E-01  0.58016081277E-01  0.51100000000E-03 0. -1.
         11    1    4    4    0    0  0.47861133841E-01 -0.20391744125E-01  0.37955629083E-01  0.64400328113E-01  0.51100000000E-03 0.  1.
</event>
<event>
 8    1  0.1052028E+005  0.1043930E+01  0.7957747E-01            NaN
         13   -1    0    0    0    0  0.00000000000E+00  0.00000000000E+00  0.74505805969E-08  0.10566000000E+00  0.10566000000E+00 0.  1.
     999900   -1    0    0    0    0 -0.00000000000E+00 -0.00000000000E+00 -0.74505805969E-08  0.93827000000E+00  0.93827000000E+00 0.  1.
     999902    2    1    2    0    0  0.12453556194E-01  0.35627935738E-02  0.20321609619E-01  0.10198311955E+01  0.10195464261E+01 0.  0.
     999903    2    3    3    0    0 -0.76087649446E-01 -0.63736456085E-01 -0.77526631909E-01  0.12745066431E+00  0.19535274421E-01 0.  0.
         14    1    1    2    0    0 -0.12453556194E-01 -0.35627935738E-02 -0.20321609619E-01  0.24098804482E-01  0.00000000000E+00 0. -1.
     999901    1    3    3    0    0  0.88541205640E-01  0.67299249659E-01  0.97848241528E-01  0.89238053120E+00  0.88000000000E+00 0.  1.
        -11    1    4    4    0    0 -0.57523907972E-01 -0.39697172541E-01 -0.46012224656E-01  0.83679456469E-01  0.51100000000E-03 0.  1.
         11    1    4    4    0    0 -0.18563741475E-01 -0.24039283543E-01 -0.31514407253E-01  0.43771207846E-01  0.51100000000E-03 0. -1.
</event>
<event>
 8    1  0.1052028E+005  0.1043930E+01  0.7957747E-01            NaN
         13   -1    0    0    0    0  0.00000000000E+00  0.00000000000E+00  0.74505805969E-08  0.10566000000E+00  0.10566000000E+00 0.  1.
     999900   -1    0    0    0    0 -0.00000000000E+00 -0.00000000000E+00 -0.74505805969E-08  0.93827000000E+00  0.93827000000E+00 0.  1.
     999902    2    1    2    0    0 -0.20786083305E-01 -0.22539494092E-02 -0.10500766095E-01  0.10205332559E+01  0.10202650238E+01 0.  0.
     999903    2    3    3    0    0 -0.12837446965E+00  0.23876475226E-01 -0.19455475591E-01  0.13355059156E+00  0.20178068524E-01 0.  0.
         14    1    1    2    0    0  0.20786083305E-01  0.22539494092E-02  0.10500766095E-01  0.23396744126E-01  0.00000000000E+00 0.  1.
     999901    1    3    3    0    0  0.10758838634E+00 -0.26130424636E-01  0.89547094956E-02  0.88698266431E+00  0.88000000000E+00 0.  1.
        -11    1    4    4    0    0 -0.41955449214E-01  0.40578953641E-02 -0.15109008807E-01  0.44780235615E-01  0.51100000000E-03 0.  1.
         11    1    4    4    0    0 -0.86419020434E-01  0.19818579862E-01 -0.43464667836E-02  0.88770355947E-01  0.51100000000E-03 0. -1.
</event>
<event>
 8    1  0.1052028E+005  0.1043930E+01  0.7957747E-01            NaN
         13   -1    0    0    0    0  0.00000000000E+00  0.00000000000E+00  0.74505805969E-08  0.10566000000E+00  0.10566000000E+00 0. -1.
     999900   -1    0    0    0    0 -0.00000000000E+00 -0.00000000000E+00 -0.74505805969E-08  0.93827000000E+00  0.93827000000E+00 0. -1.
     999902    2    1    2    0    0 -0.27974145535E-03 -0.15693645049E-01  0.17898940760E-01  0.10201236809E+01  0.10198458626E+01 0.  0.
     999903    2    3    3    0    0 -0.39597545500E-01 -0.99388668870E-01  0.77143397040E-01  0.13329751283E+00  0.19262661019E-01 0.  0.
         14    1    1    2    0    0  0.27974145535E-03  0.15693645049E-01 -0.17898940760E-01  0.23806319130E-01  0.00000000000E+00 0.  1.
     999901    1    3    3    0    0  0.39317804044E-01  0.83695023821E-01 -0.59244456280E-01  0.88682616804E+00  0.88000000000E+00 0. -1.
        -11    1    4    4    0    0 -0.28935764479E-01 -0.78219239323E-01  0.49928397955E-01  0.97204083811E-01  0.51100000000E-03 0.  1.
         11    1    4    4    0    0 -0.10661781021E-01 -0.21169429546E-01  0.27214999085E-01  0.36093429015E-01  0.51100000000E-03 0. -1.
</event>
<event>
 8    1  0.1052028E+005  0.1043930E+01  0.7957747E-01            NaN
         13   -1    0    0    0    0  0.00000000000E+00  0.00000000000E+00  0.74505805969E-08  0.10566000000E+00  0.10566000000E+00 0.  1.
     999900   -1    0    0    0    0 -0.00000000000E+00 -0.00000000000E+00 -0.74505805969E-08  0.93827000000E+00  0.93827000000E+00 0.  1.
     999902    2    1    2    0    0 -0.24696295044E-01 -0.45817996809E-02 -0.25921588124E-02  0.10186788780E+01  0.10183658661E+01 0.  0.
     999903    2    3    3    0    0 -0.99889010130E-01 -0.74319803509E-01  0.38426990835E-01  0.13177420201E+00  0.19661107590E-01 0.  0.
         14    1    1    2    0    0  0.24696295044E-01  0.45817996809E-02  0.25921588124E-02  0.25251122045E-01  0.00000000000E+00 0.  1.
     999901    1    3    3    0    0  0.75192715086E-01  0.69738003828E-01 -0.41019149647E-01  0.88690467595E+00  0.88000000000E+00 0.  1.
        -11    1    4    4    0    0 -0.12540043032E-01 -0.21909370183E-02  0.30965546328E-02  0.13111165313E-01  0.51100000000E-03 0. -1.
         11    1    4    4    0    0 -0.87348967098E-01 -0.72128866490E-01  0.35330436202E-01  0.11866303669E+00  0.51100000000E-03 0.  1.
</event>
<event>
 8    1  0.1052028E+005  0.1043930E+01  0.7957747E-01            NaN
         13   -1    0    0    0    0  0.00000000000E+00  0.00000000000E+00  0.74505805969E-08  0.10566000000E+00  0.10566000000E+00 0.  1.
     999900   -1    0    0    0    0 -0.00000000000E+00 -0.00000000000E+00 -0.74505805969E-08  0.93827000000E+00  0.93827000000E+00 0. -1.
     999902    2    1    2    0    0 -0.13878517834E-01 -0.10174110348E-01 -0.12854224145E-01  0.10224507808E+01  0.10222251427E+01 0.  0.
     999903    2    3    3    0    0 -0.69039725289E-01 -0.11125269173E+00  0.20998668755E-01  0.13430346376E+00  0.21279830894E-01 0.  0.
         14    1    1    2    0    0  0.13878517834E-01  0.10174110348E-01  0.12854224145E-01  0.21479219190E-01  0.00000000000E+00 0.  1.
     999901    1    3    3    0    0  0.55161207455E-01  0.10107858139E+00 -0.33852892900E-01  0.88814731705E+00  0.88000000000E+00 0.  1.
        -11    1    4    4    0    0 -0.53325962024E-01 -0.82294123021E-01  0.24755180916E-01  0.10113882050E+00  0.51100000000E-03 0. -1.
         11    1    4    4    0    0 -0.15713763265E-01 -0.28958568712E-01 -0.37565121609E-02  0.33164643258E-01  0.51100000000E-03 0.  1.
</event>
<event>
 8    1  0.1052028E+005  0.1043930E+01  0.7957747E-01            NaN
         13   -1    0    0    0    0  0.00000000000E+00  0.00000000000E+00  0.74505805969E-08  0.10566000000E+00  0.10566000000E+00 0.  1.
     999900   -1    0    0    0    0 -0.00000000000E+00 -0.00000000000E+00 -0.74505805969E-08  0.93827000000E+00  0.93827000000E+00 0.  1.
     999902    2    1    2    0    0  0.13714804645E-02  0.22297480287E-01  0.89085998951E-02  0.10198796000E+01  0.10195959871E+01 0.  0.
     999903    2    3    3    0    0  0.57493265943E-01  0.11691173772E+00  0.14751271869E-01  0.13301114907E+00  0.22372655453E-01 0.  0.
         14    1    1    2    0    0 -0.13714804645E-02 -0.22297480287E-01 -0.89085998951E-02  0.24050399953E-01  0.00000000000E+00 0.  1.
     999901    1    3    3    0    0 -0.56121785479E-01 -0.94614257429E-01 -0.58426719738E-02  0.88686845097E+00  0.88000000000E+00 0. -1.
        -11    1    4    4    0    0  0.49706300695E-01  0.79655177399E-01  0.69119030104E-02  0.94147220562E-01  0.51100000000E-03 0.  1.
         11    1    4    4    0    0  0.77869652481E-02  0.37256560316E-01  0.78393688585E-02  0.38863928513E-01  0.51100000000E-03 0. -1.
</event>
<event>
 7    1  0.1052028E+005  0.1043930E+01  0.7957747E-01            NaN
         13   -1    0    0    0    0  0.00000000000E+00  0.00000000000E+00  0.74505805969E-08  0.10566000000E+00  0.10566000000E+00 0.  1.
     999900   -1    0    0    0    0 -0.00000000000E+00 -0.00000000000E+00 -0.74505805969E-08  0.93827000000E+00  0.93827000000E+00 0.  1.
     999902    2    1    2    0    0 -0.20171312673E-01  0.13263443495E-01 -0.37829855718E-02  0.10194941295E+01  0.10192012403E+01 0.  0.
         14    1    1    2    0    0  0.20171312673E-01 -0.13263443495E-01  0.37829855718E-02  0.24435870522E-01  0.00000000000E+00 0.  1.
     999901    1    3    3    0    0 -0.84327725866E-01 -0.83567397092E-01  0.38023625500E-01  0.88878595359E+00  0.88000000000E+00 0. -1.
        -11    1    3    3    0    0  0.52422197274E-02  0.41040260330E-01 -0.23292784138E-01  0.47482615234E-01  0.51100000000E-03 0.  1.
         11    1    3    3    0    0  0.58914193465E-01  0.55790580257E-01 -0.18513826934E-01  0.83225560652E-01  0.51100000000E-03 0. -1.
</event>
<event>
 8    1  0.1052028E+005  0.1043930E+01  0.7957747E-01            NaN
         13   -1    0    0    0    0  0.00000000000E+00  0.00000000000E+00  0.74505805969E-08  0.10566000000E+00  0.10566000000E+00 0.  1.
     999900   -1    0    0    0    0 -0.00000000000E+00 -0.00000000000E+00 -0.74505805969E-08  0.93827000000E+00  0.93827000000E+00 0.  1.
     999902    2    1    2    0    0 -0.17771946332E-01  0.10190405811E-01  0.10134548046E-01  0.10210740268E+01  0.10208181879E+01 0.  0.
     999903    2    3    3    0    0 -0.52697585966E-01  0.10342757531E+00 -0.61001675316E-01  0.13260718310E+00  0.19727182147E-01 0.  0.
         14    1    1    2    0    0  0.17771946332E-01 -0.10190405811E-01 -0.10134548046E-01  0.22855973205E-01  0.00000000000E+00 0.  1.
     999901    1    3    3    0    0  0.34925639634E-01 -0.93237169501E-01  0.71136223361E-01  0.88846684370E+00  0.88000000000E+00 0.  1.
        -11    1    4    4    0    0 -0.21159436974E-01  0.34419374554E-01 -0.31357764215E-01  0.51146706789E-01  0.51100000000E-03 0.  1.
         11    1    4    4    0    0 -0.31538148992E-01  0.69008200758E-01 -0.29643911101E-01  0.81460476306E-01  0.51100000000E-03 0. -1.
</event>
<event>
 8    1  0.1052028E+005  0.1043930E+01  0.7957747E-01            NaN
         13   -1    0    0    0    0  0.00000000000E+00  0.00000000000E+00  0.74505805969E-08  0.10566000000E+00  0.10566000000E+00 0. -1.
     999900   -1    0    0    0    0 -0.00000000000E+00 -0.00000000000E+00 -0.74505805969E-08  0.93827000000E+00  0.93827000000E+00 0.  1.
     999902    2    1    2    0    0 -0.11554056736E-01  0.65225414301E-02  0.26856721565E-01  0.10139746454E+01  0.10135320707E+01 0.  0.
     999903    2    3    3    0    0 -0.70222628015E-02  0.94937929968E-01 -0.76120900215E-01  0.12355777190E+00  0.20238795091E-01 0.  0.
         14    1    1    2    0    0  0.11554056736E-01 -0.65225414301E-02 -0.26856721565E-01  0.29955354563E-01  0.00000000000E+00 0.  1.
     999901    1    3    3    0    0 -0.45317939341E-02 -0.88415388538E-01  0.10297762178E+00  0.89041687353E+00  0.88000000000E+00 0. -1.
        -11    1    4    4    0    0  0.30123697127E-02  0.51133013046E-01 -0.49970451588E-01  0.71560928916E-01  0.51100000000E-03 0.  1.
         11    1    4    4    0    0 -0.10034632514E-01  0.43804916922E-01 -0.26150448627E-01  0.51996842987E-01  0.51100000000E-03 0. -1.
</event>
<event>
 8    1  0.1052028E+005  0.1043930E+01  0.7957747E-01            NaN
         13   -1    0    0    0    0  0.00000000000E+00  0.00000000000E+00  0.74505805969E-08  0.10566000000E+00  0.10566000000E+00 0.  1.
     999900   -1    0    0    0    0 -0.00000000000E+00 -0.00000000000E+00 -0.74505805969E-08  0.93827000000E+00  0.93827000000E+00 0. -1.
     999902    2    1    2    0    0 -0.71618882178E-02  0.16821671269E-02  0.22399698421E-01  0.10203531296E+01  0.10200807028E+01 0.  0.
     999903    2    3    3    0    0 -0.90926309204E-01  0.51425323801E-01  0.80088599992E-01  0.13309957551E+00  0.19727025087E-01 0.  0.
         14    1    1    2    0    0  0.71618882178E-02 -0.16821671269E-02 -0.22399698421E-01  0.23576870412E-01  0.00000000000E+00 0. -1.
     999901    1    3    3    0    0  0.83764420987E-01 -0.49743156674E-01 -0.57688901571E-01  0.88725355408E+00  0.88000000000E+00 0. -1.
        -11    1    4    4    0    0 -0.63193903247E-01  0.41224629565E-01  0.66484674324E-01  0.10056546391E+00  0.51100000000E-03 0. -1.
         11    1    4    4    0    0 -0.27732405957E-01  0.10200694237E-01  0.13603925668E-01  0.32534111601E-01  0.51100000000E-03 0.  1.
</event>
<event>
 8    1  0.1052028E+005  0.1043930E+01  0.7957747E-01            NaN
         13   -1    0    0    0    0  0.00000000000E+00  0.00000000000E+00  0.74505805969E-08  0.10566000000E+00  0.10566000000E+00 0. -1.
     999900   -1    0    0    0    0 -0.00000000000E+00 -0.00000000000E+00 -0.74505805969E-08  0.93827000000E+00  0.93827000000E+00 0. -1.
     999902    2    1    2    0    0 -0.12301406384E-01  0.11876909346E-01 -0.14139535132E-01  0.10217418944E+01  0.10215009480E+01 0.  0.
     999903    2    3    3    0    0 -0.87319173029E-01  0.61325380035E-01  0.75980672907E-01  0.13258810096E+00  0.20520761328E-01 0.  0.
         14    1    1    2    0    0  0.12301406384E-01 -0.11876909346E-01  0.14139535132E-01  0.22188105561E-01  0.00000000000E+00 0. -1.
     999901    1    3    3    0    0  0.75017766645E-01 -0.49448470689E-01 -0.90120208038E-01  0.88915379348E+00  0.88000000000E+00 0. -1.
        -11    1    4    4    0    0 -0.28449861536E-01  0.14376658596E-01  0.33005638636E-01  0.45888083819E-01  0.51100000000E-03 0.  1.
         11    1    4    4    0    0 -0.58869311493E-01  0.46948721439E-01  0.42975034271E-01  0.86700017139E-01  0.51100000000E-03 0. -1.
</event>
<event>
 8    1  0.1052028E+005  0.1043930E+01  0.7957747E-01            NaN
         13   -1    0    0    0    0  0.00000000000E+00  0.00000000000E+00  0.74505805969E-08  0.10566000000E+00  0.10566000000E+00 0. -1.
     999900   -1    0    0    0    0 -0.00000000000E+00 -0.00000000000E+00 -0.74505805969E-08  0.93827000000E+00  0.93827000000E+00 0.  1.
     999902    2    1    2    0    0 -0.72757741711E-03  0.12161898569E-01  0.17011550070E-01  0.10230055172E+01  0.10227915008E+01 0.  0.
     999903    2    3    3    0    0  0.18424594773E-02 -0.11899932355E+00 -0.50218787892E-01  0.13074446254E+00  0.20197875249E-01 0.  0.
         14    1    1    2    0    0  0.72757741711E-03 -0.12161898569E-01 -0.17011550070E-01  0.20924482825E-01  0.00000000000E+00 0.  1.
     999901    1    3    3    0    0 -0.25700368944E-02  0.13116122212E+00  0.67230337962E-01  0.89226105464E+00  0.88000000000E+00 0. -1.
        -11    1    4    4    0    0 -0.65202166115E-02 -0.74658413167E-01 -0.37820738264E-01  0.83946776264E-01  0.51100000000E-03 0.  1.
         11    1    4    4    0    0  0.83626760887E-02 -0.44340910385E-01 -0.12398049628E-01  0.46797686275E-01  0.51100000000E-03 0. -1.
</event>
<event>
 8    1  0.1052028E+005  0.1043930E+01  0.7957747E-01            NaN
         13   -1    0    0    0    0  0.00000000000E+00  0.00000000000E+00  0.74505805969E-08  0.10566000000E+00  0.10566000000E+00 0.  1.
     999900   -1    0    0    0    0 -0.00000000000E+00 -0.00000000000E+00 -0.74505805969E-08  0.93827000000E+00  0.93827000000E+00 0. -1.
     999902    2    1    2    0    0 -0.15279831592E-01 -0.18478187571E-01 -0.11827329692E-02  0.10199234274E+01  0.10196408595E+01 0.  0.
     999903    2    3    3    0    0 -0.21009795132E-01  0.77729395900E-01 -0.99120669773E-01  0.12926043220E+00  0.20002041851E-01 0.  0.
         14    1    1    2    0    0  0.15279831592E-01  0.18478187571E-01  0.11827329692E-02  0.24006572573E-01  0.00000000000E+00 0. -1.
     999901    1    3    3    0    0  0.57299635402E-02 -0.96207583472E-01  0.97937936803E-01  0.89066299523E+00  0.88000000000E+00 0.  1.
        -11    1    4    4    0    0 -0.89533863563E-02  0.96875350997E-02 -0.10415983165E-01  0.16815626359E-01  0.51100000000E-03 0. -1.
         11    1    4    4    0    0 -0.12056408776E-01  0.68041860801E-01 -0.88704686607E-01  0.11244480584E+00  0.51100000000E-03 0.  1.
</event>
<event>
 8    1  0.1052028E+005  0.1043930E+01  0.7957747E-01            NaN
         13   -1    0    0    0    0  0.00000000000E+00  0.00000000000E+00  0.74505805969E-08  0.10566000000E+00  0.10566000000E+00 0.  1.
     999900   -1    0    0    0    0 -0.00000000000E+00 -0.00000000000E+00 -0.74505805969E-08  0.93827000000E+00  0.93827000000E+00 0.  1.
     999902    2    1    2    0    0  0.17776511837E-01  0.40933328343E-02 -0.14811253837E-01  0.10204324898E+01  0.10201619152E+01 0.  0.
     999903    2    3    3    0    0 -0.11451470897E+00  0.38856937575E-01 -0.41650636083E-01  0.12946120642E+00  0.20048648648E-01 0.  0.
         14    1    1    2    0    0 -0.17776511837E-01 -0.40933328343E-02  0.14811253837E-01  0.23497510230E-01  0.00000000000E+00 0.  1.
     999901    1    3    3    0    0  0.13229122081E+00 -0.34763604741E-01  0.26839382246E-01  0.89097128335E+00  0.88000000000E+00 0.  1.
        -11    1    4    4    0    0 -0.45775981685E-01  0.25853796541E-01 -0.19583274744E-01  0.56103699214E-01  0.51100000000E-03 0.  1.
         11    1    4    4    0    0 -0.68738727288E-01  0.13003141034E-01 -0.22067361339E-01  0.73357507205E-01  0.51100000000E-03 0. -1.
</event>
<event>
 8    1  0.1052028E+005  0.1043930E+01  0.7957747E-01            NaN
         13   -1    0    0    0    0  0.00000000000E+00  0.00000000000E+00  0.74505805969E-08  0.10566000000E+00  0.10566000000E+00 0.  1.
     999900   -1    0    0    0    0 -0.00000000000E+00 -0.00000000000E+00 -0.74505805969E-08  0.93827000000E+00  0.93827000000E+00 0.  1.
     999902    2    1    2    0    0 -0.31755460117E-02 -0.13259731066E-01 -0.19601944784E-01  0.10200523787E+01  0.10197728740E+01 0.  0.
     999903    2    3    3    0    0  0.44141629244E-01 -0.12024694712E+00  0.21200063168E-01  0.13137359345E+00  0.20044117692E-01 0.  0.
         14    1    1    2    0    0  0.31755460117E-02  0.13259731066E-01  0.19601944784E-01  0.23877621317E-01  0.00000000000E+00 0.  1.
     999901    1    3    3    0    0 -0.47317175256E-01  0.10698721605E+00 -0.40802007952E-01  0.88867878523E+00  0.88000000000E+00 0. -1.
        -11    1    4    4    0    0  0.18836602089E-01 -0.53969993074E-01 -0.55478763354E-03  0.57167706277E-01  0.51100000000E-03 0. -1.
         11    1    4    4    0    0  0.25305027155E-01 -0.66276954043E-01  0.21754850802E-01  0.74205887172E-01  0.51100000000E-03 0.  1.
</event>
<event>
 8    1  0.1052028E+005  0.1043930E+01  0.7957747E-01            NaN
         13   -1    0    0    0    0  0.00000000000E+00  0.00000000000E+00  0.74505805969E-08  0.10566000000E+00  0.10566000000E+00 0.  1.
     999900   -1    0    0    0    0 -0.00000000000E+00 -0.00000000000E+00 -0.74505805969E-08  0.93827000000E+00  0.93827000000E+00 0. -1.
     999902    2    1    2    0    0 -0.49705543621E-02  0.24612671712E-01 -0.10959464865E-01  0.10165329219E+01  0.10161636588E+01 0.  0.
     999903    2    3    3    0    0  0.37785663771E-01 -0.72225668858E-01 -0.94528748279E-01  0.12625791744E+00  0.19001942979E-01 0.  0.
         14    1    1    2    0    0  0.49705543621E-02 -0.24612671712E-01  0.10959464865E-01  0.27397078122E-01  0.00000000000E+00 0.  1.
     999901    1    3    3    0    0 -0.42756218133E-01  0.96838340570E-01  0.83569283415E-01  0.89027500444E+00  0.88000000000E+00 0. -1.
        -11    1    4    4    0    0  0.11489164814E-01 -0.40434943225E-01 -0.53859374916E-01  0.68323341027E-01  0.51100000000E-03 0.  1.
         11    1    4    4    0    0  0.26296498957E-01 -0.31790725632E-01 -0.40669373364E-01  0.57934576415E-01  0.51100000000E-03 0. -1.
</event>
<event>
 8    1  0.1052028E+005  0.1043930E+01  0.7957747E-01            NaN
         13   -1    0    0    0    0  0.00000000000E+00  0.00000000000E+00  0.74505805969E-08  0.10566000000E+00  0.10566000000E+00 0.  1.
     999900   -1    0    0    0    0 -0.00000000000E+00 -0.00000000000E+00 -0.74505805969E-08  0.93827000000E+00  0.93827000000E+00 0. -1.
     999902    2    1    2    0    0  0.12764567061E-01  0.17169997424E-01 -0.10388734272E-01  0.10201462075E+01  0.10198689210E+01 0.  0.
     999903    2    3    3    0    0  0.10976355571E+00  0.47835659703E-01  0.51810324775E-01  0.13210459276E+00  0.20761145801E-01 0.  0.
         14    1    1    2    0    0 -0.12764567061E-01 -0.17169997424E-01  0.10388734272E-01  0.23783792456E-01  0.00000000000E+00 0.  1.
     999901    1    3    3    0    0 -0.96998988644E-01 -0.30665662280E-01 -0.62199059047E-01  0.88804161478E+00  0.88000000000E+00 0. -1.
        -11    1    4    4    0    0  0.69690932935E-01  0.40537635267E-01  0.37607000291E-01  0.88964451318E-01  0.51100000000E-03 0. -1.
         11    1    4    4    0    0  0.40072622770E-01  0.72980244364E-02  0.14203324484E-01  0.43140141443E-01  0.51100000000E-03 0.  1.
</event>
<event>
 8    1  0.1052028E+005  0.1043930E+01  0.7957747E-01            NaN
         13   -1    0    0    0    0  0.00000000000E+00  0.00000000000E+00  0.74505805969E-08  0.10566000000E+00  0.10566000000E+00 0. -1.
     999900   -1    0    0    0    0 -0.00000000000E+00 -0.00000000000E+00 -0.74505805969E-08  0.93827000000E+00  0.93827000000E+00 0. -1.
     999902    2    1    2    0    0  0.13204661716E-01  0.19912147744E-01  0.48511616132E-02  0.10195498751E+01  0.10192583369E+01 0.  0.
     999903    2    3    3    0    0  0.12890214017E+00  0.20059351824E-01  0.98011923382E-03  0.13196837852E+00  0.19913637483E-01 0.  0.
         14    1    1    2    0    0 -0.13204661716E-01 -0.19912147744E-01 -0.48511616132E-02  0.24380124852E-01  0.00000000000E+00 0. -1.
     999901    1    3    3    0    0 -0.11569747846E+00 -0.14720408012E-03  0.38710423793E-02  0.88758149663E+00  0.88000000000E+00 0. -1.
        -11    1    4    4    0    0  0.64473452833E-01  0.34568318424E-03 -0.22040392881E-02  0.64514064570E-01  0.51100000000E-03 0.  1.
         11    1    4    4    0    0  0.64428687341E-01  0.19713668640E-01  0.31841585219E-02  0.67454313948E-01  0.51100000000E-03 0. -1.
</event>
<event>
 8    1  0.1052028E+005  0.1043930E+01  0.7957747E-01            NaN
         13   -1    0    0    0    0  0.00000000000E+00  0.00000000000E+00  0.74505805969E-08  0.10566000000E+00  0.10566000000E+00 0.  1.
     999900   -1    0    0    0    0 -0.00000000000E+00 -0.00000000000E+00 -0.74505805969E-08  0.93827000000E+00  0.93827000000E+00 0. -1.
     999902    2    1    2    0    0 -0.96523903468E-02  0.91514483658E-02 -0.20313655831E-01  0.10196490968E+01  0.10193599552E+01 0.  0.
     999903    2    3    3    0    0 -0.45833068828E-01 -0.34240949550E-01  0.11235111682E+00  0.12791377532E+00  0.21588136565E-01 0.  0.
         14    1    1    2    0    0  0.96523903468E-02 -0.91514483658E-02  0.20313655831E-01  0.24280903192E-01  0.00000000000E+00 0.  1.
     999901    1    3    3    0    0  0.36180678481E-01  0.43392397916E-01 -0.13266477265E+00  0.89173532149E+00  0.88000000000E+00 0. -1.
        -11    1    4    4    0    0 -0.26243865778E-01 -0.17809262533E-01  0.83702876877E-01  0.89511692206E-01  0.51100000000E-03 0. -1.
         11    1    4    4    0    0 -0.19589203050E-01 -0.16431687017E-01  0.28648239945E-01  0.38402083111E-01  0.51100000000E-03 0.  1.
</event>
<event>
 8    1  0.1052028E+005  0.1043930E+01  0.7957747E-01            NaN
         13   -1    0    0    0    0  0.00000000000E+00  0.00000000000E+00  0.74505805969E-08  0.10566000000E+00  0.10566000000E+00 0.  1.
     999900   -1    0    0    0    0 -0.00000000000E+00 -0.00000000000E+00 -0.74505805969E-08  0.93827000000E+00  0.93827000000E+00 0. -1.
     999902    2    1    2    0    0  0.40021527433E-02  0.30610983544E-01  0.82604522258E-02  0.10119724561E+01  0.10114677293E+01 0.  0.
     999903    2    3    3    0    0  0.29151558337E-02  0.10494870602E+00  0.68132434844E-01  0.12681036201E+00  0.20398779532E-01 0.  0.
         14    1    1    2    0    0 -0.40021527433E-02 -0.30610983544E-01 -0.82604522258E-02  0.31957543884E-01  0.00000000000E+00 0. -1.
     999901    1    3    3    0    0  0.10869969097E-02 -0.74337722473E-01 -0.59871982618E-01  0.88516209411E+00  0.88000000000E+00 0. -1.
        -11    1    4    4    0    0 -0.12905738878E-02  0.53150540162E-01  0.22817789876E-01  0.57858086352E-01  0.51100000000E-03 0.  1.
         11    1    4    4    0    0  0.42057297215E-02  0.51798165855E-01  0.45314644968E-01  0.68952275655E-01  0.51100000000E-03 0. -1.
</event>
<event>
 8    1  0.1052028E+005  0.1043930E+01  0.7957747E-01            NaN
         13   -1    0    0    0    0  0.00000000000E+00  0.00000000000E+00  0.74505805969E-08  0.10566000000E+00  0.10566000000E+00 0. -1.
     999900   -1    0    0    0    0 -0.00000000000E+00 -0.00000000000E+00 -0.74505805969E-08  0.93827000000E+00  0.93827000000E+00 0. -1.
     999902    2    1    2    0    0 -0.15122333471E-01 -0.42331509275E-02  0.16529256706E-01  0.10211304197E+01  0.10208758559E+01 0.  0.
     999903    2    3    3    0    0  0.16851190103E-01 -0.11948580974E+00 -0.46608617462E-01  0.13079796898E+00  0.19362957708E-01 0.  0.
         14    1    1    2    0    0  0.15122333471E-01  0.42331509275E-02 -0.16529256706E-01  0.22799580339E-01  0.00000000000E+00 0.  1.
     999901    1    3    3    0    0 -0.31973523573E-01  0.11525265881E+00  0.63137874168E-01  0.89033245068E+00  0.88000000000E+00 0. -1.
        -11    1    4    4    0    0  0.41219649280E-02 -0.68785883843E-01 -0.34822522243E-01  0.77209828307E-01  0.51100000000E-03 0. -1.
         11    1    4    4    0    0  0.12729225175E-01 -0.50699925899E-01 -0.11786095219E-01  0.53588140677E-01  0.51100000000E-03 0.  1.
</event>
<event>
 8    1  0.1052028E+005  0.1043930E+01  0.7957747E-01            NaN
         13   -1    0    0    0    0  0.00000000000E+00  0.00000000000E+00  0.74505805969E-08  0.10566000000E+00  0.10566000000E+00 0. -1.
     999900   -1    0    0    0    0 -0.00000000000E+00 -0.00000000000E+00 -0.74505805969E-08  0.93827000000E+00  0.93827000000E+00 0. -1.
     999902    2    1    2    0    0 -0.19587780447E-01  0.12469545274E-01  0.34841334770E-03  0.10207073366E+01  0.10204431268E+01 0.  0.
     999903    2    3    3    0    0  0.80574540044E-01  0.57848446051E-02 -0.98911959103E-01  0.12945552193E+00  0.21199895602E-01 0.  0.
         14    1    1    2    0    0  0.19587780447E-01 -0.12469545274E-01 -0.34841334770E-03  0.23222663371E-01  0.00000000000E+00 0. -1.
     999901    1    3    3    0    0 -0.10016232049E+00  0.66847006691E-02  0.99260372451E-01  0.89125181470E+00  0.88000000000E+00 0.  1.
        -11    1    4    4    0    0  0.34666239403E-01 -0.56005675629E-02 -0.52677461509E-01  0.63311062093E-01  0.51100000000E-03 0.  1.
         11    1    4    4    0    0  0.45908300641E-01  0.11385412168E-01 -0.46234497594E-01  0.66144459834E-01  0.51100000000E-03 0. -1.
</event>
<event>
 8    1  0.1052028E+005  0.1043930E+01  0.7957747E-01            NaN
         13   -1    0    0    0    0  0.00000000000E+00  0.00000000000E+00  0.74505805969E-08  0.10566000000E+00  0.10566000000E+00 0. -1.
     999900   -1    0    0    0    0 -0.00000000000E+00 -0.00000000000E+00 -0.74505805969E-08  0.93827000000E+00  0.93827000000E+00 0. -1.
     999902    2    1    2    0    0 -0.12210540440E-02  0.19617643062E-01 -0.13121651973E-01  0.10202969587E+01  0.10200232170E+01 0.  0.
     999903    2    3    3    0    0  0.10990380660E+00  0.74922809199E-03 -0.69085250918E-01  0.13134438617E+00  0.19979185071E-01 0.  0.
         14    1    1    2    0    0  0.12210540440E-02 -0.19617643062E-01  0.13121651973E-01  0.23633041336E-01  0.00000000000E+00 0. -1.
     999901    1    3    3    0    0 -0.11112486064E+00  0.18868414970E-01  0.55963598945E-01  0.88895257249E+00  0.88000000000E+00 0.  1.
        -11    1    4    4    0    0  0.31115777319E-01  0.11419056866E-02 -0.30591872506E-01  0.43653399995E-01  0.51100000000E-03 0. -1.
         11    1    4    4    0    0  0.78788029282E-01 -0.39267759465E-03 -0.38493378412E-01  0.87690986175E-01  0.51100000000E-03 0.  1.
</event>
<event>
 8    1  0.1052028E+005  0.1043930E+01  0.7957747E-01            NaN
         13   -1    0    0    0    0  0.00000000000E+00  0.00000000000E+00  0.74505805969E-08  0.10566000000E+00  0.10566000000E+00 0.  1.
     999900   -1    0    0    0    0 -0.00000000000E+00 -0.00000000000E+00 -0.74505805969E-08  0.93827000000E+00  0.93827000000E+00 0.  1.
     999902    2    1    2    0    0 -0.14098017499E-01  0.18617557622E-01 -0.33437700498E-02  0.10203387231E+01  0.10200659594E+01 0.  0.
     999903    2    3    3    0    0 -0.85039162125E-01 -0.45418006890E-01 -0.86813027635E-01  0.13123787587E+00  0.19809690838E-01 0.  0.
         14    1    1    2    0    0  0.14098017499E-01 -0.18617557622E-01  0.33437700498E-02  0.23591276934E-01  0.00000000000E+00 0.  1.
     999901    1    3    3    0    0  0.70941144626E-01  0.64035564511E-01  0.83469257585E-01  0.88910084720E+00  0.88000000000E+00 0. -1.
        -11    1    4    4    0    0 -0.48129243533E-01 -0.33328296915E-01 -0.61301510026E-01  0.84766359546E-01  0.51100000000E-03 0.  1.
         11    1    4    4    0    0 -0.36909918592E-01 -0.12089709975E-01 -0.25511517609E-01  0.46471516324E-01  0.51100000000E-03 0. -1.
</event>
<event>
 8    1  0.1052028E+005  0.1043930E+01  0.7957747E-01            NaN
         13   -1    0    0    0    0  0.00000000000E+00  0.00000000000E+00  0.74505805969E-08  0.10566000000E+00  0.10566000000E+00 0.  1.
     999900   -1    0    0    0    0 -0.00000000000E+00 -0.00000000000E+00 -0.74505805969E-08  0.93827000000E+00  0.93827000000E+00 0. -1.
     999902    2    1    2    0    0 -0.83946843486E-02  0.11156189969E-01  0.19526190677E-01  0.10199257624E+01  0.10196432501E+01 0.  0.
     999903    2    3    3    0    0  0.52854455359E-01  0.86157668563E-01 -0.77726229523E-01  0.12928851182E+00  0.21387267915E-01 0.  0.
         14    1    1    2    0    0  0.83946843486E-02 -0.11156189969E-01 -0.19526190677E-01  0.24004237591E-01  0.00000000000E+00 0. -1.
     999901    1    3    3    0    0 -0.61249139707E-01 -0.75001478593E-01  0.97252420200E-01  0.89063725059E+00  0.88000000000E+00 0. -1.
        -11    1    4    4    0    0  0.18415360100E-01  0.14339132911E-01 -0.22011807809E-01  0.32086087706E-01  0.51100000000E-03 0. -1.
         11    1    4    4    0    0  0.34439095259E-01  0.71818535651E-01 -0.55714421714E-01  0.97202424112E-01  0.51100000000E-03 0.  1.
</event>
<event>
 8    1  0.1052028E+005  0.1043930E+01  0.7957747E-01            NaN
         13   -1    0    0    0    0  0.00000000000E+00  0.00000000000E+00  0.74505805969E-08  0.10566000000E+00  0.10566000000E+00 0. -1.
     999900   -1    0    0    0    0 -0.00000000000E+00 -0.00000000000E+00 -0.74505805969E-08  0.93827000000E+00  0.93827000000E+00 0.  1.
     999902    2    1    2    0    0  0.40050220201E-02  0.20012766564E-01  0.11495035652E-01  0.10205059339E+01  0.10202370677E+01 0.  0.
     999903    2    3    3    0    0 -0.10027016509E+00 -0.32589074846E-01  0.74525946563E-01  0.13055471948E+00  0.19345910697E-01 0.  0.
         14    1    1    2    0    0 -0.40050220201E-02 -0.20012766564E-01 -0.11495035652E-01  0.23424066077E-01  0.00000000000E+00 0.  1.
     999901    1    3    3    0    0  0.10427518711E+00  0.52601841410E-01 -0.63030910911E-01  0.88995121445E+00  0.88000000000E+00 0.  1.
        -11    1    4    4    0    0 -0.33588812335E-01 -0.71523437457E-02  0.34706194307E-01  0.48827711183E-01  0.51100000000E-03 0.  1.
         11    1    4    4    0    0 -0.66681352751E-01 -0.25436731100E-01  0.39819752256E-01  0.81727008293E-01  0.51100000000E-03 0. -1.
</event>
<event>
 8    1  0.1052028E+005  0.1043930E+01  0.7957747E-01            NaN
         13   -1    0    0    0    0  0.00000000000E+00  0.00000000000E+00  0.74505805969E-08  0.10566000000E+00  0.10566000000E+00 0.  1.
     999900   -1    0    0    0    0 -0.00000000000E+00 -0.00000000000E+00 -0.74505805969E-08  0.93827000000E+00  0.93827000000E+00 0.  1.
     999902    2    1    2    0    0  0.23995431468E-01 -0.72460314562E-02  0.25974262660E-02  0.10187301523E+01  0.10184184262E+01 0.  0.
     999903    2    3    3    0    0 -0.56037142882E-01 -0.10013781490E-01  0.11317606715E+00  0.12820193304E+00  0.19658999419E-01 0.  0.
         14    1    1    2    0    0 -0.23995431468E-01  0.72460314562E-02 -0.25974262660E-02  0.25199847746E-01  0.00000000000E+00 0.  1.
     999901    1    3    3    0    0  0.80032574350E-01  0.27677500334E-02 -0.11057864088E+00  0.89052821921E+00  0.88000000000E+00 0.  1.
        -11    1    4    4    0    0 -0.11856962980E-01  0.23678906731E-02  0.11695426812E-01  0.16829694194E-01  0.51100000000E-03 0.  1.
         11    1    4    4    0    0 -0.44180179902E-01 -0.12381672163E-01  0.10148064034E+00  0.11137223885E+00  0.51100000000E-03 0. -1.
</event>
<event>
 8    1  0.1052028E+005  0.1043930E+01  0.7957747E-01            NaN
         13   -1    0    0    0    0  0.00000000000E+00  0.00000000000E+00  0.74505805969E-08  0.10566000000E+00  0.10566000000E+00 0. -1.
     999900   -1    0    0    0    0 -0.00000000000E+00 -0.00000000000E+00 -0.74505805969E-08  0.93827000000E+00  0.93827000000E+00 0. -1.
     999902    2    1    2    0    0  0.38229605632E-02  0.23099255540E-01 -0.43562433634E-02  0.10201147215E+01  0.10198366916E+01 0.  0.
     999903    2    3    3    0    0 -0.85516812921E-01 -0.85002439866E-01 -0.38793132833E-01  0.12834486832E+00  0.20711301122E-01 0.  0.
         14    1    1    2    0    0 -0.38229605632E-02 -0.23099255540E-01  0.43562433634E-02  0.23815278504E-01  0.00000000000E+00 0. -1.
     999901    1    3    3    0    0  0.89339773484E-01  0.10810169541E+00  0.34436889469E-01  0.89176985318E+00  0.88000000000E+00 0.  1.
        -11    1    4    4    0    0 -0.37524110295E-01 -0.38064332876E-01 -0.28026181318E-01  0.60354620792E-01  0.51100000000E-03 0.  1.
         11    1    4    4    0    0 -0.47992702626E-01 -0.46938106990E-01 -0.10766951514E-01  0.67990247529E-01  0.51100000000E-03 0. -1.
</event>
<event>
 8    1  0.1052028E+005  0.1043930E+01  0.7957747E-01            NaN
         13   -1    0    0    0    0  0.00000000000E+00  0.00000000000E+00  0.74505805969E-08  0.10566000000E+00  0.10566000000E+00 0. -1.
     999900   -1    0    0    0    0 -0.00000000000E+00 -0.00000000000E+00 -0.74505805969E-08  0.93827000000E+00  0.93827000000E+00 0. -1.
     999902    2    1    2    0    0  0.13753285596E-01  0.68216156490E-02  0.19428634538E-01  0.10191679495E+01  0.10188670915E+01 0.  0.
     999903    2    3    3    0    0  0.60621806383E-01 -0.10585717872E+00 -0.36114438313E-01  0.12901167003E+00  0.21424580615E-01 0.  0.
         14    1    1    2    0    0 -0.13753285596E-01 -0.68216156490E-02 -0.19428634538E-01  0.24762050496E-01  0.00000000000E+00 0.  1.
     999901    1    3    3    0    0 -0.46868520786E-01  0.11267879437E+00  0.55543072851E-01  0.89015627947E+00  0.88000000000E+00 0.  1.
        -11    1    4    4    0    0  0.23546899537E-01 -0.52015387519E-01 -0.26447651430E-01  0.62926913191E-01  0.51100000000E-03 0. -1.
         11    1    4    4    0    0  0.37074906845E-01 -0.53841791200E-01 -0.96667868832E-02  0.66084756842E-01  0.51100000000E-03 0.  1.
</event>
<event>
 8    1  0.1052028E+005  0.1043930E+01  0.7957747E-01            NaN
         13   -1    0    0    0    0  0.00000000000E+00  0.00000000000E+00  0.74505805969E-08  0.10566000000E+00  0.10566000000E+00 0.  1.
     999900   -1    0    0    0    0 -0.00000000000E+00 -0.00000000000E+00 -0.74505805969E-08  0.93827000000E+00  0.93827000000E+00 0.  1.
     999902    2    1    2    0    0  0.16994461658E-03 -0.15908645888E-01  0.16837264863E-01  0.10207652124E+01  0.10205023329E+01 0.  0.
     999903    2    3    3    0    0 -0.36876502220E-01  0.16732137599E-01 -0.12148086855E+00  0.12859383539E+00  0.11786951819E-01 0.  0.
         14    1    1    2    0    0 -0.16994461658E-03  0.15908645888E-01 -0.16837264863E-01  0.23164787571E-01  0.00000000000E+00 0. -1.
     999901    1    3    3    0    0  0.37046446837E-01 -0.32640783487E-01  0.13831813341E+00  0.89217137704E+00  0.88000000000E+00 0. -1.
        -11    1    4    4    0    0 -0.24930246310E-01  0.11118335920E-01 -0.97090666957E-01  0.10085630028E+00  0.51100000000E-03 0.  1.
         11    1    4    4    0    0 -0.11946255910E-01  0.56138016791E-02 -0.24390201592E-01  0.27737535115E-01  0.51100000000E-03 0. -1.
</event>
<event>
 8    1  0.1052028E+005  0.1043930E+01  0.7957747E-01            NaN
         13   -1    0    0    0    0  0.00000000000E+00  0.00000000000E+00  0.74505805969E-08  0.10566000000E+00  0.10566000000E+00 0. -1.
     999900   -1    0    0    0    0 -0.00000000000E+00 -0.00000000000E+00 -0.74505805969E-08  0.93827000000E+00  0.93827000000E+00 0.  1.
     999902    2    1    2    0    0  0.22632067489E-01  0.40914027355E-02 -0.85731074989E-02  0.10193851792E+01  0.10190896405E+01 0.  0.
     999903    2    3    3    0    0  0.72821745015E-02 -0.82347811175E-01  0.96403538484E-01  0.12880814542E+00  0.21533787969E-01 0.  0.
         14    1    1    2    0    0 -0.22632067489E-01 -0.40914027355E-02  0.85731074989E-02  0.24544820785E-01  0.00000000000E+00 0. -1.
     999901    1    3    3    0    0  0.15349892987E-01  0.86439213911E-01 -0.10497664598E+00  0.89057703379E+00  0.88000000000E+00 0.  1.
        -11    1    4    4    0    0  0.26566094859E-02 -0.49377822722E-01  0.41317527342E-01  0.64440873189E-01  0.51100000000E-03 0. -1.
         11    1    4    4    0    0  0.46255650156E-02 -0.32969988454E-01  0.55086011142E-01  0.64367272234E-01  0.51100000000E-03 0.  1.
</event>
<event>
 8    1  0.1052028E+005  0.1043930E+01  0.7957747E-01            NaN
         13   -1    0    0    0    0  0.00000000000E+00  0.00000000000E+00  0.74505805969E-08  0.10566000000E+00  0.10566000000E+00 0.  1.
     999900   -1    0    0    0    0 -0.00000000000E+00 -0.00000000000E+00 -0.74505805969E-08  0.93827000000E+00  0.93827000000E+00 0.  1.
     999902    2    1    2    0    0 -0.23431796256E-01 -0.52202040557E-02  0.87020705613E-03  0.10199079920E+01  0.10196250563E+01 0.  0.
     999903    2    3    3    0    0 -0.87236801686E-01  0.91409063853E-01 -0.31793137665E-01  0.13172153176E+00  0.19336023478E-01 0.  0.
         14    1    1    2    0    0  0.23431796256E-01  0.52202040557E-02 -0.87020705613E-03  0.24022007961E-01  0.00000000000E+00 0. -1.
     999901    1    3    3    0    0  0.63805005430E-01 -0.96629267908E-01  0.32663344721E-01  0.88818646028E+00  0.88000000000E+00 0. -1.
        -11    1    4    4    0    0 -0.35319053640E-01  0.27976995630E-01 -0.18358184670E-01  0.48656262699E-01  0.51100000000E-03 0.  1.
         11    1    4    4    0    0 -0.51917748046E-01  0.63432068223E-01 -0.13434952994E-01  0.83065269061E-01  0.51100000000E-03 0. -1.
</event>
<event>
 8    1  0.1052028E+005  0.1043930E+01  0.7957747E-01            NaN
         13   -1    0    0    0    0  0.00000000000E+00  0.00000000000E+00  0.74505805969E-08  0.10566000000E+00  0.10566000000E+00 0. -1.
     999900   -1    0    0    0    0 -0.00000000000E+00 -0.00000000000E+00 -0.74505805969E-08  0.93827000000E+00  0.93827000000E+00 0. -1.
     999902    2    1    2    0    0 -0.41303124973E-02 -0.13839391465E-01 -0.19875124668E-01  0.10193615483E+01  0.10190654333E+01 0.  0.
     999903    2    3    3    0    0  0.12620178372E+00 -0.14679409347E-01 -0.17788258011E-01  0.12975966211E+00  0.19462078860E-01 0.  0.
         14    1    1    2    0    0  0.41303124973E-02  0.13839391465E-01  0.19875124668E-01  0.24568451682E-01  0.00000000000E+00 0. -1.
     999901    1    3    3    0    0 -0.13033209622E+00  0.84001788149E-03 -0.20868666572E-02  0.88960188621E+00  0.88000000000E+00 0. -1.
        -11    1    4    4    0    0  0.25129535818E-01  0.12756258574E-02  0.29968818443E-02  0.25344885353E-01  0.51100000000E-03 0. -1.
         11    1    4    4    0    0  0.10107224791E+00 -0.15955035204E-01 -0.20785139856E-01  0.10441477676E+00  0.51100000000E-03 0.  1.
</event>
<event>
 8    1  0.1052028E+005  0.1043930E+01  0.7957747E-01            NaN
         13   -1    0    0    0    0  0.00000000000E+00  0.00000000000E+00  0.74505805969E-08  0.10566000000E+00  0.10566000000E+00 0. -1.
     999900   -1    0    0    0    0 -0.00000000000E+00 -0.00000000000E+00 -0.74505805969E-08  0.93827000000E+00  0.93827000000E+00 0.  1.
     999902    2    1    2    0    0 -0.34417488643E-03  0.17309392714E-01 -0.15883345753E-01  0.10204350175E+01  0.10201645018E+01 0.  0.
     999903    2    3    3    0    0 -0.50860406087E-01 -0.76322036695E-01  0.87198544844E-01  0.12805359096E+00  0.19552537988E-01 0.  0.
         14    1    1    2    0    0  0.34417488643E-03 -0.17309392714E-01  0.15883345753E-01  0.23494982545E-01  0.00000000000E+00 0. -1.
     999901    1    3    3    0    0  0.50516231201E-01  0.93631429409E-01 -0.10308189060E+00  0.89238142650E+00  0.88000000000E+00 0.  1.
        -11    1    4    4    0    0 -0.13241314039E-01 -0.93807426934E-02  0.94921346073E-02  0.18806713465E-01  0.51100000000E-03 0.  1.
         11    1    4    4    0    0 -0.37619092048E-01 -0.66941294002E-01  0.77706410237E-01  0.10924687749E+00  0.51100000000E-03 0. -1.
</event>
<event>
 8    1  0.1052028E+005  0.1043930E+01  0.7957747E-01            NaN
         13   -1    0    0    0    0  0.00000000000E+00  0.00000000000E+00  0.74505805969E-08  0.10566000000E+00  0.10566000000E+00 0. -1.
     999900   -1    0    0    0    0 -0.00000000000E+00 -0.00000000000E+00 -0.74505805969E-08  0.93827000000E+00  0.93827000000E+00 0. -1.
     999902    2    1    2    0    0  0.21646898987E-01 -0.22105683040E-02 -0.89446697988E-02  0.10204038026E+01  0.10201325592E+01 0.  0.
     999903    2    3    3    0    0  0.38819764198E-01 -0.16642349923E-01  0.12185280989E+00  0.13045371165E+00  0.19649979695E-01 0.  0.
         14    1    1    2    0    0 -0.21646898987E-01  0.22105683040E-02  0.89446697988E-02  0.23526197436E-01  0.00000000000E+00 0.  1.
     999901    1    3    3    0    0 -0.17172865212E-01  0.14431781619E-01 -0.13079747969E+00  0.88995009091E+00  0.88000000000E+00 0. -1.
        -11    1    4    4    0    0  0.13980090393E-01  0.34117360847E-02  0.31800818617E-01  0.34908968134E-01  0.51100000000E-03 0. -1.
         11    1    4    4    0    0  0.24839673806E-01 -0.20054086008E-01  0.90051991275E-01  0.95544743519E-01  0.51100000000E-03 0.  1.
</event>
<event>
 8    1  0.1052028E+005  0.1043930E+01  0.7957747E-01            NaN
         13   -1    0    0    0    0  0.00000000000E+00  0.00000000000E+00  0.74505805969E-08  0.10566000000E+00  0.10566000000E+00 0. -1.
     999900   -1    0    0    0    0 -0.00000000000E+00 -0.00000000000E+00 -0.74505805969E-08  0.93827000000E+00  0.93827000000E+00 0. -1.
     999902    2    1    2    0    0 -0.11013975958E-01  0.19437653823E-01 -0.61601467432E-02  0.10207550683E+01  0.10204919558E+01 0.  0.
     999903    2    3    3    0    0  0.53416634240E-01 -0.11812429670E-01 -0.11696192153E+00  0.13092086768E+00  0.21617404993E-01 0.  0.
         14    1    1    2    0    0  0.11013975958E-01 -0.19437653823E-01  0.61601467432E-02  0.23174931725E-01  0.00000000000E+00 0. -1.
     999901    1    3    3    0    0 -0.64430610197E-01  0.31250083493E-01  0.11080177479E+00  0.88983420059E+00  0.88000000000E+00 0.  1.
        -11    1    4    4    0    0  0.28662606089E-01  0.47146440911E-02 -0.58371432090E-01  0.65201672233E-01  0.51100000000E-03 0.  1.
         11    1    4    4    0    0  0.24754028150E-01 -0.16527073761E-01 -0.58590489439E-01  0.65719195449E-01  0.51100000000E-03 0. -1.
</event>
<event>
 8    1  0.1052028E+005  0.1043930E+01  0.7957747E-01            NaN
         13   -1    0    0    0    0  0.00000000000E+00  0.00000000000E+00  0.74505805969E-08  0.10566000000E+00  0.10566000000E+00 0.  1.
     999900   -1    0    0    0    0 -0.00000000000E+00 -0.00000000000E+00 -0.74505805969E-08  0.93827000000E+00  0.93827000000E+00 0.  1.
     999902    2    1    2    0    0  0.16078364998E-01 -0.15022449680E-01  0.75610817930E-02  0.10206629036E+01  0.10203976701E+01 0.  0.
     999903    2    3    3    0    0 -0.40226623271E-01 -0.12221576583E+00 -0.20552083051E-01  0.13192727997E+00  0.20677147936E-01 0.  0.
         14    1    1    2    0    0 -0.16078364998E-01  0.15022449680E-01 -0.75610817930E-02  0.23267096366E-01  0.00000000000E+00 0.  1.
     999901    1    3    3    0    0  0.56304988269E-01  0.10719331615E+00  0.28113164845E-01  0.88873562366E+00  0.88000000000E+00 0. -1.
        -11    1    4    4    0    0 -0.35080374718E-01 -0.11442137025E+00 -0.13975152510E-01  0.12049252536E+00  0.51100000000E-03 0. -1.
         11    1    4    4    0    0 -0.51462485532E-02 -0.77943955768E-02 -0.65769305417E-02  0.11434754607E-01  0.51100000000E-03 0.  1.
</event>
<event>
 8    1  0.1052028E+005  0.1043930E+01  0.7957747E-01            NaN
         13   -1    0    0    0    0  0.00000000000E+00  0.00000000000E+00  0.74505805969E-08  0.10566000000E+00  0.10566000000E+00 0.  1.
     999900   -1    0    0    0    0 -0.00000000000E+00 -0.00000000000E+00 -0.74505805969E-08  0.93827000000E+00  0.93827000000E+00 0.  1.
     999902    2    1    2    0    0  0.10284627869E-01 -0.19860171595E-01 -0.69611413406E-02  0.10205065614E+01  0.10202377098E+01 0.  0.
     999903    2    3    3    0    0 -0.76321193763E-01 -0.81744365891E-01 -0.67659397915E-01  0.13201655011E+00  0.18534006703E-01 0.  0.
         14    1    1    2    0    0 -0.10284627869E-01  0.19860171595E-01  0.69611413406E-02  0.23423438581E-01  0.00000000000E+00 0.  1.
     999901    1    3    3    0    0  0.86605821633E-01  0.61884194296E-01  0.60698256575E-01  0.88849001131E+00  0.88000000000E+00 0. -1.
        -11    1    4    4    0    0 -0.34397707415E-01 -0.49592988523E-01 -0.39661541977E-01  0.72221643702E-01  0.51100000000E-03 0. -1.
         11    1    4    4    0    0 -0.41923486348E-01 -0.32151377368E-01 -0.27997855938E-01  0.59794906408E-01  0.51100000000E-03 0.  1.
</event>
<event>
 8    1  0.1052028E+005  0.1043930E+01  0.7957747E-01            NaN
         13   -1    0    0    0    0  0.00000000000E+00  0.00000000000E+00  0.74505805969E-08  0.10566000000E+00  0.10566000000E+00 0.  1.
     999900   -1    0    0    0    0 -0.00000000000E+00 -0.00000000000E+00 -0.74505805969E-08  0.93827000000E+00  0.93827000000E+00 0.  1.
     999902    2    1    2    0    0  0.17780005703E-01 -0.15870329253E-01 -0.39394810234E-03  0.10200940786E+01  0.10198155608E+01 0.  0.
     999903    2    3    3    0    0 -0.10008074607E+00 -0.52733113746E-01  0.59258757174E-01  0.12947156209E+00  0.21315441992E-01 0.  0.
         14    1    1    2    0    0 -0.17780005703E-01  0.15870329253E-01  0.39394810234E-03  0.23835921390E-01  0.00000000000E+00 0. -1.
     999901    1    3    3    0    0  0.11786075178E+00  0.36862784493E-01 -0.59652705277E-01  0.89062251652E+00  0.88000000000E+00 0.  1.
        -11    1    4    4    0    0 -0.69914863726E-01 -0.43992111120E-01  0.34691951292E-01  0.89594568005E-01  0.51100000000E-03 0.  1.
         11    1    4    4    0    0 -0.30165882349E-01 -0.87410026266E-02  0.24566805882E-01  0.39876994083E-01  0.51100000000E-03 0. -1.
</event>
<event>
 8    1  0.1052028E+005  0.1043930E+01  0.7957747E-01            NaN
         13   -1    0    0    0    0  0.00000000000E+00  0.00000000000E+00  0.74505805969E-08  0.10566000000E+00  0.10566000000E+00 0.  1.
     999900   -1    0    0    0    0 -0.00000000000E+00 -0.00000000000E+00 -0.74505805969E-08  0.93827000000E+00  0.93827000000E+00 0.  1.
     999902    2    1    2    0    0  0.32711650747E-02 -0.17197069236E-01  0.15637939859E-01  0.10204569330E+01  0.10201869276E+01 0.  0.
     999903    2    3    3    0    0 -0.66013783949E-01  0.10141171260E+00  0.41404274580E-01  0.12942811680E+00  0.19878841569E-01 0.  0.
         14    1    1    2    0    0 -0.32711650747E-02  0.17197069236E-01 -0.15637939859E-01  0.23473066998E-01  0.00000000000E+00 0. -1.
     999901    1    3    3    0    0  0.69284949024E-01 -0.11860878184E+00 -0.25766334721E-01  0.89102881620E+00  0.88000000000E+00 0. -1.
        -11    1    4    4    0    0 -0.57462454343E-01  0.73012989260E-01  0.32953885773E-01  0.98585242143E-01  0.51100000000E-03 0.  1.
         11    1    4    4    0    0 -0.85513296069E-02  0.28398723341E-01  0.84503888068E-02  0.30842874662E-01  0.51100000000E-03 0. -1.
</event>
<event>
 8    1  0.1052028E+005  0.1043930E+01  0.7957747E-01            NaN
         13   -1    0    0    0    0  0.00000000000E+00  0.00000000000E+00  0.74505805969E-08  0.10566000000E+00  0.10566000000E+00 0. -1.
     999900   -1    0    0    0    0 -0.00000000000E+00 -0.00000000000E+00 -0.74505805969E-08  0.93827000000E+00  0.93827000000E+00 0.  1.
     999902    2    1    2    0    0 -0.27127815489E-02  0.21479060590E-01  0.85322378513E-02  0.10206596689E+01  0.10203943607E+01 0.  0.
     999903    2    3    3    0    0  0.26909386225E-01  0.12839513829E+00  0.16138533604E-01  0.13366114790E+00  0.19885260552E-01 0.  0.
         14    1    1    2    0    0  0.27127815489E-02 -0.21479060590E-01 -0.85322378513E-02  0.23270331118E-01  0.00000000000E+00 0.  1.
     999901    1    3    3    0    0 -0.29622167774E-01 -0.10691607770E+00 -0.76062957531E-02  0.88699852098E+00  0.88000000000E+00 0. -1.
        -11    1    4    4    0    0  0.10107535530E-01  0.92171357968E-01  0.12444097285E-01  0.93556604162E-01  0.51100000000E-03 0.  1.
         11    1    4    4    0    0  0.16801850695E-01  0.36223780321E-01  0.36944363197E-02  0.40104543736E-01  0.51100000000E-03 0. -1.
</event>
<event>
 8    1  0.1052028E+005  0.1043930E+01  0.7957747E-01            NaN
         13   -1    0    0    0    0  0.00000000000E+00  0.00000000000E+00  0.74505805969E-08  0.10566000000E+00  0.10566000000E+00 0.  1.
     999900   -1    0    0    0    0 -0.00000000000E+00 -0.00000000000E+00 -0.74505805969E-08  0.93827000000E+00  0.93827000000E+00 0. -1.
     999902    2    1    2    0    0  0.15974982421E-01  0.12149884877E-02 -0.16777740731E-01  0.10207315336E+01  0.10204678803E+01 0.  0.
     999903    2    3    3    0    0  0.58268822938E-01  0.78110938718E-01 -0.88599194831E-01  0.13345475749E+00  0.21535563585E-01 0.  0.
         14    1    1    2    0    0 -0.15974982421E-01 -0.12149884877E-02  0.16777740731E-01  0.23198466424E-01  0.00000000000E+00 0.  1.
     999901    1    3    3    0    0 -0.42293840516E-01 -0.76895950231E-01  0.71821454100E-01  0.88727677608E+00  0.88000000000E+00 0. -1.
        -11    1    4    4    0    0  0.54816254444E-01  0.61184455554E-01 -0.77343075189E-01  0.11282983539E+00  0.51100000000E-03 0.  1.
         11    1    4    4    0    0  0.34525684935E-02  0.16926483164E-01 -0.11256119642E-01  0.20624922106E-01  0.51100000000E-03 0. -1.
</event>
<event>
 8    1  0.1052028E+005  0.1043930E+01  0.7957747E-01            NaN
         13   -1    0    0    0    0  0.00000000000E+00  0.00000000000E+00  0.74505805969E-08  0.10566000000E+00  0.10566000000E+00 0. -1.
     999900   -1    0    0    0    0 -0.00000000000E+00 -0.00000000000E+00 -0.74505805969E-08  0.93827000000E+00  0.93827000000E+00 0.  1.
     999902    2    1    2    0    0 -0.22030796720E-02 -0.12679527615E-01  0.15858768403E-01  0.10235063736E+01  0.10233025810E+01 0.  0.
     999903    2    3    3    0    0 -0.89822601293E-01  0.92018308041E-01  0.27259585420E-01  0.13290612882E+00  0.19633781133E-01 0.  0.
         14    1    1    2    0    0  0.22030796720E-02  0.12679527615E-01 -0.15858768403E-01  0.20423626412E-01  0.00000000000E+00 0. -1.
     999901    1    3    3    0    0  0.87619521621E-01 -0.10469783566E+00 -0.11400817017E-01  0.89060024477E+00  0.88000000000E+00 0. -1.
        -11    1    4    4    0    0 -0.33172106694E-01  0.45773697362E-01  0.17173933025E-01  0.59083205137E-01  0.51100000000E-03 0. -1.
         11    1    4    4    0    0 -0.56650494599E-01  0.46244610678E-01  0.10085652395E-01  0.73822923678E-01  0.51100000000E-03 0.  1.
</event>
<event>
 8    1  0.1052028E+005  0.1043930E+01  0.7957747E-01            NaN
         13   -1    0    0    0    0  0.00000000000E+00  0.00000000000E+00  0.74505805969E-08  0.10566000000E+00  0.10566000000E+00 0.  1.
     999900   -1    0    0    0    0 -0.00000000000E+00 -0.00000000000E+00 -0.74505805969E-08  0.93827000000E+00  0.93827000000E+00 0.  1.
     999902    2    1    2    0    0 -0.10980904163E-01  0.19076887812E-01  0.12657531411E-01  0.10185386431E+01  0.10182221007E+01 0.  0.
     999903    2    3    3    0    0  0.66854883402E-01 -0.10363314073E+00  0.19982915939E-01  0.12659143489E+00  0.20412524738E-01 0.  0.
         14    1    1    2    0    0  0.10980904163E-01 -0.19076887812E-01 -0.12657531411E-01  0.25391356920E-01  0.00000000000E+00 0. -1.
     999901    1    3    3    0    0 -0.77835787565E-01  0.12271002855E+00 -0.73253845282E-02  0.89194720819E+00  0.88000000000E+00 0.  1.
        -11    1    4    4    0    0  0.47740507728E-01 -0.71299674757E-01  0.43932513039E-02  0.85920669670E-01  0.51100000000E-03 0.  1.
         11    1    4    4    0    0  0.19114375674E-01 -0.32333465976E-01  0.15589664635E-01  0.40670765224E-01  0.51100000000E-03 0. -1.
</event>
<event>
 8    1  0.1052028E+005  0.1043930E+01  0.7957747E-01            NaN
         13   -1    0    0    0    0  0.00000000000E+00  0.00000000000E+00  0.74505805969E-08  0.10566000000E+00  0.10566000000E+00 0. -1.
     999900   -1    0    0    0    0 -0.00000000000E+00 -0.00000000000E+00 -0.74505805969E-08  0.93827000000E+00  0.93827000000E+00 0. -1.
     999902    2    1    2    0    0 -0.14829595005E-01 -0.77574566657E-02 -0.17069993003E-01  0.10200243588E+01  0.10197441899E+01 0.  0.
     999903    2    3    3    0    0 -0.77504794364E-01  0.10224071469E+00 -0.17325159275E-01  0.13096426888E+00  0.19781852510E-01 0.  0.
         14    1    1    2    0    0  0.14829595005E-01  0.77574566657E-02  0.17069993003E-01  0.23905641239E-01  0.00000000000E+00 0. -1.
     999901    1    3    3    0    0  0.62675199359E-01 -0.10999817136E+00  0.25516627152E-03  0.88906008988E+00  0.88000000000E+00 0. -1.
        -11    1    4    4    0    0 -0.64234526830E-01  0.77753638714E-01 -0.20528964327E-01  0.10292425500E+00  0.51100000000E-03 0. -1.
         11    1    4    4    0    0 -0.13270267533E-01  0.24487075976E-01  0.32038050523E-02  0.28040013874E-01  0.51100000000E-03 0.  1.
</event>
<event>
 8    1  0.1052028E+005  0.1043930E+01  0.7957747E-01            NaN
         13   -1    0    0    0    0  0.00000000000E+00  0.00000000000E+00  0.74505805969E-08  0.10566000000E+00  0.10566000000E+00 0.  1.
     999900   -1    0    0    0    0 -0.00000000000E+00 -0.00000000000E+00 -0.74505805969E-08  0.93827000000E+00  0.93827000000E+00 0. -1.
     999902    2    1    2    0    0 -0.92904405111E-02  0.20391603623E-01 -0.68091161874E-02  0.10205100545E+01  0.10202412840E+01 0.  0.
     999903    2    3    3    0    0 -0.93983458867E-01 -0.80155561757E-01  0.34569771647E-01  0.12978290652E+00  0.19766868520E-01 0.  0.
         14    1    1    2    0    0  0.92904405111E-02 -0.20391603623E-01  0.68091161874E-02  0.23419945484E-01  0.00000000000E+00 0. -1.
     999901    1    3    3    0    0  0.84693018356E-01  0.10054716538E+00 -0.41378887834E-01  0.89072714800E+00  0.88000000000E+00 0. -1.
        -11    1    4    4    0    0 -0.29530533647E-01 -0.28979412040E-01  0.20892794631E-01  0.46353303314E-01  0.51100000000E-03 0. -1.
         11    1    4    4    0    0 -0.64452925219E-01 -0.51176149718E-01  0.13676977016E-01  0.83429603203E-01  0.51100000000E-03 0.  1.
</event>
<event>
 8    1  0.1052028E+005  0.1043930E+01  0.7957747E-01            NaN
         13   -1    0    0    0    0  0.00000000000E+00  0.00000000000E+00  0.74505805969E-08  0.10566000000E+00  0.10566000000E+00 0. -1.
     999900   -1    0    0    0    0 -0.00000000000E+00 -0.00000000000E+00 -0.74505805969E-08  0.93827000000E+00  0.93827000000E+00 0.  1.
     999902    2    1    2    0    0  0.18153935640E-01  0.14409695995E-01 -0.27860452912E-02  0.10205854767E+01  0.10203184545E+01 0.  0.
     999903    2    3    3    0    0 -0.40538089616E-01  0.37524877243E-01  0.11643584185E+00  0.13030859632E+00  0.19276199975E-01 0.  0.
         14    1    1    2    0    0 -0.18153935640E-01 -0.14409695995E-01  0.27860452912E-02  0.23344523260E-01  0.00000000000E+00 0. -1.
     999901    1    3    3    0    0  0.58692025256E-01 -0.23115181248E-01 -0.11922188714E+00  0.89027688042E+00  0.88000000000E+00 0.  1.
        -11    1    4    4    0    0 -0.29478939674E-01  0.15802440794E-01  0.57394303630E-01  0.66431108899E-01  0.51100000000E-03 0.  1.
         11    1    4    4    0    0 -0.11059149942E-01  0.21722436449E-01  0.59041538223E-01  0.63877487423E-01  0.51100000000E-03 0. -1.
</event>
<event>
 7    1  0.1052028E+005  0.1043930E+01  0.7957747E-01            NaN
         13   -1    0    0    0    0  0.00000000000E+00  0.00000000000E+00  0.74505805969E-08  0.10566000000E+00  0.10566000000E+00 0.  1.
     999900   -1    0    0    0    0 -0.00000000000E+00 -0.00000000000E+00 -0.74505805969E-08  0.93827000000E+00  0.93827000000E+00 0.  1.
     999902    2    1    2    0    0  0.44602270280E-02 -0.20657415469E-01 -0.10810406860E-01  0.10201921118E+01  0.10199159072E+01 0.  0.
         14    1    1    2    0    0 -0.44602270280E-02  0.20657415469E-01  0.10810406860E-01  0.23737888185E-01  0.00000000000E+00 0.  1.
     999901    1    3    3    0    0 -0.80392913572E-01 -0.11477012800E+00 -0.31826908024E-01  0.89165472853E+00  0.88000000000E+00 0.  1.
        -11    1    3    3    0    0  0.31701357391E-01  0.36979312202E-01  0.61357426296E-02  0.49095356705E-01  0.51100000000E-03 0.  1.
         11    1    3    3    0    0  0.53151783210E-01  0.57133400331E-01  0.14880758534E-01  0.79442026581E-01  0.51100000000E-03 0. -1.
</event>
<event>
 8    1  0.1052028E+005  0.1043930E+01  0.7957747E-01            NaN
         13   -1    0    0    0    0  0.00000000000E+00  0.00000000000E+00  0.74505805969E-08  0.10566000000E+00  0.10566000000E+00 0.  1.
     999900   -1    0    0    0    0 -0.00000000000E+00 -0.00000000000E+00 -0.74505805969E-08  0.93827000000E+00  0.93827000000E+00 0. -1.
     999902    2    1    2    0    0  0.34113126391E-02  0.18169400868E-01  0.14619702540E-01  0.10203609550E+01  0.10200887111E+01 0.  0.
     999903    2    3    3    0    0 -0.40252315040E-02  0.10069578410E+00  0.85134205716E-01  0.13366021554E+00  0.21479683732E-01 0.  0.
         14    1    1    2    0    0 -0.34113126391E-02 -0.18169400868E-01 -0.14619702540E-01  0.23569045042E-01  0.00000000000E+00 0. -1.
     999901    1    3    3    0    0  0.74365441432E-02 -0.82526383227E-01 -0.70514503176E-01  0.88670073941E+00  0.88000000000E+00 0.  1.
        -11    1    4    4    0    0 -0.75354779884E-02  0.14769815744E-01  0.18638997919E-01  0.24952038996E-01  0.51100000000E-03 0. -1.
         11    1    4    4    0    0  0.35102464844E-02  0.85925968352E-01  0.66495207797E-01  0.10870817655E+00  0.51100000000E-03 0.  1.
</event>
<event>
 7    1  0.1052028E+005  0.1043930E+01  0.7957747E-01            NaN
         13   -1    0    0    0    0  0.00000000000E+00  0.00000000000E+00  0.74505805969E-08  0.10566000000E+00  0.10566000000E+00 0. -1.
     999900   -1    0    0    0    0 -0.00000000000E+00 -0.00000000000E+00 -0.74505805969E-08  0.93827000000E+00  0.93827000000E+00 0.  1.
     999903    2    1    2    0    0  0.39146561746E-01  0.40452015395E-01  0.37654790830E-01  0.70679125433E-01  0.20219709529E-01 0.  0.
         14    1    1    2    0    0  0.54712885528E-01 -0.24348460165E-01 -0.64094830605E-01  0.87718268710E-01  0.00000000000E+00 0.  1.
     999901    1    1    2    0    0 -0.93859447274E-01 -0.16103555230E-01  0.26440039776E-01  0.88553260586E+00  0.88000000000E+00 0. -1.
        -11    1    3    3    0    0  0.10358069687E-01  0.24291379047E-01  0.20728422730E-01  0.33575129687E-01  0.51100000000E-03 0.  1.
         11    1    3    3    0    0  0.28788492060E-01  0.16160636347E-01  0.16926368100E-01  0.37103995745E-01  0.51100000000E-03 0. -1.
</event>
<event>
 8    1  0.1052028E+005  0.1043930E+01  0.7957747E-01            NaN
         13   -1    0    0    0    0  0.00000000000E+00  0.00000000000E+00  0.74505805969E-08  0.10566000000E+00  0.10566000000E+00 0. -1.
     999900   -1    0    0    0    0 -0.00000000000E+00 -0.00000000000E+00 -0.74505805969E-08  0.93827000000E+00  0.93827000000E+00 0.  1.
     999902    2    1    2    0    0  0.12778452697E-01 -0.19993632612E-01 -0.50034771671E-03  0.10201963836E+01  0.10199202795E+01 0.  0.
     999903    2    3    3    0    0  0.28948996969E-01 -0.12756863906E+00 -0.16311233909E-01  0.13335713515E+00  0.20156067245E-01 0.  0.
         14    1    1    2    0    0 -0.12778452697E-01  0.19993632612E-01  0.50034771671E-03  0.23733616374E-01  0.00000000000E+00 0.  1.
     999901    1    3    3    0    0 -0.16170544272E-01  0.10757500645E+00  0.15810886193E-01  0.88683924848E+00  0.88000000000E+00 0.  1.
        -11    1    4    4    0    0  0.26986851560E-01 -0.75390344900E-01 -0.11860113618E-01  0.80950093745E-01  0.51100000000E-03 0.  1.
         11    1    4    4    0    0  0.19621454088E-02 -0.52178294160E-01 -0.44511202912E-02  0.52407041406E-01  0.51100000000E-03 0. -1.
</event>
<event>
 8    1  0.1052028E+005  0.1043930E+01  0.7957747E-01            NaN
         13   -1    0    0    0    0  0.00000000000E+00  0.00000000000E+00  0.74505805969E-08  0.10566000000E+00  0.10566000000E+00 0. -1.
     999900   -1    0    0    0    0 -0.00000000000E+00 -0.00000000000E+00 -0.74505805969E-08  0.93827000000E+00  0.93827000000E+00 0.  1.
     999902    2    1    2    0    0 -0.20425367306E-01  0.29299453501E-02  0.23187843867E-02  0.10231656804E+01  0.10229549611E+01 0.  0.
     999903    2    3    3    0    0  0.11557596174E+00  0.34204993727E-01 -0.46993808209E-01  0.13080576309E+00  0.19337660630E-01 0.  0.
         14    1    1    2    0    0  0.20425367306E-01 -0.29299453501E-02 -0.23187843867E-02  0.20764319646E-01  0.00000000000E+00 0.  1.
     999901    1    3    3    0    0 -0.13600132905E+00 -0.31275048377E-01  0.49312592596E-01  0.89235991727E+00  0.88000000000E+00 0. -1.
        -11    1    4    4    0    0  0.45007819827E-01  0.47155741275E-02 -0.22162069501E-01  0.50392052255E-01  0.51100000000E-03 0. -1.
         11    1    4    4    0    0  0.70568141915E-01  0.29489419600E-01 -0.24831738708E-01  0.80413710833E-01  0.51100000000E-03 0.  1.
</event>
<event>
 8    1  0.1052028E+005  0.1043930E+01  0.7957747E-01            NaN
         13   -1    0    0    0    0  0.00000000000E+00  0.00000000000E+00  0.74505805969E-08  0.10566000000E+00  0.10566000000E+00 0. -1.
     999900   -1    0    0    0    0 -0.00000000000E+00 -0.00000000000E+00 -0.74505805969E-08  0.93827000000E+00  0.93827000000E+00 0. -1.
     999902    2    1    2    0    0 -0.11499309289E-01 -0.22577820051E-01 -0.16794067717E-02  0.10185368419E+01  0.10182202541E+01 0.  0.
     999903    2    3    3    0    0  0.19762526602E-02  0.10678448584E+00 -0.65186045976E-01  0.12671326617E+00  0.20004980465E-01 0.  0.
         14    1    1    2    0    0  0.11499309289E-01  0.22577820051E-01  0.16794067717E-02  0.25393158124E-01  0.00000000000E+00 0.  1.
     999901    1    3    3    0    0 -0.13475561950E-01 -0.12936230589E+00  0.63506639204E-01  0.89182357570E+00  0.88000000000E+00 0.  1.
        -11    1    4    4    0    0  0.92195258269E-02  0.78458670136E-01 -0.52398136281E-01  0.94797618022E-01  0.51100000000E-03 0. -1.
         11    1    4    4    0    0 -0.72432731667E-02  0.28325815706E-01 -0.12787909695E-01  0.31915648152E-01  0.51100000000E-03 0.  1.
</event>
<event>
 8    1  0.1052028E+005  0.1043930E+01  0.7957747E-01            NaN
         13   -1    0    0    0    0  0.00000000000E+00  0.00000000000E+00  0.74505805969E-08  0.10566000000E+00  0.10566000000E+00 0. -1.
     999900   -1    0    0    0    0 -0.00000000000E+00 -0.00000000000E+00 -0.74505805969E-08  0.93827000000E+00  0.93827000000E+00 0. -1.
     999902    2    1    2    0    0 -0.57386459809E-03  0.12267073776E-01 -0.18422226734E-01  0.10217897909E+01  0.10215498950E+01 0.  0.
     999903    2    3    3    0    0  0.81117920234E-01 -0.47784820161E-02  0.99477362184E-01  0.13001380351E+00  0.20121944300E-01 0.  0.
         14    1    1    2    0    0  0.57386459809E-03 -0.12267073776E-01  0.18422226734E-01  0.22140209066E-01  0.00000000000E+00 0. -1.
     999901    1    3    3    0    0 -0.81691784832E-01  0.17045555792E-01 -0.11789958892E+00  0.89177598743E+00  0.88000000000E+00 0. -1.
        -11    1    4    4    0    0  0.74381503916E-01 -0.61130334747E-02  0.80255055000E-01  0.10959522014E+00  0.51100000000E-03 0. -1.
         11    1    4    4    0    0  0.67364163178E-02  0.13345514587E-02  0.19222307184E-01  0.20418583371E-01  0.51100000000E-03 0.  1.
</event>
<event>
 8    1  0.1052028E+005  0.1043930E+01  0.7957747E-01            NaN
         13   -1    0    0    0    0  0.00000000000E+00  0.00000000000E+00  0.74505805969E-08  0.10566000000E+00  0.10566000000E+00 0.  1.
     999900   -1    0    0    0    0 -0.00000000000E+00 -0.00000000000E+00 -0.74505805969E-08  0.93827000000E+00  0.93827000000E+00 0. -1.
     999902    2    1    2    0    0  0.12496754941E-01  0.53143009717E-02 -0.19407799458E-01  0.10202430129E+01  0.10199680054E+01 0.  0.
     999903    2    3    3    0    0  0.27248691640E-01  0.10336493609E+00 -0.76186655704E-01  0.13285618337E+00  0.20483108713E-01 0.  0.
         14    1    1    2    0    0 -0.12496754941E-01 -0.53143009717E-02  0.19407799458E-01  0.23686987117E-01  0.00000000000E+00 0.  1.
     999901    1    3    3    0    0 -0.14751936699E-01 -0.98050635117E-01  0.56778856246E-01  0.88738682952E+00  0.88000000000E+00 0.  1.
        -11    1    4    4    0    0  0.15674088756E-02  0.45512270108E-01 -0.31752814365E-01  0.55518698130E-01  0.51100000000E-03 0.  1.
         11    1    4    4    0    0  0.25681282765E-01  0.57852665981E-01 -0.44433841339E-01  0.77337485236E-01  0.51100000000E-03 0. -1.
</event>
<event>
 8    1  0.1052028E+005  0.1043930E+01  0.7957747E-01            NaN
         13   -1    0    0    0    0  0.00000000000E+00  0.00000000000E+00  0.74505805969E-08  0.10566000000E+00  0.10566000000E+00 0. -1.
     999900   -1    0    0    0    0 -0.00000000000E+00 -0.00000000000E+00 -0.74505805969E-08  0.93827000000E+00  0.93827000000E+00 0. -1.
     999902    2    1    2    0    0  0.17819909387E-01 -0.14629111258E-01  0.11821757977E-02  0.10208441254E+01  0.10205830543E+01 0.  0.
     999903    2    3    3    0    0  0.13067929719E+00  0.19873950341E-01 -0.96598953557E-02  0.13289972782E+00  0.98474087491E-02 0.  0.
         14    1    1    2    0    0 -0.17819909387E-01  0.14629111258E-01 -0.11821757977E-02  0.23085874607E-01  0.00000000000E+00 0.  1.
     999901    1    3    3    0    0 -0.11285938781E+00 -0.34503061599E-01  0.10842071153E-01  0.88794439757E+00  0.88000000000E+00 0. -1.
        -11    1    4    4    0    0  0.22725448361E-01  0.66438530035E-03 -0.41039291123E-02  0.23108240223E-01  0.51100000000E-03 0.  1.
         11    1    4    4    0    0  0.10795384883E+00  0.19209565040E-01 -0.55559662433E-02  0.10979148760E+00  0.51100000000E-03 0. -1.
</event>
<event>
 8    1  0.1052028E+005  0.1043930E+01  0.7957747E-01            NaN
         13   -1    0    0    0    0  0.00000000000E+00  0.00000000000E+00  0.74505805969E-08  0.10566000000E+00  0.10566000000E+00 0. -1.
     999900   -1    0    0    0    0 -0.00000000000E+00 -0.00000000000E+00 -0.74505805969E-08  0.93827000000E+00  0.93827000000E+00 0.  1.
     999902    2    1    2    0    0  0.35303836455E-02  0.18868009864E-01  0.67619711288E-03  0.10247226408E+01  0.10245426140E+01 0.  0.
     999903    2    3    3    0    0  0.12915705547E+00  0.93939950566E-02  0.33207009426E-01  0.13515529013E+00  0.19860887543E-01 0.  0.
         14    1    1    2    0    0 -0.35303836455E-02 -0.18868009864E-01 -0.67619711288E-03  0.19207359200E-01  0.00000000000E+00 0. -1.
     999901    1    3    3    0    0 -0.12562667182E+00  0.94740148075E-02 -0.32530812313E-01  0.88956735067E+00  0.88000000000E+00 0.  1.
        -11    1    4    4    0    0  0.84648718753E-01  0.35365320145E-02  0.30961495007E-01  0.90204145910E-01  0.51100000000E-03 0.  1.
         11    1    4    4    0    0  0.44508336717E-01  0.58574630421E-02  0.22455144186E-02  0.44951144219E-01  0.51100000000E-03 0. -1.
</event>
<event>
 8    1  0.1052028E+005  0.1043930E+01  0.7957747E-01            NaN
         13   -1    0    0    0    0  0.00000000000E+00  0.00000000000E+00  0.74505805969E-08  0.10566000000E+00  0.10566000000E+00 0. -1.
     999900   -1    0    0    0    0 -0.00000000000E+00 -0.00000000000E+00 -0.74505805969E-08  0.93827000000E+00  0.93827000000E+00 0. -1.
     999902    2    1    2    0    0 -0.53040339169E-02 -0.77718808562E-02 -0.21190303091E-01  0.10207445767E+01  0.10204812233E+01 0.  0.
     999903    2    3    3    0    0  0.31715043526E-01  0.12223170713E+00 -0.26673874343E-01  0.13040676749E+00  0.18654629996E-01 0.  0.
         14    1    1    2    0    0  0.53040339169E-02  0.77718808562E-02  0.21190303091E-01  0.23185423285E-01  0.00000000000E+00 0. -1.
     999901    1    3    3    0    0 -0.37019077442E-01 -0.13000358799E+00  0.54835712522E-02  0.89033780923E+00  0.88000000000E+00 0.  1.
        -11    1    4    4    0    0  0.63204861748E-02  0.59081432765E-01 -0.15711070181E-01  0.61462696738E-01  0.51100000000E-03 0. -1.
         11    1    4    4    0    0  0.25394557351E-01  0.63150274366E-01 -0.10962804162E-01  0.68944070750E-01  0.51100000000E-03 0.  1.
</event>
<event>
 8    1  0.1052028E+005  0.1043930E+01  0.7957747E-01            NaN
         13   -1    0    0    0    0  0.00000000000E+00  0.00000000000E+00  0.74505805969E-08  0.10566000000E+00  0.10566000000E+00 0. -1.
     999900   -1    0    0    0    0 -0.00000000000E+00 -0.00000000000E+00 -0.74505805969E-08  0.93827000000E+00  0.93827000000E+00 0. -1.
     999902    2    1    2    0    0 -0.19405001528E-01  0.10816904059E-01 -0.55459000874E-02  0.10210320415E+01  0.10207752511E+01 0.  0.
     999903    2    3    3    0    0  0.24634948016E-01 -0.12510255184E+00 -0.91321727656E-02  0.12950162863E+00  0.20730318281E-01 0.  0.
         14    1    1    2    0    0  0.19405001528E-01 -0.10816904059E-01  0.55459000874E-02  0.22897958544E-01  0.00000000000E+00 0. -1.
     999901    1    3    3    0    0 -0.44039949544E-01  0.13591945590E+00  0.35862726782E-02  0.89153041283E+00  0.88000000000E+00 0. -1.
        -11    1    4    4    0    0  0.14946783281E-01 -0.39245085930E-01  0.36541584517E-02  0.42156815523E-01  0.51100000000E-03 0.  1.
         11    1    4    4    0    0  0.96881647356E-02 -0.85857465913E-01 -0.12786331217E-01  0.87344813103E-01  0.51100000000E-03 0. -1.
</event>
<event>
 8    1  0.1052028E+005  0.1043930E+01  0.7957747E-01            NaN
         13   -1    0    0    0    0  0.00000000000E+00  0.00000000000E+00  0.74505805969E-08  0.10566000000E+00  0.10566000000E+00 0.  1.
     999900   -1    0    0    0    0 -0.00000000000E+00 -0.00000000000E+00 -0.74505805969E-08  0.93827000000E+00  0.93827000000E+00 0. -1.
     999902    2    1    2    0    0 -0.44369776992E-04  0.22583169673E-01 -0.21696823198E-02  0.10212428000E+01  0.10209907676E+01 0.  0.
     999903    2    3    3    0    0 -0.11116516995E+00  0.40855540231E-01 -0.55880636466E-01  0.13244215964E+00  0.19784083031E-01 0.  0.
         14    1    1    2    0    0  0.44369776992E-04 -0.22583169673E-01  0.21696823198E-02  0.22687199971E-01  0.00000000000E+00 0.  1.
     999901    1    3    3    0    0  0.11112080017E+00 -0.18272370559E-01  0.53710954146E-01  0.88880064039E+00  0.88000000000E+00 0.  1.
        -11    1    4    4    0    0 -0.37987488362E-01  0.48236009898E-02 -0.14228292190E-01  0.40853663461E-01  0.51100000000E-03 0.  1.
         11    1    4    4    0    0 -0.73177681589E-01  0.36031939241E-01 -0.41652344276E-01  0.91588496182E-01  0.51100000000E-03 0. -1.
</event>
<event>
 8    1  0.1052028E+005  0.1043930E+01  0.7957747E-01            NaN
         13   -1    0    0    0    0  0.00000000000E+00  0.00000000000E+00  0.74505805969E-08  0.10566000000E+00  0.10566000000E+00 0. -1.
     999900   -1    0    0    0    0 -0.00000000000E+00 -0.00000000000E+00 -0.74505805969E-08  0.93827000000E+00  0.93827000000E+00 0. -1.
     999902    2    1    2    0    0  0.93101638885E-02  0.23912003625E-01  0.54590170908E-02  0.10176952151E+01  0.10173570106E+01 0.  0.
     999903    2    3    3    0    0 -0.52399811554E-01 -0.65216343524E-01  0.92942065455E-01  0.12673771498E+00  0.20623024877E-01 0.  0.
         14    1    1    2    0    0 -0.93101638885E-02 -0.23912003625E-01 -0.54590170908E-02  0.26234784859E-01  0.00000000000E+00 0.  1.
     999901    1    3    3    0    0  0.61709975442E-01  0.89128347148E-01 -0.87483048364E-01  0.89095750016E+00  0.88000000000E+00 0. -1.
        -11    1    4    4    0    0 -0.27088912867E-01 -0.26777415862E-01  0.28631540042E-01  0.47653598047E-01  0.51100000000E-03 0.  1.
         11    1    4    4    0    0 -0.25310898687E-01 -0.38438927662E-01  0.64310525412E-01  0.79084116938E-01  0.51100000000E-03 0. -1.
</event>
<event>
 8    1  0.1052028E+005  0.1043930E+01  0.7957747E-01            NaN
         13   -1    0    0    0    0  0.00000000000E+00  0.00000000000E+00  0.74505805969E-08  0.10566000000E+00  0.10566000000E+00 0. -1.
     999900   -1    0    0    0    0 -0.00000000000E+00 -0.00000000000E+00 -0.74505805969E-08  0.93827000000E+00  0.93827000000E+00 0. -1.
     999902    2    1    2    0    0  0.33633845289E-02  0.19793806475E-01 -0.11717910068E-01  0.10206831390E+01  0.10204183719E+01 0.  0.
     999903    2    3    3    0    0 -0.18111868957E-01  0.13049961644E+00  0.13792773938E-02  0.13339034674E+00  0.20806069019E-01 0.  0.
         14    1    1    2    0    0 -0.33633845289E-02 -0.19793806475E-01  0.11717910068E-01  0.23246861006E-01  0.00000000000E+00 0. -1.
     999901    1    3    3    0    0  0.21475253486E-01 -0.11070580997E+00 -0.13097187462E-01  0.88729279226E+00  0.88000000000E+00 0.  1.
        -11    1    4    4    0    0 -0.59450379396E-02  0.55138288435E-01 -0.95392202606E-02  0.56274613920E-01  0.51100000000E-03 0. -1.
         11    1    4    4    0    0 -0.12166831018E-01  0.75361328006E-01  0.10918497654E-01  0.77115732817E-01  0.51100000000E-03 0.  1.
</event>
<event>
 8    1  0.1052028E+005  0.1043930E+01  0.7957747E-01            NaN
         13   -1    0    0    0    0  0.00000000000E+00  0.00000000000E+00  0.74505805969E-08  0.10566000000E+00  0.10566000000E+00 0.  1.
     999900   -1    0    0    0    0 -0.00000000000E+00 -0.00000000000E+00 -0.74505805969E-08  0.93827000000E+00  0.93827000000E+00 0. -1.
     999902    2    1    2    0    0 -0.19730292141E-01 -0.13665605229E-01 -0.17886578126E-02  0.10198627507E+01  0.10195787354E+01 0.  0.
     999903    2    3    3    0    0  0.11598897827E+00 -0.37851127962E-01 -0.34843220565E-01  0.12851699059E+00  0.20406270673E-01 0.  0.
         14    1    1    2    0    0  0.19730292141E-01  0.13665605229E-01  0.17886578126E-02  0.24067249344E-01  0.00000000000E+00 0.  1.
     999901    1    3    3    0    0 -0.13571927041E+00  0.24185522733E-01  0.33054562752E-01  0.89134576007E+00  0.88000000000E+00 0.  1.
        -11    1    4    4    0    0  0.10467021990E+00 -0.27864246631E-01 -0.27661640892E-01  0.11179310655E+00  0.51100000000E-03 0.  1.
         11    1    4    4    0    0  0.11318758367E-01 -0.99868813312E-02 -0.71815796723E-02  0.16723884037E-01  0.51100000000E-03 0. -1.
</event>
<event>
 8    1  0.1052028E+005  0.1043930E+01  0.7957747E-01            NaN
         13   -1    0    0    0    0  0.00000000000E+00  0.00000000000E+00  0.74505805969E-08  0.10566000000E+00  0.10566000000E+00 0. -1.
     999900   -1    0    0    0    0 -0.00000000000E+00 -0.00000000000E+00 -0.74505805969E-08  0.93827000000E+00  0.93827000000E+00 0.  1.
     999902    2    1    2    0    0 -0.52019477136E-02  0.22962320521E-01 -0.40598395068E-02  0.10200383546E+01  0.10197585175E+01 0.  0.
     999903    2    3    3    0    0 -0.42136762310E-01  0.10523029154E+00  0.65846668534E-01  0.13267195932E+00  0.20424104298E-01 0.  0.
         14    1    1    2    0    0  0.52019477136E-02 -0.22962320521E-01  0.40598395068E-02  0.23891645413E-01  0.00000000000E+00 0.  1.
     999901    1    3    3    0    0  0.36934814597E-01 -0.82267971022E-01 -0.69906508041E-01  0.88736639527E+00  0.88000000000E+00 0.  1.
        -11    1    4    4    0    0  0.27866171467E-03  0.19599046788E-01  0.10589997559E-01  0.22284735956E-01  0.51100000000E-03 0. -1.
         11    1    4    4    0    0 -0.42415424025E-01  0.85631244754E-01  0.55256670975E-01  0.11038722336E+00  0.51100000000E-03 0.  1.
</event>
<event>
 8    1  0.1052028E+005  0.1043930E+01  0.7957747E-01            NaN
         13   -1    0    0    0    0  0.00000000000E+00  0.00000000000E+00  0.74505805969E-08  0.10566000000E+00  0.10566000000E+00 0. -1.
     999900   -1    0    0    0    0 -0.00000000000E+00 -0.00000000000E+00 -0.74505805969E-08  0.93827000000E+00  0.93827000000E+00 0.  1.
     999902    2    1    2    0    0  0.76707046978E-02  0.20817394053E-01 -0.79852153910E-02  0.10203510418E+01  0.10200785662E+01 0.  0.
     999903    2    3    3    0    0  0.40317290688E-01  0.11589007713E+00 -0.49334213390E-01  0.13366374951E+00  0.19394314054E-01 0.  0.
         14    1    1    2    0    0 -0.76707046978E-02 -0.20817394053E-01  0.79852153910E-02  0.23578958216E-01  0.00000000000E+00 0. -1.
     999901    1    3    3    0    0 -0.32646585990E-01 -0.95072683074E-01  0.41348997999E-01  0.88668729227E+00  0.88000000000E+00 0. -1.
        -11    1    4    4    0    0  0.23979344448E-01  0.44777043195E-01 -0.14612176474E-01  0.52856119605E-01  0.51100000000E-03 0.  1.
         11    1    4    4    0    0  0.16337946240E-01  0.71113033932E-01 -0.34722036916E-01  0.80807629905E-01  0.51100000000E-03 0. -1.
</event>
<event>
 8    1  0.1052028E+005  0.1043930E+01  0.7957747E-01            NaN
         13   -1    0    0    0    0  0.00000000000E+00  0.00000000000E+00  0.74505805969E-08  0.10566000000E+00  0.10566000000E+00 0. -1.
     999900   -1    0    0    0    0 -0.00000000000E+00 -0.00000000000E+00 -0.74505805969E-08  0.93827000000E+00  0.93827000000E+00 0.  1.
     999902    2    1    2    0    0  0.15767833656E-01 -0.20242069642E-01  0.83214574640E-02  0.10169557045E+01  0.10165979010E+01 0.  0.
     999903    2    3    3    0    0 -0.72285846444E-01  0.96424084515E-01  0.24800416616E-01  0.12474720973E+00  0.20590240418E-01 0.  0.
         14    1    1    2    0    0 -0.15767833656E-01  0.20242069642E-01 -0.83214574640E-02  0.26974295466E-01  0.00000000000E+00 0.  1.
     999901    1    3    3    0    0  0.88053680099E-01 -0.11666615416E+00 -0.16478959152E-01  0.89220849480E+00  0.88000000000E+00 0. -1.
        -11    1    4    4    0    0 -0.19591367528E-01  0.20868111016E-01  0.14395909051E-01  0.32043767840E-01  0.51100000000E-03 0. -1.
         11    1    4    4    0    0 -0.52694478915E-01  0.75555973499E-01  0.10404507566E-01  0.92703441890E-01  0.51100000000E-03 0.  1.
</event>
<event>
 8    1  0.1052028E+005  0.1043930E+01  0.7957747E-01            NaN
         13   -1    0    0    0    0  0.00000000000E+00  0.00000000000E+00  0.74505805969E-08  0.10566000000E+00  0.10566000000E+00 0.  1.
     999900   -1    0    0    0    0 -0.00000000000E+00 -0.00000000000E+00 -0.74505805969E-08  0.93827000000E+00  0.93827000000E+00 0.  1.
     999902    2    1    2    0    0  0.16372126257E-01 -0.18053367295E-01 -0.21682991120E-02  0.10194622230E+01  0.10191685592E+01 0.  0.
     999903    2    3    3    0    0 -0.27613495048E-01 -0.79599592405E-01  0.97620502966E-01  0.13059751019E+00  0.20672369221E-01 0.  0.
         14    1    1    2    0    0 -0.16372126257E-01  0.18053367295E-01  0.21682991120E-02  0.24467776971E-01  0.00000000000E+00 0. -1.
     999901    1    3    3    0    0  0.43985621305E-01  0.61546225110E-01 -0.99788802078E-01  0.88886471284E+00  0.88000000000E+00 0.  1.
        -11    1    4    4    0    0 -0.14849963314E-01 -0.49155680698E-01  0.43982226180E-01  0.67612866350E-01  0.51100000000E-03 0.  1.
         11    1    4    4    0    0 -0.12763531735E-01 -0.30443911707E-01  0.53638276785E-01  0.62984643842E-01  0.51100000000E-03 0. -1.
</event>
<event>
 8    1  0.1052028E+005  0.1043930E+01  0.7957747E-01            NaN
         13   -1    0    0    0    0  0.00000000000E+00  0.00000000000E+00  0.74505805969E-08  0.10566000000E+00  0.10566000000E+00 0. -1.
     999900   -1    0    0    0    0 -0.00000000000E+00 -0.00000000000E+00 -0.74505805969E-08  0.93827000000E+00  0.93827000000E+00 0. -1.
     999902    2    1    2    0    0 -0.76734927342E-02  0.19628304663E-01  0.10919394943E-01  0.10201942459E+01  0.10199180915E+01 0.  0.
     999903    2    3    3    0    0 -0.54910752394E-01 -0.11266580866E+00 -0.72021454941E-02  0.12886855836E+00  0.29093973010E-01 0.  0.
         14    1    1    2    0    0  0.76734927342E-02 -0.19628304663E-01 -0.10919394943E-01  0.23735754056E-01  0.00000000000E+00 0.  1.
     999901    1    3    3    0    0  0.47237259660E-01  0.13229411332E+00  0.18121540437E-01  0.89132568758E+00  0.88000000000E+00 0. -1.
        -11    1    4    4    0    0 -0.26973051646E-01 -0.83742896819E-01  0.17728808007E-03  0.87981309576E-01  0.51100000000E-03 0. -1.
         11    1    4    4    0    0 -0.27937700748E-01 -0.28922911838E-01 -0.73794335742E-02  0.40887248784E-01  0.51100000000E-03 0.  1.
</event>
<event>
 8    1  0.1052028E+005  0.1043930E+01  0.7957747E-01            NaN
         13   -1    0    0    0    0  0.00000000000E+00  0.00000000000E+00  0.74505805969E-08  0.10566000000E+00  0.10566000000E+00 0. -1.
     999900   -1    0    0    0    0 -0.00000000000E+00 -0.00000000000E+00 -0.74505805969E-08  0.93827000000E+00  0.93827000000E+00 0.  1.
     999902    2    1    2    0    0  0.10879760496E-01  0.39694835261E-02 -0.20848621449E-01  0.10200806603E+01  0.10198018251E+01 0.  0.
     999903    2    3    3    0    0 -0.71514835857E-01 -0.82895369020E-02  0.10288744983E+00  0.12752827056E+00  0.22238351760E-01 0.  0.
         14    1    1    2    0    0 -0.10879760496E-01 -0.39694835261E-02  0.20848621449E-01  0.23849339702E-01  0.00000000000E+00 0. -1.
     999901    1    3    3    0    0  0.82394596353E-01  0.12259020428E-01 -0.12373607128E+00  0.89255238974E+00  0.88000000000E+00 0. -1.
        -11    1    4    4    0    0 -0.30233405540E-01  0.44332056880E-02  0.55835888113E-01  0.63652334172E-01  0.51100000000E-03 0. -1.
         11    1    4    4    0    0 -0.41281430317E-01 -0.12722742590E-01  0.47051561721E-01  0.63875936388E-01  0.51100000000E-03 0.  1.
</event>
<event>
 8    1  0.1052028E+005  0.1043930E+01  0.7957747E-01            NaN
         13   -1    0    0    0    0  0.00000000000E+00  0.00000000000E+00  0.74505805969E-08  0.10566000000E+00  0.10566000000E+00 0.  1.
     999900   -1    0    0    0    0 -0.00000000000E+00 -0.00000000000E+00 -0.74505805969E-08  0.93827000000E+00  0.93827000000E+00 0.  1.
     999902    2    1    2    0    0  0.14700889012E-02 -0.27842874728E-01  0.47001759156E-02  0.10156549494E+01  0.10152612953E+01 0.  0.
     999903    2    3    3    0    0 -0.39374510321E-01 -0.98470756750E-01  0.71448760133E-01  0.12936382762E+00  0.19576326858E-01 0.  0.
         14    1    1    2    0    0 -0.14700889012E-02  0.27842874728E-01 -0.47001759156E-02  0.28275050630E-01  0.00000000000E+00 0. -1.
     999901    1    3    3    0    0  0.40844599222E-01  0.70627882022E-01 -0.66748584217E-01  0.88629112175E+00  0.88000000000E+00 0.  1.
        -11    1    4    4    0    0 -0.58762963593E-02 -0.33328494777E-01  0.29821181372E-01  0.45109681915E-01  0.51100000000E-03 0. -1.
         11    1    4    4    0    0 -0.33498213961E-01 -0.65142261972E-01  0.41627578761E-01  0.84254145702E-01  0.51100000000E-03 0.  1.
</event>
<event>
 8    1  0.1052028E+005  0.1043930E+01  0.7957747E-01            NaN
         13   -1    0    0    0    0  0.00000000000E+00  0.00000000000E+00  0.74505805969E-08  0.10566000000E+00  0.10566000000E+00 0.  1.
     999900   -1    0    0    0    0 -0.00000000000E+00 -0.00000000000E+00 -0.74505805969E-08  0.93827000000E+00  0.93827000000E+00 0.  1.
     999902    2    1    2    0    0 -0.19090619558E-01  0.16309849502E-02  0.14143122157E-01  0.10201153035E+01  0.10198372873E+01 0.  0.
     999903    2    3    3    0    0  0.11011132190E+00  0.59812275858E-01  0.21104100206E-01  0.12875305414E+00  0.20735340654E-01 0.  0.
         14    1    1    2    0    0  0.19090619558E-01 -0.16309849502E-02 -0.14143122157E-01  0.23814696542E-01  0.00000000000E+00 0. -1.
     999901    1    3    3    0    0 -0.12920194146E+00 -0.58181290908E-01 -0.69609780495E-02  0.89136224931E+00  0.88000000000E+00 0. -1.
        -11    1    4    4    0    0  0.50316337755E-01  0.28715464699E-01 -0.61876991846E-03  0.57939241927E-01  0.51100000000E-03 0. -1.
         11    1    4    4    0    0  0.59794984145E-01  0.31096811159E-01  0.21722870125E-01  0.70813812216E-01  0.51100000000E-03 0.  1.
</event>
<event>
 8    1  0.1052028E+005  0.1043930E+01  0.7957747E-01            NaN
         13   -1    0    0    0    0  0.00000000000E+00  0.00000000000E+00  0.74505805969E-08  0.10566000000E+00  0.10566000000E+00 0.  1.
     999900   -1    0    0    0    0 -0.00000000000E+00 -0.00000000000E+00 -0.74505805969E-08  0.93827000000E+00  0.93827000000E+00 0. -1.
     999902    2    1    2    0    0 -0.14055077865E-01  0.12839615197E-01  0.13095053919E-01  0.10208241270E+01  0.10205625982E+01 0.  0.
     999903    2    3    3    0    0  0.55119493129E-01 -0.87532241966E-01 -0.73212880011E-01  0.12823873023E+00  0.19621269708E-01 0.  0.
         14    1    1    2    0    0  0.14055077865E-01 -0.12839615197E-01 -0.13095053919E-01  0.23105873048E-01  0.00000000000E+00 0.  1.
     999901    1    3    3    0    0 -0.69174570994E-01  0.10037185716E+00  0.86307933930E-01  0.89258539672E+00  0.88000000000E+00 0.  1.
        -11    1    4    4    0    0  0.36166930973E-01 -0.69037858819E-01 -0.47213060344E-01  0.91124129814E-01  0.51100000000E-03 0.  1.
         11    1    4    4    0    0  0.18952562156E-01 -0.18494383146E-01 -0.25999819667E-01  0.37114600415E-01  0.51100000000E-03 0. -1.
</event>
<event>
 8    1  0.1052028E+005  0.1043930E+01  0.7957747E-01            NaN
         13   -1    0    0    0    0  0.00000000000E+00  0.00000000000E+00  0.74505805969E-08  0.10566000000E+00  0.10566000000E+00 0. -1.
     999900   -1    0    0    0    0 -0.00000000000E+00 -0.00000000000E+00 -0.74505805969E-08  0.93827000000E+00  0.93827000000E+00 0.  1.
     999902    2    1    2    0    0 -0.12501447970E-01 -0.15566504330E-01 -0.12360851618E-01  0.10204482430E+01  0.10201780353E+01 0.  0.
     999903    2    3    3    0    0  0.39884969782E-02 -0.12758721683E+00 -0.29728440321E-01  0.13302377217E+00  0.22740663820E-01 0.  0.
         14    1    1    2    0    0  0.12501447970E-01  0.15566504330E-01  0.12360851618E-01  0.23481756986E-01  0.00000000000E+00 0. -1.
     999901    1    3    3    0    0 -0.16489944948E-01  0.11202071250E+00  0.17367588703E-01  0.88742447084E+00  0.88000000000E+00 0. -1.
        -11    1    4    4    0    0 -0.71468209637E-02 -0.87658542633E-01 -0.16307386292E-01  0.89449925182E-01  0.51100000000E-03 0. -1.
         11    1    4    4    0    0  0.11135317942E-01 -0.39928674202E-01 -0.13421054029E-01  0.43573846989E-01  0.51100000000E-03 0.  1.
</event>
<event>
 8    1  0.1052028E+005  0.1043930E+01  0.7957747E-01            NaN
         13   -1    0    0    0    0  0.00000000000E+00  0.00000000000E+00  0.74505805969E-08  0.10566000000E+00  0.10566000000E+00 0.  1.
     999900   -1    0    0    0    0 -0.00000000000E+00 -0.00000000000E+00 -0.74505805969E-08  0.93827000000E+00  0.93827000000E+00 0. -1.
     999902    2    1    2    0    0 -0.37708813733E-02  0.13480021953E-01 -0.17218979782E-01  0.10217393758E+01  0.10214983741E+01 0.  0.
     999903    2    3    3    0    0  0.12064525417E+00  0.25349919003E-01  0.40348608835E-01  0.13104622071E+00  0.18633463982E-01 0.  0.
         14    1    1    2    0    0  0.37708813733E-02 -0.13480021953E-01  0.17218979782E-01  0.22190624212E-01  0.00000000000E+00 0.  1.
     999901    1    3    3    0    0 -0.12441613555E+00 -0.11869897050E-01 -0.57567588617E-01  0.89069315508E+00  0.88000000000E+00 0. -1.
        -11    1    4    4    0    0  0.99042191496E-01  0.13615039689E-01  0.34604150625E-01  0.10579429741E+00  0.51100000000E-03 0.  1.
         11    1    4    4    0    0  0.21603062677E-01  0.11734879313E-01  0.57444582101E-02  0.25251923306E-01  0.51100000000E-03 0. -1.
</event>
<event>
 8    1  0.1052028E+005  0.1043930E+01  0.7957747E-01            NaN
         13   -1    0    0    0    0  0.00000000000E+00  0.00000000000E+00  0.74505805969E-08  0.10566000000E+00  0.10566000000E+00 0. -1.
     999900   -1    0    0    0    0 -0.00000000000E+00 -0.00000000000E+00 -0.74505805969E-08  0.93827000000E+00  0.93827000000E+00 0. -1.
     999902    2    1    2    0    0 -0.91885101786E-02 -0.20120860081E-01  0.85415822025E-02  0.10202184763E+01  0.10199428920E+01 0.  0.
     999903    2    3    3    0    0  0.31838890636E-01 -0.71201230578E-01 -0.10291861086E+00  0.13077155461E+00  0.20630774088E-01 0.  0.
         14    1    1    2    0    0  0.91885101786E-02  0.20120860081E-01 -0.85415822025E-02  0.23711523701E-01  0.00000000000E+00 0. -1.
     999901    1    3    3    0    0 -0.41027400814E-01  0.51080370497E-01  0.11146019307E+00  0.88944692169E+00  0.88000000000E+00 0.  1.
        -11    1    4    4    0    0  0.33793366602E-01 -0.68767994032E-01 -0.93791616804E-01  0.12111216757E+00  0.51100000000E-03 0. -1.
         11    1    4    4    0    0 -0.19544759663E-02 -0.24332365468E-02 -0.91269940604E-02  0.96593870392E-02  0.51100000000E-03 0.  1.
</event>
<event>
 8    1  0.1052028E+005  0.1043930E+01  0.7957747E-01            NaN
         13   -1    0    0    0    0  0.00000000000E+00  0.00000000000E+00  0.74505805969E-08  0.10566000000E+00  0.10566000000E+00 0.  1.
     999900   -1    0    0    0    0 -0.00000000000E+00 -0.00000000000E+00 -0.74505805969E-08  0.93827000000E+00  0.93827000000E+00 0. -1.
     999902    2    1    2    0    0 -0.76667009626E-04 -0.84624945330E-04  0.24818709512E-01  0.10191110278E+01  0.10188087679E+01 0.  0.
     999903    2    3    3    0    0  0.11856415758E+00 -0.29514603563E-02  0.51157868067E-01  0.13075433408E+00  0.20332187169E-01 0.  0.
         14    1    1    2    0    0  0.76667009626E-04  0.84624945330E-04 -0.24818709512E-01  0.24818972199E-01  0.00000000000E+00 0. -1.
     999901    1    3    3    0    0 -0.11864082459E+00  0.28668354110E-02 -0.26339158555E-01  0.88835669372E+00  0.88000000000E+00 0.  1.
        -11    1    4    4    0    0  0.75987704267E-01 -0.26070297480E-02  0.22020682295E-01  0.79158697398E-01  0.51100000000E-03 0.  1.
         11    1    4    4    0    0  0.42576453311E-01 -0.34443060832E-03  0.29137185772E-01  0.51595636683E-01  0.51100000000E-03 0. -1.
</event>
<event>
 8    1  0.1052028E+005  0.1043930E+01  0.7957747E-01            NaN
         13   -1    0    0    0    0  0.00000000000E+00  0.00000000000E+00  0.74505805969E-08  0.10566000000E+00  0.10566000000E+00 0.  1.
     999900   -1    0    0    0    0 -0.00000000000E+00 -0.00000000000E+00 -0.74505805969E-08  0.93827000000E+00  0.93827000000E+00 0.  1.
     999902    2    1    2    0    0 -0.22388933238E-01  0.58368382851E-02  0.27910592401E-02  0.10206250000E+01  0.10203588916E+01 0.  0.
     999903    2    3    3    0    0 -0.56015101131E-02 -0.68672253086E-01  0.10947848606E+00  0.13089715999E+00  0.20031782857E-01 0.  0.
         14    1    1    2    0    0  0.22388933238E-01 -0.58368382851E-02 -0.27910592401E-02  0.23304999987E-01  0.00000000000E+00 0. -1.
     999901    1    3    3    0    0 -0.16787423125E-01  0.74509091371E-01 -0.10668742682E+00  0.88972784002E+00  0.88000000000E+00 0.  1.
        -11    1    4    4    0    0 -0.47547870546E-02 -0.10977134384E-01  0.32906232721E-01  0.35016949497E-01  0.51100000000E-03 0.  1.
         11    1    4    4    0    0 -0.84672305850E-03 -0.57695118702E-01  0.76572253337E-01  0.95880210493E-01  0.51100000000E-03 0. -1.
</event>
<event>
 8    1  0.1052028E+005  0.1043930E+01  0.7957747E-01            NaN
         13   -1    0    0    0    0  0.00000000000E+00  0.00000000000E+00  0.74505805969E-08  0.10566000000E+00  0.10566000000E+00 0.  1.
     999900   -1    0    0    0    0 -0.00000000000E+00 -0.00000000000E+00 -0.74505805969E-08  0.93827000000E+00  0.93827000000E+00 0.  1.
     999902    2    1    2    0    0 -0.18427172940E-01  0.14797462329E-01 -0.31895457419E-02  0.10200825935E+01  0.10198038041E+01 0.  0.
     999903    2    3    3    0    0  0.58328026662E-01  0.10288634618E+00  0.52013870761E-01  0.13064545166E+00  0.19365752308E-01 0.  0.
         14    1    1    2    0    0  0.18427172940E-01 -0.14797462329E-01  0.31895457419E-02  0.23847406483E-01  0.00000000000E+00 0. -1.
     999901    1    3    3    0    0 -0.76755199601E-01 -0.88088883854E-01 -0.55203416503E-01  0.88943714186E+00  0.88000000000E+00 0.  1.
        -11    1    4    4    0    0  0.21674720225E-01  0.52002413959E-01  0.32115676914E-01  0.64851541069E-01  0.51100000000E-03 0. -1.
         11    1    4    4    0    0  0.36653306437E-01  0.50883932223E-01  0.19898193847E-01  0.65793910589E-01  0.51100000000E-03 0.  1.
</event>
<event>
 8    1  0.1052028E+005  0.1043930E+01  0.7957747E-01            NaN
         13   -1    0    0    0    0  0.00000000000E+00  0.00000000000E+00  0.74505805969E-08  0.10566000000E+00  0.10566000000E+00 0. -1.
     999900   -1    0    0    0    0 -0.00000000000E+00 -0.00000000000E+00 -0.74505805969E-08  0.93827000000E+00  0.93827000000E+00 0. -1.
     999902    2    1    2    0    0 -0.17207995279E-01  0.14503507796E-01  0.58624525292E-02  0.10206741364E+01  0.10204091619E+01 0.  0.
     999903    2    3    3    0    0 -0.81225385772E-01  0.72993954576E-01 -0.73086436252E-01  0.13289472370E+00  0.19841868006E-01 0.  0.
         14    1    1    2    0    0  0.17207995279E-01 -0.14503507796E-01 -0.58624525292E-02  0.23255863553E-01  0.00000000000E+00 0.  1.
     999901    1    3    3    0    0  0.64017390493E-01 -0.58490446779E-01  0.78948888782E-01  0.88777941274E+00  0.88000000000E+00 0.  1.
        -11    1    4    4    0    0 -0.26661754337E-01  0.36782774938E-01 -0.32303693547E-01  0.55745954241E-01  0.51100000000E-03 0.  1.
         11    1    4    4    0    0 -0.54563631435E-01  0.36211179638E-01 -0.40782742706E-01  0.77148769464E-01  0.51100000000E-03 0. -1.
</event>
<event>
 8    1  0.1052028E+005  0.1043930E+01  0.7957747E-01            NaN
         13   -1    0    0    0    0  0.00000000000E+00  0.00000000000E+00  0.74505805969E-08  0.10566000000E+00  0.10566000000E+00 0.  1.
     999900   -1    0    0    0    0 -0.00000000000E+00 -0.00000000000E+00 -0.74505805969E-08  0.93827000000E+00  0.93827000000E+00 0.  1.
     999902    2    1    2    0    0 -0.34018481995E-02 -0.18344902590E-01 -0.14730693422E-01  0.10201581395E+01  0.10198811344E+01 0.  0.
     999903    2    3    3    0    0  0.89354755475E-01 -0.93822628000E-01 -0.14308506667E-01  0.13206982589E+00  0.21230819495E-01 0.  0.
         14    1    1    2    0    0  0.34018481995E-02  0.18344902590E-01  0.14730693422E-01  0.23771860485E-01  0.00000000000E+00 0. -1.
     999901    1    3    3    0    0 -0.92756603674E-01  0.75477725410E-01 -0.42218675440E-03  0.88808831363E+00  0.88000000000E+00 0. -1.
        -11    1    4    4    0    0  0.17235841424E-01 -0.28208162989E-01  0.23932707120E-02  0.33147602545E-01  0.51100000000E-03 0. -1.
         11    1    4    4    0    0  0.72118914051E-01 -0.65614465011E-01 -0.16701777379E-01  0.98922223343E-01  0.51100000000E-03 0.  1.
</event>
<event>
 8    1  0.1052028E+005  0.1043930E+01  0.7957747E-01            NaN
         13   -1    0    0    0    0  0.00000000000E+00  0.00000000000E+00  0.74505805969E-08  0.10566000000E+00  0.10566000000E+00 0. -1.
     999900   -1    0    0    0    0 -0.00000000000E+00 -0.00000000000E+00 -0.74505805969E-08  0.93827000000E+00  0.93827000000E+00 0. -1.
     999902    2    1    2    0    0  0.52426195657E-02  0.19259239471E-01 -0.13612244402E-01  0.10197701870E+01  0.10194839566E+01 0.  0.
     999903    2    3    3    0    0  0.38006700845E-01 -0.11796347596E+00  0.24384851439E-01  0.12772347416E+00  0.18941327910E-01 0.  0.
         14    1    1    2    0    0 -0.52426195657E-02 -0.19259239471E-01  0.13612244402E-01  0.24159812967E-01  0.00000000000E+00 0.  1.
     999901    1    3    3    0    0 -0.32764081279E-01  0.13722271543E+00 -0.37997095841E-01  0.89204671287E+00  0.88000000000E+00 0. -1.
        -11    1    4    4    0    0  0.21012800496E-01 -0.44868122701E-01  0.27637004087E-02  0.49624443376E-01  0.51100000000E-03 0.  1.
         11    1    4    4    0    0  0.16993900349E-01 -0.73095353257E-01  0.21621151031E-01  0.78099030786E-01  0.51100000000E-03 0. -1.
</event>
<event>
 8    1  0.1052028E+005  0.1043930E+01  0.7957747E-01            NaN
         13   -1    0    0    0    0  0.00000000000E+00  0.00000000000E+00  0.74505805969E-08  0.10566000000E+00  0.10566000000E+00 0.  1.
     999900   -1    0    0    0    0 -0.00000000000E+00 -0.00000000000E+00 -0.74505805969E-08  0.93827000000E+00  0.93827000000E+00 0. -1.
     999902    2    1    2    0    0 -0.87720768442E-02  0.20217487526E-01  0.93976588464E-02  0.10199714498E+01  0.10196900246E+01 0.  0.
     999903    2    3    3    0    0 -0.36601615360E-01  0.41821678302E-01  0.11857271118E+00  0.13252544228E+00  0.20366000927E-01 0.  0.
         14    1    1    2    0    0  0.87720768442E-02 -0.20217487526E-01 -0.93976588464E-02  0.23958550161E-01  0.00000000000E+00 0. -1.
     999901    1    3    3    0    0  0.27829538515E-01 -0.21604190776E-01 -0.10917505233E+00  0.88744600755E+00  0.88000000000E+00 0. -1.
        -11    1    4    4    0    0 -0.35551526866E-03  0.89444115792E-02  0.99871411947E-02  0.13421363561E-01  0.51100000000E-03 0.  1.
         11    1    4    4    0    0 -0.36246100091E-01  0.32877266722E-01  0.10858556998E+00  0.11910407872E+00  0.51100000000E-03 0. -1.
</event>
<event>
 8    1  0.1052028E+005  0.1043930E+01  0.7957747E-01            NaN
         13   -1    0    0    0    0  0.00000000000E+00  0.00000000000E+00  0.74505805969E-08  0.10566000000E+00  0.10566000000E+00 0. -1.
     999900   -1    0    0    0    0 -0.00000000000E+00 -0.00000000000E+00 -0.74505805969E-08  0.93827000000E+00  0.93827000000E+00 0. -1.
     999902    2    1    2    0    0  0.17787694434E-01 -0.15835021290E-01 -0.57529587452E-02  0.10194300713E+01  0.10191356258E+01 0.  0.
     999903    2    3    3    0    0  0.12420710523E-01 -0.75139392302E-01  0.10410547453E+00  0.13060236678E+00  0.20465240207E-01 0.  0.
         14    1    1    2    0    0 -0.17787694434E-01  0.15835021290E-01  0.57529587452E-02  0.24499928711E-01  0.00000000000E+00 0.  1.
     999901    1    3    3    0    0  0.53669839110E-02  0.59304371012E-01 -0.10985843327E+00  0.88882770451E+00  0.88000000000E+00 0. -1.
        -11    1    4    4    0    0  0.14079037899E-01 -0.25049352823E-01  0.37569439029E-01  0.47301302888E-01  0.51100000000E-03 0.  1.
         11    1    4    4    0    0 -0.16583273757E-02 -0.50090039479E-01  0.66536035500E-01  0.83301063893E-01  0.51100000000E-03 0. -1.
</event>
<event>
 8    1  0.1052028E+005  0.1043930E+01  0.7957747E-01            NaN
         13   -1    0    0    0    0  0.00000000000E+00  0.00000000000E+00  0.74505805969E-08  0.10566000000E+00  0.10566000000E+00 0.  1.
     999900   -1    0    0    0    0 -0.00000000000E+00 -0.00000000000E+00 -0.74505805969E-08  0.93827000000E+00  0.93827000000E+00 0. -1.
     999902    2    1    2    0    0  0.11702861332E-01  0.15383561815E-01 -0.83832630735E-02  0.10228613020E+01  0.10226442945E+01 0.  0.
     999903    2    3    3    0    0  0.98219729771E-01 -0.38817577594E-01  0.77974817840E-01  0.13275981888E+00  0.19778211375E-01 0.  0.
         14    1    1    2    0    0 -0.11702861332E-01 -0.15383561815E-01  0.83832630735E-02  0.21068698043E-01  0.00000000000E+00 0.  1.
     999901    1    3    3    0    0 -0.86516868439E-01  0.54201139410E-01 -0.86358080914E-01  0.89010148308E+00  0.88000000000E+00 0. -1.
        -11    1    4    4    0    0  0.36031429583E-01 -0.14535748857E-01  0.40811543156E-01  0.56350644081E-01  0.51100000000E-03 0. -1.
         11    1    4    4    0    0  0.62188300188E-01 -0.24281828738E-01  0.37163274684E-01  0.76409174798E-01  0.51100000000E-03 0.  1.
</event>
<event>
 8    1  0.1052028E+005  0.1043930E+01  0.7957747E-01            NaN
         13   -1    0    0    0    0  0.00000000000E+00  0.00000000000E+00  0.74505805969E-08  0.10566000000E+00  0.10566000000E+00 0. -1.
     999900   -1    0    0    0    0 -0.00000000000E+00 -0.00000000000E+00 -0.74505805969E-08  0.93827000000E+00  0.93827000000E+00 0.  1.
     999902    2    1    2    0    0 -0.14646843196E-01 -0.10489198364E-01  0.15290408393E-01  0.10203005716E+01  0.10200269146E+01 0.  0.
     999903    2    3    3    0    0 -0.99634365839E-01 -0.48121084037E-01  0.72320997410E-01  0.13356976357E+00  0.19180966805E-01 0.  0.
         14    1    1    2    0    0  0.14646843196E-01  0.10489198364E-01 -0.15290408393E-01  0.23629428405E-01  0.00000000000E+00 0. -1.
     999901    1    3    3    0    0  0.84987522643E-01  0.37631885673E-01 -0.57030589017E-01  0.88673080803E+00  0.88000000000E+00 0.  1.
        -11    1    4    4    0    0 -0.56740363552E-01 -0.19373878149E-01  0.46242720463E-01  0.75719656149E-01  0.51100000000E-03 0. -1.
         11    1    4    4    0    0 -0.42894002287E-01 -0.28747205888E-01  0.26078276947E-01  0.57850107416E-01  0.51100000000E-03 0.  1.
</event>
<event>
 8    1  0.1052028E+005  0.1043930E+01  0.7957747E-01            NaN
         13   -1    0    0    0    0  0.00000000000E+00  0.00000000000E+00  0.74505805969E-08  0.10566000000E+00  0.10566000000E+00 0. -1.
     999900   -1    0    0    0    0 -0.00000000000E+00 -0.00000000000E+00 -0.74505805969E-08  0.93827000000E+00  0.93827000000E+00 0.  1.
     999902    2    1    2    0    0 -0.12916838993E-01  0.80951679674E-02  0.17781397073E-01  0.10205087584E+01  0.10202399578E+01 0.  0.
     999903    2    3    3    0    0 -0.11728775838E+00  0.54299760496E-01  0.24596290607E-01  0.13311110465E+00  0.20216488711E-01 0.  0.
         14    1    1    2    0    0  0.12916838993E-01 -0.80951679674E-02 -0.17781397073E-01  0.23421241553E-01  0.00000000000E+00 0.  1.
     999901    1    3    3    0    0  0.10437091938E+00 -0.46204592529E-01 -0.68148935336E-02  0.88739765379E+00  0.88000000000E+00 0.  1.
        -11    1    4    4    0    0 -0.10244831841E+00  0.39413964113E-01  0.21577903564E-01  0.11187039625E+00  0.51100000000E-03 0.  1.
         11    1    4    4    0    0 -0.14839439962E-01  0.14885796383E-01  0.30183870431E-02  0.21240708408E-01  0.51100000000E-03 0. -1.
</event>
<event>
 8    1  0.1052028E+005  0.1043930E+01  0.7957747E-01            NaN
         13   -1    0    0    0    0  0.00000000000E+00  0.00000000000E+00  0.74505805969E-08  0.10566000000E+00  0.10566000000E+00 0. -1.
     999900   -1    0    0    0    0 -0.00000000000E+00 -0.00000000000E+00 -0.74505805969E-08  0.93827000000E+00  0.93827000000E+00 0.  1.
     999902    2    1    2    0    0 -0.80644080937E-02 -0.20076190936E-01  0.67883695679E-02  0.10212546812E+01  0.10210029157E+01 0.  0.
     999903    2    3    3    0    0  0.10691943807E-01  0.10551908683E+00 -0.70361100515E-01  0.12879851128E+00  0.19742763092E-01 0.  0.
         14    1    1    2    0    0  0.80644080937E-02  0.20076190936E-01 -0.67883695679E-02  0.22675318780E-01  0.00000000000E+00 0. -1.
     999901    1    3    3    0    0 -0.18756351901E-01 -0.12559527776E+00  0.77149470083E-01  0.89245616994E+00  0.88000000000E+00 0. -1.
        -11    1    4    4    0    0  0.11753403806E-01  0.89081462129E-01 -0.50800348985E-01  0.10322105393E+00  0.51100000000E-03 0.  1.
         11    1    4    4    0    0 -0.10614599993E-02  0.16437624698E-01 -0.19560751530E-01  0.25577457349E-01  0.51100000000E-03 0. -1.
</event>
<event>
 8    1  0.1052028E+005  0.1043930E+01  0.7957747E-01            NaN
         13   -1    0    0    0    0  0.00000000000E+00  0.00000000000E+00  0.74505805969E-08  0.10566000000E+00  0.10566000000E+00 0.  1.
     999900   -1    0    0    0    0 -0.00000000000E+00 -0.00000000000E+00 -0.74505805969E-08  0.93827000000E+00  0.93827000000E+00 0.  1.
     999902    2    1    2    0    0 -0.17319124423E-01 -0.11963601134E-01  0.11260115508E-01  0.10200580494E+01  0.10197786790E+01 0.  0.
     999903    2    3    3    0    0 -0.47454473577E-01 -0.12140821982E+00  0.14959921827E-01  0.13275880318E+00  0.20229128938E-01 0.  0.
         14    1    1    2    0    0  0.17319124423E-01  0.11963601134E-01 -0.11260115508E-01  0.23871950573E-01  0.00000000000E+00 0.  1.
     999901    1    3    3    0    0  0.30135349154E-01  0.10944461869E+00 -0.36998063181E-02  0.88729924625E+00  0.88000000000E+00 0.  1.
        -11    1    4    4    0    0 -0.28131664187E-01 -0.95406356353E-01  0.12774597973E-01  0.10028566616E+00  0.51100000000E-03 0.  1.
         11    1    4    4    0    0 -0.19322809390E-01 -0.26001863468E-01  0.21853238533E-02  0.32473137019E-01  0.51100000000E-03 0. -1.
</event>
<event>
 8    1  0.1052028E+005  0.1043930E+01  0.7957747E-01            NaN
         13   -1    0    0    0    0  0.00000000000E+00  0.00000000000E+00  0.74505805969E-08  0.10566000000E+00  0.10566000000E+00 0. -1.
     999900   -1    0    0    0    0 -0.00000000000E+00 -0.00000000000E+00 -0.74505805969E-08  0.93827000000E+00  0.93827000000E+00 0.  1.
     999902    2    1    2    0    0  0.45880247061E-03  0.13378016925E-01  0.20124462981E-01  0.10197602700E+01  0.10194738018E+01 0.  0.
     999903    2    3    3    0    0  0.37380904042E-01  0.11389179567E+00 -0.47882665672E-01  0.13066453230E+00  0.20292787419E-01 0.  0.
         14    1    1    2    0    0 -0.45880247061E-03 -0.13378016925E-01 -0.20124462981E-01  0.24169729971E-01  0.00000000000E+00 0.  1.
     999901    1    3    3    0    0 -0.36922101571E-01 -0.10051377874E+00  0.68007128653E-01  0.88909573773E+00  0.88000000000E+00 0. -1.
        -11    1    4    4    0    0  0.21812895392E-01  0.78545555879E-01 -0.22943522284E-01  0.84686912150E-01  0.51100000000E-03 0.  1.
         11    1    4    4    0    0  0.15568008649E-01  0.35346239792E-01 -0.24939143388E-01  0.45977620150E-01  0.51100000000E-03 0. -1.
</event>
<event>
 8    1  0.1052028E+005  0.1043930E+01  0.7957747E-01            NaN
         13   -1    0    0    0    0  0.00000000000E+00  0.00000000000E+00  0.74505805969E-08  0.10566000000E+00  0.10566000000E+00 0.  1.
     999900   -1    0    0    0    0 -0.00000000000E+00 -0.00000000000E+00 -0.74505805969E-08  0.93827000000E+00  0.93827000000E+00 0. -1.
     999902    2    1    2    0    0 -0.11693560360E-01 -0.14205307728E-01 -0.11809318932E-01  0.10220670145E+01  0.10218331527E+01 0.  0.
     999903    2    3    3    0    0 -0.85308132931E-01  0.96633340732E-01  0.16968382449E-01  0.13159945900E+00  0.20371831574E-01 0.  0.
         14    1    1    2    0    0  0.11693560360E-01  0.14205307728E-01  0.11809318932E-01  0.21862985505E-01  0.00000000000E+00 0.  1.
     999901    1    3    3    0    0  0.73614572571E-01 -0.11083864846E+00 -0.28777701380E-01  0.89046755549E+00  0.88000000000E+00 0. -1.
        -11    1    4    4    0    0 -0.21512395348E-01  0.38704334546E-01  0.73639444839E-02  0.44892064618E-01  0.51100000000E-03 0. -1.
         11    1    4    4    0    0 -0.63795737583E-01  0.57929006186E-01  0.96044379647E-02  0.86707394385E-01  0.51100000000E-03 0.  1.
</event>
<event>
 8    1  0.1052028E+005  0.1043930E+01  0.7957747E-01            NaN
         13   -1    0    0    0    0  0.00000000000E+00  0.00000000000E+00  0.74505805969E-08  0.10566000000E+00  0.10566000000E+00 0.  1.
     999900   -1    0    0    0    0 -0.00000000000E+00 -0.00000000000E+00 -0.74505805969E-08  0.93827000000E+00  0.93827000000E+00 0. -1.
     999902    2    1    2    0    0 -0.57949505760E-02 -0.24255433092E-01 -0.52117993675E-02  0.10184531411E+01  0.10181344363E+01 0.  0.
     999903    2    3    3    0    0 -0.18997555058E-01  0.11339274924E+00  0.48367402109E-01  0.12604512809E+00  0.18142382693E-01 0.  0.
         14    1    1    2    0    0  0.57949505760E-02  0.24255433092E-01  0.52117993675E-02  0.25476858898E-01  0.00000000000E+00 0.  1.
     999901    1    3    3    0    0  0.13202604482E-01 -0.13764818233E+00 -0.53579201477E-01  0.89240801302E+00  0.88000000000E+00 0. -1.
        -11    1    4    4    0    0 -0.27732939710E-02  0.14485118946E-01  0.13273053478E-01  0.19848045243E-01  0.51100000000E-03 0.  1.
         11    1    4    4    0    0 -0.16224261087E-01  0.98907630292E-01  0.35094348631E-01  0.10619708284E+00  0.51100000000E-03 0. -1.
</event>
<event>
 8    1  0.1052028E+005  0.1043930E+01  0.7957747E-01            NaN
         13   -1    0    0    0    0  0.00000000000E+00  0.00000000000E+00  0.74505805969E-08  0.10566000000E+00  0.10566000000E+00 0. -1.
     999900   -1    0    0    0    0 -0.00000000000E+00 -0.00000000000E+00 -0.74505805969E-08  0.93827000000E+00  0.93827000000E+00 0. -1.
     999902    2    1    2    0    0  0.19115937087E-01  0.12675773838E-01  0.60469155909E-02  0.10202095556E+01  0.10199337615E+01 0.  0.
     999903    2    3    3    0    0 -0.30269732409E-02  0.12987268400E+00  0.13270469654E-01  0.13213433136E+00  0.20181663524E-01 0.  0.
         14    1    1    2    0    0 -0.19115937087E-01 -0.12675773838E-01 -0.60469155909E-02  0.23720444374E-01  0.00000000000E+00 0.  1.
     999901    1    3    3    0    0  0.22142910328E-01 -0.11719691016E+00 -0.72235540628E-02  0.88807522427E+00  0.88000000000E+00 0. -1.
        -11    1    4    4    0    0 -0.55339673712E-02  0.11593994613E+00  0.60402170999E-02  0.11623012195E+00  0.51100000000E-03 0. -1.
         11    1    4    4    0    0  0.25069941303E-02  0.13932737866E-01  0.72302525538E-02  0.15904209411E-01  0.51100000000E-03 0.  1.
</event>
<event>
 8    1  0.1052028E+005  0.1043930E+01  0.7957747E-01            NaN
         13   -1    0    0    0    0  0.00000000000E+00  0.00000000000E+00  0.74505805969E-08  0.10566000000E+00  0.10566000000E+00 0. -1.
     999900   -1    0    0    0    0 -0.00000000000E+00 -0.00000000000E+00 -0.74505805969E-08  0.93827000000E+00  0.93827000000E+00 0. -1.
     999902    2    1    2    0    0 -0.22214520345E-01  0.77002256848E-02 -0.24121654269E-02  0.10202953447E+01  0.10200215652E+01 0.  0.
     999903    2    3    3    0    0  0.11780351195E+00  0.21232958669E-01 -0.41822254264E-01  0.12825199410E+00  0.19260505617E-01 0.  0.
         14    1    1    2    0    0  0.22214520345E-01 -0.77002256848E-02  0.24121654269E-02  0.23634655314E-01  0.00000000000E+00 0. -1.
     999901    1    3    3    0    0 -0.14001803229E+00 -0.13532732984E-01  0.39410088837E-01  0.89204335059E+00  0.88000000000E+00 0.  1.
        -11    1    4    4    0    0  0.47815496705E-01  0.16769131008E-01 -0.22929863521E-01  0.55619827777E-01  0.51100000000E-03 0.  1.
         11    1    4    4    0    0  0.69988015244E-01  0.44638276607E-02 -0.18892390743E-01  0.72632166319E-01  0.51100000000E-03 0. -1.
</event>
<event>
 8    1  0.1052028E+005  0.1043930E+01  0.7957747E-01            NaN
         13   -1    0    0    0    0  0.00000000000E+00  0.00000000000E+00  0.74505805969E-08  0.10566000000E+00  0.10566000000E+00 0.  1.
     999900   -1    0    0    0    0 -0.00000000000E+00 -0.00000000000E+00 -0.74505805969E-08  0.93827000000E+00  0.93827000000E+00 0.  1.
     999902    2    1    2    0    0  0.37385874895E-04  0.13307121906E-01  0.19847842544E-01  0.10200340224E+01  0.10197540827E+01 0.  0.
     999903    2    3    3    0    0 -0.11879467601E-01  0.84004968403E-01  0.10095587167E+00  0.13340066567E+00  0.20141824922E-01 0.  0.
         14    1    1    2    0    0 -0.37385874895E-04 -0.13307121906E-01 -0.19847842544E-01  0.23895977586E-01  0.00000000000E+00 0. -1.
     999901    1    3    3    0    0  0.11916853475E-01 -0.70697846497E-01 -0.81108029124E-01  0.88663335674E+00  0.88000000000E+00 0.  1.
        -11    1    4    4    0    0 -0.15588303220E-01  0.59813571148E-01  0.80531813356E-01  0.10151991221E+00  0.51100000000E-03 0. -1.
         11    1    4    4    0    0  0.37088356197E-02  0.24191397255E-01  0.20424058312E-01  0.31880753469E-01  0.51100000000E-03 0.  1.
</event>
<event>
 8    1  0.1052028E+005  0.1043930E+01  0.7957747E-01            NaN
         13   -1    0    0    0    0  0.00000000000E+00  0.00000000000E+00  0.74505805969E-08  0.10566000000E+00  0.10566000000E+00 0. -1.
     999900   -1    0    0    0    0 -0.00000000000E+00 -0.00000000000E+00 -0.74505805969E-08  0.93827000000E+00  0.93827000000E+00 0.  1.
     999902    2    1    2    0    0  0.22828029304E-01 -0.25363168504E-02 -0.64977255163E-02  0.10200600972E+01  0.10197807752E+01 0.  0.
     999903    2    3    3    0    0  0.82725026150E-02 -0.96730761065E-01 -0.85642643403E-01  0.13138221698E+00  0.22390849339E-01 0.  0.
         14    1    1    2    0    0 -0.22828029304E-01  0.25363168504E-02  0.64977255163E-02  0.23869902848E-01  0.00000000000E+00 0.  1.
     999901    1    3    3    0    0  0.14555526689E-01  0.94194444214E-01  0.79144917887E-01  0.88867788017E+00  0.88000000000E+00 0. -1.
        -11    1    4    4    0    0  0.56330878073E-02 -0.27923964691E-01 -0.13088276044E-01  0.31353525689E-01  0.51100000000E-03 0.  1.
         11    1    4    4    0    0  0.26394148076E-02 -0.68806796373E-01 -0.72554367359E-01  0.10002869129E+00  0.51100000000E-03 0. -1.
</event>
<event>
 8    1  0.1052028E+005  0.1043930E+01  0.7957747E-01            NaN
         13   -1    0    0    0    0  0.00000000000E+00  0.00000000000E+00  0.74505805969E-08  0.10566000000E+00  0.10566000000E+00 0.  1.
     999900   -1    0    0    0    0 -0.00000000000E+00 -0.00000000000E+00 -0.74505805969E-08  0.93827000000E+00  0.93827000000E+00 0.  1.
     999902    2    1    2    0    0 -0.18586459348E-01  0.71554767013E-02 -0.75699173476E-02  0.10226236402E+01  0.10224016572E+01 0.  0.
     999903    2    3    3    0    0 -0.31164232773E-01 -0.86908098498E-01 -0.95760808814E-01  0.13313851394E+00  0.56128780329E-02 0.  0.
         14    1    1    2    0    0  0.18586459348E-01 -0.71554767013E-02  0.75699173476E-02  0.21306359768E-01  0.00000000000E+00 0.  1.
     999901    1    3    3    0    0  0.12577773425E-01  0.94063575199E-01  0.88190891466E-01  0.88948512630E+00  0.88000000000E+00 0. -1.
        -11    1    4    4    0    0 -0.14586654403E-01 -0.37894344546E-01 -0.45827950623E-01  0.61230825688E-01  0.51100000000E-03 0.  1.
         11    1    4    4    0    0 -0.16577578370E-01 -0.49013753952E-01 -0.49932858191E-01  0.71907688248E-01  0.51100000000E-03 0. -1.
</event>
<event>
 8    1  0.1052028E+005  0.1043930E+01  0.7957747E-01            NaN
         13   -1    0    0    0    0  0.00000000000E+00  0.00000000000E+00  0.74505805969E-08  0.10566000000E+00  0.10566000000E+00 0. -1.
     999900   -1    0    0    0    0 -0.00000000000E+00 -0.00000000000E+00 -0.74505805969E-08  0.93827000000E+00  0.93827000000E+00 0.  1.
     999902    2    1    2    0    0  0.15436222110E-01 -0.12403420539E-01  0.13088926839E-01  0.10201930710E+01  0.10199168889E+01 0.  0.
     999903    2    3    3    0    0 -0.14711598629E-01 -0.18209871680E-01 -0.12527105711E+00  0.12885357833E+00  0.19036185029E-01 0.  0.
         14    1    1    2    0    0 -0.15436222110E-01  0.12403420539E-01 -0.13088926839E-01  0.23736929032E-01  0.00000000000E+00 0.  1.
     999901    1    3    3    0    0  0.30147820739E-01  0.58064511407E-02  0.13835998394E+00  0.89133949263E+00  0.88000000000E+00 0. -1.
        -11    1    4    4    0    0 -0.18634978771E-01 -0.10230284520E-01 -0.87654009530E-01  0.90196494737E-01  0.51100000000E-03 0. -1.
         11    1    4    4    0    0  0.39233801418E-02 -0.79795871592E-02 -0.37617047576E-01  0.38657083598E-01  0.51100000000E-03 0.  1.
</event>
<event>
 8    1  0.1052028E+005  0.1043930E+01  0.7957747E-01            NaN
         13   -1    0    0    0    0  0.00000000000E+00  0.00000000000E+00  0.74505805969E-08  0.10566000000E+00  0.10566000000E+00 0. -1.
     999900   -1    0    0    0    0 -0.00000000000E+00 -0.00000000000E+00 -0.74505805969E-08  0.93827000000E+00  0.93827000000E+00 0. -1.
     999902    2    1    2    0    0 -0.12612386881E-01 -0.31127914490E-02  0.15261271650E-01  0.10238883387E+01  0.10236921715E+01 0.  0.
     999903    2    3    3    0    0 -0.12288481333E+00 -0.49387387028E-01 -0.17839795914E-01  0.13518308564E+00  0.20406297553E-01 0.  0.
         14    1    1    2    0    0  0.12612386881E-01  0.31127914490E-02 -0.15261271650E-01  0.20041661254E-01  0.00000000000E+00 0. -1.
     999901    1    3    3    0    0  0.11027242645E+00  0.46274595579E-01  0.33101067564E-01  0.88870525311E+00  0.88000000000E+00 0.  1.
        -11    1    4    4    0    0 -0.10839055873E+00 -0.46437477127E-01 -0.97665000402E-02  0.11832412327E+00  0.51100000000E-03 0.  1.
         11    1    4    4    0    0 -0.14494254594E-01 -0.29499099010E-02 -0.80732958739E-02  0.16858962362E-01  0.51100000000E-03 0. -1.
</event>
<event>
 8    1  0.1052028E+005  0.1043930E+01  0.7957747E-01            NaN
         13   -1    0    0    0    0  0.00000000000E+00  0.00000000000E+00  0.74505805969E-08  0.10566000000E+00  0.10566000000E+00 0.  1.
     999900   -1    0    0    0    0 -0.00000000000E+00 -0.00000000000E+00 -0.74505805969E-08  0.93827000000E+00  0.93827000000E+00 0.  1.
     999902    2    1    2    0    0  0.16171968419E-01  0.15695774743E-01 -0.70368028024E-02  0.10203205421E+01  0.10200473529E+01 0.  0.
     999903    2    3    3    0    0  0.37594865368E-01  0.48814549853E-01 -0.11597050682E+00  0.13272697205E+00  0.19262826319E-01 0.  0.
         14    1    1    2    0    0 -0.16171968419E-01 -0.15695774743E-01  0.70368028024E-02  0.23609457872E-01  0.00000000000E+00 0.  1.
     999901    1    3    3    0    0 -0.21422896950E-01 -0.33118775110E-01  0.10893370402E+00  0.88759357008E+00  0.88000000000E+00 0. -1.
        -11    1    4    4    0    0  0.34887836850E-02  0.51613062839E-02 -0.30637435052E-02  0.69612024409E-02  0.51100000000E-03 0.  1.
         11    1    4    4    0    0  0.34106081684E-01  0.43653243569E-01 -0.11290676331E+00  0.12576576961E+00  0.51100000000E-03 0. -1.
</event>
<event>
 8    1  0.1052028E+005  0.1043930E+01  0.7957747E-01            NaN
         13   -1    0    0    0    0  0.00000000000E+00  0.00000000000E+00  0.74505805969E-08  0.10566000000E+00  0.10566000000E+00 0.  1.
     999900   -1    0    0    0    0 -0.00000000000E+00 -0.00000000000E+00 -0.74505805969E-08  0.93827000000E+00  0.93827000000E+00 0.  1.
     999902    2    1    2    0    0  0.17309839224E-01  0.11655923681E-01  0.91195081633E-02  0.10211559683E+01  0.10209019811E+01 0.  0.
     999903    2    3    3    0    0  0.94210984406E-01 -0.39081586532E-01 -0.80844998935E-01  0.13178445222E+00  0.20691737623E-01 0.  0.
         14    1    1    2    0    0 -0.17309839224E-01 -0.11655923681E-01 -0.91195081633E-02  0.22774031701E-01  0.00000000000E+00 0.  1.
     999901    1    3    3    0    0 -0.76901145182E-01  0.50737510212E-01  0.89964507098E-01  0.88937151608E+00  0.88000000000E+00 0. -1.
        -11    1    4    4    0    0  0.64990775687E-01 -0.21355735193E-01 -0.43066783776E-01  0.80838588161E-01  0.51100000000E-03 0.  1.
         11    1    4    4    0    0  0.29220208719E-01 -0.17725851339E-01 -0.37778215158E-01  0.50945864060E-01  0.51100000000E-03 0. -1.
</event>
<event>
 8    1  0.1052028E+005  0.1043930E+01  0.7957747E-01            NaN
         13   -1    0    0    0    0  0.00000000000E+00  0.00000000000E+00  0.74505805969E-08  0.10566000000E+00  0.10566000000E+00 0.  1.
     999900   -1    0    0    0    0 -0.00000000000E+00 -0.00000000000E+00 -0.74505805969E-08  0.93827000000E+00  0.93827000000E+00 0. -1.
     999902    2    1    2    0    0 -0.41683289930E-02  0.18478949172E-01  0.13644612348E-01  0.10205842943E+01  0.10203172447E+01 0.  0.
     999903    2    3    3    0    0 -0.94220932122E-01 -0.56728310164E-01 -0.65063423714E-01  0.12931522261E+00  0.19836644616E-01 0.  0.
         14    1    1    2    0    0  0.41683289930E-02 -0.18478949172E-01 -0.13644612348E-01  0.23345705712E-01  0.00000000000E+00 0.  1.
     999901    1    3    3    0    0  0.90052603129E-01  0.75207259335E-01  0.78708036061E-01  0.89126907168E+00  0.88000000000E+00 0.  1.
        -11    1    4    4    0    0 -0.57228038609E-01 -0.33940985542E-01 -0.50348067753E-01  0.83439966144E-01  0.51100000000E-03 0. -1.
         11    1    4    4    0    0 -0.36992893513E-01 -0.22787324622E-01 -0.14715355960E-01  0.45875256467E-01  0.51100000000E-03 0.  1.
</event>
<event>
 8    1  0.1052028E+005  0.1043930E+01  0.7957747E-01            NaN
         13   -1    0    0    0    0  0.00000000000E+00  0.00000000000E+00  0.74505805969E-08  0.10566000000E+00  0.10566000000E+00 0. -1.
     999900   -1    0    0    0    0 -0.00000000000E+00 -0.00000000000E+00 -0.74505805969E-08  0.93827000000E+00  0.93827000000E+00 0.  1.
     999902    2    1    2    0    0 -0.81251894862E-02  0.78671956043E-02 -0.20527608523E-01  0.10204929741E+01  0.10202238068E+01 0.  0.
     999903    2    3    3    0    0 -0.69837370563E-01 -0.10292843295E-01  0.10626828569E+00  0.12908095989E+00  0.19640384721E-01 0.  0.
         14    1    1    2    0    0  0.81251894862E-02 -0.78671956043E-02  0.20527608523E-01  0.23437025889E-01  0.00000000000E+00 0.  1.
     999901    1    3    3    0    0  0.61712181076E-01  0.18160038900E-01 -0.12679589422E+00  0.89141201422E+00  0.88000000000E+00 0.  1.
        -11    1    4    4    0    0 -0.14446262100E-01 -0.87744978491E-03  0.99462390743E-02  0.17568528667E-01  0.51100000000E-03 0. -1.
         11    1    4    4    0    0 -0.55391108462E-01 -0.94153935105E-02  0.96322046619E-01  0.11151243122E+00  0.51100000000E-03 0.  1.
</event>
<event>
 8    1  0.1052028E+005  0.1043930E+01  0.7957747E-01            NaN
         13   -1    0    0    0    0  0.00000000000E+00  0.00000000000E+00  0.74505805969E-08  0.10566000000E+00  0.10566000000E+00 0.  1.
     999900   -1    0    0    0    0 -0.00000000000E+00 -0.00000000000E+00 -0.74505805969E-08  0.93827000000E+00  0.93827000000E+00 0. -1.
     999902    2    1    2    0    0 -0.17778869495E-01 -0.97696835318E-02  0.12061942808E-01  0.10203286148E+01  0.10200556146E+01 0.  0.
     999903    2    3    3    0    0 -0.66104871099E-01 -0.32564864714E-01  0.10934631404E+00  0.13335664708E+00  0.19926227169E-01 0.  0.
         14    1    1    2    0    0  0.17778869495E-01  0.97696835318E-02 -0.12061942808E-01  0.23601385153E-01  0.00000000000E+00 0. -1.
     999901    1    3    3    0    0  0.48326001603E-01  0.22795181183E-01 -0.97284371234E-01  0.88697196777E+00  0.88000000000E+00 0. -1.
        -11    1    4    4    0    0 -0.24526318908E-01 -0.19401208552E-01  0.58747044465E-01  0.66553914737E-01  0.51100000000E-03 0.  1.
         11    1    4    4    0    0 -0.41578552191E-01 -0.13163656163E-01  0.50599269577E-01  0.66802732344E-01  0.51100000000E-03 0. -1.
</event>
<event>
 8    1  0.1052028E+005  0.1043930E+01  0.7957747E-01            NaN
         13   -1    0    0    0    0  0.00000000000E+00  0.00000000000E+00  0.74505805969E-08  0.10566000000E+00  0.10566000000E+00 0. -1.
     999900   -1    0    0    0    0 -0.00000000000E+00 -0.00000000000E+00 -0.74505805969E-08  0.93827000000E+00  0.93827000000E+00 0. -1.
     999902    2    1    2    0    0  0.45854215547E-02 -0.33724899343E-02  0.21073418301E-01  0.10221013780E+01  0.10218682587E+01 0.  0.
     999903    2    3    3    0    0 -0.13002142631E+00  0.71134609289E-02  0.33003447865E-02  0.13162687484E+00  0.18935925553E-01 0.  0.
         14    1    1    2    0    0 -0.45854215547E-02  0.33724899343E-02 -0.21073418301E-01  0.21828621992E-01  0.00000000000E+00 0.  1.
     999901    1    3    3    0    0  0.13460684787E+00 -0.10485950863E-01  0.17773073514E-01  0.89047450317E+00  0.88000000000E+00 0.  1.
        -11    1    4    4    0    0 -0.85469276787E-01  0.13611506842E-02 -0.62081248112E-02  0.85706778847E-01  0.51100000000E-03 0.  1.
         11    1    4    4    0    0 -0.44552149525E-01  0.57523102447E-02  0.95084695976E-02  0.45920095988E-01  0.51100000000E-03 0. -1.
</event>
<event>
 8    1  0.1052028E+005  0.1043930E+01  0.7957747E-01            NaN
         13   -1    0    0    0    0  0.00000000000E+00  0.00000000000E+00  0.74505805969E-08  0.10566000000E+00  0.10566000000E+00 0. -1.
     999900   -1    0    0    0    0 -0.00000000000E+00 -0.00000000000E+00 -0.74505805969E-08  0.93827000000E+00  0.93827000000E+00 0.  1.
     999902    2    1    2    0    0  0.15823370430E-01 -0.67140234603E-03  0.60913030747E-02  0.10269613876E+01  0.10268211908E+01 0.  0.
     999903    2    3    3    0    0  0.11376473581E+00 -0.61212904037E-01  0.45865683933E-01  0.13856970269E+00  0.20210561745E-01 0.  0.
         14    1    1    2    0    0 -0.15823370430E-01  0.67140234603E-03 -0.60913030747E-02  0.16968612378E-01  0.00000000000E+00 0.  1.
     999901    1    3    3    0    0 -0.97941365384E-01  0.60541501691E-01 -0.39774380858E-01  0.88839168493E+00  0.88000000000E+00 0.  1.
        -11    1    4    4    0    0  0.67770358218E-01 -0.36786739931E-01  0.37763026384E-01  0.85862640132E-01  0.51100000000E-03 0.  1.
         11    1    4    4    0    0  0.45994377596E-01 -0.24426164107E-01  0.81026575494E-02  0.52707062561E-01  0.51100000000E-03 0. -1.
</event>
<event>
 8    1  0.1052028E+005  0.1043930E+01  0.7957747E-01            NaN
         13   -1    0    0    0    0  0.00000000000E+00  0.00000000000E+00  0.74505805969E-08  0.10566000000E+00  0.10566000000E+00 0. -1.
     999900   -1    0    0    0    0 -0.00000000000E+00 -0.00000000000E+00 -0.74505805969E-08  0.93827000000E+00  0.93827000000E+00 0.  1.
     999902    2    1    2    0    0  0.13402133014E-01  0.19870917749E-01 -0.10133210459E-02  0.10199404739E+01  0.10196583119E+01 0.  0.
     999903    2    3    3    0    0 -0.48248033272E-01 -0.11147714575E+00  0.32534126971E-01  0.12742801572E+00  0.20601044468E-01 0.  0.
         14    1    1    2    0    0 -0.13402133014E-01 -0.19870917749E-01  0.10133210459E-02  0.23989526070E-01  0.00000000000E+00 0.  1.
     999901    1    3    3    0    0  0.61650166286E-01  0.13134806350E+00 -0.33547448017E-01  0.89251245821E+00  0.88000000000E+00 0. -1.
        -11    1    4    4    0    0 -0.42223931438E-02 -0.30792784061E-01  0.11436345510E-01  0.33122126649E-01  0.51100000000E-03 0.  1.
         11    1    4    4    0    0 -0.44025640129E-01 -0.80684361691E-01  0.21097781462E-01  0.94305889073E-01  0.51100000000E-03 0. -1.
</event>
<event>
 8    1  0.1052028E+005  0.1043930E+01  0.7957747E-01            NaN
         13   -1    0    0    0    0  0.00000000000E+00  0.00000000000E+00  0.74505805969E-08  0.10566000000E+00  0.10566000000E+00 0. -1.
     999900   -1    0    0    0    0 -0.00000000000E+00 -0.00000000000E+00 -0.74505805969E-08  0.93827000000E+00  0.93827000000E+00 0.  1.
     999902    2    1    2    0    0  0.14182375679E-02  0.86294656491E-02 -0.22836441805E-01  0.10194763265E+01  0.10191830052E+01 0.  0.
     999903    2    3    3    0    0 -0.11243226349E+00 -0.52259647582E-01  0.28117946478E-01  0.12859711445E+00  0.19352371745E-01 0.  0.
         14    1    1    2    0    0 -0.14182375679E-02 -0.86294656491E-02  0.22836441805E-01  0.24453673538E-01  0.00000000000E+00 0. -1.
     999901    1    3    3    0    0  0.11385050106E+00  0.60889113231E-01 -0.50954388283E-01  0.89087921201E+00  0.88000000000E+00 0.  1.
        -11    1    4    4    0    0 -0.31783067348E-01 -0.20649614067E-01  0.15941537214E-01  0.41121328540E-01  0.51100000000E-03 0.  1.
         11    1    4    4    0    0 -0.80649196145E-01 -0.31610033515E-01  0.12176409264E-01  0.87475785914E-01  0.51100000000E-03 0. -1.
</event>
<event>
 8    1  0.1052028E+005  0.1043930E+01  0.7957747E-01            NaN
         13   -1    0    0    0    0  0.00000000000E+00  0.00000000000E+00  0.74505805969E-08  0.10566000000E+00  0.10566000000E+00 0.  1.
     999900   -1    0    0    0    0 -0.00000000000E+00 -0.00000000000E+00 -0.74505805969E-08  0.93827000000E+00  0.93827000000E+00 0.  1.
     999902    2    1    2    0    0  0.17038021038E-01 -0.18733978962E-01  0.31254256051E-02  0.10184148199E+01  0.10180951434E+01 0.  0.
     999903    2    3    3    0    0 -0.83783615378E-01  0.74154225830E-01  0.55292923117E-01  0.12627432161E+00  0.19218572682E-01 0.  0.
         14    1    1    2    0    0 -0.17038021038E-01  0.18733978962E-01 -0.31254256051E-02  0.25515180067E-01  0.00000000000E+00 0. -1.
     999901    1    3    3    0    0  0.10082163642E+00 -0.92888204792E-01 -0.52167497512E-01  0.89214049833E+00  0.88000000000E+00 0. -1.
        -11    1    4    4    0    0 -0.43420194718E-01  0.46754024501E-01  0.39263383011E-01  0.74920801403E-01  0.51100000000E-03 0.  1.
         11    1    4    4    0    0 -0.40363420659E-01  0.27400201329E-01  0.16029540106E-01  0.51353520203E-01  0.51100000000E-03 0. -1.
</event>
<event>
 8    1  0.1052028E+005  0.1043930E+01  0.7957747E-01            NaN
         13   -1    0    0    0    0  0.00000000000E+00  0.00000000000E+00  0.74505805969E-08  0.10566000000E+00  0.10566000000E+00 0. -1.
     999900   -1    0    0    0    0 -0.00000000000E+00 -0.00000000000E+00 -0.74505805969E-08  0.93827000000E+00  0.93827000000E+00 0.  1.
     999902    2    1    2    0    0 -0.43390070073E-02 -0.19839247074E-01  0.10969868677E-01  0.10208483899E+01  0.10205874164E+01 0.  0.
     999903    2    3    3    0    0  0.87668989258E-01  0.58261180041E-01 -0.71433518086E-01  0.12879712105E+00  0.20142842601E-01 0.  0.
         14    1    1    2    0    0  0.43390070073E-02  0.19839247074E-01 -0.10969868677E-01  0.23081610106E-01  0.00000000000E+00 0. -1.
     999901    1    3    3    0    0 -0.92007996265E-01 -0.78100427115E-01  0.82403386764E-01  0.89205126884E+00  0.88000000000E+00 0. -1.
        -11    1    4    4    0    0  0.79119131049E-01  0.53064653943E-01 -0.56336919264E-01  0.11067883262E+00  0.51100000000E-03 0. -1.
         11    1    4    4    0    0  0.85498582084E-02  0.51965260976E-02 -0.15096598822E-01  0.18118288436E-01  0.51100000000E-03 0.  1.
</event>
<event>
 8    1  0.1052028E+005  0.1043930E+01  0.7957747E-01            NaN
         13   -1    0    0    0    0  0.00000000000E+00  0.00000000000E+00  0.74505805969E-08  0.10566000000E+00  0.10566000000E+00 0. -1.
     999900   -1    0    0    0    0 -0.00000000000E+00 -0.00000000000E+00 -0.74505805969E-08  0.93827000000E+00  0.93827000000E+00 0.  1.
     999902    2    1    2    0    0  0.13835358840E-01  0.20303889193E-01 -0.14618989914E-01  0.10153401428E+01  0.10149375476E+01 0.  0.
     999903    2    3    3    0    0  0.50491263789E-01  0.32197882733E-01  0.10888008226E+00  0.12588123799E+00  0.20128149280E-01 0.  0.
         14    1    1    2    0    0 -0.13835358840E-01 -0.20303889193E-01  0.14618989914E-01  0.28589857234E-01  0.00000000000E+00 0. -1.
     999901    1    3    3    0    0 -0.36655904949E-01 -0.11893993540E-01 -0.12349907218E+00  0.88945890477E+00  0.88000000000E+00 0.  1.
        -11    1    4    4    0    0  0.23432019076E-01  0.95814831390E-02  0.63817445818E-01  0.68657059716E-01  0.51100000000E-03 0. -1.
         11    1    4    4    0    0  0.27059244713E-01  0.22616399594E-01  0.45062636445E-01  0.57224178277E-01  0.51100000000E-03 0.  1.
</event>
<event>
 8    1  0.1052028E+005  0.1043930E+01  0.7957747E-01            NaN
         13   -1    0    0    0    0  0.00000000000E+00  0.00000000000E+00  0.74505805969E-08  0.10566000000E+00  0.10566000000E+00 0. -1.
     999900   -1    0    0    0    0 -0.00000000000E+00 -0.00000000000E+00 -0.74505805969E-08  0.93827000000E+00  0.93827000000E+00 0. -1.
     999902    2    1    2    0    0  0.12620470903E-01 -0.12366070457E-01 -0.16310796257E-01  0.10198834190E+01  0.10195998971E+01 0.  0.
     999903    2    3    3    0    0 -0.87587529073E-01  0.80584219373E-01  0.40802961634E-01  0.12750268130E+00  0.20655759466E-01 0.  0.
         14    1    1    2    0    0 -0.12620470903E-01  0.12366070457E-01  0.16310796257E-01  0.24046581023E-01  0.00000000000E+00 0. -1.
     999901    1    3    3    0    0  0.10020799998E+00 -0.92950289830E-01 -0.57113757891E-01  0.89238073768E+00  0.88000000000E+00 0. -1.
        -11    1    4    4    0    0 -0.82928850091E-01  0.71574602705E-01  0.41904310279E-01  0.11728746852E+00  0.51100000000E-03 0. -1.
         11    1    4    4    0    0 -0.46586789819E-02  0.90096166681E-02 -0.11013486451E-02  0.10215212783E-01  0.51100000000E-03 0.  1.
</event>
<event>
 8    1  0.1052028E+005  0.1043930E+01  0.7957747E-01            NaN
         13   -1    0    0    0    0  0.00000000000E+00  0.00000000000E+00  0.74505805969E-08  0.10566000000E+00  0.10566000000E+00 0.  1.
     999900   -1    0    0    0    0 -0.00000000000E+00 -0.00000000000E+00 -0.74505805969E-08  0.93827000000E+00  0.93827000000E+00 0. -1.
     999902    2    1    2    0    0  0.15694274869E-02 -0.12254936197E-01  0.20080172416E-01  0.10203533190E+01  0.10200808966E+01 0.  0.
     999903    2    3    3    0    0  0.31149250166E-01 -0.12685716381E+00  0.78416841061E-02  0.13234520129E+00  0.19767258251E-01 0.  0.
         14    1    1    2    0    0 -0.15694274869E-02  0.12254936197E-01 -0.20080172416E-01  0.23576681024E-01  0.00000000000E+00 0. -1.
     999901    1    3    3    0    0 -0.29579822679E-01  0.11460222761E+00  0.12238488310E-01  0.88800811769E+00  0.88000000000E+00 0. -1.
        -11    1    4    4    0    0  0.28340020029E-01 -0.77301645571E-01  0.19339195538E-02  0.82357163071E-01  0.51100000000E-03 0.  1.
         11    1    4    4    0    0  0.28092301375E-02 -0.49555518238E-01  0.59077645523E-02  0.49988038218E-01  0.51100000000E-03 0. -1.
</event>
<event>
 8    1  0.1052028E+005  0.1043930E+01  0.7957747E-01            NaN
         13   -1    0    0    0    0  0.00000000000E+00  0.00000000000E+00  0.74505805969E-08  0.10566000000E+00  0.10566000000E+00 0. -1.
     999900   -1    0    0    0    0 -0.00000000000E+00 -0.00000000000E+00 -0.74505805969E-08  0.93827000000E+00  0.93827000000E+00 0. -1.
     999902    2    1    2    0    0 -0.12286638381E-01 -0.95775169968E-02  0.18869184366E-01  0.10194609086E+01  0.10191672129E+01 0.  0.
     999903    2    3    3    0    0  0.68213863291E-01 -0.10767669768E+00  0.18383316725E-01  0.13035798089E+00  0.20195407409E-01 0.  0.
         14    1    1    2    0    0  0.12286638381E-01  0.95775169968E-02 -0.18869184366E-01  0.24469091384E-01  0.00000000000E+00 0.  1.
     999901    1    3    3    0    0 -0.80500501671E-01  0.98099180682E-01  0.48586764079E-03  0.88910292772E+00  0.88000000000E+00 0. -1.
        -11    1    4    4    0    0  0.23849204095E-01 -0.21693886862E-01  0.29311633690E-02  0.32376876051E-01  0.51100000000E-03 0. -1.
         11    1    4    4    0    0  0.44364659196E-01 -0.85982810817E-01  0.15452153356E-01  0.97981104841E-01  0.51100000000E-03 0.  1.
</event>
<event>
 8    1  0.1052028E+005  0.1043930E+01  0.7957747E-01            NaN
         13   -1    0    0    0    0  0.00000000000E+00  0.00000000000E+00  0.74505805969E-08  0.10566000000E+00  0.10566000000E+00 0. -1.
     999900   -1    0    0    0    0 -0.00000000000E+00 -0.00000000000E+00 -0.74505805969E-08  0.93827000000E+00  0.93827000000E+00 0. -1.
     999902    2    1    2    0    0  0.61168902782E-03 -0.21855126563E-01 -0.89111168801E-02  0.10203200715E+01  0.10200468712E+01 0.  0.
     999903    2    3    3    0    0 -0.11604002494E+00 -0.59067405335E-01 -0.49710285859E-02  0.13183377426E+00  0.20029656695E-01 0.  0.
         14    1    1    2    0    0 -0.61168902782E-03  0.21855126563E-01  0.89111168801E-02  0.23609928518E-01  0.00000000000E+00 0. -1.
     999901    1    3    3    0    0  0.11665171397E+00  0.37212278772E-01 -0.39400882942E-02  0.88848629723E+00  0.88000000000E+00 0.  1.
        -11    1    4    4    0    0 -0.63125642554E-01 -0.30380366037E-01  0.71880809101E-02  0.70425442963E-01  0.51100000000E-03 0. -1.
         11    1    4    4    0    0 -0.52914382389E-01 -0.28687039298E-01 -0.12159109496E-01  0.61408331292E-01  0.51100000000E-03 0.  1.
</event>
<event>
 8    1  0.1099071E+005  0.1043930E+01  0.7957747E-01            NaN
         13   -1    0    0    0    0  0.00000000000E+00  0.00000000000E+00  0.74505805969E-08  0.10566000000E+00  0.10566000000E+00 0.  1.
     999900   -1    0    0    0    0 -0.00000000000E+00 -0.00000000000E+00 -0.74505805969E-08  0.93827000000E+00  0.93827000000E+00 0.  1.
     999902    2    1    2    0    0  0.27001657984E-02 -0.24731430163E-01  0.49805070181E-02  0.10185579685E+01  0.10182419139E+01 0.  0.
     999903    2    3    3    0    0 -0.93928434089E-02 -0.10787180176E+00  0.72750650077E-01  0.13196259597E+00  0.19922814259E-01 0.  0.
         14    1    1    2    0    0 -0.27001657984E-02  0.24731430163E-01 -0.49805070181E-02  0.25372031519E-01  0.00000000000E+00 0. -1.
     999901    1    3    3    0    0  0.12093009207E-01  0.83140371593E-01 -0.67770143059E-01  0.88659537251E+00  0.88000000000E+00 0. -1.
        -11    1    4    4    0    0  0.42168220592E-02 -0.41102303820E-01  0.34411001642E-01  0.53773219381E-01  0.51100000000E-03 0.  1.
         11    1    4    4    0    0 -0.13609665468E-01 -0.66769497937E-01  0.38339648435E-01  0.78189376593E-01  0.51100000000E-03 0. -1.
</event>
<event>
 8    1  0.1052028E+005  0.1043930E+01  0.7957747E-01            NaN
         13   -1    0    0    0    0  0.00000000000E+00  0.00000000000E+00  0.74505805969E-08  0.10566000000E+00  0.10566000000E+00 0.  1.
     999900   -1    0    0    0    0 -0.00000000000E+00 -0.00000000000E+00 -0.74505805969E-08  0.93827000000E+00  0.93827000000E+00 0. -1.
     999902    2    1    2    0    0 -0.78626535242E-02 -0.91994017949E-02 -0.20610719009E-01  0.10200291203E+01  0.10197490643E+01 0.  0.
     999903    2    3    3    0    0  0.46573680978E-02 -0.12973901904E+00 -0.74721922700E-02  0.13162652507E+00  0.20391280146E-01 0.  0.
         14    1    1    2    0    0  0.78626535242E-02  0.91994017949E-02  0.20610719009E-01  0.23900879731E-01  0.00000000000E+00 0.  1.
     999901    1    3    3    0    0 -0.12520021622E-01  0.12053961725E+00 -0.13138526739E-01  0.88840259520E+00  0.88000000000E+00 0. -1.
        -11    1    4    4    0    0  0.68633960175E-02 -0.24060139553E-01  0.38468237333E-02  0.25319077670E-01  0.51100000000E-03 0. -1.
         11    1    4    4    0    0 -0.22060279197E-02 -0.10567887949E+00 -0.11319016003E-01  0.10630744740E+00  0.51100000000E-03 0.  1.
</event>
<event>
 8    1  0.1052028E+005  0.1043930E+01  0.7957747E-01            NaN
         13   -1    0    0    0    0  0.00000000000E+00  0.00000000000E+00  0.74505805969E-08  0.10566000000E+00  0.10566000000E+00 0.  1.
     999900   -1    0    0    0    0 -0.00000000000E+00 -0.00000000000E+00 -0.74505805969E-08  0.93827000000E+00  0.93827000000E+00 0.  1.
     999902    2    1    2    0    0  0.18265923248E-01 -0.11387955909E-01 -0.99484388787E-02  0.10202171147E+01  0.10199414984E+01 0.  0.
     999903    2    3    3    0    0 -0.88108694843E-01  0.47602350380E-01 -0.79142654629E-01  0.12915973436E+00  0.19737054744E-01 0.  0.
         14    1    1    2    0    0 -0.18265923248E-01  0.11387955909E-01  0.99484388787E-02  0.23712885274E-01  0.00000000000E+00 0. -1.
     999901    1    3    3    0    0  0.10637461809E+00 -0.58990306289E-01  0.69194215750E-01  0.89105738037E+00  0.88000000000E+00 0. -1.
        -11    1    4    4    0    0 -0.54264040671E-01  0.18212085835E-01 -0.44907702613E-01  0.72754580992E-01  0.51100000000E-03 0. -1.
         11    1    4    4    0    0 -0.33844654172E-01  0.29390264545E-01 -0.34234952016E-01  0.56405153369E-01  0.51100000000E-03 0.  1.
</event>
<event>
 8    1  0.1052028E+005  0.1043930E+01  0.7957747E-01            NaN
         13   -1    0    0    0    0  0.00000000000E+00  0.00000000000E+00  0.74505805969E-08  0.10566000000E+00  0.10566000000E+00 0. -1.
     999900   -1    0    0    0    0 -0.00000000000E+00 -0.00000000000E+00 -0.74505805969E-08  0.93827000000E+00  0.93827000000E+00 0. -1.
     999902    2    1    2    0    0 -0.10662382701E-01  0.20184292757E-01  0.68154740987E-02  0.10201068439E+01  0.10198286279E+01 0.  0.
     999903    2    3    3    0    0  0.84917304062E-02 -0.12589780456E+00  0.26662247657E-03  0.12783460593E+00  0.20475563705E-01 0.  0.
         14    1    1    2    0    0  0.10662382701E-01 -0.20184292757E-01 -0.68154740987E-02  0.23823156091E-01  0.00000000000E+00 0.  1.
     999901    1    3    3    0    0 -0.19154113108E-01  0.14608209731E+00  0.65488516221E-02  0.89227223798E+00  0.88000000000E+00 0.  1.
        -11    1    4    4    0    0  0.54700431135E-04 -0.95042424022E-01  0.64029712516E-02  0.95259248989E-01  0.51100000000E-03 0.  1.
         11    1    4    4    0    0  0.84370299751E-02 -0.30855380534E-01 -0.61363487750E-02  0.32575356944E-01  0.51100000000E-03 0. -1.
</event>
<event>
 8    1  0.1052028E+005  0.1043930E+01  0.7957747E-01            NaN
         13   -1    0    0    0    0  0.00000000000E+00  0.00000000000E+00  0.74505805969E-08  0.10566000000E+00  0.10566000000E+00 0.  1.
     999900   -1    0    0    0    0 -0.00000000000E+00 -0.00000000000E+00 -0.74505805969E-08  0.93827000000E+00  0.93827000000E+00 0. -1.
     999902    2    1    2    0    0 -0.24731477970E-01  0.24818859749E-02  0.11387788341E-02  0.10190482280E+01  0.10187444176E+01 0.  0.
     999903    2    3    3    0    0  0.57402827445E-01  0.97129389719E-01  0.57867438739E-01  0.12836178770E+00  0.19972609446E-01 0.  0.
         14    1    1    2    0    0  0.24731477970E-01 -0.24818859749E-02 -0.11387788341E-02  0.24881771998E-01  0.00000000000E+00 0. -1.
     999901    1    3    3    0    0 -0.82134305415E-01 -0.94647503745E-01 -0.56728659905E-01  0.89068644031E+00  0.88000000000E+00 0.  1.
        -11    1    4    4    0    0  0.99301330113E-02  0.34999421661E-01  0.18639420767E-01  0.40881000303E-01  0.51100000000E-03 0. -1.
         11    1    4    4    0    0  0.47472694434E-01  0.62129968058E-01  0.39228017972E-01  0.87480787393E-01  0.51100000000E-03 0.  1.
</event>
<event>
 8    1  0.1052028E+005  0.1043930E+01  0.7957747E-01            NaN
         13   -1    0    0    0    0  0.00000000000E+00  0.00000000000E+00  0.74505805969E-08  0.10566000000E+00  0.10566000000E+00 0.  1.
     999900   -1    0    0    0    0 -0.00000000000E+00 -0.00000000000E+00 -0.74505805969E-08  0.93827000000E+00  0.93827000000E+00 0. -1.
     999902    2    1    2    0    0  0.23599898125E-01 -0.97962668890E-02  0.24914954317E-02  0.10182564808E+01  0.10179327734E+01 0.  0.
     999903    2    3    3    0    0  0.12662778503E+00 -0.29372830254E-01  0.10736093531E-01  0.13199130568E+00  0.20225774956E-01 0.  0.
         14    1    1    2    0    0 -0.23599898125E-01  0.97962668890E-02 -0.24914954317E-02  0.25673519158E-01  0.00000000000E+00 0.  1.
     999901    1    3    3    0    0 -0.10302788690E+00  0.19576563365E-01 -0.82445980994E-02  0.88626517517E+00  0.88000000000E+00 0.  1.
        -11    1    4    4    0    0  0.44227428276E-01 -0.20257190104E-01  0.41919427767E-02  0.48828809816E-01  0.51100000000E-03 0.  1.
         11    1    4    4    0    0  0.82400356750E-01 -0.91156401498E-02  0.65441507544E-02  0.83162495861E-01  0.51100000000E-03 0. -1.
</event>
<event>
 8    1  0.1052028E+005  0.1043930E+01  0.7957747E-01            NaN
         13   -1    0    0    0    0  0.00000000000E+00  0.00000000000E+00  0.74505805969E-08  0.10566000000E+00  0.10566000000E+00 0.  1.
     999900   -1    0    0    0    0 -0.00000000000E+00 -0.00000000000E+00 -0.74505805969E-08  0.93827000000E+00  0.93827000000E+00 0.  1.
     999902    2    1    2    0    0  0.62795816508E-02 -0.21897296949E-01  0.57879414722E-02  0.10204262763E+01  0.10201555570E+01 0.  0.
     999903    2    3    3    0    0  0.55903575308E-01 -0.10423475349E+00 -0.57216064152E-01  0.13295148672E+00  0.20305818271E-01 0.  0.
         14    1    1    2    0    0 -0.62795816508E-02  0.21897296949E-01 -0.57879414722E-02  0.23503723659E-01  0.00000000000E+00 0. -1.
     999901    1    3    3    0    0 -0.49623993658E-01  0.82337456540E-01  0.63004005624E-01  0.88747478963E+00  0.88000000000E+00 0. -1.
        -11    1    4    4    0    0  0.43858466463E-01 -0.66125234426E-01 -0.44662312179E-01  0.91055449911E-01  0.51100000000E-03 0.  1.
         11    1    4    4    0    0  0.12045108846E-01 -0.38109519063E-01 -0.12553751974E-01  0.41896036804E-01  0.51100000000E-03 0. -1.
</event>
<event>
 8    1  0.1052028E+005  0.1043930E+01  0.7957747E-01            NaN
         13   -1    0    0    0    0  0.00000000000E+00  0.00000000000E+00  0.74505805969E-08  0.10566000000E+00  0.10566000000E+00 0. -1.
     999900   -1    0    0    0    0 -0.00000000000E+00 -0.00000000000E+00 -0.74505805969E-08  0.93827000000E+00  0.93827000000E+00 0.  1.
     999902    2    1    2    0    0  0.17740415050E-01  0.75724039900E-02 -0.12013283500E-01  0.10212059465E+01  0.10209530854E+01 0.  0.
     999903    2    3    3    0    0 -0.60456454888E-01  0.11461155340E+00 -0.62798797189E-02  0.13125931779E+00  0.19969489444E-01 0.  0.
         14    1    1    2    0    0 -0.17740415050E-01 -0.75724039900E-02  0.12013283500E-01  0.22724053529E-01  0.00000000000E+00 0.  1.
     999901    1    3    3    0    0  0.78196869938E-01 -0.10703914941E+00 -0.57334037814E-02  0.88994662868E+00  0.88000000000E+00 0.  1.
        -11    1    4    4    0    0 -0.50012708103E-01  0.76749830158E-01 -0.89282107910E-03  0.91612584570E-01  0.51100000000E-03 0.  1.
         11    1    4    4    0    0 -0.10443746785E-01  0.37861723240E-01 -0.53870586398E-02  0.39646733225E-01  0.51100000000E-03 0. -1.
</event>
<event>
 8    1  0.1052028E+005  0.1043930E+01  0.7957747E-01            NaN
         13   -1    0    0    0    0  0.00000000000E+00  0.00000000000E+00  0.74505805969E-08  0.10566000000E+00  0.10566000000E+00 0. -1.
     999900   -1    0    0    0    0 -0.00000000000E+00 -0.00000000000E+00 -0.74505805969E-08  0.93827000000E+00  0.93827000000E+00 0. -1.
     999902    2    1    2    0    0  0.24014324175E-01  0.19103318398E-02 -0.39521398808E-03  0.10198365709E+01  0.10195519300E+01 0.  0.
     999903    2    3    3    0    0  0.65482924327E-01 -0.35588901345E-01  0.10657464758E+00  0.13159764548E+00  0.20129617769E-01 0.  0.
         14    1    1    2    0    0 -0.24014324175E-01 -0.19103318398E-02  0.39521398808E-03  0.24093429134E-01  0.00000000000E+00 0. -1.
     999901    1    3    3    0    0 -0.41468600152E-01  0.37499233184E-01 -0.10696986157E+00  0.88823892539E+00  0.88000000000E+00 0. -1.
        -11    1    4    4    0    0  0.29546179659E-01 -0.19498750691E-01  0.66947674793E-01  0.75732623698E-01  0.51100000000E-03 0. -1.
         11    1    4    4    0    0  0.35936744668E-01 -0.16090150653E-01  0.39626972787E-01  0.55865021782E-01  0.51100000000E-03 0.  1.
</event>
<event>
 8    1  0.1052028E+005  0.1043930E+01  0.7957747E-01            NaN
         13   -1    0    0    0    0  0.00000000000E+00  0.00000000000E+00  0.74505805969E-08  0.10566000000E+00  0.10566000000E+00 0. -1.
     999900   -1    0    0    0    0 -0.00000000000E+00 -0.00000000000E+00 -0.74505805969E-08  0.93827000000E+00  0.93827000000E+00 0.  1.
     999902    2    1    2    0    0  0.22542940875E-01 -0.44182530502E-02 -0.85915485201E-02  0.10194040984E+01  0.10191090207E+01 0.  0.
     999903    2    3    3    0    0  0.11854909476E+00 -0.46397282604E-01  0.30021546689E-01  0.13234694600E+00  0.20194681175E-01 0.  0.
         14    1    1    2    0    0 -0.22542940875E-01  0.44182530502E-02  0.85915485201E-02  0.24525901600E-01  0.00000000000E+00 0. -1.
     999901    1    3    3    0    0 -0.96006153886E-01  0.41979029553E-01 -0.38613095209E-01  0.88705715240E+00  0.88000000000E+00 0.  1.
        -11    1    4    4    0    0  0.11545431877E-01 -0.42386189613E-02 -0.30389688162E-02  0.12679090677E-01  0.51100000000E-03 0.  1.
         11    1    4    4    0    0  0.10700366288E+00 -0.42158663642E-01  0.33060515505E-01  0.11966785532E+00  0.51100000000E-03 0. -1.
</event>
<event>
 8    1  0.1052028E+005  0.1043930E+01  0.7957747E-01            NaN
         13   -1    0    0    0    0  0.00000000000E+00  0.00000000000E+00  0.74505805969E-08  0.10566000000E+00  0.10566000000E+00 0. -1.
     999900   -1    0    0    0    0 -0.00000000000E+00 -0.00000000000E+00 -0.74505805969E-08  0.93827000000E+00  0.93827000000E+00 0.  1.
     999902    2    1    2    0    0  0.14438256359E-01  0.20890761486E-01 -0.12163437682E-01  0.10157726497E+01  0.10153823119E+01 0.  0.
     999903    2    3    3    0    0  0.55068119873E-01 -0.99125811089E-01  0.47683934734E-01  0.12468540842E+00  0.20353603901E-01 0.  0.
         14    1    1    2    0    0 -0.14438256359E-01 -0.20890761486E-01  0.12163437682E-01  0.28157350344E-01  0.00000000000E+00 0. -1.
     999901    1    3    3    0    0 -0.40629863513E-01  0.12001657257E+00 -0.59847372416E-01  0.89108724123E+00  0.88000000000E+00 0.  1.
        -11    1    4    4    0    0  0.48806823489E-01 -0.82061087796E-01  0.32083071986E-01  0.10072592903E+00  0.51100000000E-03 0. -1.
         11    1    4    4    0    0  0.62612963832E-02 -0.17064723293E-01  0.15600862748E-01  0.23959479396E-01  0.51100000000E-03 0.  1.
</event>
<event>
 8    1  0.1052028E+005  0.1043930E+01  0.7957747E-01            NaN
         13   -1    0    0    0    0  0.00000000000E+00  0.00000000000E+00  0.74505805969E-08  0.10566000000E+00  0.10566000000E+00 0. -1.
     999900   -1    0    0    0    0 -0.00000000000E+00 -0.00000000000E+00 -0.74505805969E-08  0.93827000000E+00  0.93827000000E+00 0.  1.
     999902    2    1    2    0    0  0.20167166556E-02  0.13328524449E-01  0.19770531751E-01  0.10200011338E+01  0.10197204138E+01 0.  0.
     999903    2    3    3    0    0  0.16491372767E-01 -0.90089743502E-01 -0.86450997450E-01  0.12748342136E+00  0.19751468365E-01 0.  0.
         14    1    1    2    0    0 -0.20167166556E-02 -0.13328524449E-01 -0.19770531751E-01  0.23928866162E-01  0.00000000000E+00 0.  1.
     999901    1    3    3    0    0 -0.14474656111E-01  0.10341826795E+00  0.10622152920E+00  0.89251771247E+00  0.88000000000E+00 0. -1.
        -11    1    4    4    0    0  0.88267315334E-02 -0.58340628739E-01 -0.67750947649E-01  0.89844266258E-01  0.51100000000E-03 0.  1.
         11    1    4    4    0    0  0.76646412333E-02 -0.31749114763E-01 -0.18700049800E-01  0.37639155105E-01  0.51100000000E-03 0. -1.
</event>
<event>
 8    1  0.1052028E+005  0.1043930E+01  0.7957747E-01            NaN
         13   -1    0    0    0    0  0.00000000000E+00  0.00000000000E+00  0.74505805969E-08  0.10566000000E+00  0.10566000000E+00 0.  1.
     999900   -1    0    0    0    0 -0.00000000000E+00 -0.00000000000E+00 -0.74505805969E-08  0.93827000000E+00  0.93827000000E+00 0.  1.
     999902    2    1    2    0    0  0.18692718824E-01 -0.11773570273E-01  0.65706048023E-02  0.10208820599E+01  0.10206218559E+01 0.  0.
     999903    2    3    3    0    0  0.33193853745E-01 -0.70318307616E-01  0.10629722324E+00  0.13319790010E+00  0.19901874548E-01 0.  0.
         14    1    1    2    0    0 -0.18692718824E-01  0.11773570273E-01 -0.65706048023E-02  0.23047940070E-01  0.00000000000E+00 0. -1.
     999901    1    3    3    0    0 -0.14501134921E-01  0.58544737343E-01 -0.99726618438E-01  0.88768415983E+00  0.88000000000E+00 0.  1.
        -11    1    4    4    0    0  0.19281689673E-01 -0.39503637740E-01  0.75990424732E-01  0.87790242757E-01  0.51100000000E-03 0. -1.
         11    1    4    4    0    0  0.13912164072E-01 -0.30814669877E-01  0.30306798508E-01  0.45407657345E-01  0.51100000000E-03 0.  1.
</event>
<event>
 8    1  0.1052028E+005  0.1043930E+01  0.7957747E-01            NaN
         13   -1    0    0    0    0  0.00000000000E+00  0.00000000000E+00  0.74505805969E-08  0.10566000000E+00  0.10566000000E+00 0. -1.
     999900   -1    0    0    0    0 -0.00000000000E+00 -0.00000000000E+00 -0.74505805969E-08  0.93827000000E+00  0.93827000000E+00 0. -1.
     999902    2    1    2    0    0 -0.25387945567E-01 -0.50998074474E-03  0.98287445609E-02  0.10167011168E+01  0.10163364349E+01 0.  0.
     999903    2    3    3    0    0  0.47181013984E-01 -0.50315723265E-01 -0.10316033071E+00  0.12512195767E+00  0.15991571807E-01 0.  0.
         14    1    1    2    0    0  0.25387945567E-01  0.50998074474E-03 -0.98287445609E-02  0.27228883196E-01  0.00000000000E+00 0. -1.
     999901    1    3    3    0    0 -0.72568959551E-01  0.49805742520E-01  0.11298907527E+00  0.89157915914E+00  0.88000000000E+00 0.  1.
        -11    1    4    4    0    0  0.65772526315E-02 -0.14967896374E-01 -0.31475207866E-01  0.35471791683E-01  0.51100000000E-03 0. -1.
         11    1    4    4    0    0  0.40603761353E-01 -0.35347826891E-01 -0.71685122848E-01  0.89650165982E-01  0.51100000000E-03 0.  1.
</event>
<event>
 8    1  0.1052028E+005  0.1043930E+01  0.7957747E-01            NaN
         13   -1    0    0    0    0  0.00000000000E+00  0.00000000000E+00  0.74505805969E-08  0.10566000000E+00  0.10566000000E+00 0.  1.
     999900   -1    0    0    0    0 -0.00000000000E+00 -0.00000000000E+00 -0.74505805969E-08  0.93827000000E+00  0.93827000000E+00 0. -1.
     999902    2    1    2    0    0  0.12810927197E-01 -0.39628734723E-02  0.19511187172E-01  0.10202548939E+01  0.10199801655E+01 0.  0.
     999903    2    3    3    0    0 -0.98912941778E-01 -0.62403517589E-01  0.54406631167E-01  0.13058348056E+00  0.20346862698E-01 0.  0.
         14    1    1    2    0    0 -0.12810927197E-01  0.39628734723E-02 -0.19511187172E-01  0.23675106054E-01  0.00000000000E+00 0. -1.
     999901    1    3    3    0    0  0.11172386898E+00  0.58440644117E-01 -0.34895443995E-01  0.88967141339E+00  0.88000000000E+00 0. -1.
        -11    1    4    4    0    0 -0.11122901619E-01 -0.53802123824E-02 -0.49289209096E-03  0.12376174260E-01  0.51100000000E-03 0. -1.
         11    1    4    4    0    0 -0.87790040159E-01 -0.57023305207E-01  0.54899523258E-01  0.11820730630E+00  0.51100000000E-03 0.  1.
</event>
<event>
 8    1  0.1052028E+005  0.1043930E+01  0.7957747E-01            NaN
         13   -1    0    0    0    0  0.00000000000E+00  0.00000000000E+00  0.74505805969E-08  0.10566000000E+00  0.10566000000E+00 0.  1.
     999900   -1    0    0    0    0 -0.00000000000E+00 -0.00000000000E+00 -0.74505805969E-08  0.93827000000E+00  0.93827000000E+00 0. -1.
     999902    2    1    2    0    0 -0.12824052249E-01 -0.21563022153E-01 -0.51073316160E-03  0.10188365529E+01  0.10185274863E+01 0.  0.
     999903    2    3    3    0    0  0.10091693860E+00  0.49297904601E-01 -0.55790949939E-01  0.12697659396E+00  0.19897573321E-01 0.  0.
         14    1    1    2    0    0  0.12824052249E-01  0.21563022153E-01  0.51073316160E-03  0.25093447129E-01  0.00000000000E+00 0.  1.
     999901    1    3    3    0    0 -0.11374099085E+00 -0.70860926754E-01  0.55280216778E-01  0.89185995891E+00  0.88000000000E+00 0.  1.
        -11    1    4    4    0    0  0.49426797792E-01  0.30761799296E-01 -0.19886075212E-01  0.61522465362E-01  0.51100000000E-03 0. -1.
         11    1    4    4    0    0  0.51490140809E-01  0.18536105305E-01 -0.35904874727E-01  0.65454128599E-01  0.51100000000E-03 0.  1.
</event>
<event>
 8    1  0.1052028E+005  0.1043930E+01  0.7957747E-01            NaN
         13   -1    0    0    0    0  0.00000000000E+00  0.00000000000E+00  0.74505805969E-08  0.10566000000E+00  0.10566000000E+00 0. -1.
     999900   -1    0    0    0    0 -0.00000000000E+00 -0.00000000000E+00 -0.74505805969E-08  0.93827000000E+00  0.93827000000E+00 0. -1.
     999902    2    1    2    0    0 -0.10320778503E-01  0.18070310617E-01  0.91334797004E-02  0.10212039127E+01  0.10209510058E+01 0.  0.
     999903    2    3    3    0    0 -0.31636689323E-02 -0.74029607083E-01 -0.10396703692E+00  0.12916952659E+00  0.19627284758E-01 0.  0.
         14    1    1    2    0    0  0.10320778503E-01 -0.18070310617E-01 -0.91334797004E-02  0.22726087348E-01  0.00000000000E+00 0.  1.
     999901    1    3    3    0    0 -0.71571095711E-02  0.92099917701E-01  0.11310051662E+00  0.89203438606E+00  0.88000000000E+00 0.  1.
        -11    1    4    4    0    0  0.74727394214E-02 -0.17767165711E-01 -0.23261562276E-01  0.30213828165E-01  0.51100000000E-03 0.  1.
         11    1    4    4    0    0 -0.10636408354E-01 -0.56262441373E-01 -0.80705474645E-01  0.98955698424E-01  0.51100000000E-03 0. -1.
</event>
<event>
 8    1  0.1052028E+005  0.1043930E+01  0.7957747E-01            NaN
         13   -1    0    0    0    0  0.00000000000E+00  0.00000000000E+00  0.74505805969E-08  0.10566000000E+00  0.10566000000E+00 0.  1.
     999900   -1    0    0    0    0 -0.00000000000E+00 -0.00000000000E+00 -0.74505805969E-08  0.93827000000E+00  0.93827000000E+00 0. -1.
     999902    2    1    2    0    0 -0.18326597656E-02  0.20926968577E-01  0.10298580659E-01  0.10205343290E+01  0.10202661218E+01 0.  0.
     999903    2    3    3    0    0 -0.12565793547E+00  0.15196907330E-01 -0.27436092238E-01  0.13104602781E+00  0.19986483121E-01 0.  0.
         14    1    1    2    0    0  0.18326597656E-02 -0.20926968577E-01 -0.10298580659E-01  0.23395670951E-01  0.00000000000E+00 0. -1.
     999901    1    3    3    0    0  0.12382527571E+00  0.57300612473E-02  0.37734672897E-01  0.88948830124E+00  0.88000000000E+00 0.  1.
        -11    1    4    4    0    0 -0.40099234033E-01  0.12323733524E-01 -0.14920319317E-01  0.44527519890E-01  0.51100000000E-03 0.  1.
         11    1    4    4    0    0 -0.85558701439E-01  0.28731738063E-02 -0.12515772921E-01  0.86518507919E-01  0.51100000000E-03 0. -1.
</event>
<event>
 8    1  0.1052028E+005  0.1043930E+01  0.7957747E-01            NaN
         13   -1    0    0    0    0  0.00000000000E+00  0.00000000000E+00  0.74505805969E-08  0.10566000000E+00  0.10566000000E+00 0.  1.
     999900   -1    0    0    0    0 -0.00000000000E+00 -0.00000000000E+00 -0.74505805969E-08  0.93827000000E+00  0.93827000000E+00 0.  1.
     999902    2    1    2    0    0  0.46052708024E-03  0.19885406636E-01 -0.13652711101E-01  0.10198045362E+01  0.10195191288E+01 0.  0.
     999903    2    3    3    0    0 -0.88103490224E-01  0.41325630675E-01  0.83719823541E-01  0.12975696509E+00  0.18916352591E-01 0.  0.
         14    1    1    2    0    0 -0.46052708024E-03 -0.19885406636E-01  0.13652711101E-01  0.24125463782E-01  0.00000000000E+00 0.  1.
     999901    1    3    3    0    0  0.88564017305E-01 -0.21440224039E-01 -0.97372534642E-01  0.89004757113E+00  0.88000000000E+00 0.  1.
        -11    1    4    4    0    0 -0.41288327543E-02  0.41731315170E-02  0.64564327990E-03  0.59279223018E-02  0.51100000000E-03 0. -1.
         11    1    4    4    0    0 -0.83974657470E-01  0.37152499158E-01  0.83074180261E-01  0.12382904279E+00  0.51100000000E-03 0.  1.
</event>
<event>
 8    1  0.1052028E+005  0.1043930E+01  0.7957747E-01            NaN
         13   -1    0    0    0    0  0.00000000000E+00  0.00000000000E+00  0.74505805969E-08  0.10566000000E+00  0.10566000000E+00 0. -1.
     999900   -1    0    0    0    0 -0.00000000000E+00 -0.00000000000E+00 -0.74505805969E-08  0.93827000000E+00  0.93827000000E+00 0.  1.
     999902    2    1    2    0    0  0.18594099236E-01  0.93305830043E-02 -0.10768959428E-01  0.10205041426E+01  0.10202352348E+01 0.  0.
     999903    2    3    3    0    0 -0.10970795051E+00 -0.39812294678E-01 -0.51024173151E-01  0.12893422356E+00  0.19992862365E-01 0.  0.
         14    1    1    2    0    0 -0.18594099236E-01 -0.93305830043E-02  0.10768959428E-01  0.23425857353E-01  0.00000000000E+00 0.  1.
     999901    1    3    3    0    0  0.12830204975E+00  0.49142877683E-01  0.40255213723E-01  0.89156991909E+00  0.88000000000E+00 0.  1.
        -11    1    4    4    0    0 -0.53800410467E-01 -0.20008214402E-01 -0.14248151835E-01  0.59144600444E-01  0.51100000000E-03 0.  1.
         11    1    4    4    0    0 -0.55907540043E-01 -0.19804080276E-01 -0.36776021316E-01  0.69789623112E-01  0.51100000000E-03 0. -1.
</event>
<event>
 8    1  0.1052028E+005  0.1043930E+01  0.7957747E-01            NaN
         13   -1    0    0    0    0  0.00000000000E+00  0.00000000000E+00  0.74505805969E-08  0.10566000000E+00  0.10566000000E+00 0. -1.
     999900   -1    0    0    0    0 -0.00000000000E+00 -0.00000000000E+00 -0.74505805969E-08  0.93827000000E+00  0.93827000000E+00 0.  1.
     999902    2    1    2    0    0 -0.19171272430E-01  0.11668041651E-01  0.92676165090E-02  0.10196489457E+01  0.10193598005E+01 0.  0.
     999903    2    3    3    0    0  0.12136317905E+00  0.32295888774E-01 -0.13278442977E-01  0.12797424888E+00  0.20713417627E-01 0.  0.
         14    1    1    2    0    0  0.19171272430E-01 -0.11668041651E-01 -0.92676165090E-02  0.24281054308E-01  0.00000000000E+00 0. -1.
     999901    1    3    3    0    0 -0.14053445148E+00 -0.20627847123E-01  0.22546059486E-01  0.89167469681E+00  0.88000000000E+00 0.  1.
        -11    1    4    4    0    0  0.67219668412E-01  0.25226916298E-01 -0.14967093875E-01  0.73342730706E-01  0.51100000000E-03 0. -1.
         11    1    4    4    0    0  0.54143510635E-01  0.70689724761E-02  0.16886508982E-02  0.54631518179E-01  0.51100000000E-03 0.  1.
</event>
<event>
 8    1  0.1052028E+005  0.1043930E+01  0.7957747E-01            NaN
         13   -1    0    0    0    0  0.00000000000E+00  0.00000000000E+00  0.74505805969E-08  0.10566000000E+00  0.10566000000E+00 0.  1.
     999900   -1    0    0    0    0 -0.00000000000E+00 -0.00000000000E+00 -0.74505805969E-08  0.93827000000E+00  0.93827000000E+00 0. -1.
     999902    2    1    2    0    0  0.14024084619E-01  0.12816597452E-01 -0.14827520846E-01  0.10198303010E+01  0.10195455101E+01 0.  0.
     999903    2    3    3    0    0  0.12768567044E+00 -0.21316972100E-01 -0.81213260480E-02  0.13183873021E+00  0.23610402611E-01 0.  0.
         14    1    1    2    0    0 -0.14024084619E-01 -0.12816597452E-01  0.14827520846E-01  0.24099699046E-01  0.00000000000E+00 0. -1.
     999901    1    3    3    0    0 -0.11366158582E+00  0.34133569552E-01 -0.67061947983E-02  0.88799157074E+00  0.88000000000E+00 0. -1.
        -11    1    4    4    0    0  0.61576227735E-01 -0.84962023010E-02 -0.15578350174E-01  0.64084033821E-01  0.51100000000E-03 0.  1.
         11    1    4    4    0    0  0.66109442706E-01 -0.12820769799E-01  0.74570241259E-02  0.67754696391E-01  0.51100000000E-03 0. -1.
</event>
<event>
 8    1  0.1052028E+005  0.1043930E+01  0.7957747E-01            NaN
         13   -1    0    0    0    0  0.00000000000E+00  0.00000000000E+00  0.74505805969E-08  0.10566000000E+00  0.10566000000E+00 0. -1.
     999900   -1    0    0    0    0 -0.00000000000E+00 -0.00000000000E+00 -0.74505805969E-08  0.93827000000E+00  0.93827000000E+00 0.  1.
     999902    2    1    2    0    0  0.22049499463E-01 -0.10429703702E-01 -0.46898277015E-02  0.10190914487E+01  0.10187887059E+01 0.  0.
     999903    2    3    3    0    0  0.11718969075E+00  0.48375063581E-01  0.28033288976E-01  0.13140881454E+00  0.20219813420E-01 0.  0.
         14    1    1    2    0    0 -0.22049499463E-01  0.10429703702E-01  0.46898277015E-02  0.24838551281E-01  0.00000000000E+00 0.  1.
     999901    1    3    3    0    0 -0.95140191285E-01 -0.58804767283E-01 -0.32723116677E-01  0.88768263418E+00  0.88000000000E+00 0. -1.
        -11    1    4    4    0    0  0.75009147706E-01  0.32138322486E-01  0.27789270557E-01  0.86207590680E-01  0.51100000000E-03 0.  1.
         11    1    4    4    0    0  0.42180543042E-01  0.16236741094E-01  0.24401841840E-03  0.45201223862E-01  0.51100000000E-03 0. -1.
</event>
<event>
 8    1  0.1052028E+005  0.1043930E+01  0.7957747E-01            NaN
         13   -1    0    0    0    0  0.00000000000E+00  0.00000000000E+00  0.74505805969E-08  0.10566000000E+00  0.10566000000E+00 0.  1.
     999900   -1    0    0    0    0 -0.00000000000E+00 -0.00000000000E+00 -0.74505805969E-08  0.93827000000E+00  0.93827000000E+00 0. -1.
     999902    2    1    2    0    0 -0.18002558899E-01 -0.80074993536E-02 -0.12097008591E-01  0.10208096672E+01  0.10205478072E+01 0.  0.
     999903    2    3    3    0    0 -0.66656484811E-01  0.30447904984E-01 -0.10908878441E+00  0.13331125749E+00  0.22391217102E-01 0.  0.
         14    1    1    2    0    0  0.18002558899E-01  0.80074993536E-02  0.12097008591E-01  0.23120332819E-01  0.00000000000E+00 0.  1.
     999901    1    3    3    0    0  0.48653925911E-01 -0.38455404338E-01  0.96991775821E-01  0.88749840969E+00  0.88000000000E+00 0.  1.
        -11    1    4    4    0    0 -0.11919859534E-01  0.63494082959E-02 -0.75870200301E-02  0.15499097746E-01  0.51100000000E-03 0. -1.
         11    1    4    4    0    0 -0.54736625277E-01  0.24098496688E-01 -0.10150176438E+00  0.11781215974E+00  0.51100000000E-03 0.  1.
</event>
<event>
 8    1  0.1052028E+005  0.1043930E+01  0.7957747E-01            NaN
         13   -1    0    0    0    0  0.00000000000E+00  0.00000000000E+00  0.74505805969E-08  0.10566000000E+00  0.10566000000E+00 0.  1.
     999900   -1    0    0    0    0 -0.00000000000E+00 -0.00000000000E+00 -0.74505805969E-08  0.93827000000E+00  0.93827000000E+00 0.  1.
     999902    2    1    2    0    0  0.15602637096E-01  0.15034462878E-01 -0.10877234320E-01  0.10196855865E+01  0.10193973238E+01 0.  0.
     999903    2    3    3    0    0 -0.11659290502E+00  0.14372542639E-01 -0.47404176079E-01  0.12906203138E+00  0.24685553493E-01 0.  0.
         14    1    1    2    0    0 -0.15602637096E-01 -0.15034462878E-01  0.10877234320E-01  0.24244413477E-01  0.00000000000E+00 0.  1.
     999901    1    3    3    0    0  0.13219554212E+00  0.66192023832E-03  0.36526941759E-01  0.89062355514E+00  0.88000000000E+00 0. -1.
        -11    1    4    4    0    0 -0.23114237222E-01  0.53420085187E-02  0.28860822952E-03  0.23730769753E-01  0.51100000000E-03 0.  1.
         11    1    4    4    0    0 -0.93478667802E-01  0.90305341208E-02 -0.47692784309E-01  0.10533126163E+00  0.51100000000E-03 0. -1.
</event>
<event>
 8    1  0.1052028E+005  0.1043930E+01  0.7957747E-01            NaN
         13   -1    0    0    0    0  0.00000000000E+00  0.00000000000E+00  0.74505805969E-08  0.10566000000E+00  0.10566000000E+00 0.  1.
     999900   -1    0    0    0    0 -0.00000000000E+00 -0.00000000000E+00 -0.74505805969E-08  0.93827000000E+00  0.93827000000E+00 0.  1.
     999902    2    1    2    0    0 -0.57632786880E-02 -0.22131559953E-01  0.58298916366E-03  0.10210529109E+01  0.10207965937E+01 0.  0.
     999903    2    3    3    0    0  0.33741062593E-01 -0.12358847054E+00  0.32777507673E-01  0.13375894348E+00  0.20112697373E-01 0.  0.
         14    1    1    2    0    0  0.57632786880E-02  0.22131559953E-01 -0.58298916366E-03  0.22877089053E-01  0.00000000000E+00 0. -1.
     999901    1    3    3    0    0 -0.39504341281E-01  0.10145691059E+00 -0.32194518509E-01  0.88729396747E+00  0.88000000000E+00 0.  1.
        -11    1    4    4    0    0  0.45632664632E-02 -0.41079663462E-01  0.35398176544E-02  0.41486788029E-01  0.51100000000E-03 0. -1.
         11    1    4    4    0    0  0.29177796129E-01 -0.82508807078E-01  0.29237690018E-01  0.92272155448E-01  0.51100000000E-03 0.  1.
</event>
<event>
 8    1  0.1052028E+005  0.1043930E+01  0.7957747E-01            NaN
         13   -1    0    0    0    0  0.00000000000E+00  0.00000000000E+00  0.74505805969E-08  0.10566000000E+00  0.10566000000E+00 0.  1.
     999900   -1    0    0    0    0 -0.00000000000E+00 -0.00000000000E+00 -0.74505805969E-08  0.93827000000E+00  0.93827000000E+00 0. -1.
     999902    2    1    2    0    0  0.43343736634E-02  0.19365983367E-01 -0.11562348276E-01  0.10209622834E+01  0.10207039082E+01 0.  0.
     999903    2    3    3    0    0 -0.12111090016E+00  0.43983054310E-01 -0.18306098981E-01  0.13169967032E+00  0.20182435401E-01 0.  0.
         14    1    1    2    0    0 -0.43343736634E-02 -0.19365983367E-01  0.11562348276E-01  0.22967716571E-01  0.00000000000E+00 0.  1.
     999901    1    3    3    0    0  0.12544527382E+00 -0.24617070943E-01  0.67437507052E-02  0.88926261311E+00  0.88000000000E+00 0. -1.
        -11    1    4    4    0    0 -0.10729973633E+00  0.32485985162E-01 -0.18996672961E-01  0.11370887104E+00  0.51100000000E-03 0.  1.
         11    1    4    4    0    0 -0.13811163824E-01  0.11497069148E-01  0.69057397976E-03  0.17990799276E-01  0.51100000000E-03 0. -1.
</event>
<event>
 8    1  0.1052028E+005  0.1043930E+01  0.7957747E-01            NaN
         13   -1    0    0    0    0  0.00000000000E+00  0.00000000000E+00  0.74505805969E-08  0.10566000000E+00  0.10566000000E+00 0. -1.
     999900   -1    0    0    0    0 -0.00000000000E+00 -0.00000000000E+00 -0.74505805969E-08  0.93827000000E+00  0.93827000000E+00 0.  1.
     999902    2    1    2    0    0  0.19681241040E-01 -0.78308544133E-02 -0.98069229156E-02  0.10205879935E+01  0.10203210295E+01 0.  0.
     999903    2    3    3    0    0 -0.11468004762E+00  0.23122464219E-02 -0.55591558050E-01  0.12915539864E+00  0.20828726951E-01 0.  0.
         14    1    1    2    0    0 -0.19681241040E-01  0.78308544133E-02  0.98069229156E-02  0.23342006486E-01  0.00000000000E+00 0. -1.
     999901    1    3    3    0    0  0.13436128866E+00 -0.10143100835E-01  0.45784635134E-01  0.89143259487E+00  0.88000000000E+00 0. -1.
        -11    1    4    4    0    0 -0.93975382985E-01 -0.54461466203E-02 -0.48726677853E-01  0.10599803477E+00  0.51100000000E-03 0.  1.
         11    1    4    4    0    0 -0.20704664635E-01  0.77583930422E-02 -0.68648801968E-02  0.23157363869E-01  0.51100000000E-03 0. -1.
</event>
<event>
 8    1  0.1052028E+005  0.1043930E+01  0.7957747E-01            NaN
         13   -1    0    0    0    0  0.00000000000E+00  0.00000000000E+00  0.74505805969E-08  0.10566000000E+00  0.10566000000E+00 0. -1.
     999900   -1    0    0    0    0 -0.00000000000E+00 -0.00000000000E+00 -0.74505805969E-08  0.93827000000E+00  0.93827000000E+00 0.  1.
     999902    2    1    2    0    0 -0.10636606600E-01 -0.20425101301E-01  0.38882058994E-02  0.10205753365E+01  0.10203080795E+01 0.  0.
     999903    2    3    3    0    0 -0.11991967866E+00 -0.14945288047E-01 -0.50486468640E-01  0.13213320363E+00  0.17498829145E-01 0.  0.
         14    1    1    2    0    0  0.10636606600E-01  0.20425101301E-01 -0.38882058994E-02  0.23354663522E-01  0.00000000000E+00 0. -1.
     999901    1    3    3    0    0  0.10928307206E+00 -0.54798132534E-02  0.54374674539E-01  0.88844213285E+00  0.88000000000E+00 0.  1.
        -11    1    4    4    0    0 -0.69036473993E-01 -0.17237673356E-01 -0.28488691565E-01  0.76648801635E-01  0.51100000000E-03 0. -1.
         11    1    4    4    0    0 -0.50883204664E-01  0.22923853085E-02 -0.21997777074E-01  0.55484401993E-01  0.51100000000E-03 0.  1.
</event>
<event>
 8    1  0.1052028E+005  0.1043930E+01  0.7957747E-01            NaN
         13   -1    0    0    0    0  0.00000000000E+00  0.00000000000E+00  0.74505805969E-08  0.10566000000E+00  0.10566000000E+00 0.  1.
     999900   -1    0    0    0    0 -0.00000000000E+00 -0.00000000000E+00 -0.74505805969E-08  0.93827000000E+00  0.93827000000E+00 0. -1.
     999902    2    1    2    0    0  0.16413092950E-01 -0.12841978890E-01 -0.12969550654E-01  0.10193838132E+01  0.10190882412E+01 0.  0.
     999903    2    3    3    0    0 -0.10558287882E+00 -0.78283125550E-02 -0.71021785667E-01  0.12905903203E+00  0.20077672492E-01 0.  0.
         14    1    1    2    0    0 -0.16413092950E-01  0.12841978890E-01  0.12969550654E-01  0.24546186795E-01  0.00000000000E+00 0.  1.
     999901    1    3    3    0    0  0.12199597177E+00 -0.50136663352E-02  0.58052235013E-01  0.89032478117E+00  0.88000000000E+00 0.  1.
        -11    1    4    4    0    0 -0.51548714490E-01  0.38791220797E-02 -0.42043118004E-01  0.66634844084E-01  0.51100000000E-03 0.  1.
         11    1    4    4    0    0 -0.54034164330E-01 -0.11707434635E-01 -0.28978667664E-01  0.62424187949E-01  0.51100000000E-03 0. -1.
</event>
<event>
 8    1  0.1052028E+005  0.1043930E+01  0.7957747E-01            NaN
         13   -1    0    0    0    0  0.00000000000E+00  0.00000000000E+00  0.74505805969E-08  0.10566000000E+00  0.10566000000E+00 0.  1.
     999900   -1    0    0    0    0 -0.00000000000E+00 -0.00000000000E+00 -0.74505805969E-08  0.93827000000E+00  0.93827000000E+00 0.  1.
     999902    2    1    2    0    0  0.77542750329E-02 -0.18821275860E-01 -0.10344619267E-01  0.10210962453E+01  0.10208409092E+01 0.  0.
     999903    2    3    3    0    0 -0.48144228844E-01  0.11590260784E+00 -0.22758031362E-01  0.12900361536E+00  0.19306048533E-01 0.  0.
         14    1    1    2    0    0 -0.77542750329E-02  0.18821275860E-01  0.10344619267E-01  0.22833754708E-01  0.00000000000E+00 0.  1.
     999901    1    3    3    0    0  0.55898503877E-01 -0.13472388370E+00  0.12413412095E-01  0.89209262993E+00  0.88000000000E+00 0. -1.
        -11    1    4    4    0    0 -0.31951459291E-01  0.80052768947E-01 -0.24547365421E-01  0.89622407003E-01  0.51100000000E-03 0. -1.
         11    1    4    4    0    0 -0.16192769553E-01  0.35849838893E-01  0.17893340593E-02  0.39381208360E-01  0.51100000000E-03 0.  1.
</event>
<event>
 8    1  0.1052028E+005  0.1043930E+01  0.7957747E-01            NaN
         13   -1    0    0    0    0  0.00000000000E+00  0.00000000000E+00  0.74505805969E-08  0.10566000000E+00  0.10566000000E+00 0.  1.
     999900   -1    0    0    0    0 -0.00000000000E+00 -0.00000000000E+00 -0.74505805969E-08  0.93827000000E+00  0.93827000000E+00 0.  1.
     999902    2    1    2    0    0  0.28791665764E-01 -0.37688413271E-02 -0.82991570697E-02  0.10137299968E+01  0.10132800533E+01 0.  0.
     999903    2    3    3    0    0  0.85445853906E-01 -0.79383661094E-01  0.46015242117E-01  0.12700718110E+00  0.20264795731E-01 0.  0.
         14    1    1    2    0    0 -0.28791665764E-01  0.37688413271E-02  0.82991570697E-02  0.30200003153E-01  0.00000000000E+00 0.  1.
     999901    1    3    3    0    0 -0.56654188142E-01  0.75614819767E-01 -0.54314399187E-01  0.88672281574E+00  0.88000000000E+00 0.  1.
        -11    1    4    4    0    0  0.30468751031E-01 -0.41920411700E-01  0.21375867603E-01  0.56061167873E-01  0.51100000000E-03 0. -1.
         11    1    4    4    0    0  0.54977102875E-01 -0.37463249394E-01  0.24639374514E-01  0.70946013229E-01  0.51100000000E-03 0.  1.
</event>
<event>
 8    1  0.1052028E+005  0.1043930E+01  0.7957747E-01            NaN
         13   -1    0    0    0    0  0.00000000000E+00  0.00000000000E+00  0.74505805969E-08  0.10566000000E+00  0.10566000000E+00 0. -1.
     999900   -1    0    0    0    0 -0.00000000000E+00 -0.00000000000E+00 -0.74505805969E-08  0.93827000000E+00  0.93827000000E+00 0.  1.
     999902    2    1    2    0    0  0.11053171180E-01 -0.24944000054E-01  0.12270241485E-02  0.10166191721E+01  0.10162522619E+01 0.  0.
     999903    2    3    3    0    0 -0.73994743118E-01 -0.32784204652E-01 -0.96018211680E-01  0.12715233606E+00  0.19954786600E-01 0.  0.
         14    1    1    2    0    0 -0.11053171180E-01  0.24944000054E-01 -0.12270241485E-02  0.27310827891E-01  0.00000000000E+00 0. -1.
     999901    1    3    3    0    0  0.85047914298E-01  0.78402045980E-02  0.97245235829E-01  0.88946683605E+00  0.88000000000E+00 0. -1.
        -11    1    4    4    0    0 -0.74356132914E-01 -0.29859863700E-01 -0.94123598943E-01  0.12361213112E+00  0.51100000000E-03 0. -1.
         11    1    4    4    0    0  0.36138979554E-03 -0.29243409514E-02 -0.18946127372E-02  0.35402049388E-02  0.51100000000E-03 0.  1.
</event>
<event>
 8    1  0.1290192E+005  0.1043930E+01  0.7957747E-01            NaN
         13   -1    0    0    0    0  0.00000000000E+00  0.00000000000E+00  0.74505805969E-08  0.10566000000E+00  0.10566000000E+00 0. -1.
     999900   -1    0    0    0    0 -0.00000000000E+00 -0.00000000000E+00 -0.74505805969E-08  0.93827000000E+00  0.93827000000E+00 0.  1.
     999902    2    1    2    0    0  0.13045431998E-01 -0.13528085289E-01 -0.14868766005E-01  0.10199660147E+01  0.10196844603E+01 0.  0.
     999903    2    3    3    0    0  0.10940662595E-01 -0.10225176185E+00 -0.81922020418E-01  0.13296406447E+00  0.19826853310E-01 0.  0.
         14    1    1    2    0    0 -0.13045431998E-01  0.13528085289E-01  0.14868766005E-01  0.23963985272E-01  0.00000000000E+00 0. -1.
     999901    1    3    3    0    0  0.21047694030E-02  0.88723676557E-01  0.67053254414E-01  0.88700195026E+00  0.88000000000E+00 0.  1.
        -11    1    4    4    0    0 -0.26596276235E-02 -0.19946339075E-01 -0.24402327533E-01  0.31633285818E-01  0.51100000000E-03 0.  1.
         11    1    4    4    0    0  0.13600290219E-01 -0.82305422771E-01 -0.57519692885E-01  0.10133077865E+00  0.51100000000E-03 0. -1.
</event>
<event>
 8    1  0.1052028E+005  0.1043930E+01  0.7957747E-01            NaN
         13   -1    0    0    0    0  0.00000000000E+00  0.00000000000E+00  0.74505805969E-08  0.10566000000E+00  0.10566000000E+00 0.  1.
     999900   -1    0    0    0    0 -0.00000000000E+00 -0.00000000000E+00 -0.74505805969E-08  0.93827000000E+00  0.93827000000E+00 0.  1.
     999902    2    1    2    0    0 -0.20023807357E-01  0.33849656188E-02 -0.11545422130E-01  0.10205696142E+01  0.10203022247E+01 0.  0.
     999903    2    3    3    0    0  0.48619709499E-01 -0.11245227018E+00  0.35347447007E-01  0.12909379355E+00  0.20158777278E-01 0.  0.
         14    1    1    2    0    0  0.20023807357E-01 -0.33849656188E-02  0.11545422130E-01  0.23360385816E-01  0.00000000000E+00 0. -1.
     999901    1    3    3    0    0 -0.68643516855E-01  0.11583723580E+00 -0.46892869137E-01  0.89147582064E+00  0.88000000000E+00 0.  1.
        -11    1    4    4    0    0  0.30161520768E-01 -0.71873150915E-01  0.12318040561E-01  0.78914272485E-01  0.51100000000E-03 0. -1.
         11    1    4    4    0    0  0.18458188730E-01 -0.40579119268E-01  0.23029406446E-01  0.50179521062E-01  0.51100000000E-03 0.  1.
</event>
<event>
 8    1  0.1052028E+005  0.1043930E+01  0.7957747E-01            NaN
         13   -1    0    0    0    0  0.00000000000E+00  0.00000000000E+00  0.74505805969E-08  0.10566000000E+00  0.10566000000E+00 0. -1.
     999900   -1    0    0    0    0 -0.00000000000E+00 -0.00000000000E+00 -0.74505805969E-08  0.93827000000E+00  0.93827000000E+00 0.  1.
     999902    2    1    2    0    0  0.20350044696E-01 -0.12186265093E-01 -0.61280375566E-02  0.10194313833E+01  0.10191369697E+01 0.  0.
     999903    2    3    3    0    0 -0.16709908361E-01  0.11520163345E+00 -0.50924023818E-01  0.12836023170E+00  0.18233362090E-01 0.  0.
         14    1    1    2    0    0 -0.20350044696E-01  0.12186265093E-01  0.61280375566E-02  0.24498616703E-01  0.00000000000E+00 0.  1.
     999901    1    3    3    0    0  0.37059953057E-01 -0.12738789855E+00  0.44795986262E-01  0.89107115159E+00  0.88000000000E+00 0. -1.
        -11    1    4    4    0    0 -0.90942282933E-02  0.21986482639E-01 -0.15222960705E-01  0.28250841770E-01  0.51100000000E-03 0. -1.
         11    1    4    4    0    0 -0.76156800677E-02  0.93215150815E-01 -0.35701063114E-01  0.10010938993E+00  0.51100000000E-03 0.  1.
</event>
<event>
 8    1  0.1052028E+005  0.1043930E+01  0.7957747E-01            NaN
         13   -1    0    0    0    0  0.00000000000E+00  0.00000000000E+00  0.74505805969E-08  0.10566000000E+00  0.10566000000E+00 0. -1.
     999900   -1    0    0    0    0 -0.00000000000E+00 -0.00000000000E+00 -0.74505805969E-08  0.93827000000E+00  0.93827000000E+00 0. -1.
     999902    2    1    2    0    0  0.12068957173E-01 -0.15745603313E-01  0.17029738173E-01  0.10177843362E+01  0.10174484554E+01 0.  0.
     999903    2    3    3    0    0 -0.62930576794E-01 -0.11086445159E+00 -0.48473938432E-02  0.12921743708E+00  0.20553946005E-01 0.  0.
         14    1    1    2    0    0 -0.12068957173E-01  0.15745603313E-01 -0.17029738173E-01  0.26145663755E-01  0.00000000000E+00 0.  1.
     999901    1    3    3    0    0  0.74999533966E-01  0.95118848275E-01  0.21877132016E-01  0.88856689917E+00  0.88000000000E+00 0.  1.
        -11    1    4    4    0    0 -0.38426198848E-01 -0.48203161447E-01  0.12286408887E-02  0.61659453540E-01  0.51100000000E-03 0. -1.
         11    1    4    4    0    0 -0.24504377945E-01 -0.62661290141E-01 -0.60760347320E-02  0.67557983537E-01  0.51100000000E-03 0.  1.
</event>
<event>
 8    1  0.1052028E+005  0.1043930E+01  0.7957747E-01            NaN
         13   -1    0    0    0    0  0.00000000000E+00  0.00000000000E+00  0.74505805969E-08  0.10566000000E+00  0.10566000000E+00 0. -1.
     999900   -1    0    0    0    0 -0.00000000000E+00 -0.00000000000E+00 -0.74505805969E-08  0.93827000000E+00  0.93827000000E+00 0. -1.
     999902    2    1    2    0    0 -0.31887112855E-02 -0.15007621056E-01  0.17067995945E-01  0.10209797700E+01  0.10207217925E+01 0.  0.
     999903    2    3    3    0    0 -0.11953751325E+00  0.48858023724E-01  0.97096432736E-02  0.13099661871E+00  0.19736093446E-01 0.  0.
         14    1    1    2    0    0  0.31887112855E-02  0.15007621056E-01 -0.17067995945E-01  0.22950229955E-01  0.00000000000E+00 0. -1.
     999901    1    3    3    0    0  0.11634880197E+00 -0.63865644780E-01  0.73583526714E-02  0.88998315133E+00  0.88000000000E+00 0. -1.
        -11    1    4    4    0    0 -0.78961353784E-01  0.27370333346E-01  0.14534085968E-01  0.84826477675E-01  0.51100000000E-03 0. -1.
         11    1    4    4    0    0 -0.40576159470E-01  0.21487690378E-01 -0.48244426940E-02  0.46170141037E-01  0.51100000000E-03 0.  1.
</event>
<event>
 8    1  0.1052028E+005  0.1043930E+01  0.7957747E-01            NaN
         13   -1    0    0    0    0  0.00000000000E+00  0.00000000000E+00  0.74505805969E-08  0.10566000000E+00  0.10566000000E+00 0. -1.
     999900   -1    0    0    0    0 -0.00000000000E+00 -0.00000000000E+00 -0.74505805969E-08  0.93827000000E+00  0.93827000000E+00 0.  1.
     999902    2    1    2    0    0 -0.14394939950E-01  0.15410396387E-01 -0.78529361877E-02  0.10214274841E+01  0.10211795837E+01 0.  0.
     999903    2    3    3    0    0  0.10221366880E+00 -0.54133439970E-01  0.53559433625E-01  0.12889995405E+00  0.19196921911E-01 0.  0.
         14    1    1    2    0    0  0.14394939950E-01 -0.15410396387E-01  0.78529361877E-02  0.22502515854E-01  0.00000000000E+00 0. -1.
     999901    1    3    3    0    0 -0.11660860875E+00  0.69543836357E-01 -0.61412369813E-01  0.89252753009E+00  0.88000000000E+00 0.  1.
        -11    1    4    4    0    0  0.62122881694E-01 -0.22468287210E-01  0.27659034594E-01  0.71619548140E-01  0.51100000000E-03 0.  1.
         11    1    4    4    0    0  0.40090787110E-01 -0.31665152760E-01  0.25900399031E-01  0.57280405912E-01  0.51100000000E-03 0. -1.
</event>
<event>
 8    1  0.1052028E+005  0.1043930E+01  0.7957747E-01            NaN
         13   -1    0    0    0    0  0.00000000000E+00  0.00000000000E+00  0.74505805969E-08  0.10566000000E+00  0.10566000000E+00 0.  1.
     999900   -1    0    0    0    0 -0.00000000000E+00 -0.00000000000E+00 -0.74505805969E-08  0.93827000000E+00  0.93827000000E+00 0. -1.
     999902    2    1    2    0    0  0.92754610707E-02 -0.21013974410E-01 -0.43343278658E-02  0.10205546348E+01  0.10202868984E+01 0.  0.
     999903    2    3    3    0    0  0.10009633931E+00  0.65128290026E-01 -0.50588521391E-01  0.13049375373E+00  0.14437796282E-01 0.  0.
         14    1    1    2    0    0 -0.92754610707E-02  0.21013974410E-01  0.43343278658E-02  0.23375365165E-01  0.00000000000E+00 0.  1.
     999901    1    3    3    0    0 -0.90820878242E-01 -0.86142264435E-01  0.46254193526E-01  0.89006088110E+00  0.88000000000E+00 0. -1.
        -11    1    4    4    0    0  0.54695224260E-01  0.27070125123E-01 -0.24658689278E-01  0.65823030232E-01  0.51100000000E-03 0. -1.
         11    1    4    4    0    0  0.45401115053E-01  0.38058164903E-01 -0.25929832113E-01  0.64670723502E-01  0.51100000000E-03 0.  1.
</event>
<event>
 8    1  0.1052028E+005  0.1043930E+01  0.7957747E-01            NaN
         13   -1    0    0    0    0  0.00000000000E+00  0.00000000000E+00  0.74505805969E-08  0.10566000000E+00  0.10566000000E+00 0.  1.
     999900   -1    0    0    0    0 -0.00000000000E+00 -0.00000000000E+00 -0.74505805969E-08  0.93827000000E+00  0.93827000000E+00 0.  1.
     999902    2    1    2    0    0 -0.19566946507E-01  0.49591434384E-02  0.10312557446E-01  0.10212626812E+01  0.10210110953E+01 0.  0.
     999903    2    3    3    0    0  0.71925061491E-01  0.96673938977E-01 -0.44626227441E-01  0.13008331582E+00  0.20275698028E-01 0.  0.
         14    1    1    2    0    0  0.19566946507E-01 -0.49591434384E-02 -0.10312557446E-01  0.22667318773E-01  0.00000000000E+00 0. -1.
     999901    1    3    3    0    0 -0.91492007998E-01 -0.91714795539E-01  0.54938784888E-01  0.89117936541E+00  0.88000000000E+00 0.  1.
        -11    1    4    4    0    0  0.13876086462E-01  0.33998720061E-01 -0.11992678694E-01  0.38633459650E-01  0.51100000000E-03 0. -1.
         11    1    4    4    0    0  0.58048975029E-01  0.62675218916E-01 -0.32633548748E-01  0.91449856167E-01  0.51100000000E-03 0.  1.
</event>
<event>
 8    1  0.1052028E+005  0.1043930E+01  0.7957747E-01            NaN
         13   -1    0    0    0    0  0.00000000000E+00  0.00000000000E+00  0.74505805969E-08  0.10566000000E+00  0.10566000000E+00 0. -1.
     999900   -1    0    0    0    0 -0.00000000000E+00 -0.00000000000E+00 -0.74505805969E-08  0.93827000000E+00  0.93827000000E+00 0.  1.
     999902    2    1    2    0    0  0.51436534232E-03 -0.37763844813E-02  0.23216842684E-01  0.10204024112E+01  0.10201311353E+01 0.  0.
     999903    2    3    3    0    0  0.26122039106E-01 -0.72076750435E-01  0.10719363123E+00  0.13340027254E+00  0.20681858139E-01 0.  0.
         14    1    1    2    0    0 -0.51436534232E-03  0.37763844813E-02 -0.23216842684E-01  0.23527588820E-01  0.00000000000E+00 0.  1.
     999901    1    3    3    0    0 -0.25607673764E-01  0.68300365954E-01 -0.83976788546E-01  0.88700213864E+00  0.88000000000E+00 0.  1.
        -11    1    4    4    0    0  0.18986190923E-01 -0.23388664781E-01  0.43346426162E-01  0.52789003287E-01  0.51100000000E-03 0.  1.
         11    1    4    4    0    0  0.71358481827E-02 -0.48688085654E-01  0.63847205068E-01  0.80611269249E-01  0.51100000000E-03 0. -1.
</event>
<event>
 8    1  0.1052028E+005  0.1043930E+01  0.7957747E-01            NaN
         13   -1    0    0    0    0  0.00000000000E+00  0.00000000000E+00  0.74505805969E-08  0.10566000000E+00  0.10566000000E+00 0.  1.
     999900   -1    0    0    0    0 -0.00000000000E+00 -0.00000000000E+00 -0.74505805969E-08  0.93827000000E+00  0.93827000000E+00 0.  1.
     999902    2    1    2    0    0 -0.84278653162E-02  0.21861189012E-01  0.84561411965E-03  0.10204852658E+01  0.10202159194E+01 0.  0.
     999903    2    3    3    0    0 -0.74565704748E-01 -0.10354370663E+00 -0.35367336468E-02  0.12912686053E+00  0.19490872697E-01 0.  0.
         14    1    1    2    0    0  0.84278653162E-02 -0.21861189012E-01 -0.84561411965E-03  0.23444734207E-01  0.00000000000E+00 0. -1.
     999901    1    3    3    0    0  0.66137839431E-01  0.12540489564E+00  0.43823477665E-02  0.89135840526E+00  0.88000000000E+00 0. -1.
        -11    1    4    4    0    0 -0.49386672698E-01 -0.77671745145E-01 -0.94952647369E-02  0.92533046030E-01  0.51100000000E-03 0.  1.
         11    1    4    4    0    0 -0.25179032049E-01 -0.25871961487E-01  0.59585310901E-02  0.36593814503E-01  0.51100000000E-03 0. -1.
</event>
<event>
 8    1  0.1052028E+005  0.1043930E+01  0.7957747E-01            NaN
         13   -1    0    0    0    0  0.00000000000E+00  0.00000000000E+00  0.74505805969E-08  0.10566000000E+00  0.10566000000E+00 0.  1.
     999900   -1    0    0    0    0 -0.00000000000E+00 -0.00000000000E+00 -0.74505805969E-08  0.93827000000E+00  0.93827000000E+00 0. -1.
     999902    2    1    2    0    0 -0.22473463135E-01 -0.16045869917E-02  0.39842965747E-02  0.10210497495E+01  0.10207933606E+01 0.  0.
     999903    2    3    3    0    0  0.25409350716E-01 -0.95019907750E-01  0.84513743032E-01  0.13115976877E+00  0.19644190251E-01 0.  0.
         14    1    1    2    0    0  0.22473463135E-01  0.16045869917E-02 -0.39842965747E-02  0.22880250521E-01  0.00000000000E+00 0. -1.
     999901    1    3    3    0    0 -0.47882813852E-01  0.93415320758E-01 -0.80529446457E-01  0.88988998071E+00  0.88000000000E+00 0. -1.
        -11    1    4    4    0    0  0.21761147111E-01 -0.74410515741E-01  0.55350361284E-01  0.95259624142E-01  0.51100000000E-03 0.  1.
         11    1    4    4    0    0  0.36482036049E-02 -0.20609392009E-01  0.29163381748E-01  0.35900144631E-01  0.51100000000E-03 0. -1.
</event>
<event>
 8    1  0.1052028E+005  0.1043930E+01  0.7957747E-01            NaN
         13   -1    0    0    0    0  0.00000000000E+00  0.00000000000E+00  0.74505805969E-08  0.10566000000E+00  0.10566000000E+00 0.  1.
     999900   -1    0    0    0    0 -0.00000000000E+00 -0.00000000000E+00 -0.74505805969E-08  0.93827000000E+00  0.93827000000E+00 0.  1.
     999902    2    1    2    0    0 -0.68126382816E-02  0.20873835255E-01 -0.10923625111E-01  0.10194054282E+01  0.10191103828E+01 0.  0.
     999903    2    3    3    0    0  0.10901099412E+00  0.34603440160E-01 -0.59453930251E-01  0.13038416497E+00  0.19607798007E-01 0.  0.
         14    1    1    2    0    0  0.68126382816E-02 -0.20873835255E-01  0.10923625111E-01  0.24524571845E-01  0.00000000000E+00 0.  1.
     999901    1    3    3    0    0 -0.11582363240E+00 -0.13729604906E-01  0.48530305140E-01  0.88902126318E+00  0.88000000000E+00 0.  1.
        -11    1    4    4    0    0  0.10034485911E+00  0.37135179287E-01 -0.54805704326E-01  0.12021663212E+00  0.51100000000E-03 0.  1.
         11    1    4    4    0    0  0.86661350142E-02 -0.25317391266E-02 -0.46482259258E-02  0.10167532854E-01  0.51100000000E-03 0. -1.
</event>
<event>
 8    1  0.1052028E+005  0.1043930E+01  0.7957747E-01            NaN
         13   -1    0    0    0    0  0.00000000000E+00  0.00000000000E+00  0.74505805969E-08  0.10566000000E+00  0.10566000000E+00 0.  1.
     999900   -1    0    0    0    0 -0.00000000000E+00 -0.00000000000E+00 -0.74505805969E-08  0.93827000000E+00  0.93827000000E+00 0.  1.
     999902    2    1    2    0    0 -0.13162171169E-01 -0.96856322983E-02 -0.18104236853E-01  0.10195411170E+01  0.10192493667E+01 0.  0.
     999903    2    3    3    0    0 -0.51529747953E-01  0.47576571996E-01 -0.11016173255E+00  0.13205837715E+00  0.19620462023E-01 0.  0.
         14    1    1    2    0    0  0.13162171169E-01  0.96856322983E-02  0.18104236853E-01  0.24388883019E-01  0.00000000000E+00 0.  1.
     999901    1    3    3    0    0  0.38367576784E-01 -0.57262204294E-01  0.92057495694E-01  0.88748273983E+00  0.88000000000E+00 0. -1.
        -11    1    4    4    0    0 -0.35834013945E-02  0.12940752905E-01 -0.24786527204E-01  0.28194625430E-01  0.51100000000E-03 0. -1.
         11    1    4    4    0    0 -0.47946346558E-01  0.34635819091E-01 -0.85375205343E-01  0.10386375172E+00  0.51100000000E-03 0.  1.
</event>
<event>
 8    1  0.1052028E+005  0.1043930E+01  0.7957747E-01            NaN
         13   -1    0    0    0    0  0.00000000000E+00  0.00000000000E+00  0.74505805969E-08  0.10566000000E+00  0.10566000000E+00 0. -1.
     999900   -1    0    0    0    0 -0.00000000000E+00 -0.00000000000E+00 -0.74505805969E-08  0.93827000000E+00  0.93827000000E+00 0. -1.
     999902    2    1    2    0    0 -0.49753971943E-02  0.72386617900E-02 -0.21568682173E-01  0.10206413579E+01  0.10203756272E+01 0.  0.
     999903    2    3    3    0    0  0.33543098765E-01 -0.12021316843E+00 -0.32830724665E-01  0.13055457718E+00  0.19755905467E-01 0.  0.
         14    1    1    2    0    0  0.49753971943E-02 -0.72386617900E-02  0.21568682173E-01  0.23288642133E-01  0.00000000000E+00 0. -1.
     999901    1    3    3    0    0 -0.38518495960E-01  0.12745183022E+00  0.11262042492E-01  0.89008678069E+00  0.88000000000E+00 0.  1.
        -11    1    4    4    0    0  0.23230760916E-01 -0.47304455474E-01 -0.12560440337E-01  0.54179383006E-01  0.51100000000E-03 0. -1.
         11    1    4    4    0    0  0.10312337850E-01 -0.72908712957E-01 -0.20270284327E-01  0.76375194171E-01  0.51100000000E-03 0.  1.
</event>
<event>
 8    1  0.1052028E+005  0.1043930E+01  0.7957747E-01            NaN
         13   -1    0    0    0    0  0.00000000000E+00  0.00000000000E+00  0.74505805969E-08  0.10566000000E+00  0.10566000000E+00 0. -1.
     999900   -1    0    0    0    0 -0.00000000000E+00 -0.00000000000E+00 -0.74505805969E-08  0.93827000000E+00  0.93827000000E+00 0. -1.
     999902    2    1    2    0    0  0.67153730740E-02  0.15896767018E-01  0.15402780526E-01  0.10207988719E+01  0.10205367646E+01 0.  0.
     999903    2    3    3    0    0 -0.11496504811E+00 -0.54268884581E-01 -0.16023969431E-01  0.12910554788E+00  0.15792427873E-01 0.  0.
         14    1    1    2    0    0 -0.67153730740E-02 -0.15896767018E-01 -0.15402780526E-01  0.23131128055E-01  0.00000000000E+00 0. -1.
     999901    1    3    3    0    0  0.12168042118E+00  0.70165651599E-01  0.31426749957E-01  0.89169332406E+00  0.88000000000E+00 0.  1.
        -11    1    4    4    0    0 -0.11888641701E-01 -0.11311050540E-01 -0.27934404172E-02  0.16653651136E-01  0.51100000000E-03 0.  1.
         11    1    4    4    0    0 -0.10307640641E+00 -0.42957834041E-01 -0.13230529014E-01  0.11245189675E+00  0.51100000000E-03 0. -1.
</event>
<event>
 8    1  0.1052028E+005  0.1043930E+01  0.7957747E-01            NaN
         13   -1    0    0    0    0  0.00000000000E+00  0.00000000000E+00  0.74505805969E-08  0.10566000000E+00  0.10566000000E+00 0.  1.
     999900   -1    0    0    0    0 -0.00000000000E+00 -0.00000000000E+00 -0.74505805969E-08  0.93827000000E+00  0.93827000000E+00 0. -1.
     999902    2    1    2    0    0 -0.13337706822E-01 -0.47534473592E-02 -0.19607254996E-01  0.10197445884E+01  0.10194577438E+01 0.  0.
     999903    2    3    3    0    0 -0.93562100220E-01 -0.56106719530E-01  0.67929693686E-01  0.13028642231E+00  0.21407428176E-01 0.  0.
         14    1    1    2    0    0  0.13337706822E-01  0.47534473592E-02  0.19607254996E-01  0.24185411585E-01  0.00000000000E+00 0.  1.
     999901    1    3    3    0    0  0.80224393398E-01  0.51353272171E-01 -0.87536948682E-01  0.88945816610E+00  0.88000000000E+00 0. -1.
        -11    1    4    4    0    0 -0.20416575555E-01 -0.21049516960E-01  0.24856278774E-01  0.38444953337E-01  0.51100000000E-03 0. -1.
         11    1    4    4    0    0 -0.73145524665E-01 -0.35057202570E-01  0.43073414912E-01  0.91841468977E-01  0.51100000000E-03 0.  1.
</event>
<event>
 8    1  0.1052028E+005  0.1043930E+01  0.7957747E-01            NaN
         13   -1    0    0    0    0  0.00000000000E+00  0.00000000000E+00  0.74505805969E-08  0.10566000000E+00  0.10566000000E+00 0.  1.
     999900   -1    0    0    0    0 -0.00000000000E+00 -0.00000000000E+00 -0.74505805969E-08  0.93827000000E+00  0.93827000000E+00 0. -1.
     999902    2    1    2    0    0 -0.19753432724E-01  0.87826284622E-02 -0.83848361618E-02  0.10207429747E+01  0.10204795844E+01 0.  0.
     999903    2    3    3    0    0 -0.83927767062E-01 -0.17219617834E-02  0.99861803553E-01  0.13172889905E+00  0.18256171559E-01 0.  0.
         14    1    1    2    0    0  0.19753432724E-01 -0.87826284622E-02  0.83848361618E-02  0.23187025349E-01  0.00000000000E+00 0.  1.
     999901    1    3    3    0    0  0.64174334338E-01  0.10504590246E-01 -0.10824663972E+00  0.88901407560E+00  0.88000000000E+00 0.  1.
        -11    1    4    4    0    0 -0.42433765231E-01 -0.87966051219E-03  0.36490943528E-01  0.55975425991E-01  0.51100000000E-03 0. -1.
         11    1    4    4    0    0 -0.41494001831E-01 -0.84230127117E-03  0.63370860025E-01  0.75753473060E-01  0.51100000000E-03 0.  1.
</event>
<event>
 8    1  0.1052028E+005  0.1043930E+01  0.7957747E-01            NaN
         13   -1    0    0    0    0  0.00000000000E+00  0.00000000000E+00  0.74505805969E-08  0.10566000000E+00  0.10566000000E+00 0. -1.
     999900   -1    0    0    0    0 -0.00000000000E+00 -0.00000000000E+00 -0.74505805969E-08  0.93827000000E+00  0.93827000000E+00 0. -1.
     999902    2    1    2    0    0 -0.18170145017E-01  0.61398226867E-02 -0.15729593719E-01  0.10191253288E+01  0.10188234215E+01 0.  0.
     999903    2    3    3    0    0 -0.93931960440E-01 -0.53597919908E-01  0.68884623665E-01  0.12981772382E+00  0.20287923271E-01 0.  0.
         14    1    1    2    0    0  0.18170145017E-01 -0.61398226867E-02  0.15729593719E-01  0.24804671155E-01  0.00000000000E+00 0. -1.
     999901    1    3    3    0    0  0.75761815423E-01  0.59737742595E-01 -0.84614217383E-01  0.88930760502E+00  0.88000000000E+00 0.  1.
        -11    1    4    4    0    0 -0.39329618153E-01 -0.24346633190E-01  0.41281377561E-01  0.61999924726E-01  0.51100000000E-03 0.  1.
         11    1    4    4    0    0 -0.54602342287E-01 -0.29251286718E-01  0.27603246104E-01  0.67817799097E-01  0.51100000000E-03 0. -1.
</event>
<event>
 8    1  0.1052028E+005  0.1043930E+01  0.7957747E-01            NaN
         13   -1    0    0    0    0  0.00000000000E+00  0.00000000000E+00  0.74505805969E-08  0.10566000000E+00  0.10566000000E+00 0. -1.
     999900   -1    0    0    0    0 -0.00000000000E+00 -0.00000000000E+00 -0.74505805969E-08  0.93827000000E+00  0.93827000000E+00 0. -1.
     999902    2    1    2    0    0  0.16871854912E-01  0.12836278641E-01 -0.84513344319E-02  0.10211077610E+01  0.10208526853E+01 0.  0.
     999903    2    3    3    0    0  0.71685983008E-01 -0.28613871356E-01  0.10425190962E+00  0.13126242347E+00  0.20093017756E-01 0.  0.
         14    1    1    2    0    0 -0.16871854912E-01 -0.12836278641E-01  0.84513344319E-02  0.22822238961E-01  0.00000000000E+00 0.  1.
     999901    1    3    3    0    0 -0.54814128096E-01  0.41450149997E-01 -0.11270324405E+00  0.88984533757E+00  0.88000000000E+00 0. -1.
        -11    1    4    4    0    0  0.23119347449E-01  0.30363848764E-03  0.27268741979E-01  0.35755304962E-01  0.51100000000E-03 0.  1.
         11    1    4    4    0    0  0.48566635559E-01 -0.28917509844E-01  0.76983167638E-01  0.95507118508E-01  0.51100000000E-03 0. -1.
</event>
<event>
 8    1  0.1052028E+005  0.1043930E+01  0.7957747E-01            NaN
         13   -1    0    0    0    0  0.00000000000E+00  0.00000000000E+00  0.74505805969E-08  0.10566000000E+00  0.10566000000E+00 0. -1.
     999900   -1    0    0    0    0 -0.00000000000E+00 -0.00000000000E+00 -0.74505805969E-08  0.93827000000E+00  0.93827000000E+00 0.  1.
     999902    2    1    2    0    0 -0.11656839940E-01 -0.10834752606E-01 -0.16595110758E-01  0.10209371428E+01  0.10206781951E+01 0.  0.
     999903    2    3    3    0    0  0.12079722794E+00  0.40382881213E-01 -0.12452184076E-01  0.12954245470E+00  0.20085898282E-01 0.  0.
         14    1    1    2    0    0  0.11656839940E-01  0.10834752606E-01  0.16595110758E-01  0.22992857206E-01  0.00000000000E+00 0. -1.
     999901    1    3    3    0    0 -0.13245406788E+00 -0.51217633819E-01 -0.41429266828E-02  0.89139468809E+00  0.88000000000E+00 0.  1.
        -11    1    4    4    0    0  0.40472152306E-01  0.16510685183E-01  0.48318992076E-02  0.43979611281E-01  0.51100000000E-03 0.  1.
         11    1    4    4    0    0  0.80325075634E-01  0.23872196030E-01 -0.17284083283E-01  0.85562843424E-01  0.51100000000E-03 0. -1.
</event>
<event>
 8    1  0.1052028E+005  0.1043930E+01  0.7957747E-01            NaN
         13   -1    0    0    0    0  0.00000000000E+00  0.00000000000E+00  0.74505805969E-08  0.10566000000E+00  0.10566000000E+00 0. -1.
     999900   -1    0    0    0    0 -0.00000000000E+00 -0.00000000000E+00 -0.74505805969E-08  0.93827000000E+00  0.93827000000E+00 0. -1.
     999902    2    1    2    0    0  0.18384303114E-01  0.35083824912E-02  0.14156814605E-01  0.10204628581E+01  0.10201929906E+01 0.  0.
     999903    2    3    3    0    0 -0.13858850922E-01 -0.66995960579E-01  0.11087907449E+00  0.13177524205E+00  0.19748893046E-01 0.  0.
         14    1    1    2    0    0 -0.18384303114E-01 -0.35083824912E-02 -0.14156814605E-01  0.23467141889E-01  0.00000000000E+00 0.  1.
     999901    1    3    3    0    0  0.32243154036E-01  0.70504343071E-01 -0.96722259882E-01  0.88868761606E+00  0.88000000000E+00 0. -1.
        -11    1    4    4    0    0 -0.14876093667E-01 -0.27221915021E-01  0.41803844595E-01  0.52059133341E-01  0.51100000000E-03 0.  1.
         11    1    4    4    0    0  0.10172427454E-02 -0.39774045558E-01  0.69075229892E-01  0.79716108714E-01  0.51100000000E-03 0. -1.
</event>
<event>
 8    1  0.1052028E+005  0.1043930E+01  0.7957747E-01            NaN
         13   -1    0    0    0    0  0.00000000000E+00  0.00000000000E+00  0.74505805969E-08  0.10566000000E+00  0.10566000000E+00 0.  1.
     999900   -1    0    0    0    0 -0.00000000000E+00 -0.00000000000E+00 -0.74505805969E-08  0.93827000000E+00  0.93827000000E+00 0. -1.
     999902    2    1    2    0    0  0.17658630890E-01  0.11810862157E-01 -0.11721416137E-02  0.10226533079E+01  0.10224319491E+01 0.  0.
     999903    2    3    3    0    0  0.12635492345E+00 -0.42313022793E-02  0.44946563064E-01  0.13462224429E+00  0.10930897810E-01 0.  0.
         14    1    1    2    0    0 -0.17658630890E-01 -0.11810862157E-01  0.11721416137E-02  0.21276692078E-01  0.00000000000E+00 0.  1.
     999901    1    3    3    0    0 -0.10869629256E+00  0.16042164437E-01 -0.46118704677E-01  0.88803106363E+00  0.88000000000E+00 0. -1.
        -11    1    4    4    0    0  0.58791754197E-01  0.26278959660E-02  0.23936248108E-01  0.63534095518E-01  0.51100000000E-03 0. -1.
         11    1    4    4    0    0  0.67563169254E-01 -0.68591982453E-02  0.21010314956E-01  0.71088148771E-01  0.51100000000E-03 0.  1.
</event>
<event>
 8    1  0.1052028E+005  0.1043930E+01  0.7957747E-01            NaN
         13   -1    0    0    0    0  0.00000000000E+00  0.00000000000E+00  0.74505805969E-08  0.10566000000E+00  0.10566000000E+00 0. -1.
     999900   -1    0    0    0    0 -0.00000000000E+00 -0.00000000000E+00 -0.74505805969E-08  0.93827000000E+00  0.93827000000E+00 0.  1.
     999902    2    1    2    0    0  0.26905013936E-02  0.61717838817E-02  0.24321176237E-01  0.10186941262E+01  0.10183814970E+01 0.  0.
     999903    2    3    3    0    0  0.66026850406E-01  0.99488637159E-01 -0.44559899827E-01  0.12882664680E+00  0.18793252921E-01 0.  0.
         14    1    1    2    0    0 -0.26905013936E-02 -0.61717838817E-02 -0.24321176237E-01  0.25235873822E-01  0.00000000000E+00 0.  1.
     999901    1    3    3    0    0 -0.63336349012E-01 -0.93316853277E-01  0.68881076064E-01  0.88986747938E+00  0.88000000000E+00 0.  1.
        -11    1    4    4    0    0  0.10004009023E-01  0.27810913633E-01 -0.15146984339E-01  0.33214746261E-01  0.51100000000E-03 0. -1.
         11    1    4    4    0    0  0.56022841383E-01  0.71677723526E-01 -0.29412915488E-01  0.95611900540E-01  0.51100000000E-03 0.  1.
</event>
<event>
 8    1  0.1052028E+005  0.1043930E+01  0.7957747E-01            NaN
         13   -1    0    0    0    0  0.00000000000E+00  0.00000000000E+00  0.74505805969E-08  0.10566000000E+00  0.10566000000E+00 0.  1.
     999900   -1    0    0    0    0 -0.00000000000E+00 -0.00000000000E+00 -0.74505805969E-08  0.93827000000E+00  0.93827000000E+00 0. -1.
     999902    2    1    2    0    0 -0.47336714823E-02  0.10486427005E-01  0.20983926868E-01  0.10199988909E+01  0.10197181176E+01 0.  0.
     999903    2    3    3    0    0 -0.37973730546E-01  0.30538399948E-01  0.12249965010E+00  0.13331268640E+00  0.19786611558E-01 0.  0.
         14    1    1    2    0    0  0.47336714823E-02 -0.10486427005E-01 -0.20983926868E-01  0.23931109122E-01  0.00000000000E+00 0. -1.
     999901    1    3    3    0    0  0.33240059064E-01 -0.20051972943E-01 -0.10151572324E+00  0.88668620448E+00  0.88000000000E+00 0. -1.
        -11    1    4    4    0    0 -0.30111140862E-01  0.17295935197E-01  0.63975527380E-01  0.72793951692E-01  0.51100000000E-03 0.  1.
         11    1    4    4    0    0 -0.78625896836E-02  0.13242464751E-01  0.58524122723E-01  0.60518734709E-01  0.51100000000E-03 0. -1.
</event>
<event>
 8    1  0.1052028E+005  0.1043930E+01  0.7957747E-01            NaN
         13   -1    0    0    0    0  0.00000000000E+00  0.00000000000E+00  0.74505805969E-08  0.10566000000E+00  0.10566000000E+00 0. -1.
     999900   -1    0    0    0    0 -0.00000000000E+00 -0.00000000000E+00 -0.74505805969E-08  0.93827000000E+00  0.93827000000E+00 0. -1.
     999902    2    1    2    0    0 -0.22005559569E-01 -0.28453068914E-02 -0.46848640024E-02  0.10212520730E+01  0.10210002489E+01 0.  0.
     999903    2    3    3    0    0 -0.10865238456E+00 -0.72884576309E-01 -0.19628212615E-01  0.13410131059E+00  0.21917861128E-01 0.  0.
         14    1    1    2    0    0  0.22005559569E-01  0.28453068914E-02  0.46848640024E-02  0.22677927021E-01  0.00000000000E+00 0. -1.
     999901    1    3    3    0    0  0.86646824994E-01  0.70039269417E-01  0.14943348613E-01  0.88715076239E+00  0.88000000000E+00 0.  1.
        -11    1    4    4    0    0 -0.63911997714E-01 -0.29717371279E-01 -0.10403158281E-01  0.71248525814E-01  0.51100000000E-03 0. -1.
         11    1    4    4    0    0 -0.44740386849E-01 -0.43167205030E-01 -0.92250543342E-02  0.62852784775E-01  0.51100000000E-03 0.  1.
</event>
<event>
 8    1  0.1052028E+005  0.1043930E+01  0.7957747E-01            NaN
         13   -1    0    0    0    0  0.00000000000E+00  0.00000000000E+00  0.74505805969E-08  0.10566000000E+00  0.10566000000E+00 0.  1.
     999900   -1    0    0    0    0 -0.00000000000E+00 -0.00000000000E+00 -0.74505805969E-08  0.93827000000E+00  0.93827000000E+00 0.  1.
     999902    2    1    2    0    0 -0.18007208507E-01 -0.95378579843E-03  0.14964730335E-01  0.10204968521E+01  0.10202277749E+01 0.  0.
     999903    2    3    3    0    0  0.10613403199E+00  0.30530483185E-01  0.65399647933E-01  0.12979713409E+00  0.19329741778E-01 0.  0.
         14    1    1    2    0    0  0.18007208507E-01  0.95378579843E-03 -0.14964730335E-01  0.23433147880E-01  0.00000000000E+00 0. -1.
     999901    1    3    3    0    0 -0.12414124050E+00 -0.31484268984E-01 -0.50434917598E-01  0.89069971803E+00  0.88000000000E+00 0.  1.
        -11    1    4    4    0    0  0.28778031715E-01  0.16705766537E-01  0.15521865483E-01  0.36721208778E-01  0.51100000000E-03 0.  1.
         11    1    4    4    0    0  0.77356000278E-01  0.13824716648E-01  0.49877782450E-01  0.93075925311E-01  0.51100000000E-03 0. -1.
</event>
<event>
 8    1  0.1052028E+005  0.1043930E+01  0.7957747E-01            NaN
         13   -1    0    0    0    0  0.00000000000E+00  0.00000000000E+00  0.74505805969E-08  0.10566000000E+00  0.10566000000E+00 0.  1.
     999900   -1    0    0    0    0 -0.00000000000E+00 -0.00000000000E+00 -0.74505805969E-08  0.93827000000E+00  0.93827000000E+00 0.  1.
     999902    2    1    2    0    0  0.10026876525E-01 -0.27218225638E-01 -0.12371485958E-01  0.10123955153E+01  0.10119042720E+01 0.  0.
     999903    2    3    3    0    0 -0.31034763440E-01 -0.11915547427E+00 -0.21760323418E-01  0.12660396747E+00  0.19846140995E-01 0.  0.
         14    1    1    2    0    0 -0.10026876525E-01  0.27218225638E-01  0.12371485958E-01  0.31534484688E-01  0.00000000000E+00 0. -1.
     999901    1    3    3    0    0  0.41061639965E-01  0.91937248635E-01  0.93888374602E-02  0.88579154784E+00  0.88000000000E+00 0. -1.
        -11    1    4    4    0    0 -0.55220773464E-02 -0.56221793610E-01 -0.54096751429E-02  0.56753053848E-01  0.51100000000E-03 0.  1.
         11    1    4    4    0    0 -0.25512686094E-01 -0.62933680663E-01 -0.16350648275E-01  0.69850913620E-01  0.51100000000E-03 0. -1.
</event>
<event>
 8    1  0.1052028E+005  0.1043930E+01  0.7957747E-01            NaN
         13   -1    0    0    0    0  0.00000000000E+00  0.00000000000E+00  0.74505805969E-08  0.10566000000E+00  0.10566000000E+00 0.  1.
     999900   -1    0    0    0    0 -0.00000000000E+00 -0.00000000000E+00 -0.74505805969E-08  0.93827000000E+00  0.93827000000E+00 0.  1.
     999902    2    1    2    0    0  0.15633746185E-01  0.12788049705E-01 -0.12287394615E-01  0.10202883355E+01  0.10200143917E+01 0.  0.
     999903    2    3    3    0    0 -0.47179140697E-01  0.11812170818E+00  0.24956335172E-01  0.13100337902E+00  0.18985715438E-01 0.  0.
         14    1    1    2    0    0 -0.15633746185E-01 -0.12788049705E-01  0.12287394615E-01  0.23641664524E-01  0.00000000000E+00 0.  1.
     999901    1    3    3    0    0  0.62812886882E-01 -0.10533365847E+00 -0.37243729787E-01  0.88928495645E+00  0.88000000000E+00 0.  1.
        -11    1    4    4    0    0 -0.80342099956E-02  0.81614655324E-02  0.53350715965E-02  0.12644451741E-01  0.51100000000E-03 0. -1.
         11    1    4    4    0    0 -0.39144930702E-01  0.10996024264E+00  0.19621263576E-01  0.11835892728E+00  0.51100000000E-03 0.  1.
</event>
<event>
 8    1  0.1052028E+005  0.1043930E+01  0.7957747E-01            NaN
         13   -1    0    0    0    0  0.00000000000E+00  0.00000000000E+00  0.74505805969E-08  0.10566000000E+00  0.10566000000E+00 0. -1.
     999900   -1    0    0    0    0 -0.00000000000E+00 -0.00000000000E+00 -0.74505805969E-08  0.93827000000E+00  0.93827000000E+00 0.  1.
     999902    2    1    2    0    0 -0.16071326270E-01  0.27103034527E-02  0.17702500456E-01  0.10198673361E+01  0.10195834303E+01 0.  0.
     999903    2    3    3    0    0 -0.57363644324E-01  0.11508401675E+00 -0.16451094762E-01  0.13110450211E+00  0.19566127655E-01 0.  0.
         14    1    1    2    0    0  0.16071326270E-01 -0.27103034527E-02 -0.17702500456E-01  0.24062663928E-01  0.00000000000E+00 0.  1.
     999901    1    3    3    0    0  0.41292318054E-01 -0.11237371330E+00  0.34153595218E-01  0.88876283397E+00  0.88000000000E+00 0.  1.
        -11    1    4    4    0    0 -0.10395743118E-01  0.39729872993E-01 -0.18066937954E-02  0.41110333816E-01  0.51100000000E-03 0. -1.
         11    1    4    4    0    0 -0.46967901206E-01  0.75354143762E-01 -0.14644400966E-01  0.89994168291E-01  0.51100000000E-03 0.  1.
</event>
<event>
 8    1  0.1052028E+005  0.1043930E+01  0.7957747E-01            NaN
         13   -1    0    0    0    0  0.00000000000E+00  0.00000000000E+00  0.74505805969E-08  0.10566000000E+00  0.10566000000E+00 0.  1.
     999900   -1    0    0    0    0 -0.00000000000E+00 -0.00000000000E+00 -0.74505805969E-08  0.93827000000E+00  0.93827000000E+00 0.  1.
     999902    2    1    2    0    0 -0.14092786529E-01  0.87040883328E-02 -0.17612244068E-01  0.10197523465E+01  0.10194656882E+01 0.  0.
     999903    2    3    3    0    0  0.10885409895E+00  0.32838247883E-01 -0.59964138051E-01  0.12986916475E+00  0.18513149888E-01 0.  0.
         14    1    1    2    0    0  0.14092786529E-01 -0.87040883328E-02  0.17612244068E-01  0.24177653463E-01  0.00000000000E+00 0.  1.
     999901    1    3    3    0    0 -0.12294688548E+00 -0.24134159550E-01  0.42351893983E-01  0.88988318179E+00  0.88000000000E+00 0.  1.
        -11    1    4    4    0    0  0.86507292836E-01  0.29232959543E-01 -0.55294186449E-01  0.10675104596E+00  0.51100000000E-03 0. -1.
         11    1    4    4    0    0  0.22346806111E-01  0.36052883399E-02 -0.46699516021E-02  0.23118118789E-01  0.51100000000E-03 0.  1.
</event>
<event>
 8    1  0.1052028E+005  0.1043930E+01  0.7957747E-01            NaN
         13   -1    0    0    0    0  0.00000000000E+00  0.00000000000E+00  0.74505805969E-08  0.10566000000E+00  0.10566000000E+00 0.  1.
     999900   -1    0    0    0    0 -0.00000000000E+00 -0.00000000000E+00 -0.74505805969E-08  0.93827000000E+00  0.93827000000E+00 0.  1.
     999902    2    1    2    0    0  0.11886186111E-01  0.19707985308E-01  0.23353246486E-02  0.10207969101E+01  0.10205347578E+01 0.  0.
     999903    2    3    3    0    0 -0.29549488750E-01 -0.12106709386E+00 -0.22532723033E-01  0.12829875448E+00  0.20553182081E-01 0.  0.
         14    1    1    2    0    0 -0.11886186111E-01 -0.19707985308E-01 -0.23353246486E-02  0.23133089858E-01  0.00000000000E+00 0.  1.
     999901    1    3    3    0    0  0.41435674861E-01  0.14077507916E+00  0.24868047682E-01  0.89249815566E+00  0.88000000000E+00 0.  1.
        -11    1    4    4    0    0 -0.92136388687E-02 -0.75919499278E-01 -0.92947001780E-02  0.77040989637E-01  0.51100000000E-03 0.  1.
         11    1    4    4    0    0 -0.20335849881E-01 -0.45147594578E-01 -0.13238022855E-01  0.51257764843E-01  0.51100000000E-03 0. -1.
</event>
<event>
 8    1  0.1052028E+005  0.1043930E+01  0.7957747E-01            NaN
         13   -1    0    0    0    0  0.00000000000E+00  0.00000000000E+00  0.74505805969E-08  0.10566000000E+00  0.10566000000E+00 0.  1.
     999900   -1    0    0    0    0 -0.00000000000E+00 -0.00000000000E+00 -0.74505805969E-08  0.93827000000E+00  0.93827000000E+00 0. -1.
     999902    2    1    2    0    0 -0.61328044401E-02  0.13865314135E-01 -0.17967437134E-01  0.10204207035E+01  0.10201498542E+01 0.  0.
     999903    2    3    3    0    0 -0.53044444924E-01 -0.62081370922E-01  0.97148009476E-01  0.12844527385E+00  0.19815218329E-01 0.  0.
         14    1    1    2    0    0  0.61328044401E-02 -0.13865314135E-01  0.17967437134E-01  0.23509296534E-01  0.00000000000E+00 0. -1.
     999901    1    3    3    0    0  0.46911640484E-01  0.75946685057E-01 -0.11511544661E+00  0.89197542961E+00  0.88000000000E+00 0. -1.
        -11    1    4    4    0    0 -0.19974635867E-01 -0.10053711371E-01  0.26667829285E-01  0.34806571652E-01  0.51100000000E-03 0. -1.
         11    1    4    4    0    0 -0.33069809057E-01 -0.52027659551E-01  0.70480180191E-01  0.93638702202E-01  0.51100000000E-03 0.  1.
</event>
<event>
 8    1  0.1052028E+005  0.1043930E+01  0.7957747E-01            NaN
         13   -1    0    0    0    0  0.00000000000E+00  0.00000000000E+00  0.74505805969E-08  0.10566000000E+00  0.10566000000E+00 0.  1.
     999900   -1    0    0    0    0 -0.00000000000E+00 -0.00000000000E+00 -0.74505805969E-08  0.93827000000E+00  0.93827000000E+00 0. -1.
     999902    2    1    2    0    0 -0.17311719246E-01  0.12346804650E-01 -0.85241494510E-02  0.10210214790E+01  0.10207644490E+01 0.  0.
     999903    2    3    3    0    0  0.46562931414E-01  0.10042964389E+00  0.67114119726E-01  0.13110029977E+00  0.20706607122E-01 0.  0.
         14    1    1    2    0    0  0.17311719246E-01 -0.12346804650E-01  0.85241494510E-02  0.22908520951E-01  0.00000000000E+00 0.  1.
     999901    1    3    3    0    0 -0.63874650660E-01 -0.88082839244E-01 -0.75638269177E-01  0.88992117928E+00  0.88000000000E+00 0. -1.
        -11    1    4    4    0    0  0.34121352813E-01  0.88711117058E-01  0.52362479534E-01  0.10851736908E+00  0.51100000000E-03 0. -1.
         11    1    4    4    0    0  0.12441578601E-01  0.11718526835E-01  0.14751640192E-01  0.22582930692E-01  0.51100000000E-03 0.  1.
</event>
<event>
 8    1  0.1052028E+005  0.1043930E+01  0.7957747E-01            NaN
         13   -1    0    0    0    0  0.00000000000E+00  0.00000000000E+00  0.74505805969E-08  0.10566000000E+00  0.10566000000E+00 0. -1.
     999900   -1    0    0    0    0 -0.00000000000E+00 -0.00000000000E+00 -0.74505805969E-08  0.93827000000E+00  0.93827000000E+00 0.  1.
     999902    2    1    2    0    0 -0.38991581856E-02 -0.11989084943E-01 -0.19497927352E-01  0.10207112411E+01  0.10204471211E+01 0.  0.
     999903    2    3    3    0    0 -0.94293547271E-01 -0.74872296146E-01  0.49028394275E-01  0.13120502947E+00  0.17715601209E-01 0.  0.
         14    1    1    2    0    0  0.38991581856E-02  0.11989084943E-01  0.19497927352E-01  0.23218758867E-01  0.00000000000E+00 0. -1.
     999901    1    3    3    0    0  0.90394389085E-01  0.62883211203E-01 -0.68526321627E-01  0.88950621166E+00  0.88000000000E+00 0.  1.
        -11    1    4    4    0    0 -0.29560344539E-01 -0.31706507773E-01  0.11675804348E-01  0.44896571501E-01  0.51100000000E-03 0.  1.
         11    1    4    4    0    0 -0.64733202732E-01 -0.43165788372E-01  0.37352589927E-01  0.86308457969E-01  0.51100000000E-03 0. -1.
</event>
<event>
 8    1  0.1052028E+005  0.1043930E+01  0.7957747E-01            NaN
         13   -1    0    0    0    0  0.00000000000E+00  0.00000000000E+00  0.74505805969E-08  0.10566000000E+00  0.10566000000E+00 0.  1.
     999900   -1    0    0    0    0 -0.00000000000E+00 -0.00000000000E+00 -0.74505805969E-08  0.93827000000E+00  0.93827000000E+00 0.  1.
     999902    2    1    2    0    0 -0.17371456165E-01  0.83817541345E-02  0.23304525194E-02  0.10245018683E+01  0.10243176392E+01 0.  0.
     999903    2    3    3    0    0 -0.52490386573E-01 -0.10926520472E+00  0.54603507614E-01  0.13444197231E+00  0.19974364258E-01 0.  0.
         14    1    1    2    0    0  0.17371456165E-01 -0.83817541345E-02 -0.23304525194E-02  0.19428131681E-01  0.00000000000E+00 0. -1.
     999901    1    3    3    0    0  0.35118930408E-01  0.11764695886E+00 -0.52273055095E-01  0.89005989601E+00  0.88000000000E+00 0. -1.
        -11    1    4    4    0    0 -0.10467517012E-01 -0.36591005228E-01  0.24457727388E-01  0.45242812976E-01  0.51100000000E-03 0. -1.
         11    1    4    4    0    0 -0.42022869562E-01 -0.72674199497E-01  0.30145780226E-01  0.89199159330E-01  0.51100000000E-03 0.  1.
</event>
<event>
 8    1  0.1052028E+005  0.1043930E+01  0.7957747E-01            NaN
         13   -1    0    0    0    0  0.00000000000E+00  0.00000000000E+00  0.74505805969E-08  0.10566000000E+00  0.10566000000E+00 0. -1.
     999900   -1    0    0    0    0 -0.00000000000E+00 -0.00000000000E+00 -0.74505805969E-08  0.93827000000E+00  0.93827000000E+00 0. -1.
     999902    2    1    2    0    0  0.12260106956E-01 -0.24067274526E-02 -0.20376819145E-01  0.10200277550E+01  0.10197476666E+01 0.  0.
     999903    2    3    3    0    0 -0.12602374023E+00  0.14440904556E-01 -0.12984346358E-01  0.12903902677E+00  0.19797837134E-01 0.  0.
         14    1    1    2    0    0 -0.12260106956E-01  0.24067274526E-02  0.20376819145E-01  0.23902245042E-01  0.00000000000E+00 0. -1.
     999901    1    3    3    0    0  0.13828384718E+00 -0.16847632009E-01 -0.73924727868E-02  0.89098872818E+00  0.88000000000E+00 0. -1.
        -11    1    4    4    0    0 -0.61629521467E-01 -0.15816382806E-02 -0.13464258987E-02  0.61666631816E-01  0.51100000000E-03 0. -1.
         11    1    4    4    0    0 -0.64394218761E-01  0.16022542837E-01 -0.11637920460E-01  0.67372394958E-01  0.51100000000E-03 0.  1.
</event>
<event>
 8    1  0.1052028E+005  0.1043930E+01  0.7957747E-01            NaN
         13   -1    0    0    0    0  0.00000000000E+00  0.00000000000E+00  0.74505805969E-08  0.10566000000E+00  0.10566000000E+00 0. -1.
     999900   -1    0    0    0    0 -0.00000000000E+00 -0.00000000000E+00 -0.74505805969E-08  0.93827000000E+00  0.93827000000E+00 0.  1.
     999902    2    1    2    0    0  0.11795776221E-01  0.98195559150E-02 -0.18545787963E-01  0.10198569805E+01  0.10195728275E+01 0.  0.
     999903    2    3    3    0    0  0.11896359247E+00  0.53678883401E-01 -0.21988190599E-02  0.13212064308E+00  0.20427204070E-01 0.  0.
         14    1    1    2    0    0 -0.11795776221E-01 -0.98195559150E-02  0.18545787963E-01  0.24073019466E-01  0.00000000000E+00 0. -1.
     999901    1    3    3    0    0 -0.10716781625E+00 -0.43859327486E-01 -0.16346968903E-01  0.88773633746E+00  0.88000000000E+00 0. -1.
        -11    1    4    4    0    0  0.62072980329E-01  0.37676896206E-01  0.38172350299E-02  0.72714756404E-01  0.51100000000E-03 0.  1.
         11    1    4    4    0    0  0.56890612139E-01  0.16001987195E-01 -0.60160540898E-02  0.59405886675E-01  0.51100000000E-03 0. -1.
</event>
<event>
 8    1  0.1052028E+005  0.1043930E+01  0.7957747E-01            NaN
         13   -1    0    0    0    0  0.00000000000E+00  0.00000000000E+00  0.74505805969E-08  0.10566000000E+00  0.10566000000E+00 0. -1.
     999900   -1    0    0    0    0 -0.00000000000E+00 -0.00000000000E+00 -0.74505805969E-08  0.93827000000E+00  0.93827000000E+00 0.  1.
     999902    2    1    2    0    0 -0.92333576653E-02  0.44086114427E-02  0.22259807366E-01  0.10194312292E+01  0.10191368118E+01 0.  0.
     999903    2    3    3    0    0 -0.11620290208E+00 -0.48775931139E-01 -0.26017027416E-01  0.13004844780E+00  0.18801785823E-01 0.  0.
         14    1    1    2    0    0  0.92333576653E-02 -0.44086114427E-02 -0.22259807366E-01  0.24498770839E-01  0.00000000000E+00 0.  1.
     999901    1    3    3    0    0  0.10696954441E+00  0.53184542582E-01  0.48276834782E-01  0.88938278136E+00  0.88000000000E+00 0. -1.
        -11    1    4    4    0    0 -0.77146695761E-01 -0.30454744509E-01 -0.25945902759E-01  0.86905437810E-01  0.51100000000E-03 0. -1.
         11    1    4    4    0    0 -0.39056206318E-01 -0.18321186630E-01 -0.71124656958E-04  0.43143009992E-01  0.51100000000E-03 0.  1.
</event>
<event>
 8    1  0.1052028E+005  0.1043930E+01  0.7957747E-01            NaN
         13   -1    0    0    0    0  0.00000000000E+00  0.00000000000E+00  0.74505805969E-08  0.10566000000E+00  0.10566000000E+00 0. -1.
     999900   -1    0    0    0    0 -0.00000000000E+00 -0.00000000000E+00 -0.74505805969E-08  0.93827000000E+00  0.93827000000E+00 0.  1.
     999902    2    1    2    0    0  0.10633884528E-01 -0.20608442777E-01  0.16789873566E-03  0.10207391483E+01  0.10204756701E+01 0.  0.
     999903    2    3    3    0    0 -0.58121257847E-01 -0.88896615486E-01 -0.74165003923E-01  0.13230461239E+00  0.26895609191E-01 0.  0.
         14    1    1    2    0    0 -0.10633884528E-01  0.20608442777E-01 -0.16789873566E-03  0.23190851727E-01  0.00000000000E+00 0. -1.
     999901    1    3    3    0    0  0.68755142374E-01  0.68288172709E-01  0.74332902659E-01  0.88843453588E+00  0.88000000000E+00 0. -1.
        -11    1    4    4    0    0 -0.15512436698E-01 -0.45567646674E-01 -0.39996684795E-01  0.62586276701E-01  0.51100000000E-03 0. -1.
         11    1    4    4    0    0 -0.42608821148E-01 -0.43328968812E-01 -0.34168319129E-01  0.69718335688E-01  0.51100000000E-03 0.  1.
</event>
<event>
 8    1  0.1052028E+005  0.1043930E+01  0.7957747E-01            NaN
         13   -1    0    0    0    0  0.00000000000E+00  0.00000000000E+00  0.74505805969E-08  0.10566000000E+00  0.10566000000E+00 0.  1.
     999900   -1    0    0    0    0 -0.00000000000E+00 -0.00000000000E+00 -0.74505805969E-08  0.93827000000E+00  0.93827000000E+00 0. -1.
     999902    2    1    2    0    0 -0.91244440792E-03  0.14960923698E-01 -0.17959189784E-01  0.10205378156E+01  0.10202696893E+01 0.  0.
     999903    2    3    3    0    0 -0.70939489112E-01  0.27687594316E-01  0.10256707669E+00  0.12947533966E+00  0.21091333885E-01 0.  0.
         14    1    1    2    0    0  0.91244440792E-03 -0.14960923698E-01  0.17959189784E-01  0.23392184387E-01  0.00000000000E+00 0.  1.
     999901    1    3    3    0    0  0.70027044704E-01 -0.12726670618E-01 -0.12052626648E+00  0.89106247595E+00  0.88000000000E+00 0. -1.
        -11    1    4    4    0    0 -0.19685770842E-01  0.17763313522E-01  0.39909558398E-01  0.47917625707E-01  0.51100000000E-03 0. -1.
         11    1    4    4    0    0 -0.51253718270E-01  0.99242807946E-02  0.62657518295E-01  0.81557713956E-01  0.51100000000E-03 0.  1.
</event>
<event>
 8    1  0.1052028E+005  0.1043930E+01  0.7957747E-01            NaN
         13   -1    0    0    0    0  0.00000000000E+00  0.00000000000E+00  0.74505805969E-08  0.10566000000E+00  0.10566000000E+00 0.  1.
     999900   -1    0    0    0    0 -0.00000000000E+00 -0.00000000000E+00 -0.74505805969E-08  0.93827000000E+00  0.93827000000E+00 0.  1.
     999902    2    1    2    0    0  0.15053283815E-02 -0.21883451282E-01  0.57191081589E-02  0.10212615274E+01  0.10210099155E+01 0.  0.
     999903    2    3    3    0    0 -0.12051598782E-01 -0.52174873635E-01 -0.11776184293E+00  0.13202089299E+00  0.26347790482E-01 0.  0.
         14    1    1    2    0    0 -0.15053283815E-02  0.21883451282E-01 -0.57191081589E-02  0.22668472637E-01  0.00000000000E+00 0. -1.
     999901    1    3    3    0    0  0.13556927163E-01  0.30291422353E-01  0.12348095109E+00  0.88924063438E+00  0.88000000000E+00 0. -1.
        -11    1    4    4    0    0 -0.18501354770E-01 -0.48705646960E-01 -0.10673740801E+00  0.11877573643E+00  0.51100000000E-03 0.  1.
         11    1    4    4    0    0  0.64497559884E-02 -0.34692266752E-02 -0.11024434915E-01  0.13245156557E-01  0.51100000000E-03 0. -1.
</event>
<event>
 8    1  0.1052028E+005  0.1043930E+01  0.7957747E-01            NaN
         13   -1    0    0    0    0  0.00000000000E+00  0.00000000000E+00  0.74505805969E-08  0.10566000000E+00  0.10566000000E+00 0. -1.
     999900   -1    0    0    0    0 -0.00000000000E+00 -0.00000000000E+00 -0.74505805969E-08  0.93827000000E+00  0.93827000000E+00 0.  1.
     999902    2    1    2    0    0  0.16692823207E-01 -0.12932585132E-01  0.65869656575E-02  0.10218100945E+01  0.10215706431E+01 0.  0.
     999903    2    3    3    0    0 -0.11812151102E+00 -0.99038417938E-02 -0.48947640010E-01  0.12980775677E+00  0.20084939841E-01 0.  0.
         14    1    1    2    0    0 -0.16692823207E-01  0.12932585132E-01 -0.65869656575E-02  0.22119905547E-01  0.00000000000E+00 0.  1.
     999901    1    3    3    0    0  0.13481433423E+00 -0.30287433387E-02  0.55534605668E-01  0.89200233768E+00  0.88000000000E+00 0.  1.
        -11    1    4    4    0    0 -0.36047817239E-01  0.52874809868E-03 -0.24296881297E-01  0.43477859469E-01  0.51100000000E-03 0.  1.
         11    1    4    4    0    0 -0.82073693780E-01 -0.10432589892E-01 -0.24650758713E-01  0.86329897305E-01  0.51100000000E-03 0. -1.
</event>
<event>
 8    1  0.1052028E+005  0.1043930E+01  0.7957747E-01            NaN
         13   -1    0    0    0    0  0.00000000000E+00  0.00000000000E+00  0.74505805969E-08  0.10566000000E+00  0.10566000000E+00 0.  1.
     999900   -1    0    0    0    0 -0.00000000000E+00 -0.00000000000E+00 -0.74505805969E-08  0.93827000000E+00  0.93827000000E+00 0. -1.
     999902    2    1    2    0    0  0.82944145786E-02 -0.20654037553E-01 -0.59563577765E-02  0.10208894970E+01  0.10206294628E+01 0.  0.
     999903    2    3    3    0    0 -0.26516333750E-02 -0.85318913577E-01 -0.10034958583E+00  0.13341474037E+00  0.21050068846E-01 0.  0.
         14    1    1    2    0    0 -0.82944145786E-02  0.20654037553E-01  0.59563577765E-02  0.23040502998E-01  0.00000000000E+00 0. -1.
     999901    1    3    3    0    0  0.10946047954E-01  0.64664876024E-01  0.94393228053E-01  0.88747475663E+00  0.88000000000E+00 0.  1.
        -11    1    4    4    0    0  0.91483166061E-02 -0.43954097010E-01 -0.51441127022E-01  0.68279609042E-01  0.51100000000E-03 0.  1.
         11    1    4    4    0    0 -0.11799949981E-01 -0.41364816567E-01 -0.48908458807E-01  0.65135131328E-01  0.51100000000E-03 0. -1.
</event>
<event>
 8    1  0.1052028E+005  0.1043930E+01  0.7957747E-01            NaN
         13   -1    0    0    0    0  0.00000000000E+00  0.00000000000E+00  0.74505805969E-08  0.10566000000E+00  0.10566000000E+00 0. -1.
     999900   -1    0    0    0    0 -0.00000000000E+00 -0.00000000000E+00 -0.74505805969E-08  0.93827000000E+00  0.93827000000E+00 0. -1.
     999902    2    1    2    0    0  0.74968549382E-02 -0.66576157342E-02 -0.25011909320E-01  0.10169833436E+01  0.10166262828E+01 0.  0.
     999903    2    3    3    0    0 -0.38812529566E-01 -0.65959951923E-01 -0.10344592877E+00  0.13029669009E+00  0.20470455778E-01 0.  0.
         14    1    1    2    0    0 -0.74968549382E-02  0.66576157342E-02  0.25011909320E-01  0.26946656361E-01  0.00000000000E+00 0. -1.
     999901    1    3    3    0    0  0.46309384505E-01  0.59302336189E-01  0.78434019454E-01  0.88668665355E+00  0.88000000000E+00 0.  1.
        -11    1    4    4    0    0 -0.15298577086E-01 -0.12969413476E-01 -0.17487416734E-01  0.26614338462E-01  0.51100000000E-03 0. -1.
         11    1    4    4    0    0 -0.23513952481E-01 -0.52990538447E-01 -0.85958512040E-01  0.10368235163E+00  0.51100000000E-03 0.  1.
</event>
<event>
 8    1  0.1052028E+005  0.1043930E+01  0.7957747E-01            NaN
         13   -1    0    0    0    0  0.00000000000E+00  0.00000000000E+00  0.74505805969E-08  0.10566000000E+00  0.10566000000E+00 0. -1.
     999900   -1    0    0    0    0 -0.00000000000E+00 -0.00000000000E+00 -0.74505805969E-08  0.93827000000E+00  0.93827000000E+00 0. -1.
     999902    2    1    2    0    0 -0.15725935604E-01  0.17069540361E-01 -0.19045516675E-01  0.10139065764E+01  0.10134619577E+01 0.  0.
     999903    2    3    3    0    0  0.12109495727E+00 -0.30970403816E-02  0.54673799224E-02  0.12276824270E+00  0.19198146741E-01 0.  0.
         14    1    1    2    0    0  0.15725935604E-01 -0.17069540361E-01  0.19045516675E-01  0.30023423592E-01  0.00000000000E+00 0. -1.
     999901    1    3    3    0    0 -0.13682089287E+00  0.20166580742E-01 -0.24512896597E-01  0.89113833371E+00  0.88000000000E+00 0. -1.
        -11    1    4    4    0    0  0.10542222188E+00 -0.79902975790E-02  0.84881084191E-02  0.10606601165E+00  0.51100000000E-03 0.  1.
         11    1    4    4    0    0  0.15672735388E-01  0.48932571974E-02 -0.30207284968E-02  0.16702231055E-01  0.51100000000E-03 0. -1.
</event>
<event>
 8    1  0.1052028E+005  0.1043930E+01  0.7957747E-01            NaN
         13   -1    0    0    0    0  0.00000000000E+00  0.00000000000E+00  0.74505805969E-08  0.10566000000E+00  0.10566000000E+00 0. -1.
     999900   -1    0    0    0    0 -0.00000000000E+00 -0.00000000000E+00 -0.74505805969E-08  0.93827000000E+00  0.93827000000E+00 0.  1.
     999902    2    1    2    0    0 -0.98472935411E-02 -0.64385234548E-02 -0.20849539590E-01  0.10199899274E+01  0.10197089413E+01 0.  0.
     999903    2    3    3    0    0 -0.23229366867E-01 -0.11871173142E+00  0.44103674800E-01  0.13038143309E+00  0.20545201458E-01 0.  0.
         14    1    1    2    0    0  0.98472935411E-02  0.64385234548E-02  0.20849539590E-01  0.23940072587E-01  0.00000000000E+00 0. -1.
     999901    1    3    3    0    0  0.13382073326E-01  0.11227320796E+00 -0.64953214389E-01  0.88960849432E+00  0.88000000000E+00 0. -1.
        -11    1    4    4    0    0 -0.11365939922E-01 -0.58100414010E-01  0.10698073952E-01  0.60162717739E-01  0.51100000000E-03 0.  1.
         11    1    4    4    0    0 -0.11863426945E-01 -0.60611317406E-01  0.33405600848E-01  0.70218715351E-01  0.51100000000E-03 0. -1.
</event>
<event>
 8    1  0.1052028E+005  0.1043930E+01  0.7957747E-01            NaN
         13   -1    0    0    0    0  0.00000000000E+00  0.00000000000E+00  0.74505805969E-08  0.10566000000E+00  0.10566000000E+00 0. -1.
     999900   -1    0    0    0    0 -0.00000000000E+00 -0.00000000000E+00 -0.74505805969E-08  0.93827000000E+00  0.93827000000E+00 0.  1.
     999902    2    1    2    0    0 -0.19477054829E-01 -0.75412044795E-02  0.64414716950E-02  0.10220732393E+01  0.10218395121E+01 0.  0.
     999903    2    3    3    0    0  0.31191361006E-01 -0.11841029094E+00  0.46950940243E-01  0.13274750612E+00  0.20581826637E-01 0.  0.
         14    1    1    2    0    0  0.19477054829E-01  0.75412044795E-02 -0.64414716950E-02  0.21856760680E-01  0.00000000000E+00 0.  1.
     999901    1    3    3    0    0 -0.50668415835E-01  0.11086908646E+00 -0.40509468548E-01  0.88932573320E+00  0.88000000000E+00 0.  1.
        -11    1    4    4    0    0 -0.97010263889E-03 -0.23115161972E-01  0.13295837675E-01  0.26688803507E-01  0.51100000000E-03 0.  1.
         11    1    4    4    0    0  0.32161463645E-01 -0.95295128971E-01  0.33655102568E-01  0.10605870261E+00  0.51100000000E-03 0. -1.
</event>
<event>
 8    1  0.1052028E+005  0.1043930E+01  0.7957747E-01            NaN
         13   -1    0    0    0    0  0.00000000000E+00  0.00000000000E+00  0.74505805969E-08  0.10566000000E+00  0.10566000000E+00 0.  1.
     999900   -1    0    0    0    0 -0.00000000000E+00 -0.00000000000E+00 -0.74505805969E-08  0.93827000000E+00  0.93827000000E+00 0. -1.
     999902    2    1    2    0    0  0.18208806352E-01  0.12146751821E-01  0.33334337944E-02  0.10217891782E+01  0.10215492689E+01 0.  0.
     999903    2    3    3    0    0  0.11040437830E+00  0.75063193795E-01 -0.77977925856E-02  0.13466888966E+00  0.15852269978E-01 0.  0.
         14    1    1    2    0    0 -0.18208806352E-01 -0.12146751821E-01 -0.33334337944E-02  0.22140821788E-01  0.00000000000E+00 0. -1.
     999901    1    3    3    0    0 -0.92195571946E-01 -0.62916441974E-01  0.11131226380E-01  0.88712028855E+00  0.88000000000E+00 0.  1.
        -11    1    4    4    0    0  0.75128571734E-01  0.59587582653E-01 -0.43510441450E-02  0.95990494338E-01  0.51100000000E-03 0.  1.
         11    1    4    4    0    0  0.35275806565E-01  0.15475611142E-01 -0.34467484406E-02  0.38678395324E-01  0.51100000000E-03 0. -1.
</event>
<event>
 8    1  0.1052028E+005  0.1043930E+01  0.7957747E-01            NaN
         13   -1    0    0    0    0  0.00000000000E+00  0.00000000000E+00  0.74505805969E-08  0.10566000000E+00  0.10566000000E+00 0.  1.
     999900   -1    0    0    0    0 -0.00000000000E+00 -0.00000000000E+00 -0.74505805969E-08  0.93827000000E+00  0.93827000000E+00 0. -1.
     999902    2    1    2    0    0  0.84663176271E-02  0.19674027158E-01  0.28252247127E-02  0.10223261167E+01  0.10220978237E+01 0.  0.
     999903    2    3    3    0    0 -0.81907990780E-01 -0.95736560753E-01  0.24217700817E-01  0.12994460779E+00  0.20608154744E-01 0.  0.
         14    1    1    2    0    0 -0.84663176271E-02 -0.19674027158E-01 -0.28252247127E-02  0.21603883295E-01  0.00000000000E+00 0.  1.
     999901    1    3    3    0    0  0.90374308407E-01  0.11541058791E+00 -0.21392476104E-01  0.89238150892E+00  0.88000000000E+00 0. -1.
        -11    1    4    4    0    0 -0.43024844221E-01 -0.65648229671E-01  0.15579617637E-01  0.80023826988E-01  0.51100000000E-03 0. -1.
         11    1    4    4    0    0 -0.38883146559E-01 -0.30088331082E-01  0.86380831802E-02  0.49920780800E-01  0.51100000000E-03 0.  1.
</event>
<event>
 8    1  0.1052028E+005  0.1043930E+01  0.7957747E-01            NaN
         13   -1    0    0    0    0  0.00000000000E+00  0.00000000000E+00  0.74505805969E-08  0.10566000000E+00  0.10566000000E+00 0.  1.
     999900   -1    0    0    0    0 -0.00000000000E+00 -0.00000000000E+00 -0.74505805969E-08  0.93827000000E+00  0.93827000000E+00 0.  1.
     999902    2    1    2    0    0 -0.11686819365E-01 -0.72180881785E-02  0.26213533258E-01  0.10143355433E+01  0.10139037244E+01 0.  0.
     999903    2    3    3    0    0 -0.76494687708E-01  0.33119967762E-01  0.96394835870E-01  0.12824715388E+00  0.14387445370E-01 0.  0.
         14    1    1    2    0    0  0.11686819365E-01  0.72180881785E-02 -0.26213533258E-01  0.29594456739E-01  0.00000000000E+00 0. -1.
     999901    1    3    3    0    0  0.64807868343E-01 -0.40338055940E-01 -0.70181302612E-01  0.88608838938E+00  0.88000000000E+00 0. -1.
        -11    1    4    4    0    0 -0.32461041816E-01  0.17870191567E-01  0.52234344693E-01  0.64044912905E-01  0.51100000000E-03 0. -1.
         11    1    4    4    0    0 -0.44033645892E-01  0.15249776195E-01  0.44160491177E-01  0.64202240977E-01  0.51100000000E-03 0.  1.
</event>
<event>
 8    1  0.1052028E+005  0.1043930E+01  0.7957747E-01            NaN
         13   -1    0    0    0    0  0.00000000000E+00  0.00000000000E+00  0.74505805969E-08  0.10566000000E+00  0.10566000000E+00 0. -1.
     999900   -1    0    0    0    0 -0.00000000000E+00 -0.00000000000E+00 -0.74505805969E-08  0.93827000000E+00  0.93827000000E+00 0. -1.
     999902    2    1    2    0    0  0.14396214537E-01 -0.19207981177E-01  0.66306047517E-02  0.10190269389E+01  0.10187226019E+01 0.  0.
     999903    2    3    3    0    0 -0.12329844806E+00  0.80482569521E-02  0.25418268166E-01  0.12770449502E+00  0.19876316537E-01 0.  0.
         14    1    1    2    0    0 -0.14396214537E-01  0.19207981177E-01 -0.66306047517E-02  0.24903061122E-01  0.00000000000E+00 0. -1.
     999901    1    3    3    0    0  0.13769466259E+00 -0.27256238129E-01 -0.18787663415E-01  0.89132244386E+00  0.88000000000E+00 0.  1.
        -11    1    4    4    0    0 -0.60174743607E-01  0.13824722313E-01  0.11544131117E-01  0.62814415538E-01  0.51100000000E-03 0.  1.
         11    1    4    4    0    0 -0.63123704450E-01 -0.57764653606E-02  0.13874137049E-01  0.64890079484E-01  0.51100000000E-03 0. -1.
</event>
<event>
 8    1  0.1052028E+005  0.1043930E+01  0.7957747E-01            NaN
         13   -1    0    0    0    0  0.00000000000E+00  0.00000000000E+00  0.74505805969E-08  0.10566000000E+00  0.10566000000E+00 0.  1.
     999900   -1    0    0    0    0 -0.00000000000E+00 -0.00000000000E+00 -0.74505805969E-08  0.93827000000E+00  0.93827000000E+00 0.  1.
     999902    2    1    2    0    0  0.31363921095E-03  0.71463922557E-02  0.21209320175E-01  0.10215468690E+01  0.10213016210E+01 0.  0.
     999903    2    3    3    0    0  0.13088046018E-01  0.12920305523E+00  0.19662534859E-01  0.13302933568E+00  0.21105981281E-01 0.  0.
         14    1    1    2    0    0 -0.31363921095E-03 -0.71463922557E-02 -0.21209320175E-01  0.22383131017E-01  0.00000000000E+00 0.  1.
     999901    1    3    3    0    0 -0.12774406807E-01 -0.12205666297E+00  0.15467853156E-02  0.88851753330E+00  0.88000000000E+00 0. -1.
        -11    1    4    4    0    0  0.15061205917E-01  0.10324647026E+00  0.84529490726E-02  0.10468231471E+00  0.51100000000E-03 0. -1.
         11    1    4    4    0    0 -0.19731598996E-02  0.25956584965E-01  0.11209585787E-01  0.28347020964E-01  0.51100000000E-03 0.  1.
</event>
<event>
 8    1  0.1052028E+005  0.1043930E+01  0.7957747E-01            NaN
         13   -1    0    0    0    0  0.00000000000E+00  0.00000000000E+00  0.74505805969E-08  0.10566000000E+00  0.10566000000E+00 0. -1.
     999900   -1    0    0    0    0 -0.00000000000E+00 -0.00000000000E+00 -0.74505805969E-08  0.93827000000E+00  0.93827000000E+00 0.  1.
     999902    2    1    2    0    0 -0.91845123731E-02 -0.14493786001E-01  0.17032805450E-01  0.10197527057E+01  0.10194660559E+01 0.  0.
     999903    2    3    3    0    0  0.71859929874E-02 -0.10734686023E+00 -0.70810807006E-01  0.13036741958E+00  0.20162013903E-01 0.  0.
         14    1    1    2    0    0  0.91845123731E-02  0.14493786001E-01 -0.17032805450E-01  0.24177294341E-01  0.00000000000E+00 0.  1.
     999901    1    3    3    0    0 -0.16370505360E-01  0.92853074224E-01  0.87843612455E-01  0.88938528608E+00  0.88000000000E+00 0. -1.
        -11    1    4    4    0    0  0.11189348909E-01 -0.78203870624E-01 -0.59270797557E-01  0.98764039375E-01  0.51100000000E-03 0. -1.
         11    1    4    4    0    0 -0.40033559218E-02 -0.29142989601E-01 -0.11540009449E-01  0.31603380209E-01  0.51100000000E-03 0.  1.
</event>
<event>
 8    1  0.1052028E+005  0.1043930E+01  0.7957747E-01            NaN
         13   -1    0    0    0    0  0.00000000000E+00  0.00000000000E+00  0.74505805969E-08  0.10566000000E+00  0.10566000000E+00 0.  1.
     999900   -1    0    0    0    0 -0.00000000000E+00 -0.00000000000E+00 -0.74505805969E-08  0.93827000000E+00  0.93827000000E+00 0.  1.
     999902    2    1    2    0    0  0.14359808903E-01 -0.14444435521E-01  0.11369794991E-01  0.10206036615E+01  0.10203370599E+01 0.  0.
     999903    2    3    3    0    0 -0.69747728075E-01 -0.65341592128E-03 -0.10625590460E+00  0.12869555234E+00  0.20175614146E-01 0.  0.
         14    1    1    2    0    0 -0.14359808903E-01  0.14444435521E-01 -0.11369794991E-01  0.23326338491E-01  0.00000000000E+00 0. -1.
     999901    1    3    3    0    0  0.84107536978E-01 -0.13791019599E-01  0.11762569959E+00  0.89190810917E+00  0.88000000000E+00 0. -1.
        -11    1    4    4    0    0 -0.48072549296E-01 -0.80008101607E-02 -0.81635160775E-01  0.95076514213E-01  0.51100000000E-03 0.  1.
         11    1    4    4    0    0 -0.21675178779E-01  0.73473942395E-02 -0.24620743823E-01  0.33619038127E-01  0.51100000000E-03 0. -1.
</event>
<event>
 8    1  0.1052028E+005  0.1043930E+01  0.7957747E-01            NaN
         13   -1    0    0    0    0  0.00000000000E+00  0.00000000000E+00  0.74505805969E-08  0.10566000000E+00  0.10566000000E+00 0.  1.
     999900   -1    0    0    0    0 -0.00000000000E+00 -0.00000000000E+00 -0.74505805969E-08  0.93827000000E+00  0.93827000000E+00 0. -1.
     999902    2    1    2    0    0  0.44384619785E-02 -0.23572646532E-01  0.48944495477E-02  0.10194488798E+01  0.10191548917E+01 0.  0.
     999903    2    3    3    0    0 -0.79109750710E-01  0.49385769812E-01 -0.85261248213E-01  0.12791577095E+00  0.19891131036E-01 0.  0.
         14    1    1    2    0    0 -0.44384619785E-02  0.23572646532E-01 -0.48944495477E-02  0.24481120187E-01  0.00000000000E+00 0.  1.
     999901    1    3    3    0    0  0.83548212688E-01 -0.72958416343E-01  0.90155697760E-01  0.89153310886E+00  0.88000000000E+00 0.  1.
        -11    1    4    4    0    0 -0.25969244863E-01  0.25628054776E-01 -0.40279211089E-01  0.54349561519E-01  0.51100000000E-03 0. -1.
         11    1    4    4    0    0 -0.53140505847E-01  0.23757715036E-01 -0.44982037123E-01  0.73566209432E-01  0.51100000000E-03 0.  1.
</event>
<event>
 8    1  0.1052028E+005  0.1043930E+01  0.7957747E-01            NaN
         13   -1    0    0    0    0  0.00000000000E+00  0.00000000000E+00  0.74505805969E-08  0.10566000000E+00  0.10566000000E+00 0.  1.
     999900   -1    0    0    0    0 -0.00000000000E+00 -0.00000000000E+00 -0.74505805969E-08  0.93827000000E+00  0.93827000000E+00 0.  1.
     999902    2    1    2    0    0  0.11128347587E-01  0.51042714430E-02 -0.20183691366E-01  0.10203233250E+01  0.10200502009E+01 0.  0.
     999903    2    3    3    0    0  0.12433682989E+00  0.39095447757E-01 -0.14001192906E-01  0.13239890040E+00  0.18583167714E-01 0.  0.
         14    1    1    2    0    0 -0.11128347587E-01 -0.51042714430E-02  0.20183691366E-01  0.23606674991E-01  0.00000000000E+00 0.  1.
     999901    1    3    3    0    0 -0.11320848230E+00 -0.33991176314E-01 -0.61824984593E-02  0.88792442461E+00  0.88000000000E+00 0. -1.
        -11    1    4    4    0    0  0.11687068209E+00  0.38798459445E-01 -0.91660375020E-02  0.12348422633E+00  0.51100000000E-03 0. -1.
         11    1    4    4    0    0  0.74661477962E-02  0.29698831127E-03 -0.48351554043E-02  0.89146740689E-02  0.51100000000E-03 0.  1.
</event>
<event>
 8    1  0.1052028E+005  0.1043930E+01  0.7957747E-01            NaN
         13   -1    0    0    0    0  0.00000000000E+00  0.00000000000E+00  0.74505805969E-08  0.10566000000E+00  0.10566000000E+00 0. -1.
     999900   -1    0    0    0    0 -0.00000000000E+00 -0.00000000000E+00 -0.74505805969E-08  0.93827000000E+00  0.93827000000E+00 0.  1.
     999902    2    1    2    0    0  0.41666488598E-02 -0.21970187724E-01 -0.71363273628E-02  0.10204570948E+01  0.10201870931E+01 0.  0.
     999903    2    3    3    0    0 -0.99939200759E-01 -0.77936182565E-01  0.29944696369E-01  0.13178098796E+00  0.20190382525E-01 0.  0.
         14    1    1    2    0    0 -0.41666488598E-02  0.21970187724E-01  0.71363273628E-02  0.23472905223E-01  0.00000000000E+00 0. -1.
     999901    1    3    3    0    0  0.10410584962E+00  0.55965994841E-01 -0.37081023732E-01  0.88867610682E+00  0.88000000000E+00 0. -1.
        -11    1    4    4    0    0 -0.47556045551E-01 -0.42443614019E-01  0.56261054584E-02  0.63991812157E-01  0.51100000000E-03 0. -1.
         11    1    4    4    0    0 -0.52383155208E-01 -0.35492568545E-01  0.24318590910E-01  0.67789175806E-01  0.51100000000E-03 0.  1.
</event>
<event>
 8    1  0.1052028E+005  0.1043930E+01  0.7957747E-01            NaN
         13   -1    0    0    0    0  0.00000000000E+00  0.00000000000E+00  0.74505805969E-08  0.10566000000E+00  0.10566000000E+00 0. -1.
     999900   -1    0    0    0    0 -0.00000000000E+00 -0.00000000000E+00 -0.74505805969E-08  0.93827000000E+00  0.93827000000E+00 0.  1.
     999902    2    1    2    0    0 -0.88559546501E-02 -0.17623889831E-01  0.12412086209E-01  0.10206257234E+01  0.10203596316E+01 0.  0.
     999903    2    3    3    0    0  0.26764346114E-01  0.12401087989E+00 -0.91879951331E-03  0.12848956428E+00  0.20339503027E-01 0.  0.
         14    1    1    2    0    0  0.88559546501E-02  0.17623889831E-01 -0.12412086209E-01  0.23304276638E-01  0.00000000000E+00 0.  1.
     999901    1    3    3    0    0 -0.35620300764E-01 -0.14163476972E+00  0.13330885723E-01  0.89213615908E+00  0.88000000000E+00 0. -1.
        -11    1    4    4    0    0  0.15433172067E-01  0.60850999565E-01  0.94500762408E-02  0.63486943619E-01  0.51100000000E-03 0.  1.
         11    1    4    4    0    0  0.11331174047E-01  0.63159880325E-01 -0.10368875754E-01  0.65002620665E-01  0.51100000000E-03 0. -1.
</event>
<event>
 8    1  0.1052028E+005  0.1043930E+01  0.7957747E-01            NaN
         13   -1    0    0    0    0  0.00000000000E+00  0.00000000000E+00  0.74505805969E-08  0.10566000000E+00  0.10566000000E+00 0. -1.
     999900   -1    0    0    0    0 -0.00000000000E+00 -0.00000000000E+00 -0.74505805969E-08  0.93827000000E+00  0.93827000000E+00 0. -1.
     999902    2    1    2    0    0  0.16364329207E-01  0.44008134698E-02  0.17689874023E-01  0.10194332640E+01  0.10191388962E+01 0.  0.
     999903    2    3    3    0    0 -0.12314811791E+00  0.28515020225E-01  0.81890323940E-03  0.12795704589E+00  0.19843630411E-01 0.  0.
         14    1    1    2    0    0 -0.16364329207E-01 -0.44008134698E-02 -0.17689874023E-01  0.24496735957E-01  0.00000000000E+00 0.  1.
     999901    1    3    3    0    0  0.13951244712E+00 -0.24114206756E-01  0.16870970784E-01  0.89147621815E+00  0.88000000000E+00 0. -1.
        -11    1    4    4    0    0 -0.69469658274E-01  0.18355274873E-01 -0.91021953879E-02  0.72429694313E-01  0.51100000000E-03 0. -1.
         11    1    4    4    0    0 -0.53678459638E-01  0.10159745352E-01  0.99210986273E-02  0.55527351582E-01  0.51100000000E-03 0.  1.
</event>
<event>
 8    1  0.1052028E+005  0.1043930E+01  0.7957747E-01            NaN
         13   -1    0    0    0    0  0.00000000000E+00  0.00000000000E+00  0.74505805969E-08  0.10566000000E+00  0.10566000000E+00 0. -1.
     999900   -1    0    0    0    0 -0.00000000000E+00 -0.00000000000E+00 -0.74505805969E-08  0.93827000000E+00  0.93827000000E+00 0.  1.
     999902    2    1    2    0    0 -0.32533378040E-02 -0.20493171831E-01 -0.11160495827E-01  0.10203692070E+01  0.10200971560E+01 0.  0.
     999903    2    3    3    0    0  0.72005828305E-01 -0.25280900888E-01 -0.10587063511E+00  0.13208047304E+00  0.20314938355E-01 0.  0.
         14    1    1    2    0    0  0.32533378040E-02  0.20493171831E-01  0.11160495827E-01  0.23560792976E-01  0.00000000000E+00 0.  1.
     999901    1    3    3    0    0 -0.75259166109E-01  0.47877290577E-02  0.94710139286E-01  0.88828873398E+00  0.88000000000E+00 0. -1.
        -11    1    4    4    0    0  0.13187844263E-01 -0.26082171468E-02 -0.33524363927E-01  0.36122930815E-01  0.51100000000E-03 0. -1.
         11    1    4    4    0    0  0.58817984042E-01 -0.22672683742E-01 -0.72346271187E-01  0.95957542228E-01  0.51100000000E-03 0.  1.
</event>
<event>
 8    1  0.1052028E+005  0.1043930E+01  0.7957747E-01            NaN
         13   -1    0    0    0    0  0.00000000000E+00  0.00000000000E+00  0.74505805969E-08  0.10566000000E+00  0.10566000000E+00 0.  1.
     999900   -1    0    0    0    0 -0.00000000000E+00 -0.00000000000E+00 -0.74505805969E-08  0.93827000000E+00  0.93827000000E+00 0. -1.
     999902    2    1    2    0    0 -0.11131212507E-01 -0.21404173613E-01 -0.50606625265E-03  0.10197991351E+01  0.10195135983E+01 0.  0.
     999903    2    3    3    0    0  0.49036935372E-01  0.66103821613E-01  0.96252544273E-01  0.12814893236E+00  0.19577035646E-01 0.  0.
         14    1    1    2    0    0  0.11131212507E-01  0.21404173613E-01  0.50606625265E-03  0.24130864945E-01  0.00000000000E+00 0.  1.
     999901    1    3    3    0    0 -0.60168147880E-01 -0.87507995226E-01 -0.96758610525E-01  0.89165020269E+00  0.88000000000E+00 0. -1.
        -11    1    4    4    0    0  0.43535491256E-02  0.17357537482E-01  0.26983366637E-01  0.32382104526E-01  0.51100000000E-03 0.  1.
         11    1    4    4    0    0  0.44683386247E-01  0.48746284131E-01  0.69269177635E-01  0.95766827839E-01  0.51100000000E-03 0. -1.
</event>
<event>
 8    1  0.1052028E+005  0.1043930E+01  0.7957747E-01            NaN
         13   -1    0    0    0    0  0.00000000000E+00  0.00000000000E+00  0.74505805969E-08  0.10566000000E+00  0.10566000000E+00 0. -1.
     999900   -1    0    0    0    0 -0.00000000000E+00 -0.00000000000E+00 -0.74505805969E-08  0.93827000000E+00  0.93827000000E+00 0.  1.
     999902    2    1    2    0    0 -0.12477718243E-01  0.19761564915E-01  0.44696852052E-02  0.10201352320E+01  0.10198576864E+01 0.  0.
     999903    2    3    3    0    0  0.36843496521E-01 -0.55280295910E-03  0.12346661106E+00  0.13052547249E+00  0.20860155714E-01 0.  0.
         14    1    1    2    0    0  0.12477718243E-01 -0.19761564915E-01 -0.44696852052E-02  0.23794768045E-01  0.00000000000E+00 0.  1.
     999901    1    3    3    0    0 -0.49321214764E-01  0.20314367874E-01 -0.11899692585E+00  0.88960975946E+00  0.88000000000E+00 0.  1.
        -11    1    4    4    0    0  0.11253331528E-01 -0.76334358495E-02  0.63498831315E-01  0.64940507488E-01  0.51100000000E-03 0.  1.
         11    1    4    4    0    0  0.25590164993E-01  0.70806328904E-02  0.59967779743E-01  0.65584965006E-01  0.51100000000E-03 0. -1.
</event>
<event>
 8    1  0.1052028E+005  0.1043930E+01  0.7957747E-01            NaN
         13   -1    0    0    0    0  0.00000000000E+00  0.00000000000E+00  0.74505805969E-08  0.10566000000E+00  0.10566000000E+00 0. -1.
     999900   -1    0    0    0    0 -0.00000000000E+00 -0.00000000000E+00 -0.74505805969E-08  0.93827000000E+00  0.93827000000E+00 0. -1.
     999902    2    1    2    0    0  0.10023922668E-01  0.72568843784E-03 -0.21835933697E-01  0.10198922453E+01  0.10196089341E+01 0.  0.
     999903    2    3    3    0    0 -0.10353785738E+00  0.48073481683E-01  0.54384328093E-01  0.12806960617E+00  0.20322926210E-01 0.  0.
         14    1    1    2    0    0 -0.10023922668E-01 -0.72568843784E-03  0.21835933697E-01  0.24037754674E-01  0.00000000000E+00 0. -1.
     999901    1    3    3    0    0  0.11356178005E+00 -0.47347793245E-01 -0.76220261789E-01  0.89182263916E+00  0.88000000000E+00 0.  1.
        -11    1    4    4    0    0 -0.76852334157E-01  0.44158309280E-01  0.45736659976E-01  0.99741369203E-01  0.51100000000E-03 0.  1.
         11    1    4    4    0    0 -0.26685523221E-01  0.39151724034E-02  0.86476681168E-02  0.28328236962E-01  0.51100000000E-03 0. -1.
</event>
<event>
 8    1  0.1052028E+005  0.1043930E+01  0.7957747E-01            NaN
         13   -1    0    0    0    0  0.00000000000E+00  0.00000000000E+00  0.74505805969E-08  0.10566000000E+00  0.10566000000E+00 0.  1.
     999900   -1    0    0    0    0 -0.00000000000E+00 -0.00000000000E+00 -0.74505805969E-08  0.93827000000E+00  0.93827000000E+00 0.  1.
     999902    2    1    2    0    0  0.21052615506E-01 -0.18484185813E-02  0.80859568268E-03  0.10227809315E+01  0.10225622479E+01 0.  0.
     999903    2    3    3    0    0  0.76908942829E-01  0.73016876749E-01 -0.80585951732E-01  0.13410224149E+00  0.15584151552E-01 0.  0.
         14    1    1    2    0    0 -0.21052615506E-01  0.18484185813E-02 -0.80859568268E-03  0.21149068487E-01  0.00000000000E+00 0.  1.
     999901    1    3    3    0    0 -0.55856327323E-01 -0.74865295330E-01  0.81394547415E-01  0.88867869002E+00  0.88000000000E+00 0. -1.
        -11    1    4    4    0    0  0.52750385538E-01  0.54361730727E-01 -0.49239180829E-01  0.90346881473E-01  0.51100000000E-03 0. -1.
         11    1    4    4    0    0  0.24158557291E-01  0.18655146021E-01 -0.31346770903E-01  0.43755360020E-01  0.51100000000E-03 0.  1.
</event>
<event>
 8    1  0.1052028E+005  0.1043930E+01  0.7957747E-01            NaN
         13   -1    0    0    0    0  0.00000000000E+00  0.00000000000E+00  0.74505805969E-08  0.10566000000E+00  0.10566000000E+00 0. -1.
     999900   -1    0    0    0    0 -0.00000000000E+00 -0.00000000000E+00 -0.74505805969E-08  0.93827000000E+00  0.93827000000E+00 0.  1.
     999902    2    1    2    0    0 -0.10226158383E-01  0.15134363204E-01  0.15486334741E-01  0.10199831875E+01  0.10197020413E+01 0.  0.
     999903    2    3    3    0    0 -0.90086149850E-02  0.10173143412E+00  0.83060599435E-01  0.13315354414E+00  0.20009080631E-01 0.  0.
         14    1    1    2    0    0  0.10226158383E-01 -0.15134363204E-01 -0.15486334741E-01  0.23946812493E-01  0.00000000000E+00 0.  1.
     999901    1    3    3    0    0 -0.12175433984E-02 -0.86597070912E-01 -0.67574264695E-01  0.88682964337E+00  0.88000000000E+00 0.  1.
        -11    1    4    4    0    0 -0.38010018004E-02  0.63242856275E-01  0.63346821513E-01  0.89594572387E-01  0.51100000000E-03 0. -1.
         11    1    4    4    0    0 -0.52076131846E-02  0.38488577841E-01  0.19713777922E-01  0.43558971754E-01  0.51100000000E-03 0.  1.
</event>
<event>
 7    1  0.1052028E+005  0.1043930E+01  0.7957747E-01            NaN
         13   -1    0    0    0    0  0.00000000000E+00  0.00000000000E+00  0.74505805969E-08  0.10566000000E+00  0.10566000000E+00 0.  1.
     999900   -1    0    0    0    0 -0.00000000000E+00 -0.00000000000E+00 -0.74505805969E-08  0.93827000000E+00  0.93827000000E+00 0.  1.
     999903    2    1    2    0    0 -0.21238409693E-01  0.50769083363E-01 -0.10534414989E+00  0.12091035731E+00  0.22211589696E-01 0.  0.
         14    1    1    2    0    0 -0.82807269724E-02 -0.25590630068E-01  0.27920619455E-01  0.38768695841E-01  0.00000000000E+00 0.  1.
     999901    1    1    2    0    0  0.29519136665E-01 -0.25178453296E-01  0.77423530435E-01  0.88425094685E+00  0.88000000000E+00 0. -1.
        -11    1    3    3    0    0 -0.12903473626E-01  0.30925633045E-01 -0.40401732849E-01  0.52492433255E-01  0.51100000000E-03 0.  1.
         11    1    3    3    0    0 -0.83349360667E-02  0.19843450318E-01 -0.64942417041E-01  0.68417924054E-01  0.51100000000E-03 0. -1.
</event>
<event>
 8    1  0.1052028E+005  0.1043930E+01  0.7957747E-01            NaN
         13   -1    0    0    0    0  0.00000000000E+00  0.00000000000E+00  0.74505805969E-08  0.10566000000E+00  0.10566000000E+00 0.  1.
     999900   -1    0    0    0    0 -0.00000000000E+00 -0.00000000000E+00 -0.74505805969E-08  0.93827000000E+00  0.93827000000E+00 0.  1.
     999902    2    1    2    0    0  0.15669559986E-01 -0.39200298167E-02 -0.14718431664E-01  0.10220774492E+01  0.10218438131E+01 0.  0.
     999903    2    3    3    0    0 -0.24700464787E-01 -0.12058091585E+00  0.42366563718E-01  0.13162913635E+00  0.19530324827E-01 0.  0.
         14    1    1    2    0    0 -0.15669559986E-01  0.39200298167E-02  0.14718431664E-01  0.21852550757E-01  0.00000000000E+00 0.  1.
     999901    1    3    3    0    0  0.40370024773E-01  0.11666088603E+00 -0.57084995382E-01  0.89044831289E+00  0.88000000000E+00 0.  1.
        -11    1    4    4    0    0 -0.26122045563E-01 -0.10796744708E+00  0.33117781821E-01  0.11591539797E+00  0.51100000000E-03 0.  1.
         11    1    4    4    0    0  0.14215807764E-02 -0.12613468770E-01  0.92487818964E-02  0.15713738380E-01  0.51100000000E-03 0. -1.
</event>
<event>
 8    1  0.1052028E+005  0.1043930E+01  0.7957747E-01            NaN
         13   -1    0    0    0    0  0.00000000000E+00  0.00000000000E+00  0.74505805969E-08  0.10566000000E+00  0.10566000000E+00 0. -1.
     999900   -1    0    0    0    0 -0.00000000000E+00 -0.00000000000E+00 -0.74505805969E-08  0.93827000000E+00  0.93827000000E+00 0. -1.
     999902    2    1    2    0    0  0.23143864210E-01  0.81812662062E-02 -0.91317608621E-03  0.10193656873E+01  0.10190696733E+01 0.  0.
     999903    2    3    3    0    0  0.62369164577E-01  0.30956215686E-01  0.10959540353E+00  0.13129504334E+00  0.19468845693E-01 0.  0.
         14    1    1    2    0    0 -0.23143864210E-01 -0.81812662062E-02  0.91317608621E-03  0.24564312689E-01  0.00000000000E+00 0. -1.
     999901    1    3    3    0    0 -0.39225300368E-01 -0.22774949479E-01 -0.11050857961E+00  0.88807064397E+00  0.88000000000E+00 0. -1.
        -11    1    4    4    0    0  0.12707919914E-01  0.71673363200E-02  0.10693955962E-01  0.18096512194E-01  0.51100000000E-03 0.  1.
         11    1    4    4    0    0  0.49661244663E-01  0.23788879366E-01  0.98901447563E-01  0.11319853115E+00  0.51100000000E-03 0. -1.
</event>
<event>
 8    1  0.1052028E+005  0.1043930E+01  0.7957747E-01            NaN
         13   -1    0    0    0    0  0.00000000000E+00  0.00000000000E+00  0.74505805969E-08  0.10566000000E+00  0.10566000000E+00 0. -1.
     999900   -1    0    0    0    0 -0.00000000000E+00 -0.00000000000E+00 -0.74505805969E-08  0.93827000000E+00  0.93827000000E+00 0. -1.
     999902    2    1    2    0    0  0.17656269450E-01  0.14460208466E-01  0.45105516732E-02  0.10206665833E+01  0.10204014346E+01 0.  0.
     999903    2    3    3    0    0  0.68047211891E-01  0.60878921756E-01  0.95156640528E-01  0.13336130470E+00  0.19844021617E-01 0.  0.
         14    1    1    2    0    0 -0.17656269450E-01 -0.14460208466E-01 -0.45105516732E-02  0.23263416692E-01  0.00000000000E+00 0. -1.
     999901    1    3    3    0    0 -0.50390942441E-01 -0.46418713289E-01 -0.90646088855E-01  0.88730527861E+00  0.88000000000E+00 0. -1.
        -11    1    4    4    0    0  0.18982950224E-02 -0.99418224652E-03  0.33165461823E-03  0.22277877182E-02  0.51100000000E-03 0. -1.
         11    1    4    4    0    0  0.66148916869E-01  0.61873104002E-01  0.94824985910E-01  0.13113351698E+00  0.51100000000E-03 0.  1.
</event>
<event>
 8    1  0.1052028E+005  0.1043930E+01  0.7957747E-01            NaN
         13   -1    0    0    0    0  0.00000000000E+00  0.00000000000E+00  0.74505805969E-08  0.10566000000E+00  0.10566000000E+00 0.  1.
     999900   -1    0    0    0    0 -0.00000000000E+00 -0.00000000000E+00 -0.74505805969E-08  0.93827000000E+00  0.93827000000E+00 0. -1.
     999902    2    1    2    0    0  0.16028300998E-01  0.72954683640E-02  0.17018991143E-01  0.10194396682E+01  0.10191454561E+01 0.  0.
     999903    2    3    3    0    0 -0.86948022685E-01 -0.90080366355E-01 -0.14008414103E-01  0.12756026140E+00  0.20023825069E-01 0.  0.
         14    1    1    2    0    0 -0.16028300998E-01 -0.72954683640E-02 -0.17018991143E-01  0.24490331787E-01  0.00000000000E+00 0. -1.
     999901    1    3    3    0    0  0.10297632368E+00  0.97375834719E-01  0.31027405246E-01  0.89187940682E+00  0.88000000000E+00 0. -1.
        -11    1    4    4    0    0 -0.85170240723E-01 -0.81517565280E-01 -0.14513115674E-01  0.11878541578E+00  0.51100000000E-03 0. -1.
         11    1    4    4    0    0 -0.17777819620E-02 -0.85628010742E-02  0.50470157186E-03  0.87748456179E-02  0.51100000000E-03 0.  1.
</event>
<event>
 8    1  0.1052028E+005  0.1043930E+01  0.7957747E-01            NaN
         13   -1    0    0    0    0  0.00000000000E+00  0.00000000000E+00  0.74505805969E-08  0.10566000000E+00  0.10566000000E+00 0. -1.
     999900   -1    0    0    0    0 -0.00000000000E+00 -0.00000000000E+00 -0.74505805969E-08  0.93827000000E+00  0.93827000000E+00 0.  1.
     999902    2    1    2    0    0  0.97784390805E-02 -0.20254813942E-01  0.66303406681E-02  0.10204814014E+01  0.10202119652E+01 0.  0.
     999903    2    3    3    0    0 -0.55019048640E-01 -0.62835767209E-01  0.10060324471E+00  0.13208804332E+00  0.18729895561E-01 0.  0.
         14    1    1    2    0    0 -0.97784390805E-02  0.20254813942E-01 -0.66303406681E-02  0.23448598595E-01  0.00000000000E+00 0.  1.
     999901    1    3    3    0    0  0.64797487720E-01  0.42580953266E-01 -0.93972904043E-01  0.88839335809E+00  0.88000000000E+00 0.  1.
        -11    1    4    4    0    0 -0.27068204653E-01 -0.29013726361E-01  0.33610734493E-01  0.52004101901E-01  0.51100000000E-03 0.  1.
         11    1    4    4    0    0 -0.27950843987E-01 -0.33822040848E-01  0.66992510219E-01  0.80083941418E-01  0.51100000000E-03 0. -1.
</event>
<event>
 8    1  0.1052028E+005  0.1043930E+01  0.7957747E-01            NaN
         13   -1    0    0    0    0  0.00000000000E+00  0.00000000000E+00  0.74505805969E-08  0.10566000000E+00  0.10566000000E+00 0. -1.
     999900   -1    0    0    0    0 -0.00000000000E+00 -0.00000000000E+00 -0.74505805969E-08  0.93827000000E+00  0.93827000000E+00 0.  1.
     999902    2    1    2    0    0  0.87237386584E-02  0.18203136588E-01  0.11828289190E-01  0.10205341409E+01  0.10202659293E+01 0.  0.
     999903    2    3    3    0    0  0.12103872147E+00 -0.97930226132E-02  0.46992935489E-01  0.13225772410E+00  0.23183921385E-01 0.  0.
         14    1    1    2    0    0 -0.87237386584E-02 -0.18203136588E-01 -0.11828289190E-01  0.23395859099E-01  0.00000000000E+00 0.  1.
     999901    1    3    3    0    0 -0.11231498281E+00  0.27996159201E-01 -0.35164646299E-01  0.88827641680E+00  0.88000000000E+00 0.  1.
        -11    1    4    4    0    0  0.23170463506E-01  0.59100045802E-02  0.14386275524E-01  0.27911011764E-01  0.51100000000E-03 0. -1.
         11    1    4    4    0    0  0.97868257967E-01 -0.15703027193E-01  0.32606659964E-01  0.10434671234E+00  0.51100000000E-03 0.  1.
</event>
<event>
 8    1  0.1052028E+005  0.1043930E+01  0.7957747E-01            NaN
         13   -1    0    0    0    0  0.00000000000E+00  0.00000000000E+00  0.74505805969E-08  0.10566000000E+00  0.10566000000E+00 0. -1.
     999900   -1    0    0    0    0 -0.00000000000E+00 -0.00000000000E+00 -0.74505805969E-08  0.93827000000E+00  0.93827000000E+00 0. -1.
     999902    2    1    2    0    0  0.41536650400E-02  0.18284688758E-01  0.15102496487E-01  0.10198537009E+01  0.10195694695E+01 0.  0.
     999903    2    3    3    0    0 -0.95096038974E-01  0.65824939242E-01  0.60290252569E-01  0.13184890790E+00  0.19314261698E-01 0.  0.
         14    1    1    2    0    0 -0.41536650400E-02 -0.18284688758E-01 -0.15102496487E-01  0.24076299059E-01  0.00000000000E+00 0.  1.
     999901    1    3    3    0    0  0.99249704014E-01 -0.47540250485E-01 -0.45187756083E-01  0.88800479304E+00  0.88000000000E+00 0. -1.
        -11    1    4    4    0    0 -0.26726603957E-01  0.28998460631E-01  0.17088057498E-01  0.42982379042E-01  0.51100000000E-03 0.  1.
         11    1    4    4    0    0 -0.68369435017E-01  0.36826478611E-01  0.43202195071E-01  0.88866528859E-01  0.51100000000E-03 0. -1.
</event>
<event>
 8    1  0.1052028E+005  0.1043930E+01  0.7957747E-01            NaN
         13   -1    0    0    0    0  0.00000000000E+00  0.00000000000E+00  0.74505805969E-08  0.10566000000E+00  0.10566000000E+00 0.  1.
     999900   -1    0    0    0    0 -0.00000000000E+00 -0.00000000000E+00 -0.74505805969E-08  0.93827000000E+00  0.93827000000E+00 0.  1.
     999902    2    1    2    0    0  0.82898407864E-02  0.21239008123E-01  0.47411288555E-02  0.10206427668E+01  0.10203770687E+01 0.  0.
     999903    2    3    3    0    0  0.82734373985E-01  0.57377520839E-01 -0.83601281465E-01  0.13235657303E+00  0.19797263057E-01 0.  0.
         14    1    1    2    0    0 -0.82898407864E-02 -0.21239008123E-01 -0.47411288555E-02  0.23287233179E-01  0.00000000000E+00 0.  1.
     999901    1    3    3    0    0 -0.74444533199E-01 -0.36138512716E-01  0.88342410320E-01  0.88828619379E+00  0.88000000000E+00 0. -1.
        -11    1    4    4    0    0  0.59399927100E-01  0.46483766695E-01 -0.52131743009E-01  0.91690084828E-01  0.51100000000E-03 0.  1.
         11    1    4    4    0    0  0.23334446885E-01  0.10893754143E-01 -0.31469538456E-01  0.40666488198E-01  0.51100000000E-03 0. -1.
</event>
<event>
 8    1  0.1052028E+005  0.1043930E+01  0.7957747E-01            NaN
         13   -1    0    0    0    0  0.00000000000E+00  0.00000000000E+00  0.74505805969E-08  0.10566000000E+00  0.10566000000E+00 0.  1.
     999900   -1    0    0    0    0 -0.00000000000E+00 -0.00000000000E+00 -0.74505805969E-08  0.93827000000E+00  0.93827000000E+00 0. -1.
     999902    2    1    2    0    0 -0.66787312200E-02  0.30799413399E-02 -0.22405807179E-01  0.10203479796E+01  0.10200754324E+01 0.  0.
     999903    2    3    3    0    0 -0.46816533805E-02  0.99549479181E-01 -0.85490065485E-01  0.13282897493E+00  0.20074077860E-01 0.  0.
         14    1    1    2    0    0  0.66787312200E-02 -0.30799413399E-02  0.22405807179E-01  0.23582020370E-01  0.00000000000E+00 0. -1.
     999901    1    3    3    0    0 -0.19970778395E-02 -0.96469537841E-01  0.63084258305E-01  0.88751900470E+00  0.88000000000E+00 0.  1.
        -11    1    4    4    0    0  0.23121062318E-02  0.49605850927E-01 -0.30816487590E-01  0.58446585100E-01  0.51100000000E-03 0.  1.
         11    1    4    4    0    0 -0.69937596123E-02  0.49943628253E-01 -0.54673577895E-01  0.74382389834E-01  0.51100000000E-03 0. -1.
</event>
<event>
 8    1  0.1052028E+005  0.1043930E+01  0.7957747E-01            NaN
         13   -1    0    0    0    0  0.00000000000E+00  0.00000000000E+00  0.74505805969E-08  0.10566000000E+00  0.10566000000E+00 0. -1.
     999900   -1    0    0    0    0 -0.00000000000E+00 -0.00000000000E+00 -0.74505805969E-08  0.93827000000E+00  0.93827000000E+00 0. -1.
     999902    2    1    2    0    0  0.14400190840E-01  0.46984013251E-02  0.18416916067E-01  0.10200841771E+01  0.10198054251E+01 0.  0.
     999903    2    3    3    0    0  0.27624063783E-01  0.84425670214E-01  0.96851359166E-01  0.13290704144E+00  0.19832125467E-01 0.  0.
         14    1    1    2    0    0 -0.14400190840E-01 -0.46984013251E-02 -0.18416916067E-01  0.23845822876E-01  0.00000000000E+00 0.  1.
     999901    1    3    3    0    0 -0.13223872943E-01 -0.79727268889E-01 -0.78434443099E-01  0.88717713569E+00  0.88000000000E+00 0. -1.
        -11    1    4    4    0    0  0.14415439883E-01  0.19495328533E-01  0.32388691593E-01  0.40461848768E-01  0.51100000000E-03 0.  1.
         11    1    4    4    0    0  0.13208623900E-01  0.64930341680E-01  0.64462667573E-01  0.92445192669E-01  0.51100000000E-03 0. -1.
</event>
<event>
 8    1  0.1052028E+005  0.1043930E+01  0.7957747E-01            NaN
         13   -1    0    0    0    0  0.00000000000E+00  0.00000000000E+00  0.74505805969E-08  0.10566000000E+00  0.10566000000E+00 0. -1.
     999900   -1    0    0    0    0 -0.00000000000E+00 -0.00000000000E+00 -0.74505805969E-08  0.93827000000E+00  0.93827000000E+00 0.  1.
     999902    2    1    2    0    0 -0.10424623589E-01  0.11293823683E-02 -0.20587475767E-01  0.10208260514E+01  0.10205645667E+01 0.  0.
     999903    2    3    3    0    0  0.99500538992E-01 -0.15224258645E-01 -0.82551675034E-01  0.13167446427E+00  0.19780044962E-01 0.  0.
         14    1    1    2    0    0  0.10424623589E-01 -0.11293823683E-02  0.20587475767E-01  0.23103948580E-01  0.00000000000E+00 0. -1.
     999901    1    3    3    0    0 -0.10992516258E+00  0.16353641014E-01  0.61964199267E-01  0.88915158715E+00  0.88000000000E+00 0.  1.
        -11    1    4    4    0    0  0.62209529972E-01 -0.43792275873E-02 -0.40144007466E-01  0.74168765057E-01  0.51100000000E-03 0.  1.
         11    1    4    4    0    0  0.37291009020E-01 -0.10845031058E-01 -0.42407667568E-01  0.57505699213E-01  0.51100000000E-03 0. -1.
</event>
<event>
 8    1  0.1052028E+005  0.1043930E+01  0.7957747E-01            NaN
         13   -1    0    0    0    0  0.00000000000E+00  0.00000000000E+00  0.74505805969E-08  0.10566000000E+00  0.10566000000E+00 0.  1.
     999900   -1    0    0    0    0 -0.00000000000E+00 -0.00000000000E+00 -0.74505805969E-08  0.93827000000E+00  0.93827000000E+00 0.  1.
     999902    2    1    2    0    0  0.81862515618E-02  0.21971201353E-01  0.31537003579E-03  0.10204811650E+01  0.10202117233E+01 0.  0.
     999903    2    3    3    0    0  0.18255463433E-01  0.75868930956E-01 -0.10515927061E+00  0.13248834180E+00  0.20132855930E-01 0.  0.
         14    1    1    2    0    0 -0.81862515618E-02 -0.21971201353E-01 -0.31537003579E-03  0.23448834978E-01  0.00000000000E+00 0.  1.
     999901    1    3    3    0    0 -0.10069211871E-01 -0.53897729603E-01  0.10547464064E+00  0.88799282323E+00  0.88000000000E+00 0. -1.
        -11    1    4    4    0    0  0.19966873336E-01  0.42366070062E-01 -0.56616287949E-01  0.73479419605E-01  0.51100000000E-03 0.  1.
         11    1    4    4    0    0 -0.17114099033E-02  0.33502860894E-01 -0.48542982657E-01  0.59008922191E-01  0.51100000000E-03 0. -1.
</event>
<event>
 8    1  0.1052028E+005  0.1043930E+01  0.7957747E-01            NaN
         13   -1    0    0    0    0  0.00000000000E+00  0.00000000000E+00  0.74505805969E-08  0.10566000000E+00  0.10566000000E+00 0. -1.
     999900   -1    0    0    0    0 -0.00000000000E+00 -0.00000000000E+00 -0.74505805969E-08  0.93827000000E+00  0.93827000000E+00 0. -1.
     999902    2    1    2    0    0  0.99451862875E-02  0.15144838425E-01  0.17190859233E-01  0.10189540415E+01  0.10186478981E+01 0.  0.
     999903    2    3    3    0    0 -0.97528419996E-01 -0.77894906460E-01  0.15859315910E-01  0.12754574944E+00  0.20904333012E-01 0.  0.
         14    1    1    2    0    0 -0.99451862875E-02 -0.15144838425E-01 -0.17190859233E-01  0.24975958488E-01  0.00000000000E+00 0.  1.
     999901    1    3    3    0    0  0.10747360628E+00  0.93039744885E-01  0.13315433224E-02  0.89140829208E+00  0.88000000000E+00 0. -1.
        -11    1    4    4    0    0 -0.56412707907E-01 -0.34203543135E-01  0.21862205463E-02  0.66009973926E-01  0.51100000000E-03 0. -1.
         11    1    4    4    0    0 -0.41115712088E-01 -0.43691363325E-01  0.13673095364E-01  0.61535775510E-01  0.51100000000E-03 0.  1.
</event>
<event>
 8    1  0.1052028E+005  0.1043930E+01  0.7957747E-01            NaN
         13   -1    0    0    0    0  0.00000000000E+00  0.00000000000E+00  0.74505805969E-08  0.10566000000E+00  0.10566000000E+00 0.  1.
     999900   -1    0    0    0    0 -0.00000000000E+00 -0.00000000000E+00 -0.74505805969E-08  0.93827000000E+00  0.93827000000E+00 0.  1.
     999902    2    1    2    0    0 -0.34683487584E-02 -0.12446220948E-02  0.23575932544E-01  0.10200678307E+01  0.10197886919E+01 0.  0.
     999903    2    3    3    0    0 -0.15993300176E-01 -0.10820820018E+00  0.71493803173E-01  0.13220849289E+00  0.20072903710E-01 0.  0.
         14    1    1    2    0    0  0.34683487584E-02  0.12446220948E-02 -0.23575932544E-01  0.23862169277E-01  0.00000000000E+00 0. -1.
     999901    1    3    3    0    0  0.12524951418E-01  0.10696357809E+00 -0.47917870629E-01  0.88785933783E+00  0.88000000000E+00 0.  1.
        -11    1    4    4    0    0 -0.13540658589E-02 -0.56810924609E-01  0.28266826818E-01  0.63471168798E-01  0.51100000000E-03 0.  1.
         11    1    4    4    0    0 -0.14639234317E-01 -0.51397275576E-01  0.43226976355E-01  0.68737324095E-01  0.51100000000E-03 0. -1.
</event>
<event>
 8    1  0.1052028E+005  0.1043930E+01  0.7957747E-01            NaN
         13   -1    0    0    0    0  0.00000000000E+00  0.00000000000E+00  0.74505805969E-08  0.10566000000E+00  0.10566000000E+00 0. -1.
     999900   -1    0    0    0    0 -0.00000000000E+00 -0.00000000000E+00 -0.74505805969E-08  0.93827000000E+00  0.93827000000E+00 0.  1.
     999902    2    1    2    0    0 -0.21239379052E-01 -0.13995278359E-01 -0.48277491357E-02  0.10180401139E+01  0.10177108565E+01 0.  0.
     999903    2    3    3    0    0  0.68673358220E-01 -0.10336621255E+00  0.22618485785E-01  0.12853195770E+00  0.24663013271E-01 0.  0.
         14    1    1    2    0    0  0.21239379052E-01  0.13995278359E-01  0.48277491357E-02  0.25889886067E-01  0.00000000000E+00 0.  1.
     999901    1    3    3    0    0 -0.89912737272E-01  0.89370934191E-01 -0.27446234921E-01  0.88950815624E+00  0.88000000000E+00 0.  1.
        -11    1    4    4    0    0  0.38925320369E-01 -0.38719868841E-01  0.15266467607E-01  0.56988902105E-01  0.51100000000E-03 0.  1.
         11    1    4    4    0    0  0.29748037851E-01 -0.64646343709E-01  0.73520181775E-02  0.71543055590E-01  0.51100000000E-03 0. -1.
</event>
<event>
 8    1  0.1052028E+005  0.1043930E+01  0.7957747E-01            NaN
         13   -1    0    0    0    0  0.00000000000E+00  0.00000000000E+00  0.74505805969E-08  0.10566000000E+00  0.10566000000E+00 0. -1.
     999900   -1    0    0    0    0 -0.00000000000E+00 -0.00000000000E+00 -0.74505805969E-08  0.93827000000E+00  0.93827000000E+00 0. -1.
     999902    2    1    2    0    0 -0.14284018356E-01  0.90401780623E-02  0.17804362676E-01  0.10193789648E+01  0.10190832746E+01 0.  0.
     999903    2    3    3    0    0 -0.11404546795E+00  0.62015813896E-01 -0.11482318362E-01  0.13167604460E+00  0.18825704615E-01 0.  0.
         14    1    1    2    0    0  0.14284018356E-01 -0.90401780623E-02 -0.17804362676E-01  0.24551035214E-01  0.00000000000E+00 0.  1.
     999901    1    3    3    0    0  0.99761449592E-01 -0.52975635833E-01  0.29286681038E-01  0.88770292018E+00  0.88000000000E+00 0.  1.
        -11    1    4    4    0    0 -0.34516882202E-01  0.10208847716E-01  0.53441306156E-03  0.36002533896E-01  0.51100000000E-03 0. -1.
         11    1    4    4    0    0 -0.79528585747E-01  0.51806966180E-01 -0.12016731424E-01  0.95673510706E-01  0.51100000000E-03 0.  1.
</event>
<event>
 8    1  0.1052028E+005  0.1043930E+01  0.7957747E-01            NaN
         13   -1    0    0    0    0  0.00000000000E+00  0.00000000000E+00  0.74505805969E-08  0.10566000000E+00  0.10566000000E+00 0.  1.
     999900   -1    0    0    0    0 -0.00000000000E+00 -0.00000000000E+00 -0.74505805969E-08  0.93827000000E+00  0.93827000000E+00 0.  1.
     999902    2    1    2    0    0  0.17339061738E-01  0.75671650197E-02  0.79517521463E-03  0.10249949174E+01  0.10248200054E+01 0.  0.
     999903    2    3    3    0    0  0.10238417341E+00  0.58042500405E-01  0.65539950865E-01  0.13709159134E+00  0.25439505498E-01 0.  0.
         14    1    1    2    0    0 -0.17339061738E-01 -0.75671650197E-02 -0.79517521463E-03  0.18935082572E-01  0.00000000000E+00 0.  1.
     999901    1    3    3    0    0 -0.85045111669E-01 -0.50475335385E-01 -0.64744775650E-01  0.88790332609E+00  0.88000000000E+00 0.  1.
        -11    1    4    4    0    0  0.76726419563E-01  0.34182226683E-01  0.36518190442E-01  0.91592616701E-01  0.51100000000E-03 0. -1.
         11    1    4    4    0    0  0.25657753843E-01  0.23860273721E-01  0.29021760423E-01  0.45498974641E-01  0.51100000000E-03 0.  1.
</event>
<event>
 8    1  0.1052028E+005  0.1043930E+01  0.7957747E-01            NaN
         13   -1    0    0    0    0  0.00000000000E+00  0.00000000000E+00  0.74505805969E-08  0.10566000000E+00  0.10566000000E+00 0. -1.
     999900   -1    0    0    0    0 -0.00000000000E+00 -0.00000000000E+00 -0.74505805969E-08  0.93827000000E+00  0.93827000000E+00 0.  1.
     999902    2    1    2    0    0 -0.31738542128E-02 -0.21725284241E-01 -0.95920494536E-02  0.10199702684E+01  0.10196888151E+01 0.  0.
     999903    2    3    3    0    0  0.68838931848E-01 -0.52724442294E-01  0.95167462102E-01  0.13029541519E+00  0.20034570728E-01 0.  0.
         14    1    1    2    0    0  0.31738542128E-02  0.21725284241E-01  0.95920494536E-02  0.23959731606E-01  0.00000000000E+00 0. -1.
     999901    1    3    3    0    0 -0.72012786060E-01  0.30999158053E-01 -0.10475951156E+00  0.88967485320E+00  0.88000000000E+00 0.  1.
        -11    1    4    4    0    0  0.33618249972E-01 -0.22746799313E-01  0.30435792647E-01  0.50736596311E-01  0.51100000000E-03 0.  1.
         11    1    4    4    0    0  0.35220681875E-01 -0.29977642982E-01  0.64731669455E-01  0.79558818882E-01  0.51100000000E-03 0. -1.
</event>
<event>
 8    1  0.1052028E+005  0.1043930E+01  0.7957747E-01            NaN
         13   -1    0    0    0    0  0.00000000000E+00  0.00000000000E+00  0.74505805969E-08  0.10566000000E+00  0.10566000000E+00 0. -1.
     999900   -1    0    0    0    0 -0.00000000000E+00 -0.00000000000E+00 -0.74505805969E-08  0.93827000000E+00  0.93827000000E+00 0.  1.
     999902    2    1    2    0    0 -0.12671816282E-01 -0.15783806060E-01 -0.11049059057E-01  0.10208695324E+01  0.10206090422E+01 0.  0.
     999903    2    3    3    0    0 -0.88865883489E-02 -0.49199604314E-01  0.11901521523E+00  0.13067423976E+00  0.20287014695E-01 0.  0.
         14    1    1    2    0    0  0.12671816282E-01  0.15783806060E-01  0.11049059057E-01  0.23060467637E-01  0.00000000000E+00 0. -1.
     999901    1    3    3    0    0 -0.37852279326E-02  0.33415798255E-01 -0.13006427428E+00  0.89019529260E+00  0.88000000000E+00 0.  1.
        -11    1    4    4    0    0 -0.39751254810E-02 -0.76422745993E-02  0.43408870186E-01  0.44258299961E-01  0.51100000000E-03 0. -1.
         11    1    4    4    0    0 -0.49114628680E-02 -0.41557329715E-01  0.75606345039E-01  0.86415939801E-01  0.51100000000E-03 0.  1.
</event>
<event>
 8    1  0.1052028E+005  0.1043930E+01  0.7957747E-01            NaN
         13   -1    0    0    0    0  0.00000000000E+00  0.00000000000E+00  0.74505805969E-08  0.10566000000E+00  0.10566000000E+00 0.  1.
     999900   -1    0    0    0    0 -0.00000000000E+00 -0.00000000000E+00 -0.74505805969E-08  0.93827000000E+00  0.93827000000E+00 0.  1.
     999902    2    1    2    0    0 -0.15830749811E-02 -0.22429284089E-01  0.65095097189E-02  0.10205216120E+01  0.10202531098E+01 0.  0.
     999903    2    3    3    0    0  0.12469723149E+00 -0.35580860332E-01  0.72702386541E-03  0.13139107216E+00  0.21158641660E-01 0.  0.
         14    1    1    2    0    0  0.15830749811E-02  0.22429284089E-01 -0.65095097189E-02  0.23408387982E-01  0.00000000000E+00 0.  1.
     999901    1    3    3    0    0 -0.12628030647E+00  0.13151576243E-01  0.57824858535E-02  0.88913053986E+00  0.88000000000E+00 0. -1.
        -11    1    4    4    0    0  0.41757131774E-01 -0.24101413529E-02 -0.33951189217E-02  0.41967306190E-01  0.51100000000E-03 0.  1.
         11    1    4    4    0    0  0.82940099718E-01 -0.33170718979E-01  0.41221427871E-02  0.89423765974E-01  0.51100000000E-03 0. -1.
</event>
<event>
 8    1  0.1052028E+005  0.1043930E+01  0.7957747E-01            NaN
         13   -1    0    0    0    0  0.00000000000E+00  0.00000000000E+00  0.74505805969E-08  0.10566000000E+00  0.10566000000E+00 0.  1.
     999900   -1    0    0    0    0 -0.00000000000E+00 -0.00000000000E+00 -0.74505805969E-08  0.93827000000E+00  0.93827000000E+00 0.  1.
     999902    2    1    2    0    0 -0.55271503695E-02 -0.18864133845E-01  0.13978892743E-01  0.10198091713E+01  0.10195238749E+01 0.  0.
     999903    2    3    3    0    0  0.33879006812E-01 -0.72421470817E-01  0.10390807254E+00  0.13273054399E+00  0.20684613432E-01 0.  0.
         14    1    1    2    0    0  0.55271503695E-02  0.18864133845E-01 -0.13978892743E-01  0.24120828743E-01  0.00000000000E+00 0. -1.
     999901    1    3    3    0    0 -0.39406157181E-01  0.53557336972E-01 -0.89929179793E-01  0.88707862726E+00  0.88000000000E+00 0.  1.
        -11    1    4    4    0    0 -0.15539749874E-03  0.97117630315E-03  0.41256410473E-02  0.42719277669E-02  0.51100000000E-03 0. -1.
         11    1    4    4    0    0  0.34034404311E-01 -0.73392647120E-01  0.99782431489E-01  0.12845861623E+00  0.51100000000E-03 0.  1.
</event>
<event>
 8    1  0.1052028E+005  0.1043930E+01  0.7957747E-01            NaN
         13   -1    0    0    0    0  0.00000000000E+00  0.00000000000E+00  0.74505805969E-08  0.10566000000E+00  0.10566000000E+00 0.  1.
     999900   -1    0    0    0    0 -0.00000000000E+00 -0.00000000000E+00 -0.74505805969E-08  0.93827000000E+00  0.93827000000E+00 0.  1.
     999902    2    1    2    0    0  0.39316074304E-02  0.28202445121E-01  0.31093979283E-02  0.10152855624E+01  0.10148814066E+01 0.  0.
     999903    2    3    3    0    0 -0.19315927276E-01 -0.31242186211E-01 -0.11744033427E+00  0.12477652262E+00  0.20682582949E-01 0.  0.
         14    1    1    2    0    0 -0.39316074304E-02 -0.28202445121E-01 -0.31093979283E-02  0.28644437562E-01  0.00000000000E+00 0.  1.
     999901    1    3    3    0    0  0.23247534706E-01  0.59444631331E-01  0.12054973220E+00  0.89050903982E+00  0.88000000000E+00 0. -1.
        -11    1    4    4    0    0 -0.15103633786E-01 -0.87087267008E-02 -0.69196442443E-01  0.71360846702E-01  0.51100000000E-03 0. -1.
         11    1    4    4    0    0 -0.42122934898E-02 -0.22533459510E-01 -0.48243891829E-01  0.53415675918E-01  0.51100000000E-03 0.  1.
</event>
<event>
 8    1  0.1052028E+005  0.1043930E+01  0.7957747E-01            NaN
         13   -1    0    0    0    0  0.00000000000E+00  0.00000000000E+00  0.74505805969E-08  0.10566000000E+00  0.10566000000E+00 0.  1.
     999900   -1    0    0    0    0 -0.00000000000E+00 -0.00000000000E+00 -0.74505805969E-08  0.93827000000E+00  0.93827000000E+00 0.  1.
     999902    2    1    2    0    0  0.10913321772E-01  0.36568676464E-02  0.20995671254E-01  0.10199864939E+01  0.10197054262E+01 0.  0.
     999903    2    3    3    0    0 -0.73055895334E-01  0.99951193354E-01  0.36418821679E-01  0.13062644299E+00  0.20236900434E-01 0.  0.
         14    1    1    2    0    0 -0.10913321772E-01 -0.36568676464E-02 -0.20995671254E-01  0.23943506102E-01  0.00000000000E+00 0. -1.
     999901    1    3    3    0    0  0.83969217106E-01 -0.96294325708E-01 -0.15423150425E-01  0.88936005091E+00  0.88000000000E+00 0.  1.
        -11    1    4    4    0    0 -0.44592701497E-01  0.50276228251E-01  0.27798922909E-01  0.72727225918E-01  0.51100000000E-03 0. -1.
         11    1    4    4    0    0 -0.28463193837E-01  0.49674965104E-01  0.86198987705E-02  0.57899217069E-01  0.51100000000E-03 0.  1.
</event>
<event>
 8    1  0.1052028E+005  0.1043930E+01  0.7957747E-01            NaN
         13   -1    0    0    0    0  0.00000000000E+00  0.00000000000E+00  0.74505805969E-08  0.10566000000E+00  0.10566000000E+00 0. -1.
     999900   -1    0    0    0    0 -0.00000000000E+00 -0.00000000000E+00 -0.74505805969E-08  0.93827000000E+00  0.93827000000E+00 0.  1.
     999902    2    1    2    0    0 -0.19841638656E-01  0.12941871526E-02 -0.12997006722E-01  0.10201752588E+01  0.10198986572E+01 0.  0.
     999903    2    3    3    0    0  0.21010156457E-01 -0.78820879565E-01 -0.10080671209E+00  0.13124453180E+00  0.20223159852E-01 0.  0.
         14    1    1    2    0    0  0.19841638656E-01 -0.12941871526E-02  0.12997006722E-01  0.23754741183E-01  0.00000000000E+00 0. -1.
     999901    1    3    3    0    0 -0.40851795113E-01  0.80115066718E-01  0.87809705371E-01  0.88893072702E+00  0.88000000000E+00 0. -1.
        -11    1    4    4    0    0  0.20099868696E-01 -0.55641975584E-01 -0.83328744988E-01  0.10219576816E+00  0.51100000000E-03 0. -1.
         11    1    4    4    0    0  0.91028776133E-03 -0.23178903981E-01 -0.17477967105E-01  0.29048763635E-01  0.51100000000E-03 0.  1.
</event>
<event>
 8    1  0.1052028E+005  0.1043930E+01  0.7957747E-01            NaN
         13   -1    0    0    0    0  0.00000000000E+00  0.00000000000E+00  0.74505805969E-08  0.10566000000E+00  0.10566000000E+00 0. -1.
     999900   -1    0    0    0    0 -0.00000000000E+00 -0.00000000000E+00 -0.74505805969E-08  0.93827000000E+00  0.93827000000E+00 0. -1.
     999902    2    1    2    0    0 -0.15047373621E-02  0.19171802606E-01 -0.15039745198E-01  0.10195165573E+01  0.10192242120E+01 0.  0.
     999903    2    3    3    0    0  0.24846221434E-01  0.12286919491E+00 -0.40717661341E-01  0.13266432744E+00  0.15090462286E-01 0.  0.
         14    1    1    2    0    0  0.15047373621E-02 -0.19171802606E-01  0.15039745198E-01  0.24413442717E-01  0.00000000000E+00 0. -1.
     999901    1    3    3    0    0 -0.26350958796E-01 -0.10369739231E+00  0.25677916143E-01  0.88685222984E+00  0.88000000000E+00 0. -1.
        -11    1    4    4    0    0 -0.14816077563E-02  0.11275956043E-01 -0.59812310826E-02  0.12859960828E-01  0.51100000000E-03 0.  1.
         11    1    4    4    0    0  0.26327829190E-01  0.11159323887E+00 -0.34736430259E-01  0.11980436661E+00  0.51100000000E-03 0. -1.
</event>
<event>
 8    1  0.1052028E+005  0.1043930E+01  0.7957747E-01            NaN
         13   -1    0    0    0    0  0.00000000000E+00  0.00000000000E+00  0.74505805969E-08  0.10566000000E+00  0.10566000000E+00 0.  1.
     999900   -1    0    0    0    0 -0.00000000000E+00 -0.00000000000E+00 -0.74505805969E-08  0.93827000000E+00  0.93827000000E+00 0. -1.
     999902    2    1    2    0    0  0.12704576577E-01  0.48359770900E-02 -0.19625755889E-01  0.10200560972E+01  0.10197766806E+01 0.  0.
     999903    2    3    3    0    0 -0.70541491894E-01  0.47340154714E-01 -0.99646575018E-01  0.13149555086E+00  0.12018637846E-01 0.  0.
         14    1    1    2    0    0 -0.12704576577E-01 -0.48359770900E-02  0.19625755889E-01  0.23873902795E-01  0.00000000000E+00 0.  1.
     999901    1    3    3    0    0  0.83246068471E-01 -0.42504177624E-01  0.80020819129E-01  0.88856054635E+00  0.88000000000E+00 0.  1.
        -11    1    4    4    0    0 -0.37171900353E-01  0.17748566037E-01 -0.48267172874E-01  0.63456621959E-01  0.51100000000E-03 0. -1.
         11    1    4    4    0    0 -0.33369591541E-01  0.29591588676E-01 -0.51379402144E-01  0.68038928899E-01  0.51100000000E-03 0.  1.
</event>
<event>
 8    1  0.1052028E+005  0.1043930E+01  0.7957747E-01            NaN
         13   -1    0    0    0    0  0.00000000000E+00  0.00000000000E+00  0.74505805969E-08  0.10566000000E+00  0.10566000000E+00 0. -1.
     999900   -1    0    0    0    0 -0.00000000000E+00 -0.00000000000E+00 -0.74505805969E-08  0.93827000000E+00  0.93827000000E+00 0.  1.
     999902    2    1    2    0    0  0.10450680181E-01  0.14273645507E-01  0.16733879469E-01  0.10195788934E+01  0.10192880571E+01 0.  0.
     999903    2    3    3    0    0 -0.88335961360E-01  0.42238738008E-02  0.93963100118E-01  0.13063336580E+00  0.20369803551E-01 0.  0.
         14    1    1    2    0    0 -0.10450680181E-01 -0.14273645507E-01 -0.16733879469E-01  0.24351106636E-01  0.00000000000E+00 0.  1.
     999901    1    3    3    0    0  0.98786641541E-01  0.10049771706E-01 -0.77229220648E-01  0.88894552757E+00  0.88000000000E+00 0.  1.
        -11    1    4    4    0    0 -0.44019064397E-01  0.11576635181E-01  0.41910166425E-01  0.61874224709E-01  0.51100000000E-03 0.  1.
         11    1    4    4    0    0 -0.44316896963E-01 -0.73527613805E-02  0.52052933692E-01  0.68759141089E-01  0.51100000000E-03 0. -1.
</event>
<event>
 8    1  0.1052028E+005  0.1043930E+01  0.7957747E-01            NaN
         13   -1    0    0    0    0  0.00000000000E+00  0.00000000000E+00  0.74505805969E-08  0.10566000000E+00  0.10566000000E+00 0. -1.
     999900   -1    0    0    0    0 -0.00000000000E+00 -0.00000000000E+00 -0.74505805969E-08  0.93827000000E+00  0.93827000000E+00 0.  1.
     999902    2    1    2    0    0 -0.20987027702E-01  0.43571255934E-02  0.55248550356E-02  0.10217948718E+01  0.10215550872E+01 0.  0.
     999903    2    3    3    0    0  0.87967030263E-01  0.33619297710E-02 -0.92650739756E-01  0.12965675217E+00  0.21845201343E-01 0.  0.
         14    1    1    2    0    0  0.20987027702E-01 -0.43571255934E-02 -0.55248550356E-02  0.22135128153E-01  0.00000000000E+00 0.  1.
     999901    1    3    3    0    0 -0.10895405796E+00  0.99519582237E-03  0.98175594792E-01  0.89213811967E+00  0.88000000000E+00 0. -1.
        -11    1    4    4    0    0  0.34285347616E-01  0.65535318335E-02 -0.23618344952E-01  0.42148798084E-01  0.51100000000E-03 0.  1.
         11    1    4    4    0    0  0.53681682647E-01 -0.31916020624E-02 -0.69032394805E-01  0.87507954090E-01  0.51100000000E-03 0. -1.
</event>
<event>
 8    1  0.1052028E+005  0.1043930E+01  0.7957747E-01            NaN
         13   -1    0    0    0    0  0.00000000000E+00  0.00000000000E+00  0.74505805969E-08  0.10566000000E+00  0.10566000000E+00 0.  1.
     999900   -1    0    0    0    0 -0.00000000000E+00 -0.00000000000E+00 -0.74505805969E-08  0.93827000000E+00  0.93827000000E+00 0.  1.
     999902    2    1    2    0    0 -0.20543522098E-01  0.77320742720E-02 -0.55634266584E-02  0.10212855086E+01  0.10210344349E+01 0.  0.
     999903    2    3    3    0    0  0.20684000865E-01  0.98732220599E-01  0.81598553095E-01  0.13135408095E+00  0.20486372008E-01 0.  0.
         14    1    1    2    0    0  0.20543522098E-01 -0.77320742720E-02  0.55634266584E-02  0.22644491360E-01  0.00000000000E+00 0. -1.
     999901    1    3    3    0    0 -0.41227522964E-01 -0.91000146327E-01 -0.87161979754E-01  0.88993142769E+00  0.88000000000E+00 0.  1.
        -11    1    4    4    0    0  0.92637212052E-02  0.12284491611E-01  0.16254538873E-01  0.22387416548E-01  0.51100000000E-03 0. -1.
         11    1    4    4    0    0  0.11420279660E-01  0.86447728988E-01  0.65344014223E-01  0.10896666440E+00  0.51100000000E-03 0.  1.
</event>
<event>
 8    1  0.1052028E+005  0.1043930E+01  0.7957747E-01            NaN
         13   -1    0    0    0    0  0.00000000000E+00  0.00000000000E+00  0.74505805969E-08  0.10566000000E+00  0.10566000000E+00 0.  1.
     999900   -1    0    0    0    0 -0.00000000000E+00 -0.00000000000E+00 -0.74505805969E-08  0.93827000000E+00  0.93827000000E+00 0.  1.
     999902    2    1    2    0    0  0.20030241731E-01  0.51317971563E-02 -0.11838955882E-01  0.10201034014E+01  0.10198251040E+01 0.  0.
     999903    2    3    3    0    0 -0.99347742374E-01  0.78341095123E-01 -0.14837765706E-01  0.12902557241E+00  0.20497266791E-01 0.  0.
         14    1    1    2    0    0 -0.20030241731E-01 -0.51317971563E-02  0.11838955882E-01  0.23826598629E-01  0.00000000000E+00 0.  1.
     999901    1    3    3    0    0  0.11937798410E+00 -0.73209297966E-01  0.29988098245E-02  0.89107782896E+00  0.88000000000E+00 0.  1.
        -11    1    4    4    0    0 -0.52954817297E-01  0.53187030325E-01 -0.13317074727E-01  0.76227806409E-01  0.51100000000E-03 0.  1.
         11    1    4    4    0    0 -0.46392925077E-01  0.25154064798E-01 -0.15206909791E-02  0.52797766005E-01  0.51100000000E-03 0. -1.
</event>
<event>
 8    1  0.1052028E+005  0.1043930E+01  0.7957747E-01            NaN
         13   -1    0    0    0    0  0.00000000000E+00  0.00000000000E+00  0.74505805969E-08  0.10566000000E+00  0.10566000000E+00 0.  1.
     999900   -1    0    0    0    0 -0.00000000000E+00 -0.00000000000E+00 -0.74505805969E-08  0.93827000000E+00  0.93827000000E+00 0. -1.
     999902    2    1    2    0    0 -0.10325022771E-01 -0.10468721820E-01 -0.18845882613E-01  0.10200267048E+01  0.10197465915E+01 0.  0.
     999903    2    3    3    0    0  0.42607467428E-01 -0.11819054553E-01 -0.12305826236E+00  0.13229707700E+00  0.20102097278E-01 0.  0.
         14    1    1    2    0    0  0.10325022771E-01  0.10468721820E-01  0.18845882613E-01  0.23903295238E-01  0.00000000000E+00 0.  1.
     999901    1    3    3    0    0 -0.52932490199E-01  0.13503327331E-02  0.10421237975E+00  0.88772962776E+00  0.88000000000E+00 0.  1.
        -11    1    4    4    0    0  0.19015350544E-01 -0.15199272956E-01 -0.70472494283E-01  0.74560277804E-01  0.51100000000E-03 0.  1.
         11    1    4    4    0    0  0.23592116884E-01  0.33802184028E-02 -0.52585768081E-01  0.57736799194E-01  0.51100000000E-03 0. -1.
</event>
<event>
 8    1  0.1052028E+005  0.1043930E+01  0.7957747E-01            NaN
         13   -1    0    0    0    0  0.00000000000E+00  0.00000000000E+00  0.74505805969E-08  0.10566000000E+00  0.10566000000E+00 0. -1.
     999900   -1    0    0    0    0 -0.00000000000E+00 -0.00000000000E+00 -0.74505805969E-08  0.93827000000E+00  0.93827000000E+00 0. -1.
     999902    2    1    2    0    0 -0.61217836088E-02 -0.67347662425E-02  0.21007270752E-01  0.10210359236E+01  0.10207792212E+01 0.  0.
     999903    2    3    3    0    0 -0.12713287477E+00  0.17518785070E-01 -0.20082583080E-01  0.13147406793E+00  0.20308735000E-01 0.  0.
         14    1    1    2    0    0  0.61217836088E-02  0.67347662425E-02 -0.21007270752E-01  0.22894076425E-01  0.00000000000E+00 0.  1.
     999901    1    3    3    0    0  0.12101109116E+00 -0.24253551313E-01  0.41089853832E-01  0.88956185565E+00  0.88000000000E+00 0.  1.
        -11    1    4    4    0    0 -0.86731807522E-01  0.16070193469E-01 -0.50994799593E-02  0.88356795840E-01  0.51100000000E-03 0. -1.
         11    1    4    4    0    0 -0.40401067245E-01  0.14485916013E-02 -0.14983103121E-01  0.43117272088E-01  0.51100000000E-03 0.  1.
</event>
<event>
 8    1  0.1052028E+005  0.1043930E+01  0.7957747E-01            NaN
         13   -1    0    0    0    0  0.00000000000E+00  0.00000000000E+00  0.74505805969E-08  0.10566000000E+00  0.10566000000E+00 0. -1.
     999900   -1    0    0    0    0 -0.00000000000E+00 -0.00000000000E+00 -0.74505805969E-08  0.93827000000E+00  0.93827000000E+00 0. -1.
     999902    2    1    2    0    0  0.23450600455E-01 -0.18227306095E-02  0.10758901506E-02  0.10203840758E+01  0.10201123720E+01 0.  0.
     999903    2    3    3    0    0 -0.63305514468E-01 -0.10938843993E+00 -0.19613016033E-01  0.12935936447E+00  0.19384422220E-01 0.  0.
         14    1    1    2    0    0 -0.23450600455E-01  0.18227306095E-02 -0.10758901506E-02  0.23545924237E-01  0.00000000000E+00 0.  1.
     999901    1    3    3    0    0  0.86756114922E-01  0.10756570932E+00  0.20688906184E-01  0.89102471129E+00  0.88000000000E+00 0.  1.
        -11    1    4    4    0    0 -0.25364831492E-01 -0.32426638830E-01 -0.13525039659E-01  0.43336467337E-01  0.51100000000E-03 0.  1.
         11    1    4    4    0    0 -0.37940682976E-01 -0.76961801102E-01 -0.60879763740E-02  0.86022897132E-01  0.51100000000E-03 0. -1.
</event>
<event>
 8    1  0.1052028E+005  0.1043930E+01  0.7957747E-01            NaN
         13   -1    0    0    0    0  0.00000000000E+00  0.00000000000E+00  0.74505805969E-08  0.10566000000E+00  0.10566000000E+00 0. -1.
     999900   -1    0    0    0    0 -0.00000000000E+00 -0.00000000000E+00 -0.74505805969E-08  0.93827000000E+00  0.93827000000E+00 0. -1.
     999902    2    1    2    0    0 -0.20953885081E-01  0.12368390564E-01  0.33749570187E-04  0.10195980555E+01  0.10193076823E+01 0.  0.
     999903    2    3    3    0    0 -0.17742694739E-01 -0.69339248475E-01  0.10575222821E+00  0.12950657324E+00  0.21579716095E-01 0.  0.
         14    1    1    2    0    0  0.20953885081E-01 -0.12368390564E-01 -0.33749570187E-04  0.24331944521E-01  0.00000000000E+00 0. -1.
     999901    1    3    3    0    0 -0.32111903426E-02  0.81707639039E-01 -0.10571847864E+00  0.89009148223E+00  0.88000000000E+00 0. -1.
        -11    1    4    4    0    0  0.73478127204E-03 -0.37127755150E-01  0.60193390554E-01  0.70728463106E-01  0.51100000000E-03 0. -1.
         11    1    4    4    0    0 -0.18477476011E-01 -0.32211493325E-01  0.45558837655E-01  0.58778110138E-01  0.51100000000E-03 0.  1.
</event>
<event>
 8    1  0.1052028E+005  0.1043930E+01  0.7957747E-01            NaN
         13   -1    0    0    0    0  0.00000000000E+00  0.00000000000E+00  0.74505805969E-08  0.10566000000E+00  0.10566000000E+00 0.  1.
     999900   -1    0    0    0    0 -0.00000000000E+00 -0.00000000000E+00 -0.74505805969E-08  0.93827000000E+00  0.93827000000E+00 0.  1.
     999902    2    1    2    0    0  0.15746895724E-01  0.11263742365E-01 -0.13519952382E-01  0.10203158998E+01  0.10200426019E+01 0.  0.
     999903    2    3    3    0    0 -0.92972365726E-01  0.24456992593E-01 -0.86132785049E-01  0.13055943696E+00  0.19618986792E-01 0.  0.
         14    1    1    2    0    0 -0.15746895724E-01 -0.11263742365E-01  0.13519952382E-01  0.23614100224E-01  0.00000000000E+00 0.  1.
     999901    1    3    3    0    0  0.10871926145E+00 -0.13193250228E-01  0.72612832667E-01  0.88975646282E+00  0.88000000000E+00 0. -1.
        -11    1    4    4    0    0 -0.55964888689E-01  0.14824321047E-01 -0.38749403113E-01  0.69667830619E-01  0.51100000000E-03 0.  1.
         11    1    4    4    0    0 -0.37007477037E-01  0.96326715454E-02 -0.47383381935E-01  0.60891606337E-01  0.51100000000E-03 0. -1.
</event>
<event>
 8    1  0.1052028E+005  0.1043930E+01  0.7957747E-01            NaN
         13   -1    0    0    0    0  0.00000000000E+00  0.00000000000E+00  0.74505805969E-08  0.10566000000E+00  0.10566000000E+00 0. -1.
     999900   -1    0    0    0    0 -0.00000000000E+00 -0.00000000000E+00 -0.74505805969E-08  0.93827000000E+00  0.93827000000E+00 0. -1.
     999902    2    1    2    0    0 -0.60267560043E-02  0.12241234819E-01  0.17968198189E-01  0.10213684007E+01  0.10211191821E+01 0.  0.
     999903    2    3    3    0    0  0.79478456361E-01  0.84282890284E-01 -0.58126628288E-01  0.13103612333E+00  0.19269926883E-01 0.  0.
         14    1    1    2    0    0  0.60267560043E-02 -0.12241234819E-01 -0.17968198189E-01  0.22561599322E-01  0.00000000000E+00 0.  1.
     999901    1    3    3    0    0 -0.85505212365E-01 -0.72041655465E-01  0.76094826477E-01  0.89033227734E+00  0.88000000000E+00 0.  1.
        -11    1    4    4    0    0  0.29724005263E-01  0.45380007129E-01 -0.28276526983E-01  0.61177484707E-01  0.51100000000E-03 0. -1.
         11    1    4    4    0    0  0.49754451097E-01  0.38902883155E-01 -0.29850101306E-01  0.69858638626E-01  0.51100000000E-03 0.  1.
</event>
<event>
 8    1  0.1052028E+005  0.1043930E+01  0.7957747E-01            NaN
         13   -1    0    0    0    0  0.00000000000E+00  0.00000000000E+00  0.74505805969E-08  0.10566000000E+00  0.10566000000E+00 0.  1.
     999900   -1    0    0    0    0 -0.00000000000E+00 -0.00000000000E+00 -0.74505805969E-08  0.93827000000E+00  0.93827000000E+00 0.  1.
     999902    2    1    2    0    0  0.72913925217E-02  0.46462417188E-02 -0.22297011736E-01  0.10200153873E+01  0.10197350056E+01 0.  0.
     999903    2    3    3    0    0 -0.43445509876E-01 -0.11457078392E+00  0.33627592674E-01  0.12877215799E+00  0.20915946730E-01 0.  0.
         14    1    1    2    0    0 -0.72913925217E-02 -0.46462417188E-02  0.22297011736E-01  0.23914612675E-01  0.00000000000E+00 0.  1.
     999901    1    3    3    0    0  0.50736902398E-01  0.11921702563E+00 -0.55924604410E-01  0.89124322934E+00  0.88000000000E+00 0. -1.
        -11    1    4    4    0    0 -0.19365395722E-01 -0.56548593678E-01  0.27035974690E-01  0.65604626719E-01  0.51100000000E-03 0.  1.
         11    1    4    4    0    0 -0.24080114154E-01 -0.58022190238E-01  0.65916179838E-02  0.63167531267E-01  0.51100000000E-03 0. -1.
</event>
<event>
 8    1  0.1052028E+005  0.1043930E+01  0.7957747E-01            NaN
         13   -1    0    0    0    0  0.00000000000E+00  0.00000000000E+00  0.74505805969E-08  0.10566000000E+00  0.10566000000E+00 0.  1.
     999900   -1    0    0    0    0 -0.00000000000E+00 -0.00000000000E+00 -0.74505805969E-08  0.93827000000E+00  0.93827000000E+00 0.  1.
     999902    2    1    2    0    0 -0.87389327643E-02 -0.14020598651E-01  0.20720603976E-01  0.10174292536E+01  0.10170840656E+01 0.  0.
     999903    2    3    3    0    0 -0.93923115135E-01  0.33856423137E-01 -0.75463786696E-01  0.12681149541E+00  0.20458820115E-01 0.  0.
         14    1    1    2    0    0  0.87389327643E-02  0.14020598651E-01 -0.20720603976E-01  0.26500746433E-01  0.00000000000E+00 0. -1.
     999901    1    3    3    0    0  0.85184182370E-01 -0.47877021788E-01  0.96184390672E-01  0.89061775816E+00  0.88000000000E+00 0. -1.
        -11    1    4    4    0    0 -0.25792925000E-01  0.17929774973E-01 -0.17566059880E-01  0.35994157739E-01  0.51100000000E-03 0. -1.
         11    1    4    4    0    0 -0.68130190134E-01  0.15926648164E-01 -0.57897726816E-01  0.90817337667E-01  0.51100000000E-03 0.  1.
</event>
<event>
 8    1  0.1052028E+005  0.1043930E+01  0.7957747E-01            NaN
         13   -1    0    0    0    0  0.00000000000E+00  0.00000000000E+00  0.74505805969E-08  0.10566000000E+00  0.10566000000E+00 0.  1.
     999900   -1    0    0    0    0 -0.00000000000E+00 -0.00000000000E+00 -0.74505805969E-08  0.93827000000E+00  0.93827000000E+00 0. -1.
     999902    2    1    2    0    0 -0.61732197982E-04 -0.18650093111E-01  0.15601243061E-01  0.10196148079E+01  0.10193248392E+01 0.  0.
     999903    2    3    3    0    0 -0.84048643285E-01  0.61832925586E-01  0.74561959964E-01  0.13000383464E+00  0.21307886391E-01 0.  0.
         14    1    1    2    0    0  0.61732197982E-04  0.18650093111E-01 -0.15601243061E-01  0.24315192143E-01  0.00000000000E+00 0. -1.
     999901    1    3    3    0    0  0.83986911087E-01 -0.80483018697E-01 -0.58960716904E-01  0.88961097322E+00  0.88000000000E+00 0. -1.
        -11    1    4    4    0    0 -0.26501846145E-01  0.24360339961E-01  0.14643012817E-01  0.38864546279E-01  0.51100000000E-03 0.  1.
         11    1    4    4    0    0 -0.57546797139E-01  0.37472585625E-01  0.59918947147E-01  0.91139288359E-01  0.51100000000E-03 0. -1.
</event>
<event>
 8    1  0.1052028E+005  0.1043930E+01  0.7957747E-01            NaN
         13   -1    0    0    0    0  0.00000000000E+00  0.00000000000E+00  0.74505805969E-08  0.10566000000E+00  0.10566000000E+00 0.  1.
     999900   -1    0    0    0    0 -0.00000000000E+00 -0.00000000000E+00 -0.74505805969E-08  0.93827000000E+00  0.93827000000E+00 0.  1.
     999902    2    1    2    0    0 -0.21097422187E-01 -0.42044483586E-02  0.10596067972E-01  0.10199496900E+01  0.10196677473E+01 0.  0.
     999903    2    3    3    0    0 -0.26038573647E-01  0.12186835648E+00 -0.31809961643E-01  0.12994011794E+00  0.18510995705E-01 0.  0.
         14    1    1    2    0    0  0.21097422187E-01  0.42044483586E-02 -0.10596067972E-01  0.23980309952E-01  0.00000000000E+00 0.  1.
     999901    1    3    3    0    0  0.49411514596E-02 -0.12607280484E+00  0.42406029615E-01  0.89000957211E+00  0.88000000000E+00 0.  1.
        -11    1    4    4    0    0 -0.16355429870E-01  0.10333192357E+00 -0.30522605402E-01  0.10898108587E+00  0.51100000000E-03 0.  1.
         11    1    4    4    0    0 -0.96831437765E-02  0.18536432908E-01 -0.12873562409E-02  0.20959032073E-01  0.51100000000E-03 0. -1.
</event>
<event>
 8    1  0.1052028E+005  0.1043930E+01  0.7957747E-01            NaN
         13   -1    0    0    0    0  0.00000000000E+00  0.00000000000E+00  0.74505805969E-08  0.10566000000E+00  0.10566000000E+00 0. -1.
     999900   -1    0    0    0    0 -0.00000000000E+00 -0.00000000000E+00 -0.74505805969E-08  0.93827000000E+00  0.93827000000E+00 0.  1.
     999902    2    1    2    0    0  0.19727550400E-01 -0.10129615965E-01  0.79831158607E-02  0.10203606236E+01  0.10200883720E+01 0.  0.
     999903    2    3    3    0    0  0.12056257025E+00 -0.38829506520E-01 -0.35573781173E-01  0.13306778119E+00  0.19961877665E-01 0.  0.
         14    1    1    2    0    0 -0.19727550400E-01  0.10129615965E-01 -0.79831158607E-02  0.23569376386E-01  0.00000000000E+00 0.  1.
     999901    1    3    3    0    0 -0.10083501985E+00  0.28699890555E-01  0.43556897034E-01  0.88729284243E+00  0.88000000000E+00 0.  1.
        -11    1    4    4    0    0  0.91197639396E-01 -0.36697795953E-01 -0.22490787745E-01  0.10084559640E+00  0.51100000000E-03 0.  1.
         11    1    4    4    0    0  0.29364930857E-01 -0.21317105673E-02 -0.13082993427E-01  0.32222184783E-01  0.51100000000E-03 0. -1.
</event>
<event>
 8    1  0.1052028E+005  0.1043930E+01  0.7957747E-01            NaN
         13   -1    0    0    0    0  0.00000000000E+00  0.00000000000E+00  0.74505805969E-08  0.10566000000E+00  0.10566000000E+00 0. -1.
     999900   -1    0    0    0    0 -0.00000000000E+00 -0.00000000000E+00 -0.74505805969E-08  0.93827000000E+00  0.93827000000E+00 0. -1.
     999902    2    1    2    0    0  0.19269373345E-01 -0.11958509119E-01  0.23232127127E-02  0.10211328070E+01  0.10208782972E+01 0.  0.
     999903    2    3    3    0    0 -0.11409550704E+00  0.54308001632E-01 -0.72250010922E-02  0.12856986240E+00  0.22602325273E-01 0.  0.
         14    1    1    2    0    0 -0.19269373345E-01  0.11958509119E-01 -0.23232127127E-02  0.22797192958E-01  0.00000000000E+00 0.  1.
     999901    1    3    3    0    0  0.13336488039E+00 -0.66266510752E-01  0.95482138049E-02  0.89256294465E+00  0.88000000000E+00 0. -1.
        -11    1    4    4    0    0 -0.40479088849E-01  0.24262083856E-01 -0.12679262361E-01  0.48869521811E-01  0.51100000000E-03 0. -1.
         11    1    4    4    0    0 -0.73616418191E-01  0.30045917777E-01  0.54542612684E-02  0.79700340585E-01  0.51100000000E-03 0.  1.
</event>
<event>
 8    1  0.1052028E+005  0.1043930E+01  0.7957747E-01            NaN
         13   -1    0    0    0    0  0.00000000000E+00  0.00000000000E+00  0.74505805969E-08  0.10566000000E+00  0.10566000000E+00 0.  1.
     999900   -1    0    0    0    0 -0.00000000000E+00 -0.00000000000E+00 -0.74505805969E-08  0.93827000000E+00  0.93827000000E+00 0. -1.
     999902    2    1    2    0    0 -0.13667162359E-01  0.13271403901E-01  0.14092900010E-01  0.10202333479E+01  0.10199581133E+01 0.  0.
     999903    2    3    3    0    0  0.69160899926E-01  0.10132443918E+00  0.42473691803E-01  0.13151556693E+00  0.21034680830E-01 0.  0.
         14    1    1    2    0    0  0.13667162359E-01 -0.13271403901E-01 -0.14092900010E-01  0.23696652066E-01  0.00000000000E+00 0. -1.
     999901    1    3    3    0    0 -0.82828062285E-01 -0.88053035275E-01 -0.28380791793E-01  0.88871778100E+00  0.88000000000E+00 0. -1.
        -11    1    4    4    0    0  0.46383028874E-01  0.49406771435E-01  0.23499278274E-01  0.71727899953E-01  0.51100000000E-03 0. -1.
         11    1    4    4    0    0  0.22777871052E-01  0.51917667741E-01  0.18974413529E-01  0.59787666981E-01  0.51100000000E-03 0.  1.
</event>
<event>
 8    1  0.1052028E+005  0.1043930E+01  0.7957747E-01            NaN
         13   -1    0    0    0    0  0.00000000000E+00  0.00000000000E+00  0.74505805969E-08  0.10566000000E+00  0.10566000000E+00 0. -1.
     999900   -1    0    0    0    0 -0.00000000000E+00 -0.00000000000E+00 -0.74505805969E-08  0.93827000000E+00  0.93827000000E+00 0.  1.
     999902    2    1    2    0    0 -0.64849513006E-02  0.15687175269E-02 -0.22571743311E-01  0.10203928153E+01  0.10201213155E+01 0.  0.
     999903    2    3    3    0    0 -0.79937043147E-02  0.59866375001E-01  0.11148591734E+00  0.12833208329E+00  0.19802314778E-01 0.  0.
         14    1    1    2    0    0  0.64849513006E-02 -0.15687175269E-02  0.22571743311E-01  0.23537184711E-01  0.00000000000E+00 0.  1.
     999901    1    3    3    0    0  0.15087530140E-02 -0.58297657474E-01 -0.13405766065E+00  0.89206073200E+00  0.88000000000E+00 0.  1.
        -11    1    4    4    0    0 -0.13915729599E-01  0.29605955575E-01  0.58204850838E-01  0.66769947715E-01  0.51100000000E-03 0.  1.
         11    1    4    4    0    0  0.59220252840E-02  0.30260419426E-01  0.53281066503E-01  0.61562135570E-01  0.51100000000E-03 0. -1.
</event>
<event>
 8    1  0.1052028E+005  0.1043930E+01  0.7957747E-01            NaN
         13   -1    0    0    0    0  0.00000000000E+00  0.00000000000E+00  0.74505805969E-08  0.10566000000E+00  0.10566000000E+00 0. -1.
     999900   -1    0    0    0    0 -0.00000000000E+00 -0.00000000000E+00 -0.74505805969E-08  0.93827000000E+00  0.93827000000E+00 0. -1.
     999902    2    1    2    0    0  0.11476603864E-01  0.96663934242E-04 -0.20227988031E-01  0.10206728875E+01  0.10204078842E+01 0.  0.
     999903    2    3    3    0    0  0.12966933287E+00  0.63088361653E-02 -0.20313809852E-01  0.13274940005E+00  0.18863060273E-01 0.  0.
         14    1    1    2    0    0 -0.11476603864E-01 -0.96663934242E-04  0.20227988031E-01  0.23257112460E-01  0.00000000000E+00 0. -1.
     999901    1    3    3    0    0 -0.11819272900E+00 -0.62121722311E-02  0.85821820934E-04  0.88792348749E+00  0.88000000000E+00 0.  1.
        -11    1    4    4    0    0  0.57006655721E-01  0.11996286535E-01 -0.73600210745E-02  0.58720530638E-01  0.51100000000E-03 0.  1.
         11    1    4    4    0    0  0.72662677145E-01 -0.56874503698E-02 -0.12953788778E-01  0.74028869412E-01  0.51100000000E-03 0. -1.
</event>
<event>
 8    1  0.1052028E+005  0.1043930E+01  0.7957747E-01            NaN
         13   -1    0    0    0    0  0.00000000000E+00  0.00000000000E+00  0.74505805969E-08  0.10566000000E+00  0.10566000000E+00 0. -1.
     999900   -1    0    0    0    0 -0.00000000000E+00 -0.00000000000E+00 -0.74505805969E-08  0.93827000000E+00  0.93827000000E+00 0. -1.
     999902    2    1    2    0    0  0.96709591904E-02 -0.11400461258E-02 -0.11223774986E-01  0.10290706500E+01  0.10289633630E+01 0.  0.
     999903    2    3    3    0    0 -0.18359382104E-01  0.85359383557E-01 -0.10639826804E+00  0.13928076724E+00  0.21336574474E-01 0.  0.
         14    1    1    2    0    0 -0.96709591904E-02  0.11400461258E-02  0.11223774986E-01  0.14859349978E-01  0.00000000000E+00 0. -1.
     999901    1    3    3    0    0  0.28030341295E-01 -0.86499429682E-01  0.95174493050E-01  0.88978988278E+00  0.88000000000E+00 0.  1.
        -11    1    4    4    0    0 -0.14118731989E-01  0.55533265810E-01 -0.53456241075E-01  0.78365254005E-01  0.51100000000E-03 0.  1.
         11    1    4    4    0    0 -0.42406501157E-02  0.29826117747E-01 -0.52942026961E-01  0.60915513238E-01  0.51100000000E-03 0. -1.
</event>
<event>
 8    1  0.1052028E+005  0.1043930E+01  0.7957747E-01            NaN
         13   -1    0    0    0    0  0.00000000000E+00  0.00000000000E+00  0.74505805969E-08  0.10566000000E+00  0.10566000000E+00 0.  1.
     999900   -1    0    0    0    0 -0.00000000000E+00 -0.00000000000E+00 -0.74505805969E-08  0.93827000000E+00  0.93827000000E+00 0. -1.
     999902    2    1    2    0    0  0.64869233497E-02  0.90839982453E-03 -0.22475845417E-01  0.10205191266E+01  0.10202505667E+01 0.  0.
     999903    2    3    3    0    0 -0.11851518451E+00 -0.23727548812E-01 -0.46799199803E-01  0.13101135123E+00  0.19104018324E-01 0.  0.
         14    1    1    2    0    0 -0.64869233497E-02 -0.90839982453E-03  0.22475845417E-01  0.23410873371E-01  0.00000000000E+00 0.  1.
     999901    1    3    3    0    0  0.12500210786E+00  0.24635948637E-01  0.24323354386E-01  0.88950777540E+00  0.88000000000E+00 0. -1.
        -11    1    4    4    0    0 -0.16357303278E-01 -0.70777640316E-02 -0.13210308316E-01  0.22190752151E-01  0.51100000000E-03 0.  1.
         11    1    4    4    0    0 -0.10215788123E+00 -0.16649784781E-01 -0.33588891487E-01  0.10882059907E+00  0.51100000000E-03 0. -1.
</event>
<event>
 8    1  0.1052028E+005  0.1043930E+01  0.7957747E-01            NaN
         13   -1    0    0    0    0  0.00000000000E+00  0.00000000000E+00  0.74505805969E-08  0.10566000000E+00  0.10566000000E+00 0.  1.
     999900   -1    0    0    0    0 -0.00000000000E+00 -0.00000000000E+00 -0.74505805969E-08  0.93827000000E+00  0.93827000000E+00 0.  1.
     999902    2    1    2    0    0 -0.10697338435E-01 -0.17707530555E-01 -0.11321965948E-01  0.10203466033E+01  0.10200740239E+01 0.  0.
     999903    2    3    3    0    0 -0.10118712307E+00 -0.83441249571E-01  0.80012352225E-02  0.13305707385E+00  0.20949680889E-01 0.  0.
         14    1    1    2    0    0  0.10697338435E-01  0.17707530555E-01  0.11321965948E-01  0.23583396720E-01  0.00000000000E+00 0.  1.
     999901    1    3    3    0    0  0.90489784639E-01  0.65733719016E-01 -0.19323201170E-01  0.88728952943E+00  0.88000000000E+00 0. -1.
        -11    1    4    4    0    0 -0.77866835615E-01 -0.72696304364E-01  0.11462677098E-01  0.10714313251E+00  0.51100000000E-03 0.  1.
         11    1    4    4    0    0 -0.23320287460E-01 -0.10744945207E-01 -0.34614418750E-02  0.25913941335E-01  0.51100000000E-03 0. -1.
</event>
<event>
 8    1  0.1052028E+005  0.1043930E+01  0.7957747E-01            NaN
         13   -1    0    0    0    0  0.00000000000E+00  0.00000000000E+00  0.74505805969E-08  0.10566000000E+00  0.10566000000E+00 0.  1.
     999900   -1    0    0    0    0 -0.00000000000E+00 -0.00000000000E+00 -0.74505805969E-08  0.93827000000E+00  0.93827000000E+00 0. -1.
     999902    2    1    2    0    0 -0.81433373682E-02 -0.54279536811E-02  0.21122859792E-01  0.10206501411E+01  0.10203846131E+01 0.  0.
     999903    2    3    3    0    0 -0.91868556430E-01 -0.92628466413E-01 -0.91627193840E-03  0.13211226061E+00  0.20807340053E-01 0.  0.
         14    1    1    2    0    0  0.81433373682E-02  0.54279536811E-02 -0.21122859792E-01  0.23279858901E-01  0.00000000000E+00 0.  1.
     999901    1    3    3    0    0  0.83725219062E-01  0.87200512731E-01  0.22039131730E-01  0.88853788048E+00  0.88000000000E+00 0. -1.
        -11    1    4    4    0    0 -0.57533942408E-01 -0.71041846941E-01  0.20752398473E-02  0.91442147214E-01  0.51100000000E-03 0.  1.
         11    1    4    4    0    0 -0.34334614022E-01 -0.21586619472E-01 -0.29915117857E-02  0.40670113401E-01  0.51100000000E-03 0. -1.
</event>
<event>
 8    1  0.1052028E+005  0.1043930E+01  0.7957747E-01            NaN
         13   -1    0    0    0    0  0.00000000000E+00  0.00000000000E+00  0.74505805969E-08  0.10566000000E+00  0.10566000000E+00 0. -1.
     999900   -1    0    0    0    0 -0.00000000000E+00 -0.00000000000E+00 -0.74505805969E-08  0.93827000000E+00  0.93827000000E+00 0.  1.
     999902    2    1    2    0    0 -0.22308922915E-01  0.72620743138E-02  0.24294042487E-02  0.10203433985E+01  0.10200707442E+01 0.  0.
     999903    2    3    3    0    0  0.97402407926E-01  0.29051073100E-01 -0.75715976116E-01  0.12854058192E+00  0.21414440062E-01 0.  0.
         14    1    1    2    0    0  0.22308922915E-01 -0.72620743138E-02 -0.24294042487E-02  0.23586601493E-01  0.00000000000E+00 0. -1.
     999901    1    3    3    0    0 -0.11971133084E+00 -0.21788998786E-01  0.78145380365E-01  0.89180281659E+00  0.88000000000E+00 0. -1.
        -11    1    4    4    0    0  0.68312074355E-01  0.21369325477E-01 -0.40584798326E-01  0.82283501081E-01  0.51100000000E-03 0. -1.
         11    1    4    4    0    0  0.29090333571E-01  0.76817476228E-02 -0.35131177791E-01  0.46257080839E-01  0.51100000000E-03 0.  1.
</event>
<event>
 8    1  0.1052028E+005  0.1043930E+01  0.7957747E-01            NaN
         13   -1    0    0    0    0  0.00000000000E+00  0.00000000000E+00  0.74505805969E-08  0.10566000000E+00  0.10566000000E+00 0. -1.
     999900   -1    0    0    0    0 -0.00000000000E+00 -0.00000000000E+00 -0.74505805969E-08  0.93827000000E+00  0.93827000000E+00 0.  1.
     999902    2    1    2    0    0 -0.99462937961E-02  0.17712542038E-01 -0.10099704663E-01  0.10212437279E+01  0.10209917164E+01 0.  0.
     999903    2    3    3    0    0  0.75180819948E-01 -0.39058513451E-01 -0.97790151334E-01  0.13098579190E+00  0.20411781447E-01 0.  0.
         14    1    1    2    0    0  0.99462937961E-02 -0.17712542038E-01  0.10099704663E-01  0.22686272061E-01  0.00000000000E+00 0. -1.
     999901    1    3    3    0    0 -0.85127113744E-01  0.56771055489E-01  0.87690446671E-01  0.89025793603E+00  0.88000000000E+00 0. -1.
        -11    1    4    4    0    0  0.20842580140E-01 -0.17020847554E-01 -0.19813978250E-01  0.33421209635E-01  0.51100000000E-03 0.  1.
         11    1    4    4    0    0  0.54338239807E-01 -0.22037665896E-01 -0.77976173085E-01  0.97564582270E-01  0.51100000000E-03 0. -1.
</event>
<event>
 8    1  0.1052028E+005  0.1043930E+01  0.7957747E-01            NaN
         13   -1    0    0    0    0  0.00000000000E+00  0.00000000000E+00  0.74505805969E-08  0.10566000000E+00  0.10566000000E+00 0.  1.
     999900   -1    0    0    0    0 -0.00000000000E+00 -0.00000000000E+00 -0.74505805969E-08  0.93827000000E+00  0.93827000000E+00 0.  1.
     999902    2    1    2    0    0  0.14278909682E-01  0.48301651206E-02  0.18003424700E-01  0.10204493472E+01  0.10201791652E+01 0.  0.
     999903    2    3    3    0    0 -0.12513662493E+00 -0.19173614521E-01  0.13840511174E-01  0.12914120596E+00  0.21426360720E-01 0.  0.
         14    1    1    2    0    0 -0.14278909682E-01 -0.48301651206E-02 -0.18003424700E-01  0.23480652838E-01  0.00000000000E+00 0. -1.
     999901    1    3    3    0    0  0.13941553461E+00  0.24003779642E-01  0.41629135258E-02  0.89130814120E+00  0.88000000000E+00 0. -1.
        -11    1    4    4    0    0 -0.60157362241E-01 -0.13405140319E-01 -0.31920468407E-02  0.61717552631E-01  0.51100000000E-03 0. -1.
         11    1    4    4    0    0 -0.64979262690E-01 -0.57684742022E-02  0.17032558015E-01  0.67423653326E-01  0.51100000000E-03 0.  1.
</event>
<event>
 8    1  0.1052028E+005  0.1043930E+01  0.7957747E-01            NaN
         13   -1    0    0    0    0  0.00000000000E+00  0.00000000000E+00  0.74505805969E-08  0.10566000000E+00  0.10566000000E+00 0. -1.
     999900   -1    0    0    0    0 -0.00000000000E+00 -0.00000000000E+00 -0.74505805969E-08  0.93827000000E+00  0.93827000000E+00 0.  1.
     999902    2    1    2    0    0 -0.14235210392E-01  0.14395505070E-01 -0.10407932349E-01  0.10211660628E+01  0.10209123033E+01 0.  0.
     999903    2    3    3    0    0 -0.12693473765E+00  0.31030598130E-01 -0.20601867839E-01  0.13376433523E+00  0.19827626703E-01 0.  0.
         14    1    1    2    0    0  0.14235210392E-01 -0.14395505070E-01  0.10407932349E-01  0.22763937201E-01  0.00000000000E+00 0. -1.
     999901    1    3    3    0    0  0.11269952725E+00 -0.16635093061E-01  0.10193935490E-01  0.88740172756E+00  0.88000000000E+00 0.  1.
        -11    1    4    4    0    0 -0.11224136598E+00  0.31695348301E-01 -0.22928770337E-01  0.11886424597E+00  0.51100000000E-03 0.  1.
         11    1    4    4    0    0 -0.14693371668E-01 -0.66475017125E-03  0.23269024980E-02  0.14900089261E-01  0.51100000000E-03 0. -1.
</event>
<event>
 8    1  0.1052028E+005  0.1043930E+01  0.7957747E-01            NaN
         13   -1    0    0    0    0  0.00000000000E+00  0.00000000000E+00  0.74505805969E-08  0.10566000000E+00  0.10566000000E+00 0. -1.
     999900   -1    0    0    0    0 -0.00000000000E+00 -0.00000000000E+00 -0.74505805969E-08  0.93827000000E+00  0.93827000000E+00 0. -1.
     999902    2    1    2    0    0 -0.39724658720E-02 -0.85505339572E-02  0.20582235870E-01  0.10212910833E+01  0.10210401345E+01 0.  0.
     999903    2    3    3    0    0 -0.82283890603E-01  0.29156380229E-01  0.98954321174E-01  0.13354299156E+00  0.20519253307E-01 0.  0.
         14    1    1    2    0    0  0.39724658720E-02  0.85505339572E-02 -0.20582235870E-01  0.22638916703E-01  0.00000000000E+00 0.  1.
     999901    1    3    3    0    0  0.78311424731E-01 -0.37706914186E-01 -0.78372085303E-01  0.88774809173E+00  0.88000000000E+00 0. -1.
        -11    1    4    4    0    0 -0.53825327643E-01  0.88311184853E-02  0.64066109903E-01  0.84142035325E-01  0.51100000000E-03 0. -1.
         11    1    4    4    0    0 -0.28458562959E-01  0.20325261743E-01  0.34888211271E-01  0.49400956239E-01  0.51100000000E-03 0.  1.
</event>
<event>
 8    1  0.1052028E+005  0.1043930E+01  0.7957747E-01            NaN
         13   -1    0    0    0    0  0.00000000000E+00  0.00000000000E+00  0.74505805969E-08  0.10566000000E+00  0.10566000000E+00 0.  1.
     999900   -1    0    0    0    0 -0.00000000000E+00 -0.00000000000E+00 -0.74505805969E-08  0.93827000000E+00  0.93827000000E+00 0. -1.
     999902    2    1    2    0    0  0.12536056176E-02 -0.22558729251E-01  0.48886904482E-02  0.10208136186E+01  0.10205518492E+01 0.  0.
     999903    2    3    3    0    0  0.92148871443E-02 -0.24923697405E-01 -0.12685939545E+00  0.13096726494E+00  0.18788651743E-01 0.  0.
         14    1    1    2    0    0 -0.12536056176E-02  0.22558729251E-01 -0.48886904482E-02  0.23116381351E-01  0.00000000000E+00 0.  1.
     999901    1    3    3    0    0 -0.79612815267E-02  0.23649681535E-02  0.13174808590E+00  0.88984635371E+00  0.88000000000E+00 0.  1.
        -11    1    4    4    0    0  0.12288955586E-01 -0.66073394702E-02 -0.53615388634E-01  0.55403487108E-01  0.51100000000E-03 0. -1.
         11    1    4    4    0    0 -0.30740684420E-02 -0.18316357934E-01 -0.73244006813E-01  0.75563777829E-01  0.51100000000E-03 0.  1.
</event>
<event>
 8    1  0.1052028E+005  0.1043930E+01  0.7957747E-01            NaN
         13   -1    0    0    0    0  0.00000000000E+00  0.00000000000E+00  0.74505805969E-08  0.10566000000E+00  0.10566000000E+00 0. -1.
     999900   -1    0    0    0    0 -0.00000000000E+00 -0.00000000000E+00 -0.74505805969E-08  0.93827000000E+00  0.93827000000E+00 0. -1.
     999902    2    1    2    0    0  0.13456740913E-01  0.16370474547E-01 -0.10833881594E-01  0.10201298046E+01  0.10198521309E+01 0.  0.
     999903    2    3    3    0    0  0.26134441185E-02 -0.24374663225E-01  0.12451841930E+00  0.12878363796E+00  0.21895989675E-01 0.  0.
         14    1    1    2    0    0 -0.13456740913E-01 -0.16370474547E-01  0.10833881594E-01  0.23800195447E-01  0.00000000000E+00 0. -1.
     999901    1    3    3    0    0  0.10843296795E-01  0.40745137772E-01 -0.13535230090E+00  0.89134616659E+00  0.88000000000E+00 0. -1.
        -11    1    4    4    0    0  0.11994411930E-01 -0.10202987065E-01  0.54618590630E-01  0.56845566459E-01  0.51100000000E-03 0.  1.
         11    1    4    4    0    0 -0.93809678119E-02 -0.14171676160E-01  0.69899828673E-01  0.71938071504E-01  0.51100000000E-03 0. -1.
</event>
<event>
 8    1  0.1052028E+005  0.1043930E+01  0.7957747E-01            NaN
         13   -1    0    0    0    0  0.00000000000E+00  0.00000000000E+00  0.74505805969E-08  0.10566000000E+00  0.10566000000E+00 0. -1.
     999900   -1    0    0    0    0 -0.00000000000E+00 -0.00000000000E+00 -0.74505805969E-08  0.93827000000E+00  0.93827000000E+00 0.  1.
     999902    2    1    2    0    0  0.16536404932E-01 -0.14733499187E-02  0.18512915307E-01  0.10190633259E+01  0.10187598886E+01 0.  0.
     999903    2    3    3    0    0 -0.19649322863E-01  0.11552375203E+00 -0.47355489312E-01  0.12814448812E+00  0.21133724152E-01 0.  0.
         14    1    1    2    0    0 -0.16536404932E-01  0.14733499187E-02 -0.18512915307E-01  0.24866674108E-01  0.00000000000E+00 0.  1.
     999901    1    3    3    0    0  0.36185727795E-01 -0.11699710195E+00  0.65868404619E-01  0.89091883777E+00  0.88000000000E+00 0. -1.
        -11    1    4    4    0    0 -0.10829661287E-01  0.51388712342E-01 -0.10205812592E-01  0.53502346223E-01  0.51100000000E-03 0.  1.
         11    1    4    4    0    0 -0.88196615761E-02  0.64135039689E-01 -0.37149676720E-01  0.74642141901E-01  0.51100000000E-03 0. -1.
</event>
<event>
 8    1  0.1543035E+005  0.1043930E+01  0.7957747E-01            NaN
         13   -1    0    0    0    0  0.00000000000E+00  0.00000000000E+00  0.74505805969E-08  0.10566000000E+00  0.10566000000E+00 0. -1.
     999900   -1    0    0    0    0 -0.00000000000E+00 -0.00000000000E+00 -0.74505805969E-08  0.93827000000E+00  0.93827000000E+00 0. -1.
     999902    2    1    2    0    0  0.19611761524E-01 -0.42941026113E-02  0.13066603179E-01  0.10199759476E+01  0.10196946293E+01 0.  0.
     999903    2    3    3    0    0 -0.92207116572E-02 -0.12875838573E+00  0.56948617420E-02  0.13071950999E+00  0.19784221527E-01 0.  0.
         14    1    1    2    0    0 -0.19611761524E-01  0.42941026113E-02 -0.13066603179E-01  0.23954052391E-01  0.00000000000E+00 0.  1.
     999901    1    3    3    0    0  0.28832473181E-01  0.12446428312E+00  0.73717414366E-02  0.88925643762E+00  0.88000000000E+00 0. -1.
        -11    1    4    4    0    0 -0.41584788823E-02 -0.58129854388E-01  0.12419898985E-01  0.59589327313E-01  0.51100000000E-03 0.  1.
         11    1    4    4    0    0 -0.50622327748E-02 -0.70628531342E-01 -0.67250372431E-02  0.71130182673E-01  0.51100000000E-03 0. -1.
</event>
<event>
 8    1  0.1052028E+005  0.1043930E+01  0.7957747E-01            NaN
         13   -1    0    0    0    0  0.00000000000E+00  0.00000000000E+00  0.74505805969E-08  0.10566000000E+00  0.10566000000E+00 0. -1.
     999900   -1    0    0    0    0 -0.00000000000E+00 -0.00000000000E+00 -0.74505805969E-08  0.93827000000E+00  0.93827000000E+00 0. -1.
     999902    2    1    2    0    0  0.10091197616E-01 -0.20583768253E-01 -0.22884396291E-02  0.10208917548E+01  0.10206317722E+01 0.  0.
     999903    2    3    3    0    0 -0.63004699963E-01 -0.10308671833E+00  0.50515185390E-01  0.13244481222E+00  0.19833825015E-01 0.  0.
         14    1    1    2    0    0 -0.10091197616E-01  0.20583768253E-01  0.22884396291E-02  0.23038245175E-01  0.00000000000E+00 0. -1.
     999901    1    3    3    0    0  0.73095897579E-01  0.82502950078E-01 -0.52803625019E-01  0.88844694261E+00  0.88000000000E+00 0. -1.
        -11    1    4    4    0    0 -0.44882001651E-01 -0.58846652495E-01  0.24178435688E-01  0.77860005493E-01  0.51100000000E-03 0.  1.
         11    1    4    4    0    0 -0.18122698311E-01 -0.44240065836E-01  0.26336749702E-01  0.54584806724E-01  0.51100000000E-03 0. -1.
</event>
<event>
 8    1  0.1052028E+005  0.1043930E+01  0.7957747E-01            NaN
         13   -1    0    0    0    0  0.00000000000E+00  0.00000000000E+00  0.74505805969E-08  0.10566000000E+00  0.10566000000E+00 0. -1.
     999900   -1    0    0    0    0 -0.00000000000E+00 -0.00000000000E+00 -0.74505805969E-08  0.93827000000E+00  0.93827000000E+00 0. -1.
     999902    2    1    2    0    0  0.18472572836E-01 -0.15088755906E-01 -0.60430071952E-03  0.10200705851E+01  0.10197915114E+01 0.  0.
     999903    2    3    3    0    0 -0.12497686013E-01  0.68716864965E-01 -0.10736918784E+00  0.12912654633E+00  0.16350008693E-01 0.  0.
         14    1    1    2    0    0 -0.18472572836E-01  0.15088755906E-01  0.60430071952E-03  0.23859414941E-01  0.00000000000E+00 0. -1.
     999901    1    3    3    0    0  0.30970258849E-01 -0.83805620871E-01  0.10676488712E+00  0.89094403873E+00  0.88000000000E+00 0.  1.
        -11    1    4    4    0    0 -0.51936231122E-02  0.42574445207E-01 -0.51594862582E-01  0.67095812623E-01  0.51100000000E-03 0. -1.
         11    1    4    4    0    0 -0.73040629010E-02  0.26142419758E-01 -0.55774325255E-01  0.62030733708E-01  0.51100000000E-03 0.  1.
</event>
<event>
 8    1  0.1052028E+005  0.1043930E+01  0.7957747E-01            NaN
         13   -1    0    0    0    0  0.00000000000E+00  0.00000000000E+00  0.74505805969E-08  0.10566000000E+00  0.10566000000E+00 0.  1.
     999900   -1    0    0    0    0 -0.00000000000E+00 -0.00000000000E+00 -0.74505805969E-08  0.93827000000E+00  0.93827000000E+00 0. -1.
     999902    2    1    2    0    0  0.19466509376E-01  0.53398098305E-02 -0.12668599814E-01  0.10200982569E+01  0.10198198379E+01 0.  0.
     999903    2    3    3    0    0 -0.60871313996E-03 -0.17964257890E-01  0.12580345095E+00  0.12873940497E+00  0.20597112147E-01 0.  0.
         14    1    1    2    0    0 -0.19466509376E-01 -0.53398098305E-02  0.12668599814E-01  0.23831743066E-01  0.00000000000E+00 0.  1.
     999901    1    3    3    0    0  0.20075222516E-01  0.23304067721E-01 -0.13847205076E+00  0.89135885196E+00  0.88000000000E+00 0. -1.
        -11    1    4    4    0    0 -0.30041811020E-02 -0.17563695431E-01  0.53466349573E-01  0.56359738812E-01  0.51100000000E-03 0. -1.
         11    1    4    4    0    0  0.23954679621E-02 -0.40056245914E-03  0.72337101374E-01  0.72379666159E-01  0.51100000000E-03 0.  1.
</event>
<event>
 8    1  0.1052028E+005  0.1043930E+01  0.7957747E-01            NaN
         13   -1    0    0    0    0  0.00000000000E+00  0.00000000000E+00  0.74505805969E-08  0.10566000000E+00  0.10566000000E+00 0.  1.
     999900   -1    0    0    0    0 -0.00000000000E+00 -0.00000000000E+00 -0.74505805969E-08  0.93827000000E+00  0.93827000000E+00 0. -1.
     999902    2    1    2    0    0  0.99667857933E-02 -0.19574101940E-01  0.65764651542E-02  0.10210011496E+01  0.10207436580E+01 0.  0.
     999903    2    3    3    0    0  0.71942418824E-02 -0.10618471176E+00 -0.77196405894E-01  0.13278553466E+00  0.18594703674E-01 0.  0.
         14    1    1    2    0    0 -0.99667857933E-02  0.19574101940E-01 -0.65764651542E-02  0.22928850380E-01  0.00000000000E+00 0. -1.
     999901    1    3    3    0    0  0.27725439109E-02  0.86610609819E-01  0.83772871048E-01  0.88821561496E+00  0.88000000000E+00 0.  1.
        -11    1    4    4    0    0  0.15539478237E-02 -0.37350791400E-01 -0.16606341812E-01  0.40908777560E-01  0.51100000000E-03 0.  1.
         11    1    4    4    0    0  0.56402940587E-02 -0.68833920359E-01 -0.60590064082E-01  0.91876757102E-01  0.51100000000E-03 0. -1.
</event>
<event>
 8    1  0.1058251E+005  0.1043930E+01  0.7957747E-01            NaN
         13   -1    0    0    0    0  0.00000000000E+00  0.00000000000E+00  0.74505805969E-08  0.10566000000E+00  0.10566000000E+00 0. -1.
     999900   -1    0    0    0    0 -0.00000000000E+00 -0.00000000000E+00 -0.74505805969E-08  0.93827000000E+00  0.93827000000E+00 0. -1.
     999902    2    1    2    0    0 -0.84349470425E-02 -0.16506874179E-01  0.14811250113E-01  0.10202024136E+01  0.10199264514E+01 0.  0.
     999903    2    3    3    0    0 -0.55422908435E-01  0.10159591239E+00 -0.52253277730E-01  0.12854452651E+00  0.19996551379E-01 0.  0.
         14    1    1    2    0    0  0.84349470425E-02  0.16506874179E-01 -0.14811250113E-01  0.23727586406E-01  0.00000000000E+00 0.  1.
     999901    1    3    3    0    0  0.46987961392E-01 -0.11810278657E+00  0.67064527843E-01  0.89165788709E+00  0.88000000000E+00 0.  1.
        -11    1    4    4    0    0 -0.20310074866E-01  0.57962165629E-01 -0.28375960817E-01  0.67657727266E-01  0.51100000000E-03 0.  1.
         11    1    4    4    0    0 -0.35112833568E-01  0.43633746762E-01 -0.23877316913E-01  0.60886799240E-01  0.51100000000E-03 0. -1.
</event>
<event>
 8    1  0.1052028E+005  0.1043930E+01  0.7957747E-01            NaN
         13   -1    0    0    0    0  0.00000000000E+00  0.00000000000E+00  0.74505805969E-08  0.10566000000E+00  0.10566000000E+00 0. -1.
     999900   -1    0    0    0    0 -0.00000000000E+00 -0.00000000000E+00 -0.74505805969E-08  0.93827000000E+00  0.93827000000E+00 0.  1.
     999902    2    1    2    0    0  0.80671908167E-03  0.13544124991E-01  0.19553567107E-01  0.10201300818E+01  0.10198524147E+01 0.  0.
     999903    2    3    3    0    0 -0.61000606096E-02 -0.12658633572E+00  0.84089805728E-03  0.12881957837E+00  0.23075214656E-01 0.  0.
         14    1    1    2    0    0 -0.80671908167E-03 -0.13544124991E-01 -0.19553567107E-01  0.23799918152E-01  0.00000000000E+00 0.  1.
     999901    1    3    3    0    0  0.69067796912E-02  0.14013046071E+00  0.18712669050E-01  0.89131050348E+00  0.88000000000E+00 0. -1.
        -11    1    4    4    0    0  0.85894534403E-02 -0.47566339969E-01 -0.21794560836E-02  0.48387462821E-01  0.51100000000E-03 0.  1.
         11    1    4    4    0    0 -0.14689514050E-01 -0.79019995752E-01  0.30203541409E-02  0.80432115550E-01  0.51100000000E-03 0. -1.
</event>
<event>
 8    1  0.1052028E+005  0.1043930E+01  0.7957747E-01            NaN
         13   -1    0    0    0    0  0.00000000000E+00  0.00000000000E+00  0.74505805969E-08  0.10566000000E+00  0.10566000000E+00 0. -1.
     999900   -1    0    0    0    0 -0.00000000000E+00 -0.00000000000E+00 -0.74505805969E-08  0.93827000000E+00  0.93827000000E+00 0.  1.
     999902    2    1    2    0    0 -0.13034378530E-01 -0.96561673524E-02 -0.16820906905E-01  0.10205616560E+01  0.10202940822E+01 0.  0.
     999903    2    3    3    0    0  0.11670095180E+00  0.14729891056E-01 -0.54680099926E-01  0.12991062768E+00  0.71257289745E-02 0.  0.
         14    1    1    2    0    0  0.13034378530E-01  0.96561673524E-02  0.16820906905E-01  0.23368343987E-01  0.00000000000E+00 0. -1.
     999901    1    3    3    0    0 -0.12973533033E+00 -0.24386058409E-01  0.37859193022E-01  0.89065102834E+00  0.88000000000E+00 0. -1.
        -11    1    4    4    0    0  0.52594280837E-01  0.38580766454E-02 -0.26877893539E-01  0.59192274955E-01  0.51100000000E-03 0.  1.
         11    1    4    4    0    0  0.64106670964E-01  0.10871814411E-01 -0.27802206387E-01  0.70718352722E-01  0.51100000000E-03 0. -1.
</event>
<event>
 8    1  0.1052028E+005  0.1043930E+01  0.7957747E-01            NaN
         13   -1    0    0    0    0  0.00000000000E+00  0.00000000000E+00  0.74505805969E-08  0.10566000000E+00  0.10566000000E+00 0.  1.
     999900   -1    0    0    0    0 -0.00000000000E+00 -0.00000000000E+00 -0.74505805969E-08  0.93827000000E+00  0.93827000000E+00 0.  1.
     999902    2    1    2    0    0 -0.14373227079E-02 -0.24240957769E-01  0.11336304862E-02  0.10196200216E+01  0.10193301788E+01 0.  0.
     999903    2    3    3    0    0  0.92706585706E-01 -0.94887868103E-02 -0.88313888013E-01  0.12996752734E+00  0.20190771112E-01 0.  0.
         14    1    1    2    0    0  0.14373227079E-02  0.24240957769E-01 -0.11336304862E-02  0.24309978367E-01  0.00000000000E+00 0. -1.
     999901    1    3    3    0    0 -0.94143908414E-01 -0.14752170959E-01  0.89447518499E-01  0.88965249429E+00  0.88000000000E+00 0. -1.
        -11    1    4    4    0    0  0.17344744718E-01  0.60415897836E-02 -0.18370412042E-01  0.25982188823E-01  0.51100000000E-03 0. -1.
         11    1    4    4    0    0  0.75361840987E-01 -0.15530376594E-01 -0.69943475970E-01  0.10398533851E+00  0.51100000000E-03 0.  1.
</event>
<event>
 8    1  0.1052028E+005  0.1043930E+01  0.7957747E-01            NaN
         13   -1    0    0    0    0  0.00000000000E+00  0.00000000000E+00  0.74505805969E-08  0.10566000000E+00  0.10566000000E+00 0. -1.
     999900   -1    0    0    0    0 -0.00000000000E+00 -0.00000000000E+00 -0.74505805969E-08  0.93827000000E+00  0.93827000000E+00 0. -1.
     999902    2    1    2    0    0 -0.55392960433E-02 -0.22621721114E-01 -0.55419960376E-02  0.10199896619E+01  0.10197086695E+01 0.  0.
     999903    2    3    3    0    0 -0.48189196685E-01 -0.85812427660E-01  0.85283919844E-01  0.13203615728E+00  0.21776786451E-01 0.  0.
         14    1    1    2    0    0  0.55392960433E-02  0.22621721114E-01  0.55419960376E-02  0.23940338070E-01  0.00000000000E+00 0. -1.
     999901    1    3    3    0    0  0.42649900641E-01  0.63190706546E-01 -0.90825915882E-01  0.88795350465E+00  0.88000000000E+00 0.  1.
        -11    1    4    4    0    0 -0.34567640022E-01 -0.44466280960E-01  0.39087795245E-01  0.68558651804E-01  0.51100000000E-03 0.  1.
         11    1    4    4    0    0 -0.13621556663E-01 -0.41346146700E-01  0.46196124599E-01  0.63477505479E-01  0.51100000000E-03 0. -1.
</event>
<event>
 8    1  0.1052028E+005  0.1043930E+01  0.7957747E-01            NaN
         13   -1    0    0    0    0  0.00000000000E+00  0.00000000000E+00  0.74505805969E-08  0.10566000000E+00  0.10566000000E+00 0. -1.
     999900   -1    0    0    0    0 -0.00000000000E+00 -0.00000000000E+00 -0.74505805969E-08  0.93827000000E+00  0.93827000000E+00 0.  1.
     999902    2    1    2    0    0  0.33161925092E-02  0.22989436847E-01  0.10039188921E-02  0.10206809314E+01  0.10204161134E+01 0.  0.
     999903    2    3    3    0    0 -0.37341917154E-01  0.95825360255E-01 -0.81771718537E-01  0.13286903700E+00  0.19764832318E-01 0.  0.
         14    1    1    2    0    0 -0.33161925092E-02 -0.22989436847E-01 -0.10039188921E-02  0.23249068636E-01  0.00000000000E+00 0. -1.
     999901    1    3    3    0    0  0.40658109663E-01 -0.72835923407E-01  0.82775637429E-01  0.88781189436E+00  0.88000000000E+00 0. -1.
        -11    1    4    4    0    0 -0.18728960283E-04  0.20555353821E-01 -0.18950820809E-01  0.27962790487E-01  0.51100000000E-03 0.  1.
         11    1    4    4    0    0 -0.37323188193E-01  0.75270006433E-01 -0.62820897728E-01  0.10490624651E+00  0.51100000000E-03 0. -1.
</event>
<event>
 8    1  0.1052028E+005  0.1043930E+01  0.7957747E-01            NaN
         13   -1    0    0    0    0  0.00000000000E+00  0.00000000000E+00  0.74505805969E-08  0.10566000000E+00  0.10566000000E+00 0. -1.
     999900   -1    0    0    0    0 -0.00000000000E+00 -0.00000000000E+00 -0.74505805969E-08  0.93827000000E+00  0.93827000000E+00 0.  1.
     999902    2    1    2    0    0 -0.27961473020E-02  0.22860559950E-01 -0.84401666435E-02  0.10194012403E+01  0.10191060929E+01 0.  0.
     999903    2    3    3    0    0 -0.34749638506E-01 -0.30983487970E-01 -0.11991350041E+00  0.13016195232E+00  0.19883972087E-01 0.  0.
         14    1    1    2    0    0  0.27961473020E-02 -0.22860559950E-01  0.84401666435E-02  0.24528759731E-01  0.00000000000E+00 0. -1.
     999901    1    3    3    0    0  0.31953491204E-01  0.53844047920E-01  0.11147333377E+00  0.88923928795E+00  0.88000000000E+00 0. -1.
        -11    1    4    4    0    0 -0.33833318257E-01 -0.19553016799E-01 -0.89817437613E-01  0.97951248642E-01  0.51100000000E-03 0. -1.
         11    1    4    4    0    0 -0.91632024839E-03 -0.11430471171E-01 -0.30096062802E-01  0.32210703674E-01  0.51100000000E-03 0.  1.
</event>
<event>
 8    1  0.1052028E+005  0.1043930E+01  0.7957747E-01            NaN
         13   -1    0    0    0    0  0.00000000000E+00  0.00000000000E+00  0.74505805969E-08  0.10566000000E+00  0.10566000000E+00 0. -1.
     999900   -1    0    0    0    0 -0.00000000000E+00 -0.00000000000E+00 -0.74505805969E-08  0.93827000000E+00  0.93827000000E+00 0.  1.
     999902    2    1    2    0    0  0.39224494769E-02 -0.16437548429E-01  0.14531375082E-01  0.10216423471E+01  0.10213992099E+01 0.  0.
     999903    2    3    3    0    0  0.30064314906E-01 -0.59994419961E-01 -0.11099486929E+00  0.13128430893E+00  0.20310472755E-01 0.  0.
         14    1    1    2    0    0 -0.39224494769E-02  0.16437548429E-01 -0.14531375082E-01  0.22287652861E-01  0.00000000000E+00 0.  1.
     999901    1    3    3    0    0 -0.26141865429E-01  0.43556871532E-01  0.12552624437E+00  0.89035803821E+00  0.88000000000E+00 0. -1.
        -11    1    4    4    0    0  0.62700307105E-02 -0.24233758222E-02 -0.19179070158E-01  0.20329384856E-01  0.51100000000E-03 0.  1.
         11    1    4    4    0    0  0.23794284195E-01 -0.57571044138E-01 -0.91815799134E-01  0.11095492407E+00  0.51100000000E-03 0. -1.
</event>
<event>
 8    1  0.1052028E+005  0.1043930E+01  0.7957747E-01            NaN
         13   -1    0    0    0    0  0.00000000000E+00  0.00000000000E+00  0.74505805969E-08  0.10566000000E+00  0.10566000000E+00 0.  1.
     999900   -1    0    0    0    0 -0.00000000000E+00 -0.00000000000E+00 -0.74505805969E-08  0.93827000000E+00  0.93827000000E+00 0.  1.
     999902    2    1    2    0    0  0.20506429780E-01 -0.31572101475E-02 -0.15808247116E-01  0.10178458609E+01  0.10175115794E+01 0.  0.
     999903    2    3    3    0    0 -0.12036837929E+00 -0.31630467871E-01 -0.14743215614E-02  0.12607128190E+00  0.20068912910E-01 0.  0.
         14    1    1    2    0    0 -0.20506429780E-01  0.31572101475E-02  0.15808247116E-01  0.26084139148E-01  0.00000000000E+00 0. -1.
     999901    1    3    3    0    0  0.14087480907E+00  0.28473257723E-01 -0.14333925554E-01  0.89177457895E+00  0.88000000000E+00 0. -1.
        -11    1    4    4    0    0 -0.26402985678E-01 -0.22782420949E-02 -0.71811026840E-02  0.27461562165E-01  0.51100000000E-03 0.  1.
         11    1    4    4    0    0 -0.93965393615E-01 -0.29352225776E-01  0.57067811226E-02  0.98609719739E-01  0.51100000000E-03 0. -1.
</event>
<event>
 8    1  0.1052028E+005  0.1043930E+01  0.7957747E-01            NaN
         13   -1    0    0    0    0  0.00000000000E+00  0.00000000000E+00  0.74505805969E-08  0.10566000000E+00  0.10566000000E+00 0.  1.
     999900   -1    0    0    0    0 -0.00000000000E+00 -0.00000000000E+00 -0.74505805969E-08  0.93827000000E+00  0.93827000000E+00 0.  1.
     999902    2    1    2    0    0 -0.72723206636E-02 -0.22134979714E-01 -0.77624918088E-02  0.10193719004E+01  0.10190760380E+01 0.  0.
     999903    2    3    3    0    0 -0.92476704313E-01  0.38992585820E-01 -0.80269459822E-01  0.13018484100E+00  0.20797693566E-01 0.  0.
         14    1    1    2    0    0  0.72723206636E-02  0.22134979714E-01  0.77624918088E-02  0.24558099557E-01  0.00000000000E+00 0.  1.
     999901    1    3    3    0    0  0.85204383650E-01 -0.61127565534E-01  0.72506968014E-01  0.88918705944E+00  0.88000000000E+00 0. -1.
        -11    1    4    4    0    0 -0.28465251374E-01  0.33310350519E-02 -0.16681561410E-01  0.33164769597E-01  0.51100000000E-03 0.  1.
         11    1    4    4    0    0 -0.64011452939E-01  0.35661550768E-01 -0.63587898412E-01  0.97020071408E-01  0.51100000000E-03 0. -1.
</event>
<event>
 8    1  0.1052028E+005  0.1043930E+01  0.7957747E-01            NaN
         13   -1    0    0    0    0  0.00000000000E+00  0.00000000000E+00  0.74505805969E-08  0.10566000000E+00  0.10566000000E+00 0.  1.
     999900   -1    0    0    0    0 -0.00000000000E+00 -0.00000000000E+00 -0.74505805969E-08  0.93827000000E+00  0.93827000000E+00 0. -1.
     999902    2    1    2    0    0 -0.10851895795E-01  0.13100911187E-01  0.17580614254E-01  0.10194662408E+01  0.10191726746E+01 0.  0.
     999903    2    3    3    0    0  0.41741395483E-01 -0.10591482776E+00  0.57034703832E-01  0.12902397677E+00  0.20831089850E-01 0.  0.
         14    1    1    2    0    0  0.10851895795E-01 -0.13100911187E-01 -0.17580614254E-01  0.24463759192E-01  0.00000000000E+00 0. -1.
     999901    1    3    3    0    0 -0.52593291278E-01  0.11901573894E+00 -0.39454089579E-01  0.89044226404E+00  0.88000000000E+00 0.  1.
        -11    1    4    4    0    0  0.41682745549E-01 -0.85060158672E-01  0.44194166316E-01  0.10452783040E+00  0.51100000000E-03 0.  1.
         11    1    4    4    0    0  0.58649934837E-04 -0.20854669084E-01  0.12840537516E-01  0.24496146372E-01  0.51100000000E-03 0. -1.
</event>
<event>
 8    1  0.1052028E+005  0.1043930E+01  0.7957747E-01            NaN
         13   -1    0    0    0    0  0.00000000000E+00  0.00000000000E+00  0.74505805969E-08  0.10566000000E+00  0.10566000000E+00 0.  1.
     999900   -1    0    0    0    0 -0.00000000000E+00 -0.00000000000E+00 -0.74505805969E-08  0.93827000000E+00  0.93827000000E+00 0. -1.
     999902    2    1    2    0    0 -0.22057889331E-01  0.58405788895E-02  0.75770990921E-02  0.10198868040E+01  0.10196033629E+01 0.  0.
     999903    2    3    3    0    0 -0.12322972222E+00  0.45187687440E-01 -0.87155575663E-02  0.13306698837E+00  0.20084096078E-01 0.  0.
         14    1    1    2    0    0  0.22057889331E-01 -0.58405788895E-02 -0.75770990921E-02  0.24043196005E-01  0.00000000000E+00 0.  1.
     999901    1    3    3    0    0  0.10117183289E+00 -0.39347108551E-01  0.16292656658E-01  0.88681981562E+00  0.88000000000E+00 0. -1.
        -11    1    4    4    0    0 -0.10126408865E+00  0.29598898572E-01 -0.31000637462E-02  0.10554800785E+00  0.51100000000E-03 0.  1.
         11    1    4    4    0    0 -0.21965633577E-01  0.15588788868E-01 -0.56154938201E-02  0.27518980516E-01  0.51100000000E-03 0. -1.
</event>
<event>
 8    1  0.1052028E+005  0.1043930E+01  0.7957747E-01            NaN
         13   -1    0    0    0    0  0.00000000000E+00  0.00000000000E+00  0.74505805969E-08  0.10566000000E+00  0.10566000000E+00 0.  1.
     999900   -1    0    0    0    0 -0.00000000000E+00 -0.00000000000E+00 -0.74505805969E-08  0.93827000000E+00  0.93827000000E+00 0. -1.
     999902    2    1    2    0    0 -0.64843904248E-02  0.99089310849E-02  0.20040153452E-01  0.10206525005E+01  0.10203870269E+01 0.  0.
     999903    2    3    3    0    0  0.35568669647E-01  0.12383611126E+00  0.22052177080E-01  0.13231027447E+00  0.20474313230E-01 0.  0.
         14    1    1    2    0    0  0.64843904248E-02 -0.99089310849E-02 -0.20040153452E-01  0.23277499540E-01  0.00000000000E+00 0. -1.
     999901    1    3    3    0    0 -0.42053060072E-01 -0.11392718018E+00 -0.20120236282E-02  0.88834222599E+00  0.88000000000E+00 0. -1.
        -11    1    4    4    0    0  0.18403907827E-01  0.31578924684E-01  0.80460619571E-02  0.37429033403E-01  0.51100000000E-03 0.  1.
         11    1    4    4    0    0  0.17164761820E-01  0.92257186579E-01  0.14006115123E-01  0.94881241063E-01  0.51100000000E-03 0. -1.
</event>
<event>
 8    1  0.1052028E+005  0.1043930E+01  0.7957747E-01            NaN
         13   -1    0    0    0    0  0.00000000000E+00  0.00000000000E+00  0.74505805969E-08  0.10566000000E+00  0.10566000000E+00 0.  1.
     999900   -1    0    0    0    0 -0.00000000000E+00 -0.00000000000E+00 -0.74505805969E-08  0.93827000000E+00  0.93827000000E+00 0.  1.
     999902    2    1    2    0    0 -0.54167891549E-02 -0.64225861594E-02  0.19804976030E-01  0.10224165555E+01  0.10221901901E+01 0.  0.
     999903    2    3    3    0    0  0.70374578156E-01  0.10927316723E+00  0.28950897835E-02  0.13145315394E+00  0.19451061861E-01 0.  0.
         14    1    1    2    0    0  0.54167891549E-02  0.64225861594E-02 -0.19804976030E-01  0.21513444478E-01  0.00000000000E+00 0. -1.
     999901    1    3    3    0    0 -0.75791367311E-01 -0.11569575339E+00  0.16909886247E-01  0.89096340159E+00  0.88000000000E+00 0. -1.
        -11    1    4    4    0    0  0.55843058484E-01  0.71721821720E-01  0.57695629488E-02  0.91082467409E-01  0.51100000000E-03 0.  1.
         11    1    4    4    0    0  0.14531519672E-01  0.37551345512E-01 -0.28744731654E-02  0.40370686528E-01  0.51100000000E-03 0. -1.
</event>
<event>
 8    1  0.1052028E+005  0.1043930E+01  0.7957747E-01            NaN
         13   -1    0    0    0    0  0.00000000000E+00  0.00000000000E+00  0.74505805969E-08  0.10566000000E+00  0.10566000000E+00 0.  1.
     999900   -1    0    0    0    0 -0.00000000000E+00 -0.00000000000E+00 -0.74505805969E-08  0.93827000000E+00  0.93827000000E+00 0. -1.
     999902    2    1    2    0    0  0.22397886785E-01 -0.13780207042E-01  0.24407451409E-02  0.10175194590E+01  0.10171766478E+01 0.  0.
     999903    2    3    3    0    0 -0.10237226043E+00  0.50969917145E-01 -0.46147810652E-01  0.12503919818E+00  0.20668054935E-01 0.  0.
         14    1    1    2    0    0 -0.22397886785E-01  0.13780207042E-01 -0.24407451409E-02  0.26410540990E-01  0.00000000000E+00 0.  1.
     999901    1    3    3    0    0  0.12477014721E+00 -0.64750124187E-01  0.48588555793E-01  0.89248026083E+00  0.88000000000E+00 0.  1.
        -11    1    4    4    0    0 -0.31128868433E-01  0.13719740702E-01 -0.39742613689E-02  0.34253373691E-01  0.51100000000E-03 0. -1.
         11    1    4    4    0    0 -0.71243391994E-01  0.37250176444E-01 -0.42173549283E-01  0.90785824488E-01  0.51100000000E-03 0.  1.
</event>
<event>
 8    1  0.1052028E+005  0.1043930E+01  0.7957747E-01            NaN
         13   -1    0    0    0    0  0.00000000000E+00  0.00000000000E+00  0.74505805969E-08  0.10566000000E+00  0.10566000000E+00 0. -1.
     999900   -1    0    0    0    0 -0.00000000000E+00 -0.00000000000E+00 -0.74505805969E-08  0.93827000000E+00  0.93827000000E+00 0.  1.
     999902    2    1    2    0    0  0.15172478144E-01  0.18142487760E-01  0.17592439296E-02  0.10202139950E+01  0.10199383053E+01 0.  0.
     999903    2    3    3    0    0  0.99817765551E-01 -0.75934623047E-01 -0.29266990093E-01  0.13061973091E+00  0.21801470072E-01 0.  0.
         14    1    1    2    0    0 -0.15172478144E-01 -0.18142487760E-01 -0.17592439296E-02  0.23716005025E-01  0.00000000000E+00 0. -1.
     999901    1    3    3    0    0 -0.84645287407E-01  0.94077110806E-01  0.31026234023E-01  0.88959426406E+00  0.88000000000E+00 0. -1.
        -11    1    4    4    0    0  0.29052784013E-01 -0.32641762260E-01 -0.16356473677E-01  0.46662021543E-01  0.51100000000E-03 0.  1.
         11    1    4    4    0    0  0.70764981538E-01 -0.43292860787E-01 -0.12910516416E-01  0.83957709368E-01  0.51100000000E-03 0. -1.
</event>
<event>
 8    1  0.1052028E+005  0.1043930E+01  0.7957747E-01            NaN
         13   -1    0    0    0    0  0.00000000000E+00  0.00000000000E+00  0.74505805969E-08  0.10566000000E+00  0.10566000000E+00 0.  1.
     999900   -1    0    0    0    0 -0.00000000000E+00 -0.00000000000E+00 -0.74505805969E-08  0.93827000000E+00  0.93827000000E+00 0. -1.
     999902    2    1    2    0    0 -0.21085350492E-02  0.70648296154E-02  0.22677024674E-01  0.10200845563E+01  0.10198058133E+01 0.  0.
     999903    2    3    3    0    0 -0.74138681236E-01 -0.10378238416E+00  0.17118794352E-01  0.13019336031E+00  0.19746661295E-01 0.  0.
         14    1    1    2    0    0  0.21085350492E-02 -0.70648296154E-02 -0.22677024674E-01  0.23845443708E-01  0.00000000000E+00 0. -1.
     999901    1    3    3    0    0  0.72030146187E-01  0.11084721377E+00  0.55582303218E-02  0.88989119598E+00  0.88000000000E+00 0.  1.
        -11    1    4    4    0    0 -0.12815334202E-01 -0.32777843091E-01  0.61842688236E-02  0.35736900960E-01  0.51100000000E-03 0.  1.
         11    1    4    4    0    0 -0.61323347034E-01 -0.71004541066E-01  0.10934525529E-01  0.94456459351E-01  0.51100000000E-03 0. -1.
</event>
<event>
 8    1  0.1052028E+005  0.1043930E+01  0.7957747E-01            NaN
         13   -1    0    0    0    0  0.00000000000E+00  0.00000000000E+00  0.74505805969E-08  0.10566000000E+00  0.10566000000E+00 0. -1.
     999900   -1    0    0    0    0 -0.00000000000E+00 -0.00000000000E+00 -0.74505805969E-08  0.93827000000E+00  0.93827000000E+00 0. -1.
     999902    2    1    2    0    0  0.13305352128E-01  0.26900945483E-01 -0.16497588562E-01  0.10096829024E+01  0.10091019274E+01 0.  0.
     999903    2    3    3    0    0 -0.31099902276E-01 -0.79714998988E-01  0.77463516805E-01  0.11717661363E+00  0.20200924762E-01 0.  0.
         14    1    1    2    0    0 -0.13305352128E-01 -0.26900945483E-01  0.16497588562E-01  0.34247097563E-01  0.00000000000E+00 0. -1.
     999901    1    3    3    0    0  0.44405254404E-01  0.10661594447E+00 -0.93961105367E-01  0.89250628880E+00  0.88000000000E+00 0. -1.
        -11    1    4    4    0    0  0.16415500499E-03 -0.22630352859E-01  0.23487611553E-01  0.32620374536E-01  0.51100000000E-03 0. -1.
         11    1    4    4    0    0 -0.31264057281E-01 -0.57084646129E-01  0.53975905252E-01  0.84556239097E-01  0.51100000000E-03 0.  1.
</event>
<event>
 8    1  0.1052028E+005  0.1043930E+01  0.7957747E-01            NaN
         13   -1    0    0    0    0  0.00000000000E+00  0.00000000000E+00  0.74505805969E-08  0.10566000000E+00  0.10566000000E+00 0. -1.
     999900   -1    0    0    0    0 -0.00000000000E+00 -0.00000000000E+00 -0.74505805969E-08  0.93827000000E+00  0.93827000000E+00 0.  1.
     999902    2    1    2    0    0 -0.22001171014E-01 -0.32835775119E-02 -0.84567625432E-02  0.10201318858E+01  0.10198542612E+01 0.  0.
     999903    2    3    3    0    0  0.74613776965E-01  0.21762386287E-01  0.99760635291E-01  0.12790279320E+00  0.19134340433E-01 0.  0.
         14    1    1    2    0    0  0.22001171014E-01  0.32835775119E-02  0.84567625432E-02  0.23798114210E-01  0.00000000000E+00 0. -1.
     999901    1    3    3    0    0 -0.96614947979E-01 -0.25045963799E-01 -0.10821739783E+00  0.89222909259E+00  0.88000000000E+00 0.  1.
        -11    1    4    4    0    0  0.71011434664E-01  0.24766406659E-01  0.92105553171E-01  0.11891044024E+00  0.51100000000E-03 0. -1.
         11    1    4    4    0    0  0.36023423018E-02 -0.30040203720E-02  0.76550821199E-02  0.89923529578E-02  0.51100000000E-03 0.  1.
</event>
<event>
 8    1  0.1052028E+005  0.1043930E+01  0.7957747E-01            NaN
         13   -1    0    0    0    0  0.00000000000E+00  0.00000000000E+00  0.74505805969E-08  0.10566000000E+00  0.10566000000E+00 0. -1.
     999900   -1    0    0    0    0 -0.00000000000E+00 -0.00000000000E+00 -0.74505805969E-08  0.93827000000E+00  0.93827000000E+00 0. -1.
     999902    2    1    2    0    0  0.21610131273E-01 -0.27240000474E-02 -0.71167351194E-02  0.10210156842E+01  0.10207585226E+01 0.  0.
     999903    2    3    3    0    0  0.54308582825E-01  0.93328407650E-01 -0.74376481841E-01  0.13263562629E+00  0.20018353268E-01 0.  0.
         14    1    1    2    0    0 -0.21610131273E-01  0.27240000474E-02  0.71167351194E-02  0.22914315802E-01  0.00000000000E+00 0.  1.
     999901    1    3    3    0    0 -0.32698451552E-01 -0.96052407697E-01  0.67259746722E-01  0.88838005791E+00  0.88000000000E+00 0.  1.
        -11    1    4    4    0    0  0.12631454239E-01  0.24662916382E-01 -0.30099294666E-01  0.40915055188E-01  0.51100000000E-03 0.  1.
         11    1    4    4    0    0  0.41677128587E-01  0.68665491268E-01 -0.44277187175E-01  0.91720571103E-01  0.51100000000E-03 0. -1.
</event>
<event>
 8    1  0.1052028E+005  0.1043930E+01  0.7957747E-01            NaN
         13   -1    0    0    0    0  0.00000000000E+00  0.00000000000E+00  0.74505805969E-08  0.10566000000E+00  0.10566000000E+00 0.  1.
     999900   -1    0    0    0    0 -0.00000000000E+00 -0.00000000000E+00 -0.74505805969E-08  0.93827000000E+00  0.93827000000E+00 0. -1.
     999902    2    1    2    0    0  0.10405347988E-01  0.10599503911E-01 -0.18505092091E-01  0.10202011319E+01  0.10199251395E+01 0.  0.
     999903    2    3    3    0    0 -0.90938075452E-01  0.68006286186E-01 -0.62548536245E-01  0.13143465348E+00  0.21637010433E-01 0.  0.
         14    1    1    2    0    0 -0.10405347988E-01 -0.10599503911E-01  0.18505092091E-01  0.23728868140E-01  0.00000000000E+00 0. -1.
     999901    1    3    3    0    0  0.10134342344E+00 -0.57406782275E-01  0.44043444153E-01  0.88876647838E+00  0.88000000000E+00 0. -1.
        -11    1    4    4    0    0 -0.22081904892E-01  0.24448129991E-01 -0.98105243879E-02  0.34377741251E-01  0.51100000000E-03 0. -1.
         11    1    4    4    0    0 -0.68856170559E-01  0.43558156195E-01 -0.52738011857E-01  0.97056912226E-01  0.51100000000E-03 0.  1.
</event>
<event>
 8    1  0.1052028E+005  0.1043930E+01  0.7957747E-01            NaN
         13   -1    0    0    0    0  0.00000000000E+00  0.00000000000E+00  0.74505805969E-08  0.10566000000E+00  0.10566000000E+00 0.  1.
     999900   -1    0    0    0    0 -0.00000000000E+00 -0.00000000000E+00 -0.74505805969E-08  0.93827000000E+00  0.93827000000E+00 0.  1.
     999902    2    1    2    0    0  0.51400995772E-02  0.17645058768E-01  0.15330341088E-01  0.10199970085E+01  0.10197161906E+01 0.  0.
     999903    2    3    3    0    0 -0.91827557178E-01  0.53287847077E-01 -0.71693935071E-01  0.12969011793E+00  0.20189389780E-01 0.  0.
         14    1    1    2    0    0 -0.51400995772E-02 -0.17645058768E-01 -0.15330341088E-01  0.23932991465E-01  0.00000000000E+00 0. -1.
     999901    1    3    3    0    0  0.96967656755E-01 -0.35642788309E-01  0.87024276160E-01  0.89030689060E+00  0.88000000000E+00 0. -1.
        -11    1    4    4    0    0 -0.25590343151E-01  0.14651770687E-01 -0.31347084616E-01  0.43039991656E-01  0.51100000000E-03 0. -1.
         11    1    4    4    0    0 -0.66237214027E-01  0.38636076390E-01 -0.40346850455E-01  0.86650126275E-01  0.51100000000E-03 0.  1.
</event>
<event>
 8    1  0.1052028E+005  0.1043930E+01  0.7957747E-01            NaN
         13   -1    0    0    0    0  0.00000000000E+00  0.00000000000E+00  0.74505805969E-08  0.10566000000E+00  0.10566000000E+00 0. -1.
     999900   -1    0    0    0    0 -0.00000000000E+00 -0.00000000000E+00 -0.74505805969E-08  0.93827000000E+00  0.93827000000E+00 0. -1.
     999902    2    1    2    0    0 -0.20971496212E-01 -0.93461803538E-02 -0.18970273097E-03  0.10209693657E+01  0.10207111516E+01 0.  0.
     999903    2    3    3    0    0 -0.87471612538E-02  0.12754704275E+00 -0.14288171538E-01  0.13018995657E+00  0.20012795938E-01 0.  0.
         14    1    1    2    0    0  0.20971496212E-01  0.93461803538E-02  0.18970273097E-03  0.22960634306E-01  0.00000000000E+00 0. -1.
     999901    1    3    3    0    0 -0.12224334959E-01 -0.13689322310E+00  0.14098468807E-01  0.89077940912E+00  0.88000000000E+00 0.  1.
        -11    1    4    4    0    0 -0.14482308379E-01  0.80969490879E-01 -0.12702650833E-01  0.83231088953E-01  0.51100000000E-03 0. -1.
         11    1    4    4    0    0  0.57351471247E-02  0.46577551872E-01 -0.15855207047E-02  0.46958867617E-01  0.51100000000E-03 0.  1.
</event>
<event>
 8    1  0.1052028E+005  0.1043930E+01  0.7957747E-01            NaN
         13   -1    0    0    0    0  0.00000000000E+00  0.00000000000E+00  0.74505805969E-08  0.10566000000E+00  0.10566000000E+00 0. -1.
     999900   -1    0    0    0    0 -0.00000000000E+00 -0.00000000000E+00 -0.74505805969E-08  0.93827000000E+00  0.93827000000E+00 0. -1.
     999902    2    1    2    0    0  0.16306964324E-01  0.70161503934E-02 -0.15363692157E-01  0.10204526388E+01  0.10201825335E+01 0.  0.
     999903    2    3    3    0    0  0.30059162805E-02  0.11646840888E+00  0.55937843942E-01  0.13071075274E+00  0.19553329588E-01 0.  0.
         14    1    1    2    0    0 -0.16306964324E-01 -0.70161503934E-02  0.15363692157E-01  0.23477361192E-01  0.00000000000E+00 0. -1.
     999901    1    3    3    0    0  0.13301048044E-01 -0.10945225849E+00 -0.71301536099E-01  0.88974188606E+00  0.88000000000E+00 0.  1.
        -11    1    4    4    0    0 -0.51909845839E-02  0.73984133636E-01  0.42087678573E-01  0.85277383634E-01  0.51100000000E-03 0.  1.
         11    1    4    4    0    0  0.81969008643E-02  0.42484275246E-01  0.13850165368E-01  0.45433369110E-01  0.51100000000E-03 0. -1.
</event>
<event>
 8    1  0.1052028E+005  0.1043930E+01  0.7957747E-01            NaN
         13   -1    0    0    0    0  0.00000000000E+00  0.00000000000E+00  0.74505805969E-08  0.10566000000E+00  0.10566000000E+00 0.  1.
     999900   -1    0    0    0    0 -0.00000000000E+00 -0.00000000000E+00 -0.74505805969E-08  0.93827000000E+00  0.93827000000E+00 0.  1.
     999902    2    1    2    0    0  0.94118821397E-02 -0.21176851561E-01 -0.31809944822E-02  0.10205385209E+01  0.10202704109E+01 0.  0.
     999903    2    3    3    0    0 -0.64747126095E-01  0.65686701481E-01  0.87251570394E-01  0.12856156823E+00  0.20206612783E-01 0.  0.
         14    1    1    2    0    0 -0.94118821397E-02  0.21176851561E-01  0.31809944822E-02  0.23391479076E-01  0.00000000000E+00 0. -1.
     999901    1    3    3    0    0  0.74159008235E-01 -0.86863553042E-01 -0.90432564877E-01  0.89197695270E+00  0.88000000000E+00 0. -1.
        -11    1    4    4    0    0 -0.37301854857E-01  0.49816642794E-01  0.63763825895E-01  0.89102260851E-01  0.51100000000E-03 0. -1.
         11    1    4    4    0    0 -0.27445271238E-01  0.15870058687E-01  0.23487744499E-01  0.39459307378E-01  0.51100000000E-03 0.  1.
</event>
<event>
 8    1  0.1052028E+005  0.1043930E+01  0.7957747E-01            NaN
         13   -1    0    0    0    0  0.00000000000E+00  0.00000000000E+00  0.74505805969E-08  0.10566000000E+00  0.10566000000E+00 0.  1.
     999900   -1    0    0    0    0 -0.00000000000E+00 -0.00000000000E+00 -0.74505805969E-08  0.93827000000E+00  0.93827000000E+00 0.  1.
     999902    2    1    2    0    0 -0.10355835341E-01 -0.12407232189E-01 -0.16060710378E-01  0.10211455941E+01  0.10208913728E+01 0.  0.
     999903    2    3    3    0    0 -0.12634338883E+00  0.31995015388E-01  0.81371975506E-02  0.13209542062E+00  0.19916155602E-01 0.  0.
         14    1    1    2    0    0  0.10355835341E-01  0.12407232189E-01  0.16060710378E-01  0.22784405941E-01  0.00000000000E+00 0.  1.
     999901    1    3    3    0    0  0.11598755348E+00 -0.44402247577E-01 -0.24197907929E-01  0.88905017344E+00  0.88000000000E+00 0.  1.
        -11    1    4    4    0    0 -0.10824739734E+00  0.21122062749E-01  0.28534897427E-02  0.11032698714E+00  0.51100000000E-03 0. -1.
         11    1    4    4    0    0 -0.18095991482E-01  0.10872952640E-01  0.52837078079E-02  0.21768433476E-01  0.51100000000E-03 0.  1.
</event>
<event>
 8    1  0.1052028E+005  0.1043930E+01  0.7957747E-01            NaN
         13   -1    0    0    0    0  0.00000000000E+00  0.00000000000E+00  0.74505805969E-08  0.10566000000E+00  0.10566000000E+00 0. -1.
     999900   -1    0    0    0    0 -0.00000000000E+00 -0.00000000000E+00 -0.74505805969E-08  0.93827000000E+00  0.93827000000E+00 0. -1.
     999902    2    1    2    0    0  0.84574935812E-02 -0.19027547457E-01  0.12356845542E-01  0.10197170202E+01  0.10194295134E+01 0.  0.
     999903    2    3    3    0    0 -0.48338367169E-01 -0.10796164429E+00 -0.52590932224E-01  0.13103639295E+00  0.20308021764E-01 0.  0.
         14    1    1    2    0    0 -0.84574935812E-02  0.19027547457E-01 -0.12356845542E-01  0.24212979818E-01  0.00000000000E+00 0. -1.
     999901    1    3    3    0    0  0.56795860750E-01  0.88934096830E-01  0.64947777766E-01  0.88868062723E+00  0.88000000000E+00 0.  1.
        -11    1    4    4    0    0 -0.17105995176E-01 -0.52155034393E-01 -0.15210742890E-01  0.56959551471E-01  0.51100000000E-03 0.  1.
         11    1    4    4    0    0 -0.31232371993E-01 -0.55806609894E-01 -0.37380189334E-01  0.74076841481E-01  0.51100000000E-03 0. -1.
</event>
<event>
 8    1  0.1052028E+005  0.1043930E+01  0.7957747E-01            NaN
         13   -1    0    0    0    0  0.00000000000E+00  0.00000000000E+00  0.74505805969E-08  0.10566000000E+00  0.10566000000E+00 0. -1.
     999900   -1    0    0    0    0 -0.00000000000E+00 -0.00000000000E+00 -0.74505805969E-08  0.93827000000E+00  0.93827000000E+00 0.  1.
     999902    2    1    2    0    0 -0.23558758742E-01 -0.70961755813E-02  0.18017072564E-02  0.10192598364E+01  0.10189612344E+01 0.  0.
     999903    2    3    3    0    0  0.10443363183E-01  0.45774768402E-01 -0.11835114062E+00  0.12887329798E+00  0.19923382956E-01 0.  0.
         14    1    1    2    0    0  0.23558758742E-01  0.70961755813E-02 -0.18017072564E-02  0.24670163566E-01  0.00000000000E+00 0. -1.
     999901    1    3    3    0    0 -0.34002121925E-01 -0.52870943984E-01  0.12015284788E+00  0.89038653846E+00  0.88000000000E+00 0. -1.
        -11    1    4    4    0    0  0.12165334068E-01  0.33719911456E-01 -0.65857415619E-01  0.74983252094E-01  0.51100000000E-03 0. -1.
         11    1    4    4    0    0 -0.17219708855E-02  0.12054856947E-01 -0.52493725001E-01  0.53890045883E-01  0.51100000000E-03 0.  1.
</event>
<event>
 8    1  0.1052028E+005  0.1043930E+01  0.7957747E-01            NaN
         13   -1    0    0    0    0  0.00000000000E+00  0.00000000000E+00  0.74505805969E-08  0.10566000000E+00  0.10566000000E+00 0. -1.
     999900   -1    0    0    0    0 -0.00000000000E+00 -0.00000000000E+00 -0.74505805969E-08  0.93827000000E+00  0.93827000000E+00 0. -1.
     999902    2    1    2    0    0 -0.72143928356E-02 -0.95358594467E-02 -0.20765821961E-01  0.10199675410E+01  0.10196860229E+01 0.  0.
     999903    2    3    3    0    0  0.64908263431E-01 -0.10740919349E+00  0.28596166038E-01  0.13023866493E+00  0.19863323556E-01 0.  0.
         14    1    1    2    0    0  0.72143928356E-02  0.95358594467E-02  0.20765821961E-01  0.23962458995E-01  0.00000000000E+00 0. -1.
     999901    1    3    3    0    0 -0.72122656267E-01  0.97873334043E-01 -0.49361987999E-01  0.88972887608E+00  0.88000000000E+00 0. -1.
        -11    1    4    4    0    0  0.30542759448E-01 -0.42870191992E-01  0.21188536279E-01  0.56744415644E-01  0.51100000000E-03 0. -1.
         11    1    4    4    0    0  0.34365503983E-01 -0.64539001498E-01  0.74076297586E-02  0.73494249285E-01  0.51100000000E-03 0.  1.
</event>
<event>
 8    1  0.1052028E+005  0.1043930E+01  0.7957747E-01            NaN
         13   -1    0    0    0    0  0.00000000000E+00  0.00000000000E+00  0.74505805969E-08  0.10566000000E+00  0.10566000000E+00 0. -1.
     999900   -1    0    0    0    0 -0.00000000000E+00 -0.00000000000E+00 -0.74505805969E-08  0.93827000000E+00  0.93827000000E+00 0.  1.
     999902    2    1    2    0    0 -0.10173308307E-01 -0.20414935704E-01 -0.57475702537E-02  0.10204076624E+01  0.10201365091E+01 0.  0.
     999903    2    3    3    0    0  0.41822221183E-01 -0.11088845967E+00  0.55030236718E-01  0.13216054846E+00  0.19817541316E-01 0.  0.
         14    1    1    2    0    0  0.10173308307E-01  0.20414935704E-01  0.57475702537E-02  0.23522337587E-01  0.00000000000E+00 0.  1.
     999901    1    3    3    0    0 -0.51995529491E-01  0.90473523964E-01 -0.60777806972E-01  0.88824711395E+00  0.88000000000E+00 0.  1.
        -11    1    4    4    0    0  0.37188508599E-01 -0.79638422673E-01  0.34189345185E-01  0.94310317478E-01  0.51100000000E-03 0.  1.
         11    1    4    4    0    0  0.46337125844E-02 -0.31250036996E-01  0.20840891533E-01  0.37850230982E-01  0.51100000000E-03 0. -1.
</event>
<event>
 8    1  0.1052028E+005  0.1043930E+01  0.7957747E-01            NaN
         13   -1    0    0    0    0  0.00000000000E+00  0.00000000000E+00  0.74505805969E-08  0.10566000000E+00  0.10566000000E+00 0. -1.
     999900   -1    0    0    0    0 -0.00000000000E+00 -0.00000000000E+00 -0.74505805969E-08  0.93827000000E+00  0.93827000000E+00 0.  1.
     999902    2    1    2    0    0 -0.94411463549E-02 -0.90220972560E-02 -0.19989927740E-01  0.10200525903E+01  0.10197730906E+01 0.  0.
     999903    2    3    3    0    0  0.41406149357E-01 -0.25629430366E-01 -0.12178218795E+00  0.13257137064E+00  0.19311398354E-01 0.  0.
         14    1    1    2    0    0  0.94411463549E-02  0.90220972560E-02  0.19989927740E-01  0.23877409710E-01  0.00000000000E+00 0. -1.
     999901    1    3    3    0    0 -0.50847295712E-01  0.16607333110E-01  0.10179226021E+00  0.88748121965E+00  0.88000000000E+00 0. -1.
        -11    1    4    4    0    0  0.39907560541E-01 -0.24214349232E-01 -0.96479906408E-01  0.10718013603E+00  0.51100000000E-03 0.  1.
         11    1    4    4    0    0  0.14985888158E-02 -0.14150811334E-02 -0.25302281541E-01  0.25391234614E-01  0.51100000000E-03 0. -1.
</event>
<event>
 8    1  0.1052028E+005  0.1043930E+01  0.7957747E-01            NaN
         13   -1    0    0    0    0  0.00000000000E+00  0.00000000000E+00  0.74505805969E-08  0.10566000000E+00  0.10566000000E+00 0.  1.
     999900   -1    0    0    0    0 -0.00000000000E+00 -0.00000000000E+00 -0.74505805969E-08  0.93827000000E+00  0.93827000000E+00 0.  1.
     999902    2    1    2    0    0 -0.22656219133E-01  0.44801485114E-02  0.57661422648E-02  0.10201261265E+01  0.10198483660E+01 0.  0.
     999903    2    3    3    0    0 -0.11449064325E-01  0.21447247021E-01  0.12761588107E+00  0.13149749678E+00  0.20364505343E-01 0.  0.
         14    1    1    2    0    0  0.22656219133E-01 -0.44801485114E-02 -0.57661422648E-02  0.23803873482E-01  0.00000000000E+00 0.  1.
     999901    1    3    3    0    0 -0.11207154808E-01 -0.16967098510E-01 -0.12184973881E+00  0.88862862974E+00  0.88000000000E+00 0.  1.
        -11    1    4    4    0    0  0.11658224836E-02  0.33448714722E-02  0.65134683304E-01  0.65232931847E-01  0.51100000000E-03 0. -1.
         11    1    4    4    0    0 -0.12614886809E-01  0.18102375549E-01  0.62481197768E-01  0.66264564929E-01  0.51100000000E-03 0.  1.
</event>
<event>
 8    1  0.1052028E+005  0.1043930E+01  0.7957747E-01            NaN
         13   -1    0    0    0    0  0.00000000000E+00  0.00000000000E+00  0.74505805969E-08  0.10566000000E+00  0.10566000000E+00 0.  1.
     999900   -1    0    0    0    0 -0.00000000000E+00 -0.00000000000E+00 -0.74505805969E-08  0.93827000000E+00  0.93827000000E+00 0.  1.
     999902    2    1    2    0    0  0.21514393766E-01 -0.99107907008E-02  0.47218929726E-02  0.10197765492E+01  0.10194904713E+01 0.  0.
     999903    2    3    3    0    0 -0.29479588756E-01 -0.12280102004E+00 -0.27901735707E-01  0.13050218701E+00  0.17411986768E-01 0.  0.
         14    1    1    2    0    0 -0.21514393766E-01  0.99107907008E-02 -0.47218929726E-02  0.24153450782E-01  0.00000000000E+00 0.  1.
     999901    1    3    3    0    0  0.50993982522E-01  0.11289022934E+00  0.32623628679E-01  0.88927436221E+00  0.88000000000E+00 0.  1.
        -11    1    4    4    0    0 -0.20748727047E-01 -0.77790555755E-01 -0.94031245342E-02  0.81058991548E-01  0.51100000000E-03 0.  1.
         11    1    4    4    0    0 -0.87308617091E-02 -0.45010464282E-01 -0.18498611172E-01  0.49443195461E-01  0.51100000000E-03 0. -1.
</event>
<event>
 8    1  0.1052028E+005  0.1043930E+01  0.7957747E-01            NaN
         13   -1    0    0    0    0  0.00000000000E+00  0.00000000000E+00  0.74505805969E-08  0.10566000000E+00  0.10566000000E+00 0.  1.
     999900   -1    0    0    0    0 -0.00000000000E+00 -0.00000000000E+00 -0.74505805969E-08  0.93827000000E+00  0.93827000000E+00 0. -1.
     999902    2    1    2    0    0  0.22346358027E-01  0.35636311964E-02 -0.61510191657E-02  0.10204801765E+01  0.10202107118E+01 0.  0.
     999903    2    3    3    0    0 -0.10771789037E+00  0.19535035828E-01 -0.64957499062E-01  0.12883563044E+00  0.19859039665E-01 0.  0.
         14    1    1    2    0    0 -0.22346358027E-01 -0.35636311964E-02  0.61510191657E-02  0.23449823478E-01  0.00000000000E+00 0.  1.
     999901    1    3    3    0    0  0.13006424840E+00 -0.15971404632E-01  0.58806479896E-01  0.89164454608E+00  0.88000000000E+00 0.  1.
        -11    1    4    4    0    0 -0.81684269957E-01  0.17213621781E-01 -0.58412815518E-01  0.10188693180E+00  0.51100000000E-03 0.  1.
         11    1    4    4    0    0 -0.26033620412E-01  0.23214140477E-02 -0.65446835443E-02  0.26948698645E-01  0.51100000000E-03 0. -1.
</event>
<event>
 8    1  0.1052028E+005  0.1043930E+01  0.7957747E-01            NaN
         13   -1    0    0    0    0  0.00000000000E+00  0.00000000000E+00  0.74505805969E-08  0.10566000000E+00  0.10566000000E+00 0.  1.
     999900   -1    0    0    0    0 -0.00000000000E+00 -0.00000000000E+00 -0.74505805969E-08  0.93827000000E+00  0.93827000000E+00 0.  1.
     999902    2    1    2    0    0 -0.37880178800E-02 -0.22793969039E-03 -0.21704655078E-01  0.10218960923E+01  0.10216585195E+01 0.  0.
     999903    2    3    3    0    0  0.47433344973E-01 -0.71630436692E-01  0.95125366830E-01  0.12983600543E+00  0.20681180216E-01 0.  0.
         14    1    1    2    0    0  0.37880178800E-02  0.22793969039E-03  0.21704655078E-01  0.22033907689E-01  0.00000000000E+00 0.  1.
     999901    1    3    3    0    0 -0.51221362853E-01  0.71402497001E-01 -0.11683002191E+00  0.89206008688E+00  0.88000000000E+00 0.  1.
        -11    1    4    4    0    0  0.22804300620E-02 -0.99506362600E-02  0.21002217525E-01  0.23357435330E-01  0.51100000000E-03 0. -1.
         11    1    4    4    0    0  0.45152914911E-01 -0.61679800432E-01  0.74123149305E-01  0.10647857010E+00  0.51100000000E-03 0.  1.
</event>
<event>
 8    1  0.1052028E+005  0.1043930E+01  0.7957747E-01            NaN
         13   -1    0    0    0    0  0.00000000000E+00  0.00000000000E+00  0.74505805969E-08  0.10566000000E+00  0.10566000000E+00 0.  1.
     999900   -1    0    0    0    0 -0.00000000000E+00 -0.00000000000E+00 -0.74505805969E-08  0.93827000000E+00  0.93827000000E+00 0.  1.
     999902    2    1    2    0    0 -0.85220834588E-02  0.20637173935E-01 -0.44281948708E-02  0.10211675800E+01  0.10209138547E+01 0.  0.
     999903    2    3    3    0    0 -0.93177597836E-01  0.94532250902E-01 -0.37454791470E-02  0.13402187347E+00  0.18150007020E-01 0.  0.
         14    1    1    2    0    0  0.85220834588E-02 -0.20637173935E-01  0.44281948708E-02  0.22762420001E-01  0.00000000000E+00 0. -1.
     999901    1    3    3    0    0  0.84655514377E-01 -0.73895076967E-01 -0.68271572380E-03  0.88714570653E+00  0.88000000000E+00 0.  1.
        -11    1    4    4    0    0 -0.39935082980E-01  0.33200567248E-01  0.57317565023E-02  0.52251341340E-01  0.51100000000E-03 0.  1.
         11    1    4    4    0    0 -0.53242514856E-01  0.61331683654E-01 -0.94772356493E-02  0.81770532128E-01  0.51100000000E-03 0. -1.
</event>
<event>
 8    1  0.1052028E+005  0.1043930E+01  0.7957747E-01            NaN
         13   -1    0    0    0    0  0.00000000000E+00  0.00000000000E+00  0.74505805969E-08  0.10566000000E+00  0.10566000000E+00 0. -1.
     999900   -1    0    0    0    0 -0.00000000000E+00 -0.00000000000E+00 -0.74505805969E-08  0.93827000000E+00  0.93827000000E+00 0. -1.
     999902    2    1    2    0    0 -0.72931004247E-03 -0.11833090037E-01  0.20770148907E-01  0.10200144611E+01  0.10197340575E+01 0.  0.
     999903    2    3    3    0    0 -0.46761712798E-01 -0.11366889720E+00 -0.41217656486E-01  0.13078333161E+00  0.17265823047E-01 0.  0.
         14    1    1    2    0    0  0.72931004247E-03  0.11833090037E-01 -0.20770148907E-01  0.23915538852E-01  0.00000000000E+00 0.  1.
     999901    1    3    3    0    0  0.46032402755E-01  0.10183580717E+00  0.61987805393E-01  0.88923112954E+00  0.88000000000E+00 0. -1.
        -11    1    4    4    0    0 -0.44834659745E-01 -0.91955894915E-01 -0.34579740872E-01  0.10799098538E+00  0.51100000000E-03 0. -1.
         11    1    4    4    0    0 -0.19270530525E-02 -0.21713002288E-01 -0.66379156143E-02  0.22792346227E-01  0.51100000000E-03 0.  1.
</event>
<event>
 8    1  0.1052028E+005  0.1043930E+01  0.7957747E-01            NaN
         13   -1    0    0    0    0  0.00000000000E+00  0.00000000000E+00  0.74505805969E-08  0.10566000000E+00  0.10566000000E+00 0.  1.
     999900   -1    0    0    0    0 -0.00000000000E+00 -0.00000000000E+00 -0.74505805969E-08  0.93827000000E+00  0.93827000000E+00 0.  1.
     999902    2    1    2    0    0  0.17698806251E-01  0.14920620535E-01  0.19276831864E-02  0.10207009530E+01  0.10204365962E+01 0.  0.
     999903    2    3    3    0    0  0.44000014912E-01  0.56752923808E-01  0.10980167875E+00  0.13273783777E+00  0.20150167418E-01 0.  0.
         14    1    1    2    0    0 -0.17698806251E-01 -0.14920620535E-01 -0.19276831864E-02  0.23229046953E-01  0.00000000000E+00 0. -1.
     999901    1    3    3    0    0 -0.26301208660E-01 -0.41832303273E-01 -0.10787399556E+00  0.88796311528E+00  0.88000000000E+00 0.  1.
        -11    1    4    4    0    0  0.11188877878E-01  0.16599470911E-01  0.48331965803E-01  0.52316091808E-01  0.51100000000E-03 0.  1.
         11    1    4    4    0    0  0.32811137033E-01  0.40153452897E-01  0.61469712945E-01  0.80421745962E-01  0.51100000000E-03 0. -1.
</event>
<event>
 8    1  0.1052028E+005  0.1043930E+01  0.7957747E-01            NaN
         13   -1    0    0    0    0  0.00000000000E+00  0.00000000000E+00  0.74505805969E-08  0.10566000000E+00  0.10566000000E+00 0.  1.
     999900   -1    0    0    0    0 -0.00000000000E+00 -0.00000000000E+00 -0.74505805969E-08  0.93827000000E+00  0.93827000000E+00 0. -1.
     999902    2    1    2    0    0 -0.14426867262E-01  0.17226959561E-02 -0.18687061094E-01  0.10202591649E+01  0.10199845367E+01 0.  0.
     999903    2    3    3    0    0  0.16137935400E-01 -0.90664141746E-01 -0.92000312377E-01  0.13186490125E+00  0.21068344633E-01 0.  0.
         14    1    1    2    0    0  0.14426867262E-01 -0.17226959561E-02  0.18687061094E-01  0.23670835065E-01  0.00000000000E+00 0.  1.
     999901    1    3    3    0    0 -0.30564802662E-01  0.92386837702E-01  0.73313251283E-01  0.88839426369E+00  0.88000000000E+00 0.  1.
        -11    1    4    4    0    0  0.28971923877E-02 -0.61086259044E-01 -0.68518486474E-01  0.91842086634E-01  0.51100000000E-03 0.  1.
         11    1    4    4    0    0  0.13240743013E-01 -0.29577882702E-01 -0.23481825903E-01  0.40022814611E-01  0.51100000000E-03 0. -1.
</event>
<event>
 8    1  0.1052028E+005  0.1043930E+01  0.7957747E-01            NaN
         13   -1    0    0    0    0  0.00000000000E+00  0.00000000000E+00  0.74505805969E-08  0.10566000000E+00  0.10566000000E+00 0.  1.
     999900   -1    0    0    0    0 -0.00000000000E+00 -0.00000000000E+00 -0.74505805969E-08  0.93827000000E+00  0.93827000000E+00 0.  1.
     999902    2    1    2    0    0 -0.73951662864E-02 -0.15501062820E-01 -0.16016187997E-01  0.10204461819E+01  0.10201759263E+01 0.  0.
     999903    2    3    3    0    0  0.30743247163E-01 -0.12015989227E+00  0.39424239504E-01  0.13169331968E+00  0.20132382656E-01 0.  0.
         14    1    1    2    0    0  0.73951662864E-02  0.15501062820E-01  0.16016187997E-01  0.23483818065E-01  0.00000000000E+00 0. -1.
     999901    1    3    3    0    0 -0.38138413449E-01  0.10465882945E+00 -0.55440427502E-01  0.88875286225E+00  0.88000000000E+00 0.  1.
        -11    1    4    4    0    0  0.14083272309E-01 -0.22300531566E-01  0.87508578272E-02  0.27793720528E-01  0.51100000000E-03 0. -1.
         11    1    4    4    0    0  0.16659974854E-01 -0.97859360705E-01  0.30673381677E-01  0.10389959915E+00  0.51100000000E-03 0.  1.
</event>
<event>
 8    1  0.1052028E+005  0.1043930E+01  0.7957747E-01            NaN
         13   -1    0    0    0    0  0.00000000000E+00  0.00000000000E+00  0.74505805969E-08  0.10566000000E+00  0.10566000000E+00 0.  1.
     999900   -1    0    0    0    0 -0.00000000000E+00 -0.00000000000E+00 -0.74505805969E-08  0.93827000000E+00  0.93827000000E+00 0.  1.
     999902    2    1    2    0    0  0.53073680825E-02 -0.18465302423E-01 -0.14140037164E-01  0.10200746819E+01  0.10197957053E+01 0.  0.
     999903    2    3    3    0    0 -0.67391667248E-01 -0.20002948949E-01 -0.10992247775E+00  0.13189576413E+00  0.19281771152E-01 0.  0.
         14    1    1    2    0    0 -0.53073680825E-02  0.18465302423E-01  0.14140037164E-01  0.23855318077E-01  0.00000000000E+00 0.  1.
     999901    1    3    3    0    0  0.72699035330E-01  0.15376465258E-02  0.95782440585E-01  0.88817891780E+00  0.88000000000E+00 0. -1.
        -11    1    4    4    0    0 -0.36333003175E-01 -0.14751320552E-01 -0.76498322719E-01  0.85964778123E-01  0.51100000000E-03 0. -1.
         11    1    4    4    0    0 -0.31058664073E-01 -0.52516283967E-02 -0.33424155030E-01  0.45930986003E-01  0.51100000000E-03 0.  1.
</event>
<event>
 8    1  0.1052028E+005  0.1043930E+01  0.7957747E-01            NaN
         13   -1    0    0    0    0  0.00000000000E+00  0.00000000000E+00  0.74505805969E-08  0.10566000000E+00  0.10566000000E+00 0. -1.
     999900   -1    0    0    0    0 -0.00000000000E+00 -0.00000000000E+00 -0.74505805969E-08  0.93827000000E+00  0.93827000000E+00 0.  1.
     999902    2    1    2    0    0  0.22381992121E-01 -0.68488946565E-02 -0.77578287423E-02  0.10192714348E+01  0.10189731169E+01 0.  0.
     999903    2    3    3    0    0  0.13059587709E+00  0.99521755316E-02  0.35167917987E-02  0.13241201084E+00  0.19137499306E-01 0.  0.
         14    1    1    2    0    0 -0.22381992121E-01  0.68488946565E-02  0.77578287423E-02  0.24658565168E-01  0.00000000000E+00 0. -1.
     999901    1    3    3    0    0 -0.10821388497E+00 -0.16801070188E-01 -0.11274620541E-01  0.88685942399E+00  0.88000000000E+00 0. -1.
        -11    1    4    4    0    0  0.71358098446E-01 -0.36863778918E-02  0.47155323066E-02  0.71610508738E-01  0.51100000000E-03 0.  1.
         11    1    4    4    0    0  0.59237778641E-01  0.13638553423E-01 -0.11987405080E-02  0.60801502100E-01  0.51100000000E-03 0. -1.
</event>
<event>
 8    1  0.1052028E+005  0.1043930E+01  0.7957747E-01            NaN
         13   -1    0    0    0    0  0.00000000000E+00  0.00000000000E+00  0.74505805969E-08  0.10566000000E+00  0.10566000000E+00 0.  1.
     999900   -1    0    0    0    0 -0.00000000000E+00 -0.00000000000E+00 -0.74505805969E-08  0.93827000000E+00  0.93827000000E+00 0.  1.
     999902    2    1    2    0    0 -0.10211936342E-01 -0.13710760892E-01  0.19510370034E-01  0.10179892377E+01  0.10176586682E+01 0.  0.
     999903    2    3    3    0    0 -0.37851419115E-01 -0.16521355289E-01 -0.11820478782E+00  0.12684541929E+00  0.20290476098E-01 0.  0.
         14    1    1    2    0    0  0.10211936342E-01  0.13710760892E-01 -0.19510370034E-01  0.25940762267E-01  0.00000000000E+00 0. -1.
     999901    1    3    3    0    0  0.27639482772E-01  0.28105943964E-02  0.13771515786E+00  0.89114381845E+00  0.88000000000E+00 0. -1.
        -11    1    4    4    0    0 -0.50210375834E-02 -0.71207509200E-02 -0.47842820862E-01  0.48632422735E-01  0.51100000000E-03 0.  1.
         11    1    4    4    0    0 -0.32830381531E-01 -0.94006043686E-02 -0.70361966962E-01  0.78212996553E-01  0.51100000000E-03 0. -1.
</event>
<event>
 7    1  0.2525928E+005  0.1043930E+01  0.7957747E-01            NaN
         13   -1    0    0    0    0  0.00000000000E+00  0.00000000000E+00  0.74505805969E-08  0.10566000000E+00  0.10566000000E+00 0.  1.
     999900   -1    0    0    0    0 -0.00000000000E+00 -0.00000000000E+00 -0.74505805969E-08  0.93827000000E+00  0.93827000000E+00 0. -1.
     999903    2    1    2    0    0 -0.21718436540E-02 -0.83629027126E-01  0.71796520434E-01  0.11229307853E+00  0.21365019461E-01 0.  0.
         14    1    1    2    0    0 -0.81404790931E-02 -0.18591752166E-01 -0.40274306066E-01  0.45099228126E-01  0.00000000000E+00 0. -1.
     999901    1    1    2    0    0  0.10312322747E-01  0.10222077929E+00 -0.31522214368E-01  0.88653769334E+00  0.88000000000E+00 0.  1.
        -11    1    3    3    0    0 -0.11739924188E-01 -0.41786375890E-01  0.36925382554E-01  0.56988349930E-01  0.51100000000E-03 0. -1.
         11    1    3    3    0    0  0.95680805345E-02 -0.41842651236E-01  0.34871137880E-01  0.55304728601E-01  0.51100000000E-03 0.  1.
</event>
<event>
 8    1  0.1052028E+005  0.1043930E+01  0.7957747E-01            NaN
         13   -1    0    0    0    0  0.00000000000E+00  0.00000000000E+00  0.74505805969E-08  0.10566000000E+00  0.10566000000E+00 0. -1.
     999900   -1    0    0    0    0 -0.00000000000E+00 -0.00000000000E+00 -0.74505805969E-08  0.93827000000E+00  0.93827000000E+00 0.  1.
     999902    2    1    2    0    0  0.23147990395E-01 -0.19404799365E-02  0.57406575640E-02  0.10200019815E+01  0.10197212816E+01 0.  0.
     999903    2    3    3    0    0  0.42037141443E-01  0.73488147273E-01  0.98881546981E-01  0.13167687031E+00  0.19839576375E-01 0.  0.
         14    1    1    2    0    0 -0.23147990395E-01  0.19404799365E-02 -0.57406575640E-02  0.23928018534E-01  0.00000000000E+00 0.  1.
     999901    1    3    3    0    0 -0.18889151048E-01 -0.75428627210E-01 -0.93140889417E-01  0.88832511116E+00  0.88000000000E+00 0.  1.
        -11    1    4    4    0    0  0.33942729487E-01  0.41168175291E-01  0.55713190922E-01  0.77143686103E-01  0.51100000000E-03 0.  1.
         11    1    4    4    0    0  0.80944119555E-02  0.32319971982E-01  0.43168356059E-01  0.54533184206E-01  0.51100000000E-03 0. -1.
</event>
<event>
 8    1  0.1052028E+005  0.1043930E+01  0.7957747E-01            NaN
         13   -1    0    0    0    0  0.00000000000E+00  0.00000000000E+00  0.74505805969E-08  0.10566000000E+00  0.10566000000E+00 0. -1.
     999900   -1    0    0    0    0 -0.00000000000E+00 -0.00000000000E+00 -0.74505805969E-08  0.93827000000E+00  0.93827000000E+00 0.  1.
     999902    2    1    2    0    0  0.73182302854E-02  0.12692996079E-01  0.18348437658E-01  0.10204495015E+01  0.10201793231E+01 0.  0.
     999903    2    3    3    0    0  0.48703473427E-01  0.37655434127E-01 -0.11189292413E+00  0.12955182279E+00  0.21764380875E-01 0.  0.
         14    1    1    2    0    0 -0.73182302854E-02 -0.12692996079E-01 -0.18348437658E-01  0.23480498471E-01  0.00000000000E+00 0.  1.
     999901    1    3    3    0    0 -0.41385243142E-01 -0.24962438048E-01  0.13024136179E+00  0.89089767874E+00  0.88000000000E+00 0. -1.
        -11    1    4    4    0    0  0.12232127425E-01  0.61651065551E-02 -0.45464959580E-01  0.47486389111E-01  0.51100000000E-03 0.  1.
         11    1    4    4    0    0  0.36471346002E-01  0.31490327572E-01 -0.66427964549E-01  0.82065433679E-01  0.51100000000E-03 0. -1.
</event>
<event>
 8    1  0.1052028E+005  0.1043930E+01  0.7957747E-01            NaN
         13   -1    0    0    0    0  0.00000000000E+00  0.00000000000E+00  0.74505805969E-08  0.10566000000E+00  0.10566000000E+00 0.  1.
     999900   -1    0    0    0    0 -0.00000000000E+00 -0.00000000000E+00 -0.74505805969E-08  0.93827000000E+00  0.93827000000E+00 0. -1.
     999902    2    1    2    0    0 -0.86080159110E-02 -0.25725611745E-02 -0.22739841917E-01  0.10194797154E+01  0.10191864764E+01 0.  0.
     999903    2    3    3    0    0 -0.63773816653E-01  0.85397052747E-01 -0.74847734589E-01  0.13184400684E+00  0.20515907454E-01 0.  0.
         14    1    1    2    0    0  0.86080159110E-02  0.25725611745E-02  0.22739841917E-01  0.24450284647E-01  0.00000000000E+00 0.  1.
     999901    1    3    3    0    0  0.55165800742E-01 -0.87969613922E-01  0.52107892672E-01  0.88763570851E+00  0.88000000000E+00 0. -1.
        -11    1    4    4    0    0 -0.16784607112E-01  0.38985047328E-01 -0.31101850358E-01  0.52622648809E-01  0.51100000000E-03 0. -1.
         11    1    4    4    0    0 -0.46989209541E-01  0.46412005419E-01 -0.43745884231E-01  0.79221358032E-01  0.51100000000E-03 0.  1.
</event>
<event>
 8    1  0.1052028E+005  0.1043930E+01  0.7957747E-01            NaN
         13   -1    0    0    0    0  0.00000000000E+00  0.00000000000E+00  0.74505805969E-08  0.10566000000E+00  0.10566000000E+00 0. -1.
     999900   -1    0    0    0    0 -0.00000000000E+00 -0.00000000000E+00 -0.74505805969E-08  0.93827000000E+00  0.93827000000E+00 0.  1.
     999902    2    1    2    0    0  0.14574911590E-01  0.28661785192E-02  0.17510877743E-01  0.10209675553E+01  0.10207093000E+01 0.  0.
     999903    2    3    3    0    0 -0.66976110885E-01  0.74868128137E-01  0.83036052244E-01  0.13185091587E+00  0.19966021248E-01 0.  0.
         14    1    1    2    0    0 -0.14574911590E-01 -0.28661785192E-02 -0.17510877743E-01  0.22962444698E-01  0.00000000000E+00 0.  1.
     999901    1    3    3    0    0  0.81551022476E-01 -0.72001949617E-01 -0.65525174500E-01  0.88911663943E+00  0.88000000000E+00 0. -1.
        -11    1    4    4    0    0 -0.28350976317E-01  0.27538789251E-01  0.44958408935E-01  0.59863865783E-01  0.51100000000E-03 0. -1.
         11    1    4    4    0    0 -0.38625134569E-01  0.47329338885E-01  0.38077643308E-01  0.71987050090E-01  0.51100000000E-03 0.  1.
</event>
<event>
 8    1  0.1052028E+005  0.1043930E+01  0.7957747E-01            NaN
         13   -1    0    0    0    0  0.00000000000E+00  0.00000000000E+00  0.74505805969E-08  0.10566000000E+00  0.10566000000E+00 0. -1.
     999900   -1    0    0    0    0 -0.00000000000E+00 -0.00000000000E+00 -0.74505805969E-08  0.93827000000E+00  0.93827000000E+00 0. -1.
     999902    2    1    2    0    0  0.13472075561E-01  0.30920010391E-03 -0.20927603364E-01  0.10190390979E+01  0.10187350618E+01 0.  0.
     999903    2    3    3    0    0 -0.57688972543E-01 -0.68261130584E-01 -0.92093797825E-01  0.13065268859E+00  0.24520561501E-01 0.  0.
         14    1    1    2    0    0 -0.13472075561E-01 -0.30920010391E-03  0.20927603364E-01  0.24890902097E-01  0.00000000000E+00 0. -1.
     999901    1    3    3    0    0  0.71161048104E-01  0.68570330688E-01  0.71166194461E-01  0.88838640931E+00  0.88000000000E+00 0.  1.
        -11    1    4    4    0    0 -0.47682518692E-01 -0.39936816501E-01 -0.56041177999E-01  0.83722438173E-01  0.51100000000E-03 0. -1.
         11    1    4    4    0    0 -0.10006453851E-01 -0.28324314082E-01 -0.36052619826E-01  0.46930250417E-01  0.51100000000E-03 0.  1.
</event>
<event>
 8    1  0.1052028E+005  0.1043930E+01  0.7957747E-01            NaN
         13   -1    0    0    0    0  0.00000000000E+00  0.00000000000E+00  0.74505805969E-08  0.10566000000E+00  0.10566000000E+00 0. -1.
     999900   -1    0    0    0    0 -0.00000000000E+00 -0.00000000000E+00 -0.74505805969E-08  0.93827000000E+00  0.93827000000E+00 0. -1.
     999902    2    1    2    0    0  0.18612311888E-01 -0.17025475741E-01 -0.21976763997E-02  0.10186097559E+01  0.10182950064E+01 0.  0.
     999903    2    3    3    0    0  0.65130082306E-01  0.97118234036E-01  0.49114601260E-01  0.12853917486E+00  0.20885315759E-01 0.  0.
         14    1    1    2    0    0 -0.18612311888E-01  0.17025475741E-01  0.21976763997E-02  0.25320244066E-01  0.00000000000E+00 0. -1.
     999901    1    3    3    0    0 -0.46517770418E-01 -0.11414370978E+00 -0.51312277660E-01  0.89007058107E+00  0.88000000000E+00 0.  1.
        -11    1    4    4    0    0  0.10332703419E-01  0.21261699776E-01  0.18682995414E-01  0.30135362548E-01  0.51100000000E-03 0. -1.
         11    1    4    4    0    0  0.54797378887E-01  0.75856534260E-01  0.30431605847E-01  0.98403812316E-01  0.51100000000E-03 0.  1.
</event>
<event>
 8    1  0.1052028E+005  0.1043930E+01  0.7957747E-01            NaN
         13   -1    0    0    0    0  0.00000000000E+00  0.00000000000E+00  0.74505805969E-08  0.10566000000E+00  0.10566000000E+00 0.  1.
     999900   -1    0    0    0    0 -0.00000000000E+00 -0.00000000000E+00 -0.74505805969E-08  0.93827000000E+00  0.93827000000E+00 0. -1.
     999902    2    1    2    0    0 -0.29410776169E-02 -0.16438110420E-01 -0.17847557385E-01  0.10194882996E+01  0.10191952690E+01 0.  0.
     999903    2    3    3    0    0 -0.12573421376E+00 -0.47652333183E-02 -0.29529206371E-01  0.13080901482E+00  0.20179801080E-01 0.  0.
         14    1    1    2    0    0  0.29410776169E-02  0.16438110420E-01  0.17847557385E-01  0.24441700357E-01  0.00000000000E+00 0. -1.
     999901    1    3    3    0    0  0.12279313614E+00 -0.11672877102E-01  0.11681648986E-01  0.88867928482E+00  0.88000000000E+00 0.  1.
        -11    1    4    4    0    0 -0.57409360731E-01  0.42089853974E-02 -0.21412354217E-01  0.61419054793E-01  0.51100000000E-03 0.  1.
         11    1    4    4    0    0 -0.68324853030E-01 -0.89742187157E-02 -0.81168521540E-02  0.69389960031E-01  0.51100000000E-03 0. -1.
</event>
<event>
 8    1  0.1052028E+005  0.1043930E+01  0.7957747E-01            NaN
         13   -1    0    0    0    0  0.00000000000E+00  0.00000000000E+00  0.74505805969E-08  0.10566000000E+00  0.10566000000E+00 0. -1.
     999900   -1    0    0    0    0 -0.00000000000E+00 -0.00000000000E+00 -0.74505805969E-08  0.93827000000E+00  0.93827000000E+00 0.  1.
     999902    2    1    2    0    0  0.10039880219E-02 -0.19650763673E-01  0.12841982499E-01  0.10204336807E+01  0.10201631339E+01 0.  0.
     999903    2    3    3    0    0 -0.58519783124E-01  0.22821314058E-01 -0.11064922997E+00  0.12880761770E+00  0.20069202575E-01 0.  0.
         14    1    1    2    0    0 -0.10039880219E-02  0.19650763673E-01 -0.12841982499E-01  0.23496319273E-01  0.00000000000E+00 0. -1.
     999901    1    3    3    0    0  0.59523771146E-01 -0.42472077731E-01  0.12349121247E+00  0.89162606303E+00  0.88000000000E+00 0. -1.
        -11    1    4    4    0    0 -0.32583581577E-01  0.16881544744E-01 -0.45664783239E-01  0.58585065423E-01  0.51100000000E-03 0. -1.
         11    1    4    4    0    0 -0.25936201547E-01  0.59397693136E-02 -0.64984446728E-01  0.70222552273E-01  0.51100000000E-03 0.  1.
</event>
<event>
 8    1  0.1052028E+005  0.1043930E+01  0.7957747E-01            NaN
         13   -1    0    0    0    0  0.00000000000E+00  0.00000000000E+00  0.74505805969E-08  0.10566000000E+00  0.10566000000E+00 0.  1.
     999900   -1    0    0    0    0 -0.00000000000E+00 -0.00000000000E+00 -0.74505805969E-08  0.93827000000E+00  0.93827000000E+00 0.  1.
     999902    2    1    2    0    0 -0.11515406207E-01 -0.10088368868E-01 -0.17990683691E-01  0.10203070352E+01  0.10200335296E+01 0.  0.
     999903    2    3    3    0    0 -0.14251698404E-01  0.99201732117E-01 -0.82633483767E-01  0.13118921113E+00  0.18390810606E-01 0.  0.
         14    1    1    2    0    0  0.11515406207E-01  0.10088368868E-01  0.17990683691E-01  0.23622964806E-01  0.00000000000E+00 0.  1.
     999901    1    3    3    0    0  0.27362921970E-02 -0.10929010099E+00  0.64642800076E-01  0.88911782407E+00  0.88000000000E+00 0.  1.
        -11    1    4    4    0    0 -0.51830652842E-02  0.23037207736E-01 -0.29916308853E-01  0.38115925312E-01  0.51100000000E-03 0.  1.
         11    1    4    4    0    0 -0.90686331196E-02  0.76164524381E-01 -0.52717174915E-01  0.93073285818E-01  0.51100000000E-03 0. -1.
</event>
<event>
 8    1  0.1052028E+005  0.1043930E+01  0.7957747E-01            NaN
         13   -1    0    0    0    0  0.00000000000E+00  0.00000000000E+00  0.74505805969E-08  0.10566000000E+00  0.10566000000E+00 0. -1.
     999900   -1    0    0    0    0 -0.00000000000E+00 -0.00000000000E+00 -0.74505805969E-08  0.93827000000E+00  0.93827000000E+00 0. -1.
     999902    2    1    2    0    0 -0.13203358425E-01 -0.18209954285E-02 -0.25286303551E-01  0.10153460562E+01  0.10149436299E+01 0.  0.
     999903    2    3    3    0    0  0.11101460822E+00  0.34689367515E-01  0.37270747275E-01  0.12367543623E+00  0.19465597013E-01 0.  0.
         14    1    1    2    0    0  0.13203358425E-01  0.18209954285E-02  0.25286303551E-01  0.28583943838E-01  0.00000000000E+00 0. -1.
     999901    1    3    3    0    0 -0.12421796665E+00 -0.36510362944E-01 -0.62557050825E-01  0.89167061993E+00  0.88000000000E+00 0.  1.
        -11    1    4    4    0    0  0.79968237072E-01  0.15602441537E-01  0.25868077808E-01  0.85485517444E-01  0.51100000000E-03 0. -1.
         11    1    4    4    0    0  0.31046371152E-01  0.19086925979E-01  0.11402669466E-01  0.38189918787E-01  0.51100000000E-03 0.  1.
</event>
<event>
 8    1  0.1052028E+005  0.1043930E+01  0.7957747E-01            NaN
         13   -1    0    0    0    0  0.00000000000E+00  0.00000000000E+00  0.74505805969E-08  0.10566000000E+00  0.10566000000E+00 0.  1.
     999900   -1    0    0    0    0 -0.00000000000E+00 -0.00000000000E+00 -0.74505805969E-08  0.93827000000E+00  0.93827000000E+00 0. -1.
     999902    2    1    2    0    0 -0.78189341744E-03  0.26294491410E-02 -0.23752472170E-01  0.10200196404E+01  0.10197393596E+01 0.  0.
     999903    2    3    3    0    0 -0.97046456782E-01  0.39793282548E-01 -0.78074813840E-01  0.13232660032E+00  0.20325660781E-01 0.  0.
         14    1    1    2    0    0  0.78189341744E-03 -0.26294491410E-02  0.23752472170E-01  0.23910359560E-01  0.00000000000E+00 0.  1.
     999901    1    3    3    0    0  0.96264563365E-01 -0.37163833407E-01  0.54322341670E-01  0.88769304012E+00  0.88000000000E+00 0.  1.
        -11    1    4    4    0    0 -0.62183565727E-01  0.26838155473E-01 -0.38047371060E-01  0.77684914889E-01  0.51100000000E-03 0.  1.
         11    1    4    4    0    0 -0.34862891055E-01  0.12955127075E-01 -0.40027442780E-01  0.54641685431E-01  0.51100000000E-03 0. -1.
</event>
<event>
 8    1  0.1052028E+005  0.1043930E+01  0.7957747E-01            NaN
         13   -1    0    0    0    0  0.00000000000E+00  0.00000000000E+00  0.74505805969E-08  0.10566000000E+00  0.10566000000E+00 0. -1.
     999900   -1    0    0    0    0 -0.00000000000E+00 -0.00000000000E+00 -0.74505805969E-08  0.93827000000E+00  0.93827000000E+00 0. -1.
     999902    2    1    2    0    0 -0.62502108916E-02 -0.17813934646E-01 -0.15398801569E-01  0.10195676419E+01  0.10192765336E+01 0.  0.
     999903    2    3    3    0    0 -0.11464127820E-01 -0.12874487853E+00 -0.22011331999E-01  0.13256336635E+00  0.19541683296E-01 0.  0.
         14    1    1    2    0    0  0.62502108916E-02  0.17813934646E-01  0.15398801569E-01  0.24362358127E-01  0.00000000000E+00 0. -1.
     999901    1    3    3    0    0  0.52139169289E-02  0.11093094389E+00  0.66125304298E-02  0.88700427553E+00  0.88000000000E+00 0.  1.
        -11    1    4    4    0    0 -0.78056847776E-02 -0.16053755683E-01 -0.49218015356E-02  0.18523958479E-01  0.51100000000E-03 0.  1.
         11    1    4    4    0    0 -0.36584430429E-02 -0.11269112285E+00 -0.17089530463E-01  0.11403940787E+00  0.51100000000E-03 0. -1.
</event>
<event>
 8    1  0.1052028E+005  0.1043930E+01  0.7957747E-01            NaN
         13   -1    0    0    0    0  0.00000000000E+00  0.00000000000E+00  0.74505805969E-08  0.10566000000E+00  0.10566000000E+00 0.  1.
     999900   -1    0    0    0    0 -0.00000000000E+00 -0.00000000000E+00 -0.74505805969E-08  0.93827000000E+00  0.93827000000E+00 0. -1.
     999902    2    1    2    0    0  0.28116109546E-03 -0.68498608910E-02  0.22909230610E-01  0.10200169807E+01  0.10197366368E+01 0.  0.
     999903    2    3    3    0    0 -0.10131848494E+00  0.76744905349E-01 -0.54568210480E-02  0.12978374950E+00  0.25667661550E-01 0.  0.
         14    1    1    2    0    0 -0.28116109546E-03  0.68498608910E-02 -0.22909230610E-01  0.23913019319E-01  0.00000000000E+00 0. -1.
     999901    1    3    3    0    0  0.10159964604E+00 -0.83594766240E-01  0.28366051658E-01  0.89023323118E+00  0.88000000000E+00 0.  1.
        -11    1    4    4    0    0 -0.93159273023E-01  0.62125069750E-01  0.58618347405E-03  0.11197669031E+00  0.51100000000E-03 0.  1.
         11    1    4    4    0    0 -0.81592119199E-02  0.14619835599E-01 -0.60430045220E-02  0.17807059183E-01  0.51100000000E-03 0. -1.
</event>
<event>
 8    1  0.1052028E+005  0.1043930E+01  0.7957747E-01            NaN
         13   -1    0    0    0    0  0.00000000000E+00  0.00000000000E+00  0.74505805969E-08  0.10566000000E+00  0.10566000000E+00 0.  1.
     999900   -1    0    0    0    0 -0.00000000000E+00 -0.00000000000E+00 -0.74505805969E-08  0.93827000000E+00  0.93827000000E+00 0. -1.
     999902    2    1    2    0    0  0.20748875462E-01  0.70924460220E-02 -0.81318792726E-02  0.10205431215E+01  0.10202751182E+01 0.  0.
     999903    2    3    3    0    0 -0.10739578521E+00 -0.40047583908E-01  0.52859721150E-01  0.12792718408E+00  0.20821879126E-01 0.  0.
         14    1    1    2    0    0 -0.20748875462E-01 -0.70924460220E-02  0.81318792726E-02  0.23386878458E-01  0.00000000000E+00 0. -1.
     999901    1    3    3    0    0  0.12814466067E+00  0.47140029930E-01 -0.60991600422E-01  0.89261593746E+00  0.88000000000E+00 0. -1.
        -11    1    4    4    0    0 -0.91029859634E-01 -0.31680732928E-01  0.35727321574E-01  0.10279497464E+00  0.51100000000E-03 0. -1.
         11    1    4    4    0    0 -0.16365925575E-01 -0.83668509792E-02  0.17132399575E-01  0.25132209442E-01  0.51100000000E-03 0.  1.
</event>
<event>
 8    1  0.1052028E+005  0.1043930E+01  0.7957747E-01            NaN
         13   -1    0    0    0    0  0.00000000000E+00  0.00000000000E+00  0.74505805969E-08  0.10566000000E+00  0.10566000000E+00 0.  1.
     999900   -1    0    0    0    0 -0.00000000000E+00 -0.00000000000E+00 -0.74505805969E-08  0.93827000000E+00  0.93827000000E+00 0.  1.
     999902    2    1    2    0    0 -0.20006342006E-01  0.44325853196E-02  0.49349710162E-02  0.10228526313E+01  0.10226354433E+01 0.  0.
     999903    2    3    3    0    0  0.10827807164E+00  0.51187757184E-01  0.50416386899E-01  0.13116238458E+00  0.17816615197E-01 0.  0.
         14    1    1    2    0    0  0.20006342006E-01 -0.44325853196E-02 -0.49349710162E-02  0.21077368716E-01  0.00000000000E+00 0. -1.
     999901    1    3    3    0    0 -0.12828441364E+00 -0.46755171864E-01 -0.45481415883E-01  0.89169024671E+00  0.88000000000E+00 0. -1.
        -11    1    4    4    0    0  0.40088334406E-01  0.28442505225E-01  0.18726150018E-01  0.52602095723E-01  0.51100000000E-03 0.  1.
         11    1    4    4    0    0  0.68189737232E-01  0.22745251958E-01  0.31690236881E-01  0.78560288855E-01  0.51100000000E-03 0. -1.
</event>
<event>
 8    1  0.1052028E+005  0.1043930E+01  0.7957747E-01            NaN
         13   -1    0    0    0    0  0.00000000000E+00  0.00000000000E+00  0.74505805969E-08  0.10566000000E+00  0.10566000000E+00 0.  1.
     999900   -1    0    0    0    0 -0.00000000000E+00 -0.00000000000E+00 -0.74505805969E-08  0.93827000000E+00  0.93827000000E+00 0.  1.
     999902    2    1    2    0    0 -0.17152552163E-01  0.13056717810E-01 -0.58891166440E-02  0.10215834204E+01  0.10213389815E+01 0.  0.
     999903    2    3    3    0    0 -0.84332633206E-02  0.12912620558E+00  0.25701523790E-01  0.13335703001E+00  0.19463613025E-01 0.  0.
         14    1    1    2    0    0  0.17152552163E-01 -0.13056717810E-01  0.58891166440E-02  0.22346579616E-01  0.00000000000E+00 0.  1.
     999901    1    3    3    0    0 -0.87192888424E-02 -0.11606948777E+00 -0.31590640434E-01  0.88822639037E+00  0.88000000000E+00 0. -1.
        -11    1    4    4    0    0 -0.14539143127E-01  0.88979983347E-01  0.19929260339E-01  0.92337753156E-01  0.51100000000E-03 0. -1.
         11    1    4    4    0    0  0.61058798064E-02  0.40146222230E-01  0.57722634503E-02  0.41019276857E-01  0.51100000000E-03 0.  1.
</event>
<event>
 8    1  0.1052028E+005  0.1043930E+01  0.7957747E-01            NaN
         13   -1    0    0    0    0  0.00000000000E+00  0.00000000000E+00  0.74505805969E-08  0.10566000000E+00  0.10566000000E+00 0.  1.
     999900   -1    0    0    0    0 -0.00000000000E+00 -0.00000000000E+00 -0.74505805969E-08  0.93827000000E+00  0.93827000000E+00 0. -1.
     999902    2    1    2    0    0  0.11500414193E-01 -0.32399493439E-02  0.19958145164E-01  0.10206687800E+01  0.10204036819E+01 0.  0.
     999903    2    3    3    0    0 -0.10133247006E+00 -0.72661496840E-01 -0.27414646492E-01  0.12949270736E+00  0.21652616571E-01 0.  0.
         14    1    1    2    0    0 -0.11500414193E-01  0.32399493439E-02 -0.19958145164E-01  0.23261220018E-01  0.00000000000E+00 0.  1.
     999901    1    3    3    0    0  0.11283288426E+00  0.69421547496E-01  0.47372791656E-01  0.89117607262E+00  0.88000000000E+00 0.  1.
        -11    1    4    4    0    0 -0.77412736464E-01 -0.45487828296E-01 -0.25010811531E-01  0.93207704105E-01  0.51100000000E-03 0.  1.
         11    1    4    4    0    0 -0.23919733600E-01 -0.27173668544E-01 -0.24038349610E-02  0.36285003254E-01  0.51100000000E-03 0. -1.
</event>
<event>
 8    1  0.1052028E+005  0.1043930E+01  0.7957747E-01            NaN
         13   -1    0    0    0    0  0.00000000000E+00  0.00000000000E+00  0.74505805969E-08  0.10566000000E+00  0.10566000000E+00 0. -1.
     999900   -1    0    0    0    0 -0.00000000000E+00 -0.00000000000E+00 -0.74505805969E-08  0.93827000000E+00  0.93827000000E+00 0. -1.
     999902    2    1    2    0    0 -0.89835987738E-02 -0.14019227458E-03  0.18691963061E-01  0.10231908056E+01  0.10229806012E+01 0.  0.
     999903    2    3    3    0    0 -0.85444693171E-01  0.42413118639E-01  0.94306011345E-01  0.13562415035E+00  0.20015448027E-01 0.  0.
         14    1    1    2    0    0  0.89835987738E-02  0.14019227458E-03 -0.18691963061E-01  0.20739194389E-01  0.00000000000E+00 0.  1.
     999901    1    3    3    0    0  0.76461094397E-01 -0.42553310914E-01 -0.75614048284E-01  0.88756665526E+00  0.88000000000E+00 0.  1.
        -11    1    4    4    0    0 -0.57678699211E-01  0.22891631221E-01  0.71768987117E-01  0.94878384026E-01  0.51100000000E-03 0.  1.
         11    1    4    4    0    0 -0.27765993960E-01  0.19521487419E-01  0.22537024228E-01  0.40745766328E-01  0.51100000000E-03 0. -1.
</event>
<event>
 8    1  0.1052028E+005  0.1043930E+01  0.7957747E-01            NaN
         13   -1    0    0    0    0  0.00000000000E+00  0.00000000000E+00  0.74505805969E-08  0.10566000000E+00  0.10566000000E+00 0.  1.
     999900   -1    0    0    0    0 -0.00000000000E+00 -0.00000000000E+00 -0.74505805969E-08  0.93827000000E+00  0.93827000000E+00 0. -1.
     999902    2    1    2    0    0  0.91882396929E-02 -0.14364398704E-01  0.18159280368E-01  0.10190197780E+01  0.10187152638E+01 0.  0.
     999903    2    3    3    0    0 -0.83638778999E-01 -0.96538798027E-01  0.17292224300E-01  0.13032959623E+00  0.19276871024E-01 0.  0.
         14    1    1    2    0    0 -0.91882396929E-02  0.14364398704E-01 -0.18159280368E-01  0.24910222044E-01  0.00000000000E+00 0. -1.
     999901    1    3    3    0    0  0.92827018692E-01  0.82174399323E-01  0.86705606777E-03  0.88869018172E+00  0.88000000000E+00 0. -1.
        -11    1    4    4    0    0 -0.46439436033E-01 -0.49389287802E-01  0.18443668427E-01  0.70259184415E-01  0.51100000000E-03 0.  1.
         11    1    4    4    0    0 -0.37199342966E-01 -0.47149510225E-01 -0.11514441268E-02  0.60070411819E-01  0.51100000000E-03 0. -1.
</event>
<event>
 8    1  0.1052028E+005  0.1043930E+01  0.7957747E-01            NaN
         13   -1    0    0    0    0  0.00000000000E+00  0.00000000000E+00  0.74505805969E-08  0.10566000000E+00  0.10566000000E+00 0. -1.
     999900   -1    0    0    0    0 -0.00000000000E+00 -0.00000000000E+00 -0.74505805969E-08  0.93827000000E+00  0.93827000000E+00 0. -1.
     999902    2    1    2    0    0 -0.57076784566E-02 -0.12108732621E-01  0.19913526182E-01  0.10199352605E+01  0.10196529743E+01 0.  0.
     999903    2    3    3    0    0 -0.67460728871E-01 -0.27767723885E-01  0.10967296067E+00  0.13307822617E+00  0.18964692179E-01 0.  0.
         14    1    1    2    0    0  0.57076784566E-02  0.12108732621E-01 -0.19913526182E-01  0.23994739507E-01  0.00000000000E+00 0.  1.
     999901    1    3    3    0    0  0.61753050415E-01  0.15658991264E-01 -0.89759434489E-01  0.88685703432E+00  0.88000000000E+00 0. -1.
        -11    1    4    4    0    0 -0.59966383461E-01 -0.19594794332E-01  0.83543545483E-01  0.10468862509E+00  0.51100000000E-03 0. -1.
         11    1    4    4    0    0 -0.74943454099E-02 -0.81729295536E-02  0.26129415187E-01  0.28389601083E-01  0.51100000000E-03 0.  1.
</event>
<event>
 8    1  0.1052028E+005  0.1043930E+01  0.7957747E-01            NaN
         13   -1    0    0    0    0  0.00000000000E+00  0.00000000000E+00  0.74505805969E-08  0.10566000000E+00  0.10566000000E+00 0.  1.
     999900   -1    0    0    0    0 -0.00000000000E+00 -0.00000000000E+00 -0.74505805969E-08  0.93827000000E+00  0.93827000000E+00 0. -1.
     999902    2    1    2    0    0 -0.93202582099E-02 -0.46475998024E-02  0.21213777906E-01  0.10202975695E+01  0.10200238422E+01 0.  0.
     999903    2    3    3    0    0 -0.12293241449E+00  0.31282280438E-01  0.31945508020E-01  0.13220193933E+00  0.19127929287E-01 0.  0.
         14    1    1    2    0    0  0.93202582099E-02  0.46475998024E-02 -0.21213777906E-01  0.23632430473E-01  0.00000000000E+00 0. -1.
     999901    1    3    3    0    0  0.11361215628E+00 -0.35929880241E-01 -0.10731730114E-01  0.88809563020E+00  0.88000000000E+00 0.  1.
        -11    1    4    4    0    0 -0.88283419417E-01  0.21694896909E-01  0.13883195483E-01  0.91965400742E-01  0.51100000000E-03 0. -1.
         11    1    4    4    0    0 -0.34648995069E-01  0.95873835292E-02  0.18062312537E-01  0.40236538586E-01  0.51100000000E-03 0.  1.
</event>
<event>
 8    1  0.1052028E+005  0.1043930E+01  0.7957747E-01            NaN
         13   -1    0    0    0    0  0.00000000000E+00  0.00000000000E+00  0.74505805969E-08  0.10566000000E+00  0.10566000000E+00 0. -1.
     999900   -1    0    0    0    0 -0.00000000000E+00 -0.00000000000E+00 -0.74505805969E-08  0.93827000000E+00  0.93827000000E+00 0.  1.
     999902    2    1    2    0    0 -0.11647429909E-02 -0.15126888143E-01  0.17431258141E-01  0.10208209513E+01  0.10205593498E+01 0.  0.
     999903    2    3    3    0    0 -0.49971349779E-01 -0.12143209288E+00 -0.37232823109E-02  0.13282861125E+00  0.19664388015E-01 0.  0.
         14    1    1    2    0    0  0.11647429909E-02  0.15126888143E-01 -0.17431258141E-01  0.23109048693E-01  0.00000000000E+00 0.  1.
     999901    1    3    3    0    0  0.48806606789E-01  0.10630520473E+00  0.21154540452E-01  0.88799234006E+00  0.88000000000E+00 0. -1.
        -11    1    4    4    0    0 -0.36312949637E-01 -0.96303506270E-01 -0.10420910523E-01  0.10344975654E+00  0.51100000000E-03 0.  1.
         11    1    4    4    0    0 -0.13658400142E-01 -0.25128586607E-01  0.66976282124E-02  0.29378854708E-01  0.51100000000E-03 0. -1.
</event>
<event>
 8    1  0.1052028E+005  0.1043930E+01  0.7957747E-01            NaN
         13   -1    0    0    0    0  0.00000000000E+00  0.00000000000E+00  0.74505805969E-08  0.10566000000E+00  0.10566000000E+00 0.  1.
     999900   -1    0    0    0    0 -0.00000000000E+00 -0.00000000000E+00 -0.74505805969E-08  0.93827000000E+00  0.93827000000E+00 0.  1.
     999902    2    1    2    0    0 -0.88343357672E-02 -0.26874727049E-01  0.75910055221E-02  0.10146397319E+01  0.10142168731E+01 0.  0.
     999903    2    3    3    0    0  0.27827609405E-01 -0.11814593744E+00  0.38261459111E-01  0.12862889176E+00  0.18671212102E-01 0.  0.
         14    1    1    2    0    0  0.88343357672E-02  0.26874727049E-01 -0.75910055221E-02  0.29290268132E-01  0.00000000000E+00 0. -1.
     999901    1    3    3    0    0 -0.36661945172E-01  0.91271210396E-01 -0.30670453589E-01  0.88601084011E+00  0.88000000000E+00 0. -1.
        -11    1    4    4    0    0  0.88392051690E-02 -0.73408693051E-01  0.27185386995E-01  0.78779909562E-01  0.51100000000E-03 0.  1.
         11    1    4    4    0    0  0.18988404236E-01 -0.44737244393E-01  0.11076072117E-01  0.49848982195E-01  0.51100000000E-03 0. -1.
</event>
<event>
 8    1  0.1052028E+005  0.1043930E+01  0.7957747E-01            NaN
         13   -1    0    0    0    0  0.00000000000E+00  0.00000000000E+00  0.74505805969E-08  0.10566000000E+00  0.10566000000E+00 0.  1.
     999900   -1    0    0    0    0 -0.00000000000E+00 -0.00000000000E+00 -0.74505805969E-08  0.93827000000E+00  0.93827000000E+00 0.  1.
     999902    2    1    2    0    0 -0.22474276747E-03  0.23719988946E-01  0.25196862799E-02  0.10200754993E+01  0.10197965420E+01 0.  0.
     999903    2    3    3    0    0 -0.13524875402E-01  0.12037396899E+00 -0.50987945705E-01  0.13306819827E+00  0.20846105587E-01 0.  0.
         14    1    1    2    0    0  0.22474276747E-03 -0.23719988946E-01 -0.25196862799E-02  0.23854500704E-01  0.00000000000E+00 0. -1.
     999901    1    3    3    0    0  0.13300132635E-01 -0.96653980049E-01  0.53507631985E-01  0.88700730102E+00  0.88000000000E+00 0.  1.
        -11    1    4    4    0    0  0.35980157346E-02  0.54716526724E-01 -0.26751572599E-01  0.61014357093E-01  0.51100000000E-03 0. -1.
         11    1    4    4    0    0 -0.17122891137E-01  0.65657442270E-01 -0.24236373107E-01  0.72053841180E-01  0.51100000000E-03 0.  1.
</event>
<event>
 8    1  0.1052028E+005  0.1043930E+01  0.7957747E-01            NaN
         13   -1    0    0    0    0  0.00000000000E+00  0.00000000000E+00  0.74505805969E-08  0.10566000000E+00  0.10566000000E+00 0. -1.
     999900   -1    0    0    0    0 -0.00000000000E+00 -0.00000000000E+00 -0.74505805969E-08  0.93827000000E+00  0.93827000000E+00 0.  1.
     999902    2    1    2    0    0  0.21244526882E-01  0.73635284991E-02 -0.59465975009E-02  0.10206724529E+01  0.10204074395E+01 0.  0.
     999903    2    3    3    0    0 -0.11421573722E+00 -0.54481088199E-01  0.11499918787E-02  0.12813416167E+00  0.20090229072E-01 0.  0.
         14    1    1    2    0    0 -0.21244526882E-01 -0.73635284991E-02  0.59465975009E-02  0.23257547081E-01  0.00000000000E+00 0. -1.
     999901    1    3    3    0    0  0.13546026411E+00  0.61844616698E-01 -0.70965893796E-02  0.89253829125E+00  0.88000000000E+00 0. -1.
        -11    1    4    4    0    0 -0.94374742921E-01 -0.43646173028E-01 -0.67057931190E-02  0.10419601386E+00  0.51100000000E-03 0.  1.
         11    1    4    4    0    0 -0.19840994304E-01 -0.10834915171E-01  0.78557849978E-02  0.23938147812E-01  0.51100000000E-03 0. -1.
</event>
<event>
 8    1  0.1052028E+005  0.1043930E+01  0.7957747E-01            NaN
         13   -1    0    0    0    0  0.00000000000E+00  0.00000000000E+00  0.74505805969E-08  0.10566000000E+00  0.10566000000E+00 0.  1.
     999900   -1    0    0    0    0 -0.00000000000E+00 -0.00000000000E+00 -0.74505805969E-08  0.93827000000E+00  0.93827000000E+00 0. -1.
     999902    2    1    2    0    0  0.11378617294E-01  0.13718391439E-01 -0.15719336585E-01  0.10201652206E+01  0.10198883825E+01 0.  0.
     999903    2    3    3    0    0  0.15104987947E-01 -0.91068934186E-01 -0.90648838654E-01  0.13077852200E+00  0.19081363459E-01 0.  0.
         14    1    1    2    0    0 -0.11378617294E-01 -0.13718391439E-01  0.15719336585E-01  0.23764779357E-01  0.00000000000E+00 0.  1.
     999901    1    3    3    0    0 -0.37263706523E-02  0.10478732563E+00  0.74929502069E-01  0.88938669865E+00  0.88000000000E+00 0. -1.
        -11    1    4    4    0    0  0.14989943781E-01 -0.69162522700E-01 -0.58220698145E-01  0.91640950313E-01  0.51100000000E-03 0. -1.
         11    1    4    4    0    0  0.11504416601E-03 -0.21906411486E-01 -0.32428140510E-01  0.39137571684E-01  0.51100000000E-03 0.  1.
</event>
<event>
 8    1  0.1052028E+005  0.1043930E+01  0.7957747E-01            NaN
         13   -1    0    0    0    0  0.00000000000E+00  0.00000000000E+00  0.74505805969E-08  0.10566000000E+00  0.10566000000E+00 0. -1.
     999900   -1    0    0    0    0 -0.00000000000E+00 -0.00000000000E+00 -0.74505805969E-08  0.93827000000E+00  0.93827000000E+00 0.  1.
     999902    2    1    2    0    0  0.14050365432E-02 -0.14002656141E-01  0.18991171433E-01  0.10202928873E+01  0.10200190502E+01 0.  0.
     999903    2    3    3    0    0 -0.11255145190E+00  0.55283574144E-01  0.28663383241E-01  0.13019164883E+00  0.20104054075E-01 0.  0.
         14    1    1    2    0    0 -0.14050365432E-02  0.14002656141E-01 -0.18991171433E-01  0.23637112749E-01  0.00000000000E+00 0.  1.
     999901    1    3    3    0    0  0.11395648844E+00 -0.69286230285E-01 -0.96722118073E-02  0.89010123843E+00  0.88000000000E+00 0.  1.
        -11    1    4    4    0    0 -0.50027690895E-01  0.35450754859E-01  0.11481245153E-01  0.62382737897E-01  0.51100000000E-03 0. -1.
         11    1    4    4    0    0 -0.62523761005E-01  0.19832819285E-01  0.17182138088E-01  0.67808910928E-01  0.51100000000E-03 0.  1.
</event>
<event>
 8    1  0.1052028E+005  0.1043930E+01  0.7957747E-01            NaN
         13   -1    0    0    0    0  0.00000000000E+00  0.00000000000E+00  0.74505805969E-08  0.10566000000E+00  0.10566000000E+00 0. -1.
     999900   -1    0    0    0    0 -0.00000000000E+00 -0.00000000000E+00 -0.74505805969E-08  0.93827000000E+00  0.93827000000E+00 0. -1.
     999902    2    1    2    0    0  0.19519931107E-01  0.13182295384E-01  0.43601497086E-05  0.10203757936E+01  0.10201038964E+01 0.  0.
     999903    2    3    3    0    0 -0.15334102594E-01 -0.73845598491E-01 -0.10321473585E+00  0.12939720810E+00  0.20051150793E-01 0.  0.
         14    1    1    2    0    0 -0.19519931107E-01 -0.13182295384E-01 -0.43601497086E-05  0.23554206440E-01  0.00000000000E+00 0. -1.
     999901    1    3    3    0    0  0.34854033700E-01  0.87027893875E-01  0.10321909600E+00  0.89097858546E+00  0.88000000000E+00 0.  1.
        -11    1    4    4    0    0 -0.85928776485E-02 -0.21577210674E-01 -0.18819793922E-01  0.29897480346E-01  0.51100000000E-03 0. -1.
         11    1    4    4    0    0 -0.67412249454E-02 -0.52268387817E-01 -0.84394941926E-01  0.99499727750E-01  0.51100000000E-03 0.  1.
</event>
<event>
 8    1  0.1052028E+005  0.1043930E+01  0.7957747E-01            NaN
         13   -1    0    0    0    0  0.00000000000E+00  0.00000000000E+00  0.74505805969E-08  0.10566000000E+00  0.10566000000E+00 0.  1.
     999900   -1    0    0    0    0 -0.00000000000E+00 -0.00000000000E+00 -0.74505805969E-08  0.93827000000E+00  0.93827000000E+00 0. -1.
     999902    2    1    2    0    0  0.12577305042E-01  0.46580774999E-02  0.18918621026E-01  0.10207394737E+01  0.10204760030E+01 0.  0.
     999903    2    3    3    0    0  0.10693718917E+00 -0.63709702386E-01  0.43802559398E-01  0.13270954660E+00  0.14095067974E-01 0.  0.
         14    1    1    2    0    0 -0.12577305042E-01 -0.46580774999E-02 -0.18918621026E-01  0.23190526290E-01  0.00000000000E+00 0. -1.
     999901    1    3    3    0    0 -0.94359884133E-01  0.68367779886E-01 -0.24883938373E-01  0.88802992711E+00  0.88000000000E+00 0. -1.
        -11    1    4    4    0    0  0.42021703887E-01 -0.26618193959E-01  0.10401698355E-01  0.50821337023E-01  0.51100000000E-03 0. -1.
         11    1    4    4    0    0  0.64915485288E-01 -0.37091508428E-01  0.33400861044E-01  0.81888209573E-01  0.51100000000E-03 0.  1.
</event>
<event>
 8    1  0.1052028E+005  0.1043930E+01  0.7957747E-01            NaN
         13   -1    0    0    0    0  0.00000000000E+00  0.00000000000E+00  0.74505805969E-08  0.10566000000E+00  0.10566000000E+00 0. -1.
     999900   -1    0    0    0    0 -0.00000000000E+00 -0.00000000000E+00 -0.74505805969E-08  0.93827000000E+00  0.93827000000E+00 0. -1.
     999902    2    1    2    0    0 -0.27036814237E-01  0.31588745480E-02  0.59479157774E-02  0.10160670225E+01  0.10156849161E+01 0.  0.
     999903    2    3    3    0    0 -0.99868383373E-02 -0.12441982451E+00 -0.51119581588E-02  0.12663498635E+00  0.20742660875E-01 0.  0.
         14    1    1    2    0    0  0.27036814237E-01 -0.31588745480E-02 -0.59479157774E-02  0.27862977489E-01  0.00000000000E+00 0. -1.
     999901    1    3    3    0    0 -0.17049975899E-01  0.12757869906E+00  0.11059873936E-01  0.88943203616E+00  0.88000000000E+00 0.  1.
        -11    1    4    4    0    0 -0.77333354687E-02 -0.48859249700E-01 -0.11436939233E-01  0.50774949126E-01  0.51100000000E-03 0. -1.
         11    1    4    4    0    0 -0.22535028685E-02 -0.75560574814E-01  0.63249810746E-02  0.75860037227E-01  0.51100000000E-03 0.  1.
</event>
<event>
 8    1  0.1052028E+005  0.1043930E+01  0.7957747E-01            NaN
         13   -1    0    0    0    0  0.00000000000E+00  0.00000000000E+00  0.74505805969E-08  0.10566000000E+00  0.10566000000E+00 0. -1.
     999900   -1    0    0    0    0 -0.00000000000E+00 -0.00000000000E+00 -0.74505805969E-08  0.93827000000E+00  0.93827000000E+00 0. -1.
     999902    2    1    2    0    0  0.10817625844E-01 -0.10940882663E-01  0.18192686458E-01  0.10201035906E+01  0.10198252977E+01 0.  0.
     999903    2    3    3    0    0 -0.21579095258E-01 -0.28617509700E-01  0.12693007847E+00  0.13264326415E+00  0.14084441397E-01 0.  0.
         14    1    1    2    0    0 -0.10817625844E-01  0.10940882663E-01 -0.18192686458E-01  0.23826409358E-01  0.00000000000E+00 0.  1.
     999901    1    3    3    0    0  0.32396721101E-01  0.17676627037E-01 -0.10873739201E+00  0.88746032650E+00  0.88000000000E+00 0. -1.
        -11    1    4    4    0    0 -0.11658238031E-01 -0.86188114798E-02  0.32203628780E-01  0.35320436760E-01  0.51100000000E-03 0.  1.
         11    1    4    4    0    0 -0.99208572262E-02 -0.19998698220E-01  0.94726449690E-01  0.97322827386E-01  0.51100000000E-03 0. -1.
</event>
<event>
 8    1  0.1052028E+005  0.1043930E+01  0.7957747E-01            NaN
         13   -1    0    0    0    0  0.00000000000E+00  0.00000000000E+00  0.74505805969E-08  0.10566000000E+00  0.10566000000E+00 0.  1.
     999900   -1    0    0    0    0 -0.00000000000E+00 -0.00000000000E+00 -0.74505805969E-08  0.93827000000E+00  0.93827000000E+00 0. -1.
     999902    2    1    2    0    0  0.53513880312E-02  0.61880054132E-02  0.22510417396E-01  0.10199790573E+01  0.10196978129E+01 0.  0.
     999903    2    3    3    0    0 -0.94327463175E-01 -0.91126595770E-03  0.89799914526E-01  0.13177066427E+00  0.20024549874E-01 0.  0.
         14    1    1    2    0    0 -0.53513880312E-02 -0.61880054132E-02 -0.22510417396E-01  0.23950942700E-01  0.00000000000E+00 0. -1.
     999901    1    3    3    0    0  0.99678851206E-01  0.70992713709E-02 -0.67289497130E-01  0.88820839303E+00  0.88000000000E+00 0.  1.
        -11    1    4    4    0    0 -0.28979716949E-01  0.66428831855E-02  0.19884389881E-01  0.35771524616E-01  0.51100000000E-03 0.  1.
         11    1    4    4    0    0 -0.65347746226E-01 -0.75541491432E-02  0.69915524645E-01  0.95999139650E-01  0.51100000000E-03 0. -1.
</event>
<event>
 8    1  0.1052028E+005  0.1043930E+01  0.7957747E-01            NaN
         13   -1    0    0    0    0  0.00000000000E+00  0.00000000000E+00  0.74505805969E-08  0.10566000000E+00  0.10566000000E+00 0. -1.
     999900   -1    0    0    0    0 -0.00000000000E+00 -0.00000000000E+00 -0.74505805969E-08  0.93827000000E+00  0.93827000000E+00 0. -1.
     999902    2    1    2    0    0 -0.26860390477E-02 -0.61446128883E-02  0.22351056213E-01  0.10205946023E+01  0.10203277912E+01 0.  0.
     999903    2    3    3    0    0 -0.11125647245E+00  0.44876488170E-01 -0.45416784963E-01  0.12987401081E+00  0.20314341594E-01 0.  0.
         14    1    1    2    0    0  0.26860390477E-02  0.61446128883E-02 -0.22351056213E-01  0.23335397729E-01  0.00000000000E+00 0.  1.
     999901    1    3    3    0    0  0.10857043340E+00 -0.51021101059E-01  0.67767841176E-01  0.89072059146E+00  0.88000000000E+00 0. -1.
        -11    1    4    4    0    0 -0.32756134789E-01  0.39491674307E-02 -0.15190874637E-01  0.36326079929E-01  0.51100000000E-03 0.  1.
         11    1    4    4    0    0 -0.78500337659E-01  0.40927320740E-01 -0.30225910326E-01  0.93547930878E-01  0.51100000000E-03 0. -1.
</event>
<event>
 8    1  0.1052028E+005  0.1043930E+01  0.7957747E-01            NaN
         13   -1    0    0    0    0  0.00000000000E+00  0.00000000000E+00  0.74505805969E-08  0.10566000000E+00  0.10566000000E+00 0.  1.
     999900   -1    0    0    0    0 -0.00000000000E+00 -0.00000000000E+00 -0.74505805969E-08  0.93827000000E+00  0.93827000000E+00 0.  1.
     999902    2    1    2    0    0 -0.10969996208E-01 -0.82788733972E-02 -0.18852962352E-01  0.10205994460E+01  0.10203327469E+01 0.  0.
     999903    2    3    3    0    0 -0.15134979000E-01 -0.52572352961E-01 -0.12035530017E+00  0.13364849807E+00  0.19585782366E-01 0.  0.
         14    1    1    2    0    0  0.10969996208E-01  0.82788733972E-02  0.18852962352E-01  0.23330554022E-01  0.00000000000E+00 0.  1.
     999901    1    3    3    0    0  0.41649827922E-02  0.44293479564E-01  0.10150233782E+00  0.88695094791E+00  0.88000000000E+00 0. -1.
        -11    1    4    4    0    0 -0.16657449422E-01 -0.22837038350E-01 -0.55634611308E-01  0.62405705173E-01  0.51100000000E-03 0.  1.
         11    1    4    4    0    0  0.15224704217E-02 -0.29735314611E-01 -0.64720688866E-01  0.71242792895E-01  0.51100000000E-03 0. -1.
</event>
<event>
 8    1  0.1052028E+005  0.1043930E+01  0.7957747E-01            NaN
         13   -1    0    0    0    0  0.00000000000E+00  0.00000000000E+00  0.74505805969E-08  0.10566000000E+00  0.10566000000E+00 0. -1.
     999900   -1    0    0    0    0 -0.00000000000E+00 -0.00000000000E+00 -0.74505805969E-08  0.93827000000E+00  0.93827000000E+00 0.  1.
     999902    2    1    2    0    0 -0.11785081788E-02 -0.13073890713E-01  0.14917198249E-01  0.10240594614E+01  0.10238666623E+01 0.  0.
     999903    2    3    3    0    0 -0.32789976457E-01 -0.12529175018E+00  0.36778706641E-01  0.13610109615E+00  0.19940659256E-01 0.  0.
         14    1    1    2    0    0  0.11785081788E-02  0.13073890713E-01 -0.14917198249E-01  0.19870538581E-01  0.00000000000E+00 0.  1.
     999901    1    3    3    0    0  0.31611468278E-01  0.11221785946E+00 -0.21861508392E-01  0.88795836527E+00  0.88000000000E+00 0.  1.
        -11    1    4    4    0    0 -0.16416752689E-01 -0.78412952473E-01  0.31794481364E-01  0.86193103266E-01  0.51100000000E-03 0.  1.
         11    1    4    4    0    0 -0.16373223769E-01 -0.46878797703E-01  0.49842252767E-02  0.49907992880E-01  0.51100000000E-03 0. -1.
</event>
<event>
 8    1  0.1052028E+005  0.1043930E+01  0.7957747E-01            NaN
         13   -1    0    0    0    0  0.00000000000E+00  0.00000000000E+00  0.74505805969E-08  0.10566000000E+00  0.10566000000E+00 0. -1.
     999900   -1    0    0    0    0 -0.00000000000E+00 -0.00000000000E+00 -0.74505805969E-08  0.93827000000E+00  0.93827000000E+00 0. -1.
     999902    2    1    2    0    0  0.42743519554E-02  0.18654351867E-01 -0.15627590773E-01  0.10192221769E+01  0.10189226513E+01 0.  0.
     999903    2    3    3    0    0 -0.41970744399E-01  0.90389112594E-01 -0.84802950986E-01  0.13239089911E+00  0.20101607156E-01 0.  0.
         14    1    1    2    0    0 -0.42743519554E-02 -0.18654351867E-01  0.15627590773E-01  0.24707823085E-01  0.00000000000E+00 0. -1.
     999901    1    3    3    0    0  0.46245096355E-01 -0.71734760727E-01  0.69175360213E-01  0.88683127781E+00  0.88000000000E+00 0.  1.
        -11    1    4    4    0    0 -0.16713169457E-01  0.34637571489E-01 -0.20383572596E-01  0.43529789165E-01  0.51100000000E-03 0.  1.
         11    1    4    4    0    0 -0.25257574942E-01  0.55751541105E-01 -0.64419378390E-01  0.88861109945E-01  0.51100000000E-03 0. -1.
</event>
<event>
 8    1  0.1052028E+005  0.1043930E+01  0.7957747E-01            NaN
         13   -1    0    0    0    0  0.00000000000E+00  0.00000000000E+00  0.74505805969E-08  0.10566000000E+00  0.10566000000E+00 0.  1.
     999900   -1    0    0    0    0 -0.00000000000E+00 -0.00000000000E+00 -0.74505805969E-08  0.93827000000E+00  0.93827000000E+00 0. -1.
     999902    2    1    2    0    0 -0.97826736449E-03 -0.22491010318E-01 -0.51157274606E-02  0.10208437872E+01  0.10205827084E+01 0.  0.
     999903    2    3    3    0    0  0.88025652270E-01  0.87448222322E-01  0.26200999886E-01  0.12899790930E+00  0.23627550956E-01 0.  0.
         14    1    1    2    0    0  0.97826736449E-03  0.22491010318E-01  0.51157274606E-02  0.23086212760E-01  0.00000000000E+00 0.  1.
     999901    1    3    3    0    0 -0.89003919634E-01 -0.10993923264E+00 -0.31316727347E-01  0.89184587794E+00  0.88000000000E+00 0. -1.
        -11    1    4    4    0    0  0.78263833320E-01  0.76491149764E-01  0.30662950782E-01  0.11365122643E+00  0.51100000000E-03 0. -1.
         11    1    4    4    0    0  0.97618189499E-02  0.10957072559E-01 -0.44619508953E-02  0.15346682868E-01  0.51100000000E-03 0.  1.
</event>
<event>
 8    1  0.1052028E+005  0.1043930E+01  0.7957747E-01            NaN
         13   -1    0    0    0    0  0.00000000000E+00  0.00000000000E+00  0.74505805969E-08  0.10566000000E+00  0.10566000000E+00 0.  1.
     999900   -1    0    0    0    0 -0.00000000000E+00 -0.00000000000E+00 -0.74505805969E-08  0.93827000000E+00  0.93827000000E+00 0.  1.
     999902    2    1    2    0    0 -0.21431186590E-01  0.95540386919E-02  0.16015042166E-02  0.10204110666E+01  0.10201399926E+01 0.  0.
     999903    2    3    3    0    0  0.91676848825E-01 -0.26177295265E-01 -0.83731060150E-01  0.12836185131E+00  0.19390178958E-01 0.  0.
         14    1    1    2    0    0  0.21431186590E-01 -0.95540386919E-02 -0.16015042166E-02  0.23518933431E-01  0.00000000000E+00 0.  1.
     999901    1    3    3    0    0 -0.11310803541E+00  0.35731333957E-01  0.85332564367E-01  0.89204921526E+00  0.88000000000E+00 0. -1.
        -11    1    4    4    0    0  0.34605123198E-02 -0.53437034072E-02 -0.33555396747E-02  0.72146433819E-02  0.51100000000E-03 0.  1.
         11    1    4    4    0    0  0.88216336505E-01 -0.20833591858E-01 -0.80375520476E-01  0.12114720793E+00  0.51100000000E-03 0. -1.
</event>
<event>
 8    1  0.1052028E+005  0.1043930E+01  0.7957747E-01            NaN
         13   -1    0    0    0    0  0.00000000000E+00  0.00000000000E+00  0.74505805969E-08  0.10566000000E+00  0.10566000000E+00 0. -1.
     999900   -1    0    0    0    0 -0.00000000000E+00 -0.00000000000E+00 -0.74505805969E-08  0.93827000000E+00  0.93827000000E+00 0. -1.
     999902    2    1    2    0    0 -0.17919814687E-01 -0.25352795029E-02 -0.14770997555E-01  0.10205691402E+01  0.10203017398E+01 0.  0.
     999903    2    3    3    0    0 -0.22605183214E-01 -0.58375361597E-01  0.11187224144E+00  0.12973886603E+00  0.19952388400E-01 0.  0.
         14    1    1    2    0    0  0.17919814687E-01  0.25352795029E-02  0.14770997555E-01  0.23360859773E-01  0.00000000000E+00 0. -1.
     999901    1    3    3    0    0  0.46853685273E-02  0.55840082094E-01 -0.12664323900E+00  0.89083027420E+00  0.88000000000E+00 0. -1.
        -11    1    4    4    0    0 -0.51828165275E-02 -0.16828373072E-01  0.15956439505E-01  0.23768146964E-01  0.51100000000E-03 0. -1.
         11    1    4    4    0    0 -0.17422366687E-01 -0.41546988524E-01  0.95915801938E-01  0.10597071906E+00  0.51100000000E-03 0.  1.
</event>
<event>
 8    1  0.1169525E+005  0.1043930E+01  0.7957747E-01            NaN
         13   -1    0    0    0    0  0.00000000000E+00  0.00000000000E+00  0.74505805969E-08  0.10566000000E+00  0.10566000000E+00 0. -1.
     999900   -1    0    0    0    0 -0.00000000000E+00 -0.00000000000E+00 -0.74505805969E-08  0.93827000000E+00  0.93827000000E+00 0.  1.
     999902    2    1    2    0    0  0.14809592244E-01  0.55374423208E-02 -0.16419225552E-01  0.10211357407E+01  0.10208812970E+01 0.  0.
     999903    2    3    3    0    0 -0.41832833469E-01 -0.10018953287E+00  0.68610023382E-01  0.12893815559E+00  0.11392287122E-01 0.  0.
         14    1    1    2    0    0 -0.14809592244E-01 -0.55374423208E-02  0.16419225552E-01  0.22794259313E-01  0.00000000000E+00 0. -1.
     999901    1    3    3    0    0  0.56642425714E-01  0.10572697519E+00 -0.85029248934E-01  0.89219758509E+00  0.88000000000E+00 0.  1.
        -11    1    4    4    0    0 -0.28913396481E-01 -0.54873801449E-01  0.40109338562E-01  0.73865680410E-01  0.51100000000E-03 0.  1.
         11    1    4    4    0    0 -0.12919436988E-01 -0.45315731423E-01  0.28500684821E-01  0.55072475183E-01  0.51100000000E-03 0. -1.
</event>
<event>
 8    1  0.1052028E+005  0.1043930E+01  0.7957747E-01            NaN
         13   -1    0    0    0    0  0.00000000000E+00  0.00000000000E+00  0.74505805969E-08  0.10566000000E+00  0.10566000000E+00 0.  1.
     999900   -1    0    0    0    0 -0.00000000000E+00 -0.00000000000E+00 -0.74505805969E-08  0.93827000000E+00  0.93827000000E+00 0. -1.
     999902    2    1    2    0    0 -0.59102873909E-02  0.21326068169E-01  0.80930225046E-02  0.10203666875E+01  0.10200945777E+01 0.  0.
     999903    2    3    3    0    0 -0.10782665015E+00 -0.48210033580E-01 -0.50122558784E-01  0.12985488619E+00  0.19980659331E-01 0.  0.
         14    1    1    2    0    0  0.59102873909E-02 -0.21326068169E-01 -0.80930225046E-02  0.23563312455E-01  0.00000000000E+00 0. -1.
     999901    1    3    3    0    0  0.10191636276E+00  0.69536101750E-01  0.58215581288E-01  0.89051180135E+00  0.88000000000E+00 0.  1.
        -11    1    4    4    0    0 -0.86791645663E-01 -0.34804444121E-01 -0.31330282325E-01  0.98620417760E-01  0.51100000000E-03 0.  1.
         11    1    4    4    0    0 -0.21035004491E-01 -0.13405589459E-01 -0.18792276459E-01  0.31234468431E-01  0.51100000000E-03 0. -1.
</event>
<event>
 8    1  0.1052028E+005  0.1043930E+01  0.7957747E-01            NaN
         13   -1    0    0    0    0  0.00000000000E+00  0.00000000000E+00  0.74505805969E-08  0.10566000000E+00  0.10566000000E+00 0.  1.
     999900   -1    0    0    0    0 -0.00000000000E+00 -0.00000000000E+00 -0.74505805969E-08  0.93827000000E+00  0.93827000000E+00 0. -1.
     999902    2    1    2    0    0 -0.20374071087E-01  0.52072378031E-02  0.11678190653E-01  0.10198759310E+01  0.10195922305E+01 0.  0.
     999903    2    3    3    0    0  0.26728626377E-02  0.16027147794E-01 -0.12608205034E+00  0.12879450061E+00  0.20671872383E-01 0.  0.
         14    1    1    2    0    0  0.20374071087E-01 -0.52072378031E-02 -0.11678190653E-01  0.24054068993E-01  0.00000000000E+00 0. -1.
     999901    1    3    3    0    0 -0.23046933724E-01 -0.10819909991E-01  0.13776024099E+00  0.89108143040E+00  0.88000000000E+00 0.  1.
        -11    1    4    4    0    0 -0.58237171166E-02  0.95833177051E-02 -0.28514994453E-01  0.30645092412E-01  0.51100000000E-03 0. -1.
         11    1    4    4    0    0  0.84965797543E-02  0.64438300893E-02 -0.97567055886E-01  0.98149408194E-01  0.51100000000E-03 0.  1.
</event>
<event>
 8    1  0.1052028E+005  0.1043930E+01  0.7957747E-01            NaN
         13   -1    0    0    0    0  0.00000000000E+00  0.00000000000E+00  0.74505805969E-08  0.10566000000E+00  0.10566000000E+00 0.  1.
     999900   -1    0    0    0    0 -0.00000000000E+00 -0.00000000000E+00 -0.74505805969E-08  0.93827000000E+00  0.93827000000E+00 0.  1.
     999902    2    1    2    0    0 -0.17446846146E-01 -0.14979234073E-01  0.33594382845E-02  0.10206909011E+01  0.10204263128E+01 0.  0.
     999903    2    3    3    0    0 -0.36957915598E-01  0.11295923573E+00 -0.47669519300E-01  0.12976279599E+00  0.20983891221E-01 0.  0.
         14    1    1    2    0    0  0.17446846146E-01  0.14979234073E-01 -0.33594382845E-02  0.23239098938E-01  0.00000000000E+00 0. -1.
     999901    1    3    3    0    0  0.19511069451E-01 -0.12793846981E+00  0.51028957585E-01  0.89092810507E+00  0.88000000000E+00 0.  1.
        -11    1    4    4    0    0 -0.25502343864E-01  0.60185867865E-01 -0.16538267591E-01  0.67427617851E-01  0.51100000000E-03 0.  1.
         11    1    4    4    0    0 -0.11455571734E-01  0.52773367869E-01 -0.31131251710E-01  0.62335178142E-01  0.51100000000E-03 0. -1.
</event>
<event>
 8    1  0.1052028E+005  0.1043930E+01  0.7957747E-01            NaN
         13   -1    0    0    0    0  0.00000000000E+00  0.00000000000E+00  0.74505805969E-08  0.10566000000E+00  0.10566000000E+00 0.  1.
     999900   -1    0    0    0    0 -0.00000000000E+00 -0.00000000000E+00 -0.74505805969E-08  0.93827000000E+00  0.93827000000E+00 0. -1.
     999902    2    1    2    0    0  0.21124976754E-01  0.98018846167E-02  0.56474078718E-02  0.10199668032E+01  0.10196852675E+01 0.  0.
     999903    2    3    3    0    0 -0.82638022304E-01 -0.22260519727E-01  0.94110305023E-01  0.12888855641E+00  0.20759021949E-01 0.  0.
         14    1    1    2    0    0 -0.21124976754E-01 -0.98018846167E-02 -0.56474078718E-02  0.23963196794E-01  0.00000000000E+00 0. -1.
     999901    1    3    3    0    0  0.10376299906E+00  0.32062404344E-01 -0.88462897152E-01  0.89107824680E+00  0.88000000000E+00 0. -1.
        -11    1    4    4    0    0 -0.66675982900E-01 -0.26146883727E-01  0.77207787761E-01  0.10531215427E+00  0.51100000000E-03 0.  1.
         11    1    4    4    0    0 -0.15962039404E-01  0.38863640004E-02  0.16902517263E-01  0.23576402141E-01  0.51100000000E-03 0. -1.
</event>
<event>
 8    1  0.1052028E+005  0.1043930E+01  0.7957747E-01            NaN
         13   -1    0    0    0    0  0.00000000000E+00  0.00000000000E+00  0.74505805969E-08  0.10566000000E+00  0.10566000000E+00 0.  1.
     999900   -1    0    0    0    0 -0.00000000000E+00 -0.00000000000E+00 -0.74505805969E-08  0.93827000000E+00  0.93827000000E+00 0.  1.
     999902    2    1    2    0    0 -0.10945306868E-01 -0.75360956044E-03  0.18461234210E-01  0.10224547855E+01  0.10222292324E+01 0.  0.
     999903    2    3    3    0    0 -0.45877119293E-01  0.65251743138E-01 -0.10201252166E+00  0.13111261552E+00  0.20529571780E-01 0.  0.
         14    1    1    2    0    0  0.10945306868E-01  0.75360956044E-03 -0.18461234210E-01  0.21475214513E-01  0.00000000000E+00 0. -1.
     999901    1    3    3    0    0  0.34931812425E-01 -0.66005352698E-01  0.12047375587E+00  0.89134216996E+00  0.88000000000E+00 0. -1.
        -11    1    4    4    0    0 -0.44741848911E-02  0.20026966045E-01 -0.32302044905E-01  0.38272456486E-01  0.51100000000E-03 0. -1.
         11    1    4    4    0    0 -0.41402934402E-01  0.45224777093E-01 -0.69710476751E-01  0.92840159037E-01  0.51100000000E-03 0.  1.
</event>
<event>
 8    1  0.1052028E+005  0.1043930E+01  0.7957747E-01            NaN
         13   -1    0    0    0    0  0.00000000000E+00  0.00000000000E+00  0.74505805969E-08  0.10566000000E+00  0.10566000000E+00 0.  1.
     999900   -1    0    0    0    0 -0.00000000000E+00 -0.00000000000E+00 -0.74505805969E-08  0.93827000000E+00  0.93827000000E+00 0.  1.
     999902    2    1    2    0    0  0.63121764697E-02 -0.20728999410E-01  0.71942033614E-02  0.10210981899E+01  0.10208428978E+01 0.  0.
     999903    2    3    3    0    0 -0.27776046556E-01  0.10722472429E+00  0.63891065684E-01  0.12938708395E+00  0.19755985360E-01 0.  0.
         14    1    1    2    0    0 -0.63121764697E-02  0.20728999410E-01 -0.71942033614E-02  0.22831810054E-01  0.00000000000E+00 0. -1.
     999901    1    3    3    0    0  0.34088223025E-01 -0.12795372370E+00 -0.56696862323E-01  0.89171110600E+00  0.88000000000E+00 0.  1.
        -11    1    4    4    0    0 -0.16920532746E-01  0.73215947414E-01  0.32605471215E-01  0.81916159934E-01  0.51100000000E-03 0. -1.
         11    1    4    4    0    0 -0.10855513810E-01  0.34008776876E-01  0.31285594470E-01  0.47470924017E-01  0.51100000000E-03 0.  1.
</event>
<event>
 8    1  0.1052028E+005  0.1043930E+01  0.7957747E-01            NaN
         13   -1    0    0    0    0  0.00000000000E+00  0.00000000000E+00  0.74505805969E-08  0.10566000000E+00  0.10566000000E+00 0. -1.
     999900   -1    0    0    0    0 -0.00000000000E+00 -0.00000000000E+00 -0.74505805969E-08  0.93827000000E+00  0.93827000000E+00 0.  1.
     999902    2    1    2    0    0  0.23789812001E-01  0.54072751260E-02 -0.19409254217E-02  0.10194563209E+01  0.10191625136E+01 0.  0.
     999903    2    3    3    0    0  0.33757925288E-02 -0.12628800678E+00 -0.18647904220E-01  0.12926560949E+00  0.20044870490E-01 0.  0.
         14    1    1    2    0    0 -0.23789812001E-01 -0.54072751260E-02  0.19409254217E-02  0.24473679144E-01  0.00000000000E+00 0.  1.
     999901    1    3    3    0    0  0.20414019473E-01  0.13169528190E+00  0.16706978799E-01  0.89019071137E+00  0.88000000000E+00 0.  1.
        -11    1    4    4    0    0  0.10991721802E-01 -0.47561522909E-01 -0.70980964440E-02  0.49331131182E-01  0.51100000000E-03 0.  1.
         11    1    4    4    0    0 -0.76159292737E-02 -0.78726483870E-01 -0.11549807776E-01  0.79934478305E-01  0.51100000000E-03 0. -1.
</event>
<event>
 8    1  0.1052028E+005  0.1043930E+01  0.7957747E-01            NaN
         13   -1    0    0    0    0  0.00000000000E+00  0.00000000000E+00  0.74505805969E-08  0.10566000000E+00  0.10566000000E+00 0.  1.
     999900   -1    0    0    0    0 -0.00000000000E+00 -0.00000000000E+00 -0.74505805969E-08  0.93827000000E+00  0.93827000000E+00 0.  1.
     999902    2    1    2    0    0 -0.15508275400E-01  0.65177740222E-02  0.17518516450E-01  0.10196424229E+01  0.10193531204E+01 0.  0.
     999903    2    3    3    0    0 -0.78220321862E-01  0.10249546575E+00  0.21179156252E-01  0.13219782271E+00  0.20098965598E-01 0.  0.
         14    1    1    2    0    0  0.15508275400E-01 -0.65177740222E-02 -0.17518516450E-01  0.24287577127E-01  0.00000000000E+00 0. -1.
     999901    1    3    3    0    0  0.62712046462E-01 -0.95977691725E-01 -0.36606398017E-02  0.88744460017E+00  0.88000000000E+00 0.  1.
        -11    1    4    4    0    0 -0.56340599302E-01  0.60206448884E-01  0.83287614092E-02  0.82877674946E-01  0.51100000000E-03 0.  1.
         11    1    4    4    0    0 -0.21879722560E-01  0.42289016863E-01  0.12850394842E-01  0.49320147761E-01  0.51100000000E-03 0. -1.
</event>
<event>
 8    1  0.1052028E+005  0.1043930E+01  0.7957747E-01            NaN
         13   -1    0    0    0    0  0.00000000000E+00  0.00000000000E+00  0.74505805969E-08  0.10566000000E+00  0.10566000000E+00 0.  1.
     999900   -1    0    0    0    0 -0.00000000000E+00 -0.00000000000E+00 -0.74505805969E-08  0.93827000000E+00  0.93827000000E+00 0.  1.
     999902    2    1    2    0    0 -0.23515350181E-01  0.23130386415E-02 -0.23088549180E-02  0.10201886299E+01  0.10199123433E+01 0.  0.
     999903    2    3    3    0    0  0.83096927064E-01  0.17644422674E-01 -0.94447446507E-01  0.12884652442E+00  0.21556478460E-01 0.  0.
         14    1    1    2    0    0  0.23515350181E-01 -0.23130386415E-02  0.23088549180E-02  0.23741370073E-01  0.00000000000E+00 0.  1.
     999901    1    3    3    0    0 -0.10661227725E+00 -0.15331384033E-01  0.92138591589E-01  0.89134210551E+00  0.88000000000E+00 0. -1.
        -11    1    4    4    0    0  0.38855443245E-01 -0.25070672388E-02 -0.44832083899E-01  0.59381880432E-01  0.51100000000E-03 0.  1.
         11    1    4    4    0    0  0.44241483819E-01  0.20151489913E-01 -0.49615362608E-01  0.69464643985E-01  0.51100000000E-03 0. -1.
</event>
<event>
 8    1  0.1052028E+005  0.1043930E+01  0.7957747E-01            NaN
         13   -1    0    0    0    0  0.00000000000E+00  0.00000000000E+00  0.74505805969E-08  0.10566000000E+00  0.10566000000E+00 0.  1.
     999900   -1    0    0    0    0 -0.00000000000E+00 -0.00000000000E+00 -0.74505805969E-08  0.93827000000E+00  0.93827000000E+00 0. -1.
     999902    2    1    2    0    0 -0.94936008832E-02  0.15581682890E-01 -0.14827967108E-01  0.10204186005E+01  0.10201477022E+01 0.  0.
     999903    2    3    3    0    0  0.29986579933E-01 -0.24700455928E-01  0.12049432530E+00  0.12828998967E+00  0.20739612349E-01 0.  0.
         14    1    1    2    0    0  0.94936008832E-02 -0.15581682890E-01  0.14827967108E-01  0.23511399533E-01  0.00000000000E+00 0.  1.
     999901    1    3    3    0    0 -0.39480180817E-01  0.40282138818E-01 -0.13532229241E+00  0.89212861080E+00  0.88000000000E+00 0. -1.
        -11    1    4    4    0    0  0.20957436915E-01 -0.25349320714E-01  0.10768004728E+00  0.11259243281E+00  0.51100000000E-03 0. -1.
         11    1    4    4    0    0  0.90291430183E-02  0.64886478620E-03  0.12814278020E-01  0.15697556859E-01  0.51100000000E-03 0.  1.
</event>
<event>
 8    1  0.1052028E+005  0.1043930E+01  0.7957747E-01            NaN
         13   -1    0    0    0    0  0.00000000000E+00  0.00000000000E+00  0.74505805969E-08  0.10566000000E+00  0.10566000000E+00 0.  1.
     999900   -1    0    0    0    0 -0.00000000000E+00 -0.00000000000E+00 -0.74505805969E-08  0.93827000000E+00  0.93827000000E+00 0. -1.
     999902    2    1    2    0    0 -0.86802439539E-02 -0.31771268726E-01  0.34353572822E-02  0.10108156250E+01  0.10102730650E+01 0.  0.
     999903    2    3    3    0    0 -0.35974158243E-01  0.41632902256E-01  0.10640428723E+00  0.12135751435E+00  0.19450844149E-01 0.  0.
         14    1    1    2    0    0  0.86802439539E-02  0.31771268726E-01 -0.34353572822E-02  0.33114374993E-01  0.00000000000E+00 0. -1.
     999901    1    3    3    0    0  0.27293914289E-01 -0.73404170981E-01 -0.10296892994E+00  0.88945811065E+00  0.88000000000E+00 0. -1.
        -11    1    4    4    0    0 -0.14077446137E-01  0.27012198205E-01  0.42965289629E-01  0.52669826044E-01  0.51100000000E-03 0.  1.
         11    1    4    4    0    0 -0.21896712106E-01  0.14620704051E-01  0.63438997598E-01  0.68687688309E-01  0.51100000000E-03 0. -1.
</event>
<event>
 8    1  0.1052028E+005  0.1043930E+01  0.7957747E-01            NaN
         13   -1    0    0    0    0  0.00000000000E+00  0.00000000000E+00  0.74505805969E-08  0.10566000000E+00  0.10566000000E+00 0. -1.
     999900   -1    0    0    0    0 -0.00000000000E+00 -0.00000000000E+00 -0.74505805969E-08  0.93827000000E+00  0.93827000000E+00 0. -1.
     999902    2    1    2    0    0  0.22304272008E-01 -0.97716713435E-02  0.98103699483E-02  0.10176772007E+01  0.10173385255E+01 0.  0.
     999903    2    3    3    0    0 -0.20715441732E-01 -0.10459074607E+00  0.70360980476E-01  0.12947242191E+00  0.21073366403E-01 0.  0.
         14    1    1    2    0    0 -0.22304272008E-01  0.97716713435E-02 -0.98103699483E-02  0.26252799264E-01  0.00000000000E+00 0. -1.
     999901    1    3    3    0    0  0.43019713740E-01  0.94819074724E-01 -0.60550610528E-01  0.88820477883E+00  0.88000000000E+00 0. -1.
        -11    1    4    4    0    0 -0.80480826250E-04 -0.23040480350E-01  0.24601497597E-01  0.33710013600E-01  0.51100000000E-03 0. -1.
         11    1    4    4    0    0 -0.20634960906E-01 -0.81550265717E-01  0.45759482880E-01  0.95762408306E-01  0.51100000000E-03 0.  1.
</event>
<event>
 8    1  0.1052028E+005  0.1043930E+01  0.7957747E-01            NaN
         13   -1    0    0    0    0  0.00000000000E+00  0.00000000000E+00  0.74505805969E-08  0.10566000000E+00  0.10566000000E+00 0.  1.
     999900   -1    0    0    0    0 -0.00000000000E+00 -0.00000000000E+00 -0.74505805969E-08  0.93827000000E+00  0.93827000000E+00 0. -1.
     999902    2    1    2    0    0  0.93337492797E-02 -0.19749679517E-01  0.49275309983E-02  0.10215369368E+01  0.10212914687E+01 0.  0.
     999903    2    3    3    0    0 -0.33069329609E-01  0.63454618528E-01  0.10734289062E+00  0.13068909224E+00  0.20906302668E-01 0.  0.
         14    1    1    2    0    0 -0.93337492797E-02  0.19749679517E-01 -0.49275309983E-02  0.22393063175E-01  0.00000000000E+00 0. -1.
     999901    1    3    3    0    0  0.42403078888E-01 -0.83204298044E-01 -0.10241535962E+00  0.89084784458E+00  0.88000000000E+00 0. -1.
        -11    1    4    4    0    0 -0.30910048970E-01  0.48472187616E-01  0.95471194641E-01  0.11144502782E+00  0.51100000000E-03 0.  1.
         11    1    4    4    0    0 -0.21592806383E-02  0.14982430912E-01  0.11871695978E-01  0.19244064417E-01  0.51100000000E-03 0. -1.
</event>
<event>
 8    1  0.1052028E+005  0.1043930E+01  0.7957747E-01            NaN
         13   -1    0    0    0    0  0.00000000000E+00  0.00000000000E+00  0.74505805969E-08  0.10566000000E+00  0.10566000000E+00 0.  1.
     999900   -1    0    0    0    0 -0.00000000000E+00 -0.00000000000E+00 -0.74505805969E-08  0.93827000000E+00  0.93827000000E+00 0. -1.
     999902    2    1    2    0    0  0.22499569437E-01 -0.56950808769E-02  0.77856750181E-03  0.10207077964E+01  0.10204435972E+01 0.  0.
     999903    2    3    3    0    0  0.54794491969E-01 -0.95392331196E-01  0.71915349895E-01  0.13270498082E+00  0.18348329138E-01 0.  0.
         14    1    1    2    0    0 -0.22499569437E-01  0.56950808769E-02 -0.77856750181E-03  0.23222203564E-01  0.00000000000E+00 0. -1.
     999901    1    3    3    0    0 -0.32294922532E-01  0.89697250319E-01 -0.71136782394E-01  0.88800281562E+00  0.88000000000E+00 0. -1.
        -11    1    4    4    0    0  0.22986713765E-02 -0.17120889287E-01  0.11031007852E-01  0.20502511927E-01  0.51100000000E-03 0. -1.
         11    1    4    4    0    0  0.52495820592E-01 -0.78271441908E-01  0.60884342044E-01  0.11220246889E+00  0.51100000000E-03 0.  1.
</event>
<event>
 8    1  0.1052028E+005  0.1043930E+01  0.7957747E-01            NaN
         13   -1    0    0    0    0  0.00000000000E+00  0.00000000000E+00  0.74505805969E-08  0.10566000000E+00  0.10566000000E+00 0.  1.
     999900   -1    0    0    0    0 -0.00000000000E+00 -0.00000000000E+00 -0.74505805969E-08  0.93827000000E+00  0.93827000000E+00 0. -1.
     999902    2    1    2    0    0 -0.20636336418E-02 -0.22733398676E-01 -0.68676332913E-02  0.10200924165E+01  0.10198138594E+01 0.  0.
     999903    2    3    3    0    0 -0.78435358218E-01  0.36520284497E-01  0.93594214952E-01  0.12911754469E+00  0.20630721625E-01 0.  0.
         14    1    1    2    0    0  0.20636336418E-02  0.22733398676E-01  0.68676332913E-02  0.23837583481E-01  0.00000000000E+00 0.  1.
     999901    1    3    3    0    0  0.76371724577E-01 -0.59253683174E-01 -0.10046184824E+00  0.89097487183E+00  0.88000000000E+00 0. -1.
        -11    1    4    4    0    0 -0.45464555653E-01  0.31792614116E-01  0.54760126299E-01  0.77953375080E-01  0.51100000000E-03 0.  1.
         11    1    4    4    0    0 -0.32970802566E-01  0.47276703817E-02  0.38834088653E-01  0.51164169607E-01  0.51100000000E-03 0. -1.
</event>
<event>
 8    1  0.1052028E+005  0.1043930E+01  0.7957747E-01            NaN
         13   -1    0    0    0    0  0.00000000000E+00  0.00000000000E+00  0.74505805969E-08  0.10566000000E+00  0.10566000000E+00 0. -1.
     999900   -1    0    0    0    0 -0.00000000000E+00 -0.00000000000E+00 -0.74505805969E-08  0.93827000000E+00  0.93827000000E+00 0.  1.
     999902    2    1    2    0    0 -0.89055376562E-03 -0.59574679477E-02  0.19194462349E-01  0.10238125475E+01  0.10236148790E+01 0.  0.
     999903    2    3    3    0    0  0.70523755015E-01  0.28443599006E-01  0.11030503410E+00  0.13556451165E+00  0.20685693708E-01 0.  0.
         14    1    1    2    0    0  0.89055376562E-03  0.59574679477E-02 -0.19194462349E-01  0.20117452503E-01  0.00000000000E+00 0.  1.
     999901    1    3    3    0    0 -0.71414308780E-01 -0.34401066954E-01 -0.91110571752E-01  0.88824803585E+00  0.88000000000E+00 0.  1.
        -11    1    4    4    0    0  0.39826411471E-01  0.59489270146E-02  0.64118510871E-01  0.75716427152E-01  0.51100000000E-03 0.  1.
         11    1    4    4    0    0  0.30697343544E-01  0.22494671992E-01  0.46186523230E-01  0.59848084495E-01  0.51100000000E-03 0. -1.
</event>
<event>
 8    1  0.1052028E+005  0.1043930E+01  0.7957747E-01            NaN
         13   -1    0    0    0    0  0.00000000000E+00  0.00000000000E+00  0.74505805969E-08  0.10566000000E+00  0.10566000000E+00 0.  1.
     999900   -1    0    0    0    0 -0.00000000000E+00 -0.00000000000E+00 -0.74505805969E-08  0.93827000000E+00  0.93827000000E+00 0. -1.
     999902    2    1    2    0    0  0.17529401669E-01 -0.10748783290E-01  0.11482281279E-01  0.10203787994E+01  0.10201069725E+01 0.  0.
     999903    2    3    3    0    0  0.10081832829E+00 -0.34485192849E-01 -0.75848756995E-01  0.13182538365E+00  0.16472218787E-01 0.  0.
         14    1    1    2    0    0 -0.17529401669E-01  0.10748783290E-01 -0.11482281279E-01  0.23551200574E-01  0.00000000000E+00 0. -1.
     999901    1    3    3    0    0 -0.83288926625E-01  0.23736409558E-01  0.87331038274E-01  0.88855341577E+00  0.88000000000E+00 0.  1.
        -11    1    4    4    0    0  0.47644375037E-01 -0.17047016700E-01 -0.46062157200E-01  0.68429311687E-01  0.51100000000E-03 0.  1.
         11    1    4    4    0    0  0.53173953257E-01 -0.17438176149E-01 -0.29786599795E-01  0.63396071966E-01  0.51100000000E-03 0. -1.
</event>
<event>
 8    1  0.1052028E+005  0.1043930E+01  0.7957747E-01            NaN
         13   -1    0    0    0    0  0.00000000000E+00  0.00000000000E+00  0.74505805969E-08  0.10566000000E+00  0.10566000000E+00 0.  1.
     999900   -1    0    0    0    0 -0.00000000000E+00 -0.00000000000E+00 -0.74505805969E-08  0.93827000000E+00  0.93827000000E+00 0.  1.
     999902    2    1    2    0    0  0.41929448204E-02  0.39739639072E-03  0.23448920736E-01  0.10201058401E+01  0.10198276004E+01 0.  0.
     999903    2    3    3    0    0  0.75311062698E-01 -0.94852219137E-01 -0.43524977909E-01  0.12959150613E+00  0.15193258994E-01 0.  0.
         14    1    1    2    0    0 -0.41929448204E-02 -0.39739639072E-03 -0.23448920736E-01  0.23824159877E-01  0.00000000000E+00 0. -1.
     999901    1    3    3    0    0 -0.71118117878E-01  0.95249615528E-01  0.66973898645E-01  0.89051433399E+00  0.88000000000E+00 0. -1.
        -11    1    4    4    0    0  0.62456496179E-01 -0.86430251871E-01 -0.36779663363E-01  0.11280074074E+00  0.51100000000E-03 0. -1.
         11    1    4    4    0    0  0.12854566519E-01 -0.84219672667E-02 -0.67453145457E-02  0.16790765389E-01  0.51100000000E-03 0.  1.
</event>
<event>
 8    1  0.1052028E+005  0.1043930E+01  0.7957747E-01            NaN
         13   -1    0    0    0    0  0.00000000000E+00  0.00000000000E+00  0.74505805969E-08  0.10566000000E+00  0.10566000000E+00 0. -1.
     999900   -1    0    0    0    0 -0.00000000000E+00 -0.00000000000E+00 -0.74505805969E-08  0.93827000000E+00  0.93827000000E+00 0. -1.
     999902    2    1    2    0    0  0.18770296800E-01 -0.15303942092E-02 -0.13232335154E-01  0.10209134659E+01  0.10206539786E+01 0.  0.
     999903    2    3    3    0    0 -0.39226046043E-01  0.15234132589E-01 -0.12340330702E+00  0.13199149622E+00  0.20557660534E-01 0.  0.
         14    1    1    2    0    0 -0.18770296800E-01  0.15303942092E-02  0.13232335154E-01  0.23016534101E-01  0.00000000000E+00 0. -1.
     999901    1    3    3    0    0  0.57996342843E-01 -0.16764526799E-01  0.11017097186E+00  0.88892196968E+00  0.88000000000E+00 0. -1.
        -11    1    4    4    0    0 -0.36307000002E-01  0.15752893710E-01 -0.88367937205E-01  0.96827193269E-01  0.51100000000E-03 0. -1.
         11    1    4    4    0    0 -0.29190460401E-02 -0.51876112022E-03 -0.35035369813E-01  0.35164302948E-01  0.51100000000E-03 0.  1.
</event>
<event>
 8    1  0.1052028E+005  0.1043930E+01  0.7957747E-01            NaN
         13   -1    0    0    0    0  0.00000000000E+00  0.00000000000E+00  0.74505805969E-08  0.10566000000E+00  0.10566000000E+00 0. -1.
     999900   -1    0    0    0    0 -0.00000000000E+00 -0.00000000000E+00 -0.74505805969E-08  0.93827000000E+00  0.93827000000E+00 0.  1.
     999902    2    1    2    0    0  0.21831582827E-01  0.48760148877E-02 -0.11108375341E-01  0.10189542211E+01  0.10186480821E+01 0.  0.
     999903    2    3    3    0    0  0.12022180747E+00  0.32796617694E-01 -0.40536992869E-01  0.13254221761E+00  0.19881914768E-01 0.  0.
         14    1    1    2    0    0 -0.21831582827E-01 -0.48760148877E-02  0.11108375341E-01  0.24975778920E-01  0.00000000000E+00 0. -1.
     999901    1    3    3    0    0 -0.98390224642E-01 -0.27920602806E-01  0.29428617528E-01  0.88641200347E+00  0.88000000000E+00 0.  1.
        -11    1    4    4    0    0  0.44036995464E-01  0.26485377115E-02 -0.17145283253E-01  0.47333852371E-01  0.51100000000E-03 0.  1.
         11    1    4    4    0    0  0.76184812005E-01  0.30148079982E-01 -0.23391709616E-01  0.85208365239E-01  0.51100000000E-03 0. -1.
</event>
<event>
 7    1  0.1052028E+005  0.1043930E+01  0.7957747E-01            NaN
         13   -1    0    0    0    0  0.00000000000E+00  0.00000000000E+00  0.74505805969E-08  0.10566000000E+00  0.10566000000E+00 0.  1.
     999900   -1    0    0    0    0 -0.00000000000E+00 -0.00000000000E+00 -0.74505805969E-08  0.93827000000E+00  0.93827000000E+00 0. -1.
     999903    2    1    2    0    0 -0.10302987855E+00  0.29933378121E-01 -0.24774317011E-01  0.11183936997E+00  0.19573320929E-01 0.  0.
         14    1    1    2    0    0  0.25122529670E-01  0.37503508279E-01  0.84727545210E-02  0.45928664246E-01  0.00000000000E+00 0. -1.
     999901    1    1    2    0    0  0.77907348884E-01 -0.67436886400E-01  0.16301562490E-01  0.88616196578E+00  0.88000000000E+00 0.  1.
        -11    1    3    3    0    0 -0.38509121850E-01  0.15274425056E-01 -0.18505895658E-01  0.45376093062E-01  0.51100000000E-03 0. -1.
         11    1    3    3    0    0 -0.64520756703E-01  0.14658953064E-01 -0.62684213531E-02  0.66463276911E-01  0.51100000000E-03 0.  1.
</event>
<event>
 8    1  0.1052028E+005  0.1043930E+01  0.7957747E-01            NaN
         13   -1    0    0    0    0  0.00000000000E+00  0.00000000000E+00  0.74505805969E-08  0.10566000000E+00  0.10566000000E+00 0. -1.
     999900   -1    0    0    0    0 -0.00000000000E+00 -0.00000000000E+00 -0.74505805969E-08  0.93827000000E+00  0.93827000000E+00 0.  1.
     999902    2    1    2    0    0  0.20207016385E-01 -0.31470325674E-03  0.11538440883E-01  0.10206585977E+01  0.10203932648E+01 0.  0.
     999903    2    3    3    0    0  0.11329965223E+00  0.83079950822E-02 -0.64950993363E-01  0.13240681841E+00  0.20176720334E-01 0.  0.
         14    1    1    2    0    0 -0.20207016385E-01  0.31470325674E-03 -0.11538440883E-01  0.23271402350E-01  0.00000000000E+00 0.  1.
     999901    1    3    3    0    0 -0.93092635850E-01 -0.86226983389E-02  0.76489434245E-01  0.88825177924E+00  0.88000000000E+00 0. -1.
        -11    1    4    4    0    0  0.69450063480E-01  0.37479326020E-02 -0.50705114883E-01  0.86073387946E-01  0.51100000000E-03 0.  1.
         11    1    4    4    0    0  0.43849588755E-01  0.45600624802E-02 -0.14245878480E-01  0.46333430463E-01  0.51100000000E-03 0. -1.
</event>
<event>
 8    1  0.1052028E+005  0.1043930E+01  0.7957747E-01            NaN
         13   -1    0    0    0    0  0.00000000000E+00  0.00000000000E+00  0.74505805969E-08  0.10566000000E+00  0.10566000000E+00 0.  1.
     999900   -1    0    0    0    0 -0.00000000000E+00 -0.00000000000E+00 -0.74505805969E-08  0.93827000000E+00  0.93827000000E+00 0.  1.
     999902    2    1    2    0    0  0.12758191819E-01 -0.10501041423E-01 -0.16264170100E-01  0.10207445184E+01  0.10204811636E+01 0.  0.
     999903    2    3    3    0    0 -0.85028471063E-01 -0.47616184552E-01  0.82279069729E-01  0.12908845497E+00  0.19920892729E-01 0.  0.
         14    1    1    2    0    0 -0.12758191819E-01  0.10501041423E-01  0.16264170100E-01  0.23185481632E-01  0.00000000000E+00 0.  1.
     999901    1    3    3    0    0  0.97786662882E-01  0.37115143129E-01 -0.98543239829E-01  0.89165606340E+00  0.88000000000E+00 0.  1.
        -11    1    4    4    0    0 -0.59879867524E-01 -0.41019870773E-01  0.52665853867E-01  0.89678211498E-01  0.51100000000E-03 0.  1.
         11    1    4    4    0    0 -0.25148603539E-01 -0.65963137790E-02  0.29613215862E-01  0.39410243467E-01  0.51100000000E-03 0. -1.
</event>
<event>
 8    1  0.1052028E+005  0.1043930E+01  0.7957747E-01            NaN
         13   -1    0    0    0    0  0.00000000000E+00  0.00000000000E+00  0.74505805969E-08  0.10566000000E+00  0.10566000000E+00 0.  1.
     999900   -1    0    0    0    0 -0.00000000000E+00 -0.00000000000E+00 -0.74505805969E-08  0.93827000000E+00  0.93827000000E+00 0. -1.
     999902    2    1    2    0    0 -0.18436150642E-01 -0.29607551499E-02  0.14345568270E-01  0.10203831732E+01  0.10201114484E+01 0.  0.
     999903    2    3    3    0    0 -0.10686003966E+00  0.72974089645E-01 -0.17605129903E-01  0.13212322710E+00  0.20057933674E-01 0.  0.
         14    1    1    2    0    0  0.18436150642E-01  0.29607551499E-02 -0.14345568270E-01  0.23546826762E-01  0.00000000000E+00 0.  1.
     999901    1    3    3    0    0  0.88423889022E-01 -0.75934844794E-01  0.31950698173E-01  0.88825994614E+00  0.88000000000E+00 0. -1.
        -11    1    4    4    0    0 -0.13981576124E-01  0.12479131756E-01  0.40597924797E-02  0.19182185389E-01  0.51100000000E-03 0.  1.
         11    1    4    4    0    0 -0.92878463540E-01  0.60494957888E-01 -0.21664922382E-01  0.11294104171E+00  0.51100000000E-03 0. -1.
</event>
<event>
 8    1  0.1052028E+005  0.1043930E+01  0.7957747E-01            NaN
         13   -1    0    0    0    0  0.00000000000E+00  0.00000000000E+00  0.74505805969E-08  0.10566000000E+00  0.10566000000E+00 0.  1.
     999900   -1    0    0    0    0 -0.00000000000E+00 -0.00000000000E+00 -0.74505805969E-08  0.93827000000E+00  0.93827000000E+00 0.  1.
     999902    2    1    2    0    0 -0.15914354453E-02  0.26235934491E-03 -0.22901460085E-01  0.10209718125E+01  0.10207136540E+01 0.  0.
     999903    2    3    3    0    0  0.91682288842E-01  0.86991405655E-01  0.25301220551E-01  0.13049698774E+00  0.20400129952E-01 0.  0.
         14    1    1    2    0    0  0.15914354453E-02 -0.26235934491E-03  0.22901460085E-01  0.22958187499E-01  0.00000000000E+00 0.  1.
     999901    1    3    3    0    0 -0.93273724288E-01 -0.86729046311E-01 -0.48202680636E-01  0.89047482476E+00  0.88000000000E+00 0.  1.
        -11    1    4    4    0    0  0.31259106401E-01  0.37060533198E-01  0.12406146354E-02  0.48501702028E-01  0.51100000000E-03 0. -1.
         11    1    4    4    0    0  0.60423182441E-01  0.49930872458E-01  0.24060605916E-01  0.81995285710E-01  0.51100000000E-03 0.  1.
</event>
<event>
 8    1  0.1052028E+005  0.1043930E+01  0.7957747E-01            NaN
         13   -1    0    0    0    0  0.00000000000E+00  0.00000000000E+00  0.74505805969E-08  0.10566000000E+00  0.10566000000E+00 0. -1.
     999900   -1    0    0    0    0 -0.00000000000E+00 -0.00000000000E+00 -0.74505805969E-08  0.93827000000E+00  0.93827000000E+00 0. -1.
     999902    2    1    2    0    0 -0.12583552684E-01  0.11808461555E-01 -0.17042800040E-01  0.10196762870E+01  0.10193878004E+01 0.  0.
     999903    2    3    3    0    0  0.97503094153E-01  0.83453032313E-01 -0.24530753649E-02  0.12980838981E+00  0.19311616061E-01 0.  0.
         14    1    1    2    0    0  0.12583552684E-01 -0.11808461555E-01  0.17042800040E-01  0.24253713028E-01  0.00000000000E+00 0. -1.
     999901    1    3    3    0    0 -0.11008664684E+00 -0.71644570759E-01 -0.14589724675E-01  0.88986789716E+00  0.88000000000E+00 0.  1.
        -11    1    4    4    0    0  0.43194122046E-01  0.49642566450E-01 -0.73198811257E-03  0.65809676421E-01  0.51100000000E-03 0.  1.
         11    1    4    4    0    0  0.54308972108E-01  0.33810465863E-01 -0.17210872523E-02  0.63998713390E-01  0.51100000000E-03 0. -1.
</event>
<event>
 8    1  0.1052028E+005  0.1043930E+01  0.7957747E-01            NaN
         13   -1    0    0    0    0  0.00000000000E+00  0.00000000000E+00  0.74505805969E-08  0.10566000000E+00  0.10566000000E+00 0. -1.
     999900   -1    0    0    0    0 -0.00000000000E+00 -0.00000000000E+00 -0.74505805969E-08  0.93827000000E+00  0.93827000000E+00 0.  1.
     999902    2    1    2    0    0  0.20135004546E-01 -0.46890571857E-03  0.13489490268E-01  0.10196894425E+01  0.10194012726E+01 0.  0.
     999903    2    3    3    0    0  0.22892919354E-01 -0.12471992968E+00  0.25345538575E-01  0.13087760136E+00  0.20184241296E-01 0.  0.
         14    1    1    2    0    0 -0.20135004546E-01  0.46890571857E-03 -0.13489490268E-01  0.24240557509E-01  0.00000000000E+00 0.  1.
     999901    1    3    3    0    0 -0.27579148078E-02  0.12425102396E+00 -0.11856048308E-01  0.88881184113E+00  0.88000000000E+00 0.  1.
        -11    1    4    4    0    0  0.11067880578E-01 -0.56044988823E-01  0.12543425938E-02  0.57143444498E-01  0.51100000000E-03 0.  1.
         11    1    4    4    0    0  0.11825038776E-01 -0.68674940857E-01  0.24091195982E-01  0.73734156865E-01  0.51100000000E-03 0. -1.
</event>
<event>
 8    1  0.1052028E+005  0.1043930E+01  0.7957747E-01            NaN
         13   -1    0    0    0    0  0.00000000000E+00  0.00000000000E+00  0.74505805969E-08  0.10566000000E+00  0.10566000000E+00 0. -1.
     999900   -1    0    0    0    0 -0.00000000000E+00 -0.00000000000E+00 -0.74505805969E-08  0.93827000000E+00  0.93827000000E+00 0.  1.
     999902    2    1    2    0    0  0.20188710956E-02 -0.10458783061E-01 -0.21232288243E-01  0.10201755889E+01  0.10198989950E+01 0.  0.
     999903    2    3    3    0    0  0.10779063978E+00  0.62413642790E-01  0.29189620884E-01  0.12942285865E+00  0.19594834555E-01 0.  0.
         14    1    1    2    0    0 -0.20188710956E-02  0.10458783061E-01  0.21232288243E-01  0.23754411120E-01  0.00000000000E+00 0. -1.
     999901    1    3    3    0    0 -0.10577176869E+00 -0.72872425850E-01 -0.50421909128E-01  0.89075273023E+00  0.88000000000E+00 0.  1.
        -11    1    4    4    0    0  0.53657851727E-02  0.86597907985E-02  0.44693795307E-02  0.11136431277E-01  0.51100000000E-03 0.  1.
         11    1    4    4    0    0  0.10242485461E+00  0.53753851991E-01  0.24720241354E-01  0.11828642737E+00  0.51100000000E-03 0. -1.
</event>
<event>
 8    1  0.1052028E+005  0.1043930E+01  0.7957747E-01            NaN
         13   -1    0    0    0    0  0.00000000000E+00  0.00000000000E+00  0.74505805969E-08  0.10566000000E+00  0.10566000000E+00 0. -1.
     999900   -1    0    0    0    0 -0.00000000000E+00 -0.00000000000E+00 -0.74505805969E-08  0.93827000000E+00  0.93827000000E+00 0.  1.
     999902    2    1    2    0    0 -0.62333307670E-02  0.21305368014E-01  0.76407324253E-02  0.10204533326E+01  0.10201832434E+01 0.  0.
     999903    2    3    3    0    0 -0.45501468482E-01 -0.11616150595E+00  0.74513052353E-02  0.12891580456E+00  0.31620936368E-01 0.  0.
         14    1    1    2    0    0  0.62333307670E-02 -0.21305368014E-01 -0.76407324253E-02  0.23476667367E-01  0.00000000000E+00 0.  1.
     999901    1    3    3    0    0  0.39268137715E-01  0.13746687397E+00  0.18942718997E-03  0.89153752807E+00  0.88000000000E+00 0. -1.
        -11    1    4    4    0    0 -0.40991841513E-01 -0.67356495866E-01  0.11708867249E-01  0.79715665331E-01  0.51100000000E-03 0. -1.
         11    1    4    4    0    0 -0.45096269696E-02 -0.48805010086E-01 -0.42575620140E-02  0.49200139230E-01  0.51100000000E-03 0.  1.
</event>
<event>
 8    1  0.1052028E+005  0.1043930E+01  0.7957747E-01            NaN
         13   -1    0    0    0    0  0.00000000000E+00  0.00000000000E+00  0.74505805969E-08  0.10566000000E+00  0.10566000000E+00 0.  1.
     999900   -1    0    0    0    0 -0.00000000000E+00 -0.00000000000E+00 -0.74505805969E-08  0.93827000000E+00  0.93827000000E+00 0.  1.
     999902    2    1    2    0    0  0.15680392456E-01  0.88589457062E-02 -0.13715312991E-01  0.10212923005E+01  0.10210413790E+01 0.  0.
     999903    2    3    3    0    0  0.12171994462E+00  0.38446920249E-01  0.33310782418E-01  0.13318685155E+00  0.18308976121E-01 0.  0.
         14    1    1    2    0    0 -0.15680392456E-01 -0.88589457062E-02  0.13715312991E-01  0.22637699464E-01  0.00000000000E+00 0.  1.
     999901    1    3    3    0    0 -0.10603955216E+00 -0.29587974543E-01 -0.47026095409E-01  0.88810544898E+00  0.88000000000E+00 0.  1.
        -11    1    4    4    0    0  0.73448912159E-01  0.29182418631E-01  0.27531866217E-01  0.83693614050E-01  0.51100000000E-03 0. -1.
         11    1    4    4    0    0  0.48271032462E-01  0.92645016182E-02  0.57789162016E-02  0.49493237504E-01  0.51100000000E-03 0.  1.
</event>
<event>
 8    1  0.1052028E+005  0.1043930E+01  0.7957747E-01            NaN
         13   -1    0    0    0    0  0.00000000000E+00  0.00000000000E+00  0.74505805969E-08  0.10566000000E+00  0.10566000000E+00 0. -1.
     999900   -1    0    0    0    0 -0.00000000000E+00 -0.00000000000E+00 -0.74505805969E-08  0.93827000000E+00  0.93827000000E+00 0.  1.
     999902    2    1    2    0    0 -0.17113243938E-01 -0.16768450960E-02  0.14414295609E-01  0.10214923788E+01  0.10212459219E+01 0.  0.
     999903    2    3    3    0    0  0.66794378263E-01  0.87191821137E-01 -0.65037629436E-01  0.12949981308E+00  0.21826719937E-01 0.  0.
         14    1    1    2    0    0  0.17113243938E-01  0.16768450960E-02 -0.14414295609E-01  0.22437621207E-01  0.00000000000E+00 0.  1.
     999901    1    3    3    0    0 -0.83907622201E-01 -0.88868666233E-01  0.79451925045E-01  0.89199256572E+00  0.88000000000E+00 0. -1.
        -11    1    4    4    0    0  0.34375507791E-01  0.27700801786E-01 -0.28066312573E-01  0.52316240097E-01  0.51100000000E-03 0. -1.
         11    1    4    4    0    0  0.32418870472E-01  0.59491019351E-01 -0.36971316863E-01  0.77183572978E-01  0.51100000000E-03 0.  1.
</event>
<event>
 8    1  0.1052028E+005  0.1043930E+01  0.7957747E-01            NaN
         13   -1    0    0    0    0  0.00000000000E+00  0.00000000000E+00  0.74505805969E-08  0.10566000000E+00  0.10566000000E+00 0.  1.
     999900   -1    0    0    0    0 -0.00000000000E+00 -0.00000000000E+00 -0.74505805969E-08  0.93827000000E+00  0.93827000000E+00 0.  1.
     999902    2    1    2    0    0 -0.18852871158E-01  0.95208918108E-02  0.10178519940E-01  0.10204847361E+01  0.10202153774E+01 0.  0.
     999903    2    3    3    0    0  0.17050645886E-01 -0.59153812249E-01  0.11393058280E+00  0.13100749182E+00  0.19821382107E-01 0.  0.
         14    1    1    2    0    0  0.18852871158E-01 -0.95208918108E-02 -0.10178519940E-01  0.23445263913E-01  0.00000000000E+00 0. -1.
     999901    1    3    3    0    0 -0.35903517043E-01  0.68674704060E-01 -0.10375206286E+00  0.88947724426E+00  0.88000000000E+00 0.  1.
        -11    1    4    4    0    0  0.13591410801E-01 -0.43717867085E-01  0.64449425406E-01  0.79056738525E-01  0.51100000000E-03 0.  1.
         11    1    4    4    0    0  0.34592350851E-02 -0.15435945164E-01  0.49481157393E-01  0.51950753300E-01  0.51100000000E-03 0. -1.
</event>
<event>
 8    1  0.1052028E+005  0.1043930E+01  0.7957747E-01            NaN
         13   -1    0    0    0    0  0.00000000000E+00  0.00000000000E+00  0.74505805969E-08  0.10566000000E+00  0.10566000000E+00 0. -1.
     999900   -1    0    0    0    0 -0.00000000000E+00 -0.00000000000E+00 -0.74505805969E-08  0.93827000000E+00  0.93827000000E+00 0.  1.
     999902    2    1    2    0    0  0.15170372442E-01 -0.11786577409E-01 -0.14177748017E-01  0.10200538163E+01  0.10197743457E+01 0.  0.
     999903    2    3    3    0    0 -0.95204767424E-01 -0.83067842390E-01  0.21482029186E-01  0.12958466475E+00  0.19144022044E-01 0.  0.
         14    1    1    2    0    0 -0.15170372442E-01  0.11786577409E-01  0.14177748017E-01  0.23876183654E-01  0.00000000000E+00 0. -1.
     999901    1    3    3    0    0  0.11037513987E+00  0.71281264982E-01 -0.35659777203E-01  0.89046915160E+00  0.88000000000E+00 0. -1.
        -11    1    4    4    0    0 -0.68742524603E-01 -0.61984097016E-01  0.71563555131E-02  0.92838771625E-01  0.51100000000E-03 0.  1.
         11    1    4    4    0    0 -0.26462242821E-01 -0.21083745375E-01  0.14325673673E-01  0.36745893122E-01  0.51100000000E-03 0. -1.
</event>
<event>
 8    1  0.1052028E+005  0.1043930E+01  0.7957747E-01            NaN
         13   -1    0    0    0    0  0.00000000000E+00  0.00000000000E+00  0.74505805969E-08  0.10566000000E+00  0.10566000000E+00 0. -1.
     999900   -1    0    0    0    0 -0.00000000000E+00 -0.00000000000E+00 -0.74505805969E-08  0.93827000000E+00  0.93827000000E+00 0.  1.
     999902    2    1    2    0    0  0.14288101325E-01 -0.93021860707E-03 -0.18926273822E-01  0.10201977648E+01  0.10199216932E+01 0.  0.
     999903    2    3    3    0    0 -0.20057764838E-01  0.12648673443E+00 -0.12926121979E-01  0.13033782063E+00  0.20485481169E-01 0.  0.
         14    1    1    2    0    0 -0.14288101325E-01  0.93021860707E-03  0.18926273822E-01  0.23732235185E-01  0.00000000000E+00 0. -1.
     999901    1    3    3    0    0  0.34345866163E-01 -0.12741695304E+00 -0.60001518427E-02  0.88985994419E+00  0.88000000000E+00 0.  1.
        -11    1    4    4    0    0 -0.32511286049E-03  0.56582658014E-01 -0.11176924038E-01  0.57679178551E-01  0.51100000000E-03 0.  1.
         11    1    4    4    0    0 -0.19732651977E-01  0.69904076420E-01 -0.17491979405E-02  0.72658642078E-01  0.51100000000E-03 0. -1.
</event>
<event>
 8    1  0.1052028E+005  0.1043930E+01  0.7957747E-01            NaN
         13   -1    0    0    0    0  0.00000000000E+00  0.00000000000E+00  0.74505805969E-08  0.10566000000E+00  0.10566000000E+00 0. -1.
     999900   -1    0    0    0    0 -0.00000000000E+00 -0.00000000000E+00 -0.74505805969E-08  0.93827000000E+00  0.93827000000E+00 0.  1.
     999902    2    1    2    0    0 -0.96582654267E-02  0.13557594506E-01 -0.17073997946E-01  0.10200844162E+01  0.10198056699E+01 0.  0.
     999903    2    3    3    0    0  0.44938935467E-01 -0.11813958340E+00 -0.13104943739E-01  0.12860208078E+00  0.19755671178E-01 0.  0.
         14    1    1    2    0    0  0.96582654267E-02 -0.13557594506E-01  0.17073997946E-01  0.23845583778E-01  0.00000000000E+00 0. -1.
     999901    1    3    3    0    0 -0.54597200894E-01  0.13169717791E+00 -0.39690542076E-02  0.89148233544E+00  0.88000000000E+00 0. -1.
        -11    1    4    4    0    0  0.27501919268E-01 -0.65645232140E-01 -0.16903249006E-01  0.73154856395E-01  0.51100000000E-03 0.  1.
         11    1    4    4    0    0  0.17437016199E-01 -0.52494351260E-01  0.37983052679E-02  0.55447224385E-01  0.51100000000E-03 0. -1.
</event>
<event>
 8    1  0.1052028E+005  0.1043930E+01  0.7957747E-01            NaN
         13   -1    0    0    0    0  0.00000000000E+00  0.00000000000E+00  0.74505805969E-08  0.10566000000E+00  0.10566000000E+00 0.  1.
     999900   -1    0    0    0    0 -0.00000000000E+00 -0.00000000000E+00 -0.74505805969E-08  0.93827000000E+00  0.93827000000E+00 0. -1.
     999902    2    1    2    0    0  0.12551632918E-02 -0.14789432466E-01  0.18226473434E-01  0.10204245308E+01  0.10201537708E+01 0.  0.
     999903    2    3    3    0    0 -0.16363635600E-01  0.77500047070E-01  0.10305505876E+00  0.13136679423E+00  0.19048979619E-01 0.  0.
         14    1    1    2    0    0 -0.12551632918E-02  0.14789432466E-01 -0.18226473434E-01  0.23505469181E-01  0.00000000000E+00 0. -1.
     999901    1    3    3    0    0  0.17618798891E-01 -0.92289479536E-01 -0.84828585321E-01  0.88905773659E+00  0.88000000000E+00 0. -1.
        -11    1    4    4    0    0 -0.20425759078E-01  0.56729861435E-01  0.76196681252E-01  0.97168329034E-01  0.51100000000E-03 0. -1.
         11    1    4    4    0    0  0.40621234788E-02  0.20770185635E-01  0.26858377503E-01  0.34198465193E-01  0.51100000000E-03 0.  1.
</event>
<event>
 8    1  0.1052028E+005  0.1043930E+01  0.7957747E-01            NaN
         13   -1    0    0    0    0  0.00000000000E+00  0.00000000000E+00  0.74505805969E-08  0.10566000000E+00  0.10566000000E+00 0.  1.
     999900   -1    0    0    0    0 -0.00000000000E+00 -0.00000000000E+00 -0.74505805969E-08  0.93827000000E+00  0.93827000000E+00 0.  1.
     999902    2    1    2    0    0 -0.88054251071E-02 -0.21715960414E-01 -0.61675374628E-02  0.10196986780E+01  0.10194107302E+01 0.  0.
     999903    2    3    3    0    0 -0.66783337829E-01 -0.93183066793E-01 -0.64325167337E-01  0.13299055489E+00  0.20141062248E-01 0.  0.
         14    1    1    2    0    0  0.88054251071E-02  0.21715960414E-01  0.61675374628E-02  0.24231322010E-01  0.00000000000E+00 0.  1.
     999901    1    3    3    0    0  0.57977912722E-01  0.71467106379E-01  0.58157629875E-01  0.88670812310E+00  0.88000000000E+00 0.  1.
        -11    1    4    4    0    0 -0.67482672837E-01 -0.87069680351E-01 -0.59885848748E-01  0.12538586990E+00  0.51100000000E-03 0.  1.
         11    1    4    4    0    0  0.69933500781E-03 -0.61133864418E-02 -0.44393185899E-02  0.76046849890E-02  0.51100000000E-03 0. -1.
</event>
<event>
 8    1  0.1052028E+005  0.1043930E+01  0.7957747E-01            NaN
         13   -1    0    0    0    0  0.00000000000E+00  0.00000000000E+00  0.74505805969E-08  0.10566000000E+00  0.10566000000E+00 0.  1.
     999900   -1    0    0    0    0 -0.00000000000E+00 -0.00000000000E+00 -0.74505805969E-08  0.93827000000E+00  0.93827000000E+00 0. -1.
     999902    2    1    2    0    0  0.32377720913E-02 -0.23428355354E-01 -0.56678863137E-02  0.10196093105E+01  0.10193192091E+01 0.  0.
     999903    2    3    3    0    0 -0.56716636472E-01 -0.11794909105E+00 -0.60549778113E-02  0.13251920773E+00  0.19897555867E-01 0.  0.
         14    1    1    2    0    0 -0.32377720913E-02  0.23428355354E-01  0.56678863137E-02  0.24320689505E-01  0.00000000000E+00 0.  1.
     999901    1    3    3    0    0  0.59954408563E-01  0.94520735695E-01  0.38709149765E-03  0.88709010276E+00  0.88000000000E+00 0. -1.
        -11    1    4    4    0    0 -0.40746774148E-01 -0.10125627865E+00 -0.71811378424E-02  0.10938447527E+00  0.51100000000E-03 0. -1.
         11    1    4    4    0    0 -0.15969862324E-01 -0.16692812402E-01  0.11261600310E-02  0.23134732459E-01  0.51100000000E-03 0.  1.
</event>
<event>
 8    1  0.1052691E+005  0.1043930E+01  0.7957747E-01            NaN
         13   -1    0    0    0    0  0.00000000000E+00  0.00000000000E+00  0.74505805969E-08  0.10566000000E+00  0.10566000000E+00 0. -1.
     999900   -1    0    0    0    0 -0.00000000000E+00 -0.00000000000E+00 -0.74505805969E-08  0.93827000000E+00  0.93827000000E+00 0.  1.
     999902    2    1    2    0    0  0.14235417005E-01  0.15868945789E-01 -0.81147606367E-02  0.10211194788E+01  0.10208646679E+01 0.  0.
     999903    2    3    3    0    0 -0.70829219529E-01  0.78713724570E-01  0.74253641616E-01  0.13096779941E+00  0.20647818641E-01 0.  0.
         14    1    1    2    0    0 -0.14235417005E-01 -0.15868945789E-01  0.81147606367E-02  0.22810521212E-01  0.00000000000E+00 0. -1.
     999901    1    3    3    0    0  0.85064636533E-01 -0.62844778780E-01 -0.82368402252E-01  0.89015167938E+00  0.88000000000E+00 0.  1.
        -11    1    4    4    0    0 -0.30266455718E-01  0.19204116027E-01  0.25698852402E-01  0.44108372787E-01  0.51100000000E-03 0. -1.
         11    1    4    4    0    0 -0.40562763810E-01  0.59509608543E-01  0.48554789214E-01  0.86859426624E-01  0.51100000000E-03 0.  1.
</event>
<event>
 8    1  0.1052028E+005  0.1043930E+01  0.7957747E-01            NaN
         13   -1    0    0    0    0  0.00000000000E+00  0.00000000000E+00  0.74505805969E-08  0.10566000000E+00  0.10566000000E+00 0. -1.
     999900   -1    0    0    0    0 -0.00000000000E+00 -0.00000000000E+00 -0.74505805969E-08  0.93827000000E+00  0.93827000000E+00 0.  1.
     999902    2    1    2    0    0 -0.23039283381E-01  0.11615214914E-01 -0.53201512282E-02  0.10175856305E+01  0.10172445574E+01 0.  0.
     999903    2    3    3    0    0  0.11671170638E+00  0.28892184705E-01  0.31127573132E-01  0.12564545904E+00  0.19012491300E-01 0.  0.
         14    1    1    2    0    0  0.23039283381E-01 -0.11615214914E-01  0.53201512282E-02  0.26344369518E-01  0.00000000000E+00 0. -1.
     999901    1    3    3    0    0 -0.13975098976E+00 -0.17276969791E-01 -0.36447724360E-01  0.89194017144E+00  0.88000000000E+00 0.  1.
        -11    1    4    4    0    0  0.25790642818E-01  0.74624438581E-02 -0.97023771827E-03  0.26870947276E-01  0.51100000000E-03 0. -1.
         11    1    4    4    0    0  0.90921063559E-01  0.21429740847E-01  0.32097810850E-01  0.98774511762E-01  0.51100000000E-03 0.  1.
</event>
<event>
 8    1  0.1052028E+005  0.1043930E+01  0.7957747E-01            NaN
         13   -1    0    0    0    0  0.00000000000E+00  0.00000000000E+00  0.74505805969E-08  0.10566000000E+00  0.10566000000E+00 0.  1.
     999900   -1    0    0    0    0 -0.00000000000E+00 -0.00000000000E+00 -0.74505805969E-08  0.93827000000E+00  0.93827000000E+00 0.  1.
     999902    2    1    2    0    0  0.75710590238E-02  0.11290768640E-01  0.16455535747E-02  0.10302365622E+01  0.10301455547E+01 0.  0.
     999903    2    3    3    0    0  0.11960582646E+00  0.65884266334E-01  0.29036763228E-01  0.14103325732E+00  0.20023880220E-01 0.  0.
         14    1    1    2    0    0 -0.75710590238E-02 -0.11290768640E-01 -0.16455535747E-02  0.13693437764E-01  0.00000000000E+00 0. -1.
     999901    1    3    3    0    0 -0.11203476743E+00 -0.54593497694E-01 -0.27391209654E-01  0.88920330491E+00  0.88000000000E+00 0.  1.
        -11    1    4    4    0    0  0.10760414386E+00  0.64439518260E-01  0.29778902785E-01  0.12891139384E+00  0.51100000000E-03 0. -1.
         11    1    4    4    0    0  0.12001682600E-01  0.14447480741E-02 -0.74213955643E-03  0.12121863485E-01  0.51100000000E-03 0.  1.
</event>
<event>
 8    1  0.1052028E+005  0.1043930E+01  0.7957747E-01            NaN
         13   -1    0    0    0    0  0.00000000000E+00  0.00000000000E+00  0.74505805969E-08  0.10566000000E+00  0.10566000000E+00 0.  1.
     999900   -1    0    0    0    0 -0.00000000000E+00 -0.00000000000E+00 -0.74505805969E-08  0.93827000000E+00  0.93827000000E+00 0.  1.
     999902    2    1    2    0    0  0.28506571125E-01 -0.42461810483E-02  0.51648770804E-03  0.10151042925E+01  0.10146949312E+01 0.  0.
     999903    2    3    3    0    0 -0.26291311013E-01 -0.48979428265E-01  0.11068289085E+00  0.12541866960E+00  0.19721129033E-01 0.  0.
         14    1    1    2    0    0 -0.28506571125E-01  0.42461810483E-02 -0.51648770804E-03  0.28825707456E-01  0.00000000000E+00 0. -1.
     999901    1    3    3    0    0  0.54797882138E-01  0.44733247216E-01 -0.11016640314E+00  0.88968562294E+00  0.88000000000E+00 0. -1.
        -11    1    4    4    0    0 -0.23624733194E-01 -0.37198622825E-01  0.67797463279E-01  0.80861750578E-01  0.51100000000E-03 0. -1.
         11    1    4    4    0    0 -0.26665778186E-02 -0.11780805440E-01  0.42885427567E-01  0.44556919021E-01  0.51100000000E-03 0.  1.
</event>
<event>
 8    1  0.1052028E+005  0.1043930E+01  0.7957747E-01            NaN
         13   -1    0    0    0    0  0.00000000000E+00  0.00000000000E+00  0.74505805969E-08  0.10566000000E+00  0.10566000000E+00 0. -1.
     999900   -1    0    0    0    0 -0.00000000000E+00 -0.00000000000E+00 -0.74505805969E-08  0.93827000000E+00  0.93827000000E+00 0. -1.
     999902    2    1    2    0    0 -0.21094367000E-01  0.11200366940E-01  0.57412057148E-02  0.10193661652E+01  0.10190701628E+01 0.  0.
     999903    2    3    3    0    0  0.19967552574E-01 -0.83224386363E-01  0.94004204937E-01  0.12897722077E+00  0.21756178198E-01 0.  0.
         14    1    1    2    0    0  0.21094367000E-01 -0.11200366940E-01 -0.57412057148E-02  0.24563834834E-01  0.00000000000E+00 0.  1.
     999901    1    3    3    0    0 -0.41061919574E-01  0.94424753303E-01 -0.88262999222E-01  0.89038894440E+00  0.88000000000E+00 0. -1.
        -11    1    4    4    0    0  0.15440137182E-01 -0.29500544974E-01  0.45989900409E-01  0.56780384382E-01  0.51100000000E-03 0.  1.
         11    1    4    4    0    0  0.45274153915E-02 -0.53723841389E-01  0.48014304528E-01  0.72196836385E-01  0.51100000000E-03 0. -1.
</event>
<event>
 8    1  0.1052028E+005  0.1043930E+01  0.7957747E-01            NaN
         13   -1    0    0    0    0  0.00000000000E+00  0.00000000000E+00  0.74505805969E-08  0.10566000000E+00  0.10566000000E+00 0.  1.
     999900   -1    0    0    0    0 -0.00000000000E+00 -0.00000000000E+00 -0.74505805969E-08  0.93827000000E+00  0.93827000000E+00 0. -1.
     999902    2    1    2    0    0 -0.52530869542E-02  0.18185101350E-01 -0.17682903475E-01  0.10180267587E+01  0.10176971571E+01 0.  0.
     999903    2    3    3    0    0 -0.11449445247E+00  0.39543038900E-01 -0.44452893908E-01  0.13061114593E+00  0.20262776030E-01 0.  0.
         14    1    1    2    0    0  0.52530869542E-02 -0.18185101350E-01  0.17682903475E-01  0.25903241283E-01  0.00000000000E+00 0.  1.
     999901    1    3    3    0    0  0.10924136551E+00 -0.21357937550E-01  0.26769990433E-01  0.88741561279E+00  0.88000000000E+00 0.  1.
        -11    1    4    4    0    0 -0.32789999532E-01  0.88531935181E-02 -0.33360758083E-02  0.34131417017E-01  0.51100000000E-03 0.  1.
         11    1    4    4    0    0 -0.81704452935E-01  0.30689845382E-01 -0.41116818099E-01  0.96479728910E-01  0.51100000000E-03 0. -1.
</event>
<event>
 8    1  0.1052028E+005  0.1043930E+01  0.7957747E-01            NaN
         13   -1    0    0    0    0  0.00000000000E+00  0.00000000000E+00  0.74505805969E-08  0.10566000000E+00  0.10566000000E+00 0.  1.
     999900   -1    0    0    0    0 -0.00000000000E+00 -0.00000000000E+00 -0.74505805969E-08  0.93827000000E+00  0.93827000000E+00 0.  1.
     999902    2    1    2    0    0  0.19628696261E-01  0.77250315853E-02  0.10946341937E-01  0.10201648105E+01  0.10198879627E+01 0.  0.
     999903    2    3    3    0    0 -0.85851123908E-01  0.16588151724E-01 -0.91210337046E-01  0.12795377357E+00  0.20180692109E-01 0.  0.
         14    1    1    2    0    0 -0.19628696261E-01 -0.77250315853E-02 -0.10946341937E-01  0.23765189494E-01  0.00000000000E+00 0. -1.
     999901    1    3    3    0    0  0.10547982017E+00 -0.88631201391E-02  0.10215667898E+00  0.89221103693E+00  0.88000000000E+00 0. -1.
        -11    1    4    4    0    0 -0.41251732432E-01 -0.20879310333E-03 -0.33762984971E-01  0.53309936207E-01  0.51100000000E-03 0. -1.
         11    1    4    4    0    0 -0.44599391476E-01  0.16796944828E-01 -0.57447352075E-01  0.74643837368E-01  0.51100000000E-03 0.  1.
</event>
<event>
 8    1  0.1052028E+005  0.1043930E+01  0.7957747E-01            NaN
         13   -1    0    0    0    0  0.00000000000E+00  0.00000000000E+00  0.74505805969E-08  0.10566000000E+00  0.10566000000E+00 0.  1.
     999900   -1    0    0    0    0 -0.00000000000E+00 -0.00000000000E+00 -0.74505805969E-08  0.93827000000E+00  0.93827000000E+00 0.  1.
     999902    2    1    2    0    0 -0.13091218035E-01 -0.10581969808E-01 -0.17078447553E-01  0.10199501867E+01  0.10196682558E+01 0.  0.
     999903    2    3    3    0    0 -0.44525984998E-01 -0.10689953100E-01  0.11891001233E+00  0.12895017691E+00  0.19791883623E-01 0.  0.
         14    1    1    2    0    0  0.13091218035E-01  0.10581969808E-01  0.17078447553E-01  0.23979813291E-01  0.00000000000E+00 0.  1.
     999901    1    3    3    0    0  0.31434766963E-01  0.10798329116E-03 -0.13598845988E+00  0.89100000979E+00  0.88000000000E+00 0.  1.
        -11    1    4    4    0    0 -0.43751446756E-01 -0.13398889934E-01  0.10193119159E+00  0.11173159036E+00  0.51100000000E-03 0. -1.
         11    1    4    4    0    0 -0.77453824221E-03  0.27089368345E-02  0.16978820741E-01  0.17218586556E-01  0.51100000000E-03 0.  1.
</event>
<event>
 8    1  0.1052028E+005  0.1043930E+01  0.7957747E-01            NaN
         13   -1    0    0    0    0  0.00000000000E+00  0.00000000000E+00  0.74505805969E-08  0.10566000000E+00  0.10566000000E+00 0. -1.
     999900   -1    0    0    0    0 -0.00000000000E+00 -0.00000000000E+00 -0.74505805969E-08  0.93827000000E+00  0.93827000000E+00 0.  1.
     999902    2    1    2    0    0 -0.13200045775E-01  0.19223474214E-01  0.50232571442E-02  0.10200759378E+01  0.10197969909E+01 0.  0.
     999903    2    3    3    0    0 -0.49170846322E-01  0.11117521563E+00  0.51010481181E-01  0.13336073778E+00  0.20132473579E-01 0.  0.
         14    1    1    2    0    0  0.13200045775E-01 -0.19223474214E-01 -0.50232571442E-02  0.23854062162E-01  0.00000000000E+00 0.  1.
     999901    1    3    3    0    0  0.35970800546E-01 -0.91951741415E-01 -0.45987224037E-01  0.88671520006E+00  0.88000000000E+00 0.  1.
        -11    1    4    4    0    0 -0.35797134880E-01  0.75577449456E-01  0.24995197310E-01  0.87283484929E-01  0.51100000000E-03 0. -1.
         11    1    4    4    0    0 -0.13373711442E-01  0.35597766173E-01  0.26015283871E-01  0.46077252849E-01  0.51100000000E-03 0.  1.
</event>
<event>
 8    1  0.1052028E+005  0.1043930E+01  0.7957747E-01            NaN
         13   -1    0    0    0    0  0.00000000000E+00  0.00000000000E+00  0.74505805969E-08  0.10566000000E+00  0.10566000000E+00 0. -1.
     999900   -1    0    0    0    0 -0.00000000000E+00 -0.00000000000E+00 -0.74505805969E-08  0.93827000000E+00  0.93827000000E+00 0. -1.
     999902    2    1    2    0    0 -0.92704107834E-02 -0.25724909736E-01 -0.11486259087E-02  0.10165615722E+01  0.10161930915E+01 0.  0.
     999903    2    3    3    0    0 -0.58341262997E-01  0.96722049554E-01  0.50111442738E-01  0.12525421727E+00  0.20459824336E-01 0.  0.
         14    1    1    2    0    0  0.92704107834E-02  0.25724909736E-01  0.11486259087E-02  0.27368427768E-01  0.00000000000E+00 0. -1.
     999901    1    3    3    0    0  0.49070852214E-01 -0.12244695929E+00 -0.51260068647E-01  0.89130735496E+00  0.88000000000E+00 0.  1.
        -11    1    4    4    0    0 -0.64435677563E-02  0.27128063796E-01  0.14331401392E-01  0.31354451002E-01  0.51100000000E-03 0. -1.
         11    1    4    4    0    0 -0.51897695241E-01  0.69593985758E-01  0.35780041346E-01  0.93899766265E-01  0.51100000000E-03 0.  1.
</event>
<event>
 8    1  0.1052028E+005  0.1043930E+01  0.7957747E-01            NaN
         13   -1    0    0    0    0  0.00000000000E+00  0.00000000000E+00  0.74505805969E-08  0.10566000000E+00  0.10566000000E+00 0. -1.
     999900   -1    0    0    0    0 -0.00000000000E+00 -0.00000000000E+00 -0.74505805969E-08  0.93827000000E+00  0.93827000000E+00 0.  1.
     999902    2    1    2    0    0  0.84741115206E-02  0.14940002121E-01  0.15469604272E-01  0.10208145747E+01  0.10205528272E+01 0.  0.
     999903    2    3    3    0    0  0.10952897855E-01  0.72593466108E-01  0.10997217604E+00  0.13387556760E+00  0.20952584659E-01 0.  0.
         14    1    1    2    0    0 -0.84741115206E-02 -0.14940002121E-01 -0.15469604272E-01  0.23115425277E-01  0.00000000000E+00 0. -1.
     999901    1    3    3    0    0 -0.24787863347E-02 -0.57653463987E-01 -0.94502571765E-01  0.88693900713E+00  0.88000000000E+00 0.  1.
        -11    1    4    4    0    0  0.97857366535E-02  0.36876839485E-01  0.73486111719E-01  0.82801761266E-01  0.51100000000E-03 0. -1.
         11    1    4    4    0    0  0.11671612018E-02  0.35716626623E-01  0.36486064318E-01  0.51073806330E-01  0.51100000000E-03 0.  1.
</event>
<event>
 8    1  0.1052028E+005  0.1043930E+01  0.7957747E-01            NaN
         13   -1    0    0    0    0  0.00000000000E+00  0.00000000000E+00  0.74505805969E-08  0.10566000000E+00  0.10566000000E+00 0.  1.
     999900   -1    0    0    0    0 -0.00000000000E+00 -0.00000000000E+00 -0.74505805969E-08  0.93827000000E+00  0.93827000000E+00 0.  1.
     999902    2    1    2    0    0 -0.16357973826E-01 -0.42242149810E-02 -0.18407422893E-01  0.10189447940E+01  0.10186384210E+01 0.  0.
     999903    2    3    3    0    0 -0.75856402287E-01  0.72620556504E-01  0.72129655171E-01  0.12897729777E+00  0.20112612706E-01 0.  0.
         14    1    1    2    0    0  0.16357973826E-01  0.42242149810E-02  0.18407422893E-01  0.24985205971E-01  0.00000000000E+00 0.  1.
     999901    1    3    3    0    0  0.59498428462E-01 -0.76844771485E-01 -0.90537078064E-01  0.88996749626E+00  0.88000000000E+00 0.  1.
        -11    1    4    4    0    0 -0.51665883084E-01  0.42294099348E-01  0.35502808535E-01  0.75623176668E-01  0.51100000000E-03 0.  1.
         11    1    4    4    0    0 -0.24190519203E-01  0.30326457156E-01  0.36626846636E-01  0.53354121101E-01  0.51100000000E-03 0. -1.
</event>
<event>
 8    1  0.1052028E+005  0.1043930E+01  0.7957747E-01            NaN
         13   -1    0    0    0    0  0.00000000000E+00  0.00000000000E+00  0.74505805969E-08  0.10566000000E+00  0.10566000000E+00 0. -1.
     999900   -1    0    0    0    0 -0.00000000000E+00 -0.00000000000E+00 -0.74505805969E-08  0.93827000000E+00  0.93827000000E+00 0. -1.
     999902    2    1    2    0    0  0.21944349863E-01  0.73310458021E-03 -0.77097398392E-02  0.10206591594E+01  0.10203938395E+01 0.  0.
     999903    2    3    3    0    0 -0.56852645179E-01  0.83783397023E-01  0.77676541979E-01  0.12914520292E+00  0.19823152688E-01 0.  0.
         14    1    1    2    0    0 -0.21944349863E-01 -0.73310458021E-03  0.77097398392E-02  0.23270840587E-01  0.00000000000E+00 0. -1.
     999901    1    3    3    0    0  0.78796995041E-01 -0.83050292443E-01 -0.85386281818E-01  0.89151395649E+00  0.88000000000E+00 0. -1.
        -11    1    4    4    0    0 -0.27552202579E-01  0.34711548258E-01  0.45660475727E-01  0.63632975838E-01  0.51100000000E-03 0. -1.
         11    1    4    4    0    0 -0.29300442599E-01  0.49071848765E-01  0.32016066252E-01  0.65512227080E-01  0.51100000000E-03 0.  1.
</event>
<event>
 8    1  0.1052028E+005  0.1043930E+01  0.7957747E-01            NaN
         13   -1    0    0    0    0  0.00000000000E+00  0.00000000000E+00  0.74505805969E-08  0.10566000000E+00  0.10566000000E+00 0.  1.
     999900   -1    0    0    0    0 -0.00000000000E+00 -0.00000000000E+00 -0.74505805969E-08  0.93827000000E+00  0.93827000000E+00 0. -1.
     999902    2    1    2    0    0  0.12756573739E-02 -0.10064601033E-01 -0.21114689914E-01  0.10205045091E+01  0.10202356097E+01 0.  0.
     999903    2    3    3    0    0  0.48087399047E-01 -0.51381205970E-01 -0.11192914020E+00  0.13363041124E+00  0.19404332190E-01 0.  0.
         14    1    1    2    0    0 -0.12756573739E-02  0.10064601033E-01  0.21114689914E-01  0.23425490942E-01  0.00000000000E+00 0.  1.
     999901    1    3    3    0    0 -0.46811741673E-01  0.41316604937E-01  0.90814450287E-01  0.88687409782E+00  0.88000000000E+00 0.  1.
        -11    1    4    4    0    0  0.22404928605E-01 -0.11507856269E-01 -0.45450699238E-01  0.51965746064E-01  0.51100000000E-03 0.  1.
         11    1    4    4    0    0  0.25682470442E-01 -0.39873349700E-01 -0.66478440963E-01  0.81664665175E-01  0.51100000000E-03 0. -1.
</event>
<event>
 8    1  0.1639538E+005  0.1043930E+01  0.7957747E-01            NaN
         13   -1    0    0    0    0  0.00000000000E+00  0.00000000000E+00  0.74505805969E-08  0.10566000000E+00  0.10566000000E+00 0.  1.
     999900   -1    0    0    0    0 -0.00000000000E+00 -0.00000000000E+00 -0.74505805969E-08  0.93827000000E+00  0.93827000000E+00 0. -1.
     999902    2    1    2    0    0  0.14738271033E-01 -0.20656709528E-01 -0.23800027580E-01  0.10091398061E+01  0.10085399301E+01 0.  0.
     999903    2    3    3    0    0 -0.27592829620E-01 -0.76322459315E-01  0.85579366812E-01  0.11961496116E+00  0.19935618035E-01 0.  0.
         14    1    1    2    0    0 -0.14738271033E-01  0.20656709528E-01  0.23800027580E-01  0.34790193940E-01  0.00000000000E+00 0.  1.
     999901    1    3    3    0    0  0.42331100653E-01  0.55665749787E-01 -0.10937939439E+00  0.88952484490E+00  0.88000000000E+00 0. -1.
        -11    1    4    4    0    0 -0.26131578329E-01 -0.43959809449E-01  0.53874491420E-01  0.74283552550E-01  0.51100000000E-03 0. -1.
         11    1    4    4    0    0 -0.14612512913E-02 -0.32362649866E-01  0.31704875392E-01  0.45331408607E-01  0.51100000000E-03 0.  1.
</event>
<event>
 8    1  0.1052028E+005  0.1043930E+01  0.7957747E-01            NaN
         13   -1    0    0    0    0  0.00000000000E+00  0.00000000000E+00  0.74505805969E-08  0.10566000000E+00  0.10566000000E+00 0. -1.
     999900   -1    0    0    0    0 -0.00000000000E+00 -0.00000000000E+00 -0.74505805969E-08  0.93827000000E+00  0.93827000000E+00 0.  1.
     999902    2    1    2    0    0 -0.19167396275E-03  0.23313357708E-01  0.22523922878E-02  0.10205073046E+01  0.10202384703E+01 0.  0.
     999903    2    3    3    0    0  0.46455735830E-01  0.93561367957E-01 -0.79236510212E-01  0.13272850054E+00  0.20653458325E-01 0.  0.
         14    1    1    2    0    0  0.19167396275E-03 -0.23313357708E-01 -0.22523922878E-02  0.23422695352E-01  0.00000000000E+00 0. -1.
     999901    1    3    3    0    0 -0.46647409793E-01 -0.70248010249E-01  0.81488902499E-01  0.88777880410E+00  0.88000000000E+00 0. -1.
        -11    1    4    4    0    0  0.32812897271E-01  0.51386213833E-01 -0.36005622928E-01  0.70808863871E-01  0.51100000000E-03 0. -1.
         11    1    4    4    0    0  0.13642838560E-01  0.42175154125E-01 -0.43230887284E-01  0.61919636673E-01  0.51100000000E-03 0.  1.
</event>
<event>
 8    1  0.1052028E+005  0.1043930E+01  0.7957747E-01            NaN
         13   -1    0    0    0    0  0.00000000000E+00  0.00000000000E+00  0.74505805969E-08  0.10566000000E+00  0.10566000000E+00 0.  1.
     999900   -1    0    0    0    0 -0.00000000000E+00 -0.00000000000E+00 -0.74505805969E-08  0.93827000000E+00  0.93827000000E+00 0. -1.
     999902    2    1    2    0    0 -0.15562943044E-01  0.48914100377E-02  0.17453152103E-01  0.10200397592E+01  0.10197599554E+01 0.  0.
     999903    2    3    3    0    0  0.12143992483E+00  0.26140566731E-01 -0.24662875257E-01  0.12819051618E+00  0.19838509331E-01 0.  0.
         14    1    1    2    0    0  0.15562943044E-01 -0.48914100377E-02 -0.17453152103E-01  0.23890240825E-01  0.00000000000E+00 0.  1.
     999901    1    3    3    0    0 -0.13700286787E+00 -0.21249156693E-01  0.42116027359E-01  0.89184924299E+00  0.88000000000E+00 0.  1.
        -11    1    4    4    0    0  0.36404294162E-01  0.10049373692E-01  0.14301744818E-02  0.37796416035E-01  0.51100000000E-03 0. -1.
         11    1    4    4    0    0  0.85035630665E-01  0.16091193038E-01 -0.26093049738E-01  0.90394100148E-01  0.51100000000E-03 0.  1.
</event>
<event>
 8    1  0.1052028E+005  0.1043930E+01  0.7957747E-01            NaN
         13   -1    0    0    0    0  0.00000000000E+00  0.00000000000E+00  0.74505805969E-08  0.10566000000E+00  0.10566000000E+00 0.  1.
     999900   -1    0    0    0    0 -0.00000000000E+00 -0.00000000000E+00 -0.74505805969E-08  0.93827000000E+00  0.93827000000E+00 0. -1.
     999902    2    1    2    0    0  0.36716470740E-02  0.80262247784E-02  0.21574929669E-01  0.10206195117E+01  0.10203532764E+01 0.  0.
     999903    2    3    3    0    0 -0.83208792113E-01  0.99553459243E-01  0.94633097889E-02  0.13153451196E+00  0.19421103759E-01 0.  0.
         14    1    1    2    0    0 -0.36716470740E-02 -0.80262247784E-02 -0.21574929669E-01  0.23310488340E-01  0.00000000000E+00 0. -1.
     999901    1    3    3    0    0  0.86880439187E-01 -0.91527234465E-01  0.12111619880E-01  0.88908499970E+00  0.88000000000E+00 0. -1.
        -11    1    4    4    0    0 -0.75904022520E-01  0.94118993781E-01  0.41587120540E-02  0.12098496449E+00  0.51100000000E-03 0.  1.
         11    1    4    4    0    0 -0.73047695925E-02  0.54344654616E-02  0.53045977349E-02  0.10549547468E-01  0.51100000000E-03 0. -1.
</event>
<event>
 8    1  0.1052028E+005  0.1043930E+01  0.7957747E-01            NaN
         13   -1    0    0    0    0  0.00000000000E+00  0.00000000000E+00  0.74505805969E-08  0.10566000000E+00  0.10566000000E+00 0. -1.
     999900   -1    0    0    0    0 -0.00000000000E+00 -0.00000000000E+00 -0.74505805969E-08  0.93827000000E+00  0.93827000000E+00 0. -1.
     999902    2    1    2    0    0 -0.55173991727E-02 -0.22631062675E-01 -0.52804232884E-02  0.10200450767E+01  0.10197653990E+01 0.  0.
     999903    2    3    3    0    0  0.71477835291E-01 -0.30488148896E-01  0.10236724362E+00  0.13011360735E+00  0.20295075492E-01 0.  0.
         14    1    1    2    0    0  0.55173991727E-02  0.22631062675E-01  0.52804232884E-02  0.23884923310E-01  0.00000000000E+00 0.  1.
     999901    1    3    3    0    0 -0.76995234463E-01  0.78570862210E-02 -0.10764766691E+00  0.88993146934E+00  0.88000000000E+00 0. -1.
        -11    1    4    4    0    0  0.98713194765E-02 -0.12785894287E-01  0.18766754622E-01  0.24766393378E-01  0.51100000000E-03 0.  1.
         11    1    4    4    0    0  0.61606515814E-01 -0.17702254609E-01  0.83600489001E-01  0.10534721397E+00  0.51100000000E-03 0. -1.
</event>
<event>
 8    1  0.1052028E+005  0.1043930E+01  0.7957747E-01            NaN
         13   -1    0    0    0    0  0.00000000000E+00  0.00000000000E+00  0.74505805969E-08  0.10566000000E+00  0.10566000000E+00 0. -1.
     999900   -1    0    0    0    0 -0.00000000000E+00 -0.00000000000E+00 -0.74505805969E-08  0.93827000000E+00  0.93827000000E+00 0. -1.
     999902    2    1    2    0    0 -0.20024976785E-01 -0.11937630272E-01  0.30407606625E-02  0.10204193016E+01  0.10201484197E+01 0.  0.
     999903    2    3    3    0    0  0.83443258745E-01 -0.93148176344E-01  0.30240005503E-01  0.13022795846E+00  0.20137106206E-01 0.  0.
         14    1    1    2    0    0  0.20024976785E-01  0.11937630272E-01 -0.30407606625E-02  0.23510698355E-01  0.00000000000E+00 0.  1.
     999901    1    3    3    0    0 -0.10346823553E+00  0.81210546072E-01 -0.27199244840E-01  0.89019134318E+00  0.88000000000E+00 0. -1.
        -11    1    4    4    0    0  0.29858607740E-01 -0.29576673387E-01  0.19700792174E-01  0.46418728958E-01  0.51100000000E-03 0.  1.
         11    1    4    4    0    0  0.53584651005E-01 -0.63571502958E-01  0.10539213329E-01  0.83809229505E-01  0.51100000000E-03 0. -1.
</event>
<event>
 8    1  0.1052028E+005  0.1043930E+01  0.7957747E-01            NaN
         13   -1    0    0    0    0  0.00000000000E+00  0.00000000000E+00  0.74505805969E-08  0.10566000000E+00  0.10566000000E+00 0.  1.
     999900   -1    0    0    0    0 -0.00000000000E+00 -0.00000000000E+00 -0.74505805969E-08  0.93827000000E+00  0.93827000000E+00 0. -1.
     999902    2    1    2    0    0  0.17359225822E-01 -0.68764061945E-02 -0.14337061163E-01  0.10203889931E+01  0.10201174041E+01 0.  0.
     999903    2    3    3    0    0 -0.46627174074E-01 -0.12000343391E+00  0.83159051903E-02  0.13055465983E+00  0.20011182207E-01 0.  0.
         14    1    1    2    0    0 -0.17359225822E-01  0.68764061945E-02  0.14337061163E-01  0.23541006904E-01  0.00000000000E+00 0.  1.
     999901    1    3    3    0    0  0.63986399896E-01  0.11312702771E+00 -0.22652966353E-01  0.88983433326E+00  0.88000000000E+00 0. -1.
        -11    1    4    4    0    0 -0.40929576514E-01 -0.79992071044E-01  0.48301913318E-02  0.89986407490E-01  0.51100000000E-03 0.  1.
         11    1    4    4    0    0 -0.56975975598E-02 -0.40011362862E-01  0.34857138584E-02  0.40568252342E-01  0.51100000000E-03 0. -1.
</event>
<event>
 8    1  0.1052028E+005  0.1043930E+01  0.7957747E-01            NaN
         13   -1    0    0    0    0  0.00000000000E+00  0.00000000000E+00  0.74505805969E-08  0.10566000000E+00  0.10566000000E+00 0. -1.
     999900   -1    0    0    0    0 -0.00000000000E+00 -0.00000000000E+00 -0.74505805969E-08  0.93827000000E+00  0.93827000000E+00 0.  1.
     999902    2    1    2    0    0 -0.22961448963E-01 -0.23045247808E-02  0.46253049960E-02  0.10203942311E+01  0.10201227644E+01 0.  0.
     999903    2    3    3    0    0  0.70608719178E-01 -0.56713721377E-01  0.91258908654E-01  0.12954008008E+00  0.15824238469E-01 0.  0.
         14    1    1    2    0    0  0.22961448963E-01  0.23045247808E-02 -0.46253049960E-02  0.23535768933E-01  0.00000000000E+00 0.  1.
     999901    1    3    3    0    0 -0.93570168141E-01  0.54409196596E-01 -0.86633603658E-01  0.89085415098E+00  0.88000000000E+00 0.  1.
        -11    1    4    4    0    0  0.95193453323E-02 -0.14134894767E-01  0.12420536923E-01  0.21093696786E-01  0.51100000000E-03 0.  1.
         11    1    4    4    0    0  0.61089373846E-01 -0.42578826610E-01  0.78838371731E-01  0.10844638330E+00  0.51100000000E-03 0. -1.
</event>
<event>
 8    1  0.1052028E+005  0.1043930E+01  0.7957747E-01            NaN
         13   -1    0    0    0    0  0.00000000000E+00  0.00000000000E+00  0.74505805969E-08  0.10566000000E+00  0.10566000000E+00 0.  1.
     999900   -1    0    0    0    0 -0.00000000000E+00 -0.00000000000E+00 -0.74505805969E-08  0.93827000000E+00  0.93827000000E+00 0.  1.
     999902    2    1    2    0    0  0.16766869708E-01  0.11313422088E-01 -0.12257930088E-01  0.10202788206E+01  0.10200046536E+01 0.  0.
     999903    2    3    3    0    0 -0.10860592052E+00 -0.10733991944E-01 -0.67006454927E-01  0.12943549765E+00  0.18794107985E-01 0.  0.
         14    1    1    2    0    0 -0.16766869708E-01 -0.11313422088E-01  0.12257930088E-01  0.23651179446E-01  0.00000000000E+00 0.  1.
     999901    1    3    3    0    0  0.12537279023E+00  0.22047414033E-01  0.54748524839E-01  0.89084332291E+00  0.88000000000E+00 0. -1.
        -11    1    4    4    0    0 -0.39680597769E-01 -0.72233947499E-02 -0.34804618557E-01  0.53276166012E-01  0.51100000000E-03 0.  1.
         11    1    4    4    0    0 -0.68925322748E-01 -0.35105971941E-02 -0.32201836370E-01  0.76159331636E-01  0.51100000000E-03 0. -1.
</event>
<event>
 8    1  0.1052028E+005  0.1043930E+01  0.7957747E-01            NaN
         13   -1    0    0    0    0  0.00000000000E+00  0.00000000000E+00  0.74505805969E-08  0.10566000000E+00  0.10566000000E+00 0. -1.
     999900   -1    0    0    0    0 -0.00000000000E+00 -0.00000000000E+00 -0.74505805969E-08  0.93827000000E+00  0.93827000000E+00 0. -1.
     999902    2    1    2    0    0 -0.60635684244E-02  0.21517757388E-03 -0.22582523056E-01  0.10205465975E+01  0.10202786748E+01 0.  0.
     999903    2    3    3    0    0  0.10961318533E+00  0.57962642636E-01  0.31935058922E-01  0.12943041665E+00  0.18912070945E-01 0.  0.
         14    1    1    2    0    0  0.60635684244E-02 -0.21517757388E-03  0.22582523056E-01  0.23383402468E-01  0.00000000000E+00 0. -1.
     999901    1    3    3    0    0 -0.11567675375E+00 -0.57747465063E-01 -0.54517581978E-01  0.89111618088E+00  0.88000000000E+00 0. -1.
        -11    1    4    4    0    0  0.69989294855E-01  0.43682490060E-01  0.14153416698E-01  0.83709268647E-01  0.51100000000E-03 0. -1.
         11    1    4    4    0    0  0.39623890473E-01  0.14280152577E-01  0.17781642224E-01  0.45721148006E-01  0.51100000000E-03 0.  1.
</event>
<event>
 8    1  0.1052028E+005  0.1043930E+01  0.7957747E-01            NaN
         13   -1    0    0    0    0  0.00000000000E+00  0.00000000000E+00  0.74505805969E-08  0.10566000000E+00  0.10566000000E+00 0.  1.
     999900   -1    0    0    0    0 -0.00000000000E+00 -0.00000000000E+00 -0.74505805969E-08  0.93827000000E+00  0.93827000000E+00 0.  1.
     999902    2    1    2    0    0 -0.86763835424E-02 -0.83108070917E-03 -0.32794270702E-01  0.10099972059E+01  0.10094270263E+01 0.  0.
     999903    2    3    3    0    0  0.22836975937E-01 -0.11717747480E+00 -0.57583981375E-02  0.12136876065E+00  0.21098076745E-01 0.  0.
         14    1    1    2    0    0  0.86763835424E-02  0.83108070917E-03  0.32794270702E-01  0.33932794129E-01  0.00000000000E+00 0.  1.
     999901    1    3    3    0    0 -0.31513359480E-01  0.11634639409E+00 -0.27035872564E-01  0.88862844522E+00  0.88000000000E+00 0.  1.
        -11    1    4    4    0    0  0.72661694892E-02 -0.18189999440E-01  0.59583389655E-02  0.20480142161E-01  0.51100000000E-03 0.  1.
         11    1    4    4    0    0  0.15570806448E-01 -0.98987475363E-01 -0.11716737103E-01  0.10088861849E+00  0.51100000000E-03 0. -1.
</event>
<event>
 8    1  0.1052028E+005  0.1043930E+01  0.7957747E-01            NaN
         13   -1    0    0    0    0  0.00000000000E+00  0.00000000000E+00  0.74505805969E-08  0.10566000000E+00  0.10566000000E+00 0.  1.
     999900   -1    0    0    0    0 -0.00000000000E+00 -0.00000000000E+00 -0.74505805969E-08  0.93827000000E+00  0.93827000000E+00 0.  1.
     999902    2    1    2    0    0 -0.12052881426E-01  0.29066123696E-02 -0.20028765495E-01  0.10203742832E+01  0.10201023508E+01 0.  0.
     999903    2    3    3    0    0 -0.72506481903E-02  0.10260046311E+00 -0.81633625575E-01  0.13259216799E+00  0.18363203924E-01 0.  0.
         14    1    1    2    0    0  0.12052881426E-01 -0.29066123696E-02  0.20028765495E-01  0.23555716788E-01  0.00000000000E+00 0.  1.
     999901    1    3    3    0    0 -0.48022332355E-02 -0.99693850742E-01  0.61604860080E-01  0.88778211522E+00  0.88000000000E+00 0. -1.
        -11    1    4    4    0    0 -0.25870790220E-02  0.27619680017E-01 -0.32924740629E-01  0.43056234956E-01  0.51100000000E-03 0. -1.
         11    1    4    4    0    0 -0.46635691684E-02  0.74980783095E-01 -0.48708884945E-01  0.89535933035E-01  0.51100000000E-03 0.  1.
</event>
<event>
 8    1  0.1265148E+005  0.1043930E+01  0.7957747E-01            NaN
         13   -1    0    0    0    0  0.00000000000E+00  0.00000000000E+00  0.74505805969E-08  0.10566000000E+00  0.10566000000E+00 0. -1.
     999900   -1    0    0    0    0 -0.00000000000E+00 -0.00000000000E+00 -0.74505805969E-08  0.93827000000E+00  0.93827000000E+00 0.  1.
     999902    2    1    2    0    0 -0.21153777938E-01 -0.43142432280E-02  0.15146410358E-01  0.10175574999E+01  0.10172156884E+01 0.  0.
     999903    2    3    3    0    0 -0.33457172338E-01  0.47245074977E-01  0.11507260590E+00  0.13031740760E+00  0.19734300174E-01 0.  0.
         14    1    1    2    0    0  0.21153777938E-01  0.43142432280E-02 -0.15146410358E-01  0.26372500117E-01  0.00000000000E+00 0.  1.
     999901    1    3    3    0    0  0.12303394400E-01 -0.51559318205E-01 -0.99926195543E-01  0.88724009229E+00  0.88000000000E+00 0.  1.
        -11    1    4    4    0    0 -0.85218679671E-02  0.68042716528E-02  0.40080623374E-01  0.41540797265E-01  0.51100000000E-03 0.  1.
         11    1    4    4    0    0 -0.24935304371E-01  0.40440803324E-01  0.74991982526E-01  0.88776610330E-01  0.51100000000E-03 0. -1.
</event>
<event>
 8    1  0.1052028E+005  0.1043930E+01  0.7957747E-01            NaN
         13   -1    0    0    0    0  0.00000000000E+00  0.00000000000E+00  0.74505805969E-08  0.10566000000E+00  0.10566000000E+00 0. -1.
     999900   -1    0    0    0    0 -0.00000000000E+00 -0.00000000000E+00 -0.74505805969E-08  0.93827000000E+00  0.93827000000E+00 0. -1.
     999902    2    1    2    0    0 -0.22851044933E-01 -0.26705750440E-02  0.10021787945E-01  0.10188354098E+01  0.10185263147E+01 0.  0.
     999903    2    3    3    0    0 -0.99494836903E-01 -0.12101154216E-01 -0.81436022950E-01  0.13073195979E+00  0.20331231497E-01 0.  0.
         14    1    1    2    0    0  0.22851044933E-01  0.26705750440E-02 -0.10021787945E-01  0.25094590238E-01  0.00000000000E+00 0.  1.
     999901    1    3    3    0    0  0.76643791970E-01  0.94305791717E-02  0.91457810895E-01  0.88810344997E+00  0.88000000000E+00 0.  1.
        -11    1    4    4    0    0 -0.85084142083E-01 -0.17431324539E-01 -0.70522483166E-01  0.11187870245E+00  0.51100000000E-03 0. -1.
         11    1    4    4    0    0 -0.14410694820E-01  0.53301703228E-02 -0.10913539784E-01  0.18853257344E-01  0.51100000000E-03 0.  1.
</event>
<event>
 8    1  0.1052028E+005  0.1043930E+01  0.7957747E-01            NaN
         13   -1    0    0    0    0  0.00000000000E+00  0.00000000000E+00  0.74505805969E-08  0.10566000000E+00  0.10566000000E+00 0. -1.
     999900   -1    0    0    0    0 -0.00000000000E+00 -0.00000000000E+00 -0.74505805969E-08  0.93827000000E+00  0.93827000000E+00 0. -1.
     999902    2    1    2    0    0  0.37644220262E-02 -0.22228200373E-01  0.77967296883E-02  0.10200751733E+01  0.10197962082E+01 0.  0.
     999903    2    3    3    0    0 -0.25114055667E-01 -0.77257324210E-01  0.10306935205E+00  0.13275389913E+00  0.20022399128E-01 0.  0.
         14    1    1    2    0    0 -0.37644220262E-02  0.22228200373E-01 -0.77967296883E-02  0.23854826741E-01  0.00000000000E+00 0. -1.
     999901    1    3    3    0    0  0.28878477693E-01  0.55029123838E-01 -0.95272622362E-01  0.88732127413E+00  0.88000000000E+00 0. -1.
        -11    1    4    4    0    0 -0.18759389346E-01 -0.33094263052E-01  0.37321394956E-01  0.53294395372E-01  0.51100000000E-03 0.  1.
         11    1    4    4    0    0 -0.63546663201E-02 -0.44163061158E-01  0.65747957094E-01  0.79459503761E-01  0.51100000000E-03 0. -1.
</event>
<event>
 8    1  0.1052028E+005  0.1043930E+01  0.7957747E-01            NaN
         13   -1    0    0    0    0  0.00000000000E+00  0.00000000000E+00  0.74505805969E-08  0.10566000000E+00  0.10566000000E+00 0. -1.
     999900   -1    0    0    0    0 -0.00000000000E+00 -0.00000000000E+00 -0.74505805969E-08  0.93827000000E+00  0.93827000000E+00 0.  1.
     999902    2    1    2    0    0  0.13420960218E-01 -0.10471636444E-01  0.15672438601E-01  0.10207912301E+01  0.10205289475E+01 0.  0.
     999903    2    3    3    0    0  0.10886453101E+00 -0.21824177602E-01 -0.68225256605E-01  0.13159092716E+00  0.18267611556E-01 0.  0.
         14    1    1    2    0    0 -0.13420960218E-01  0.10471636444E-01 -0.15672438601E-01  0.23138769947E-01  0.00000000000E+00 0.  1.
     999901    1    3    3    0    0 -0.95443570797E-01  0.11352541158E-01  0.83897695206E-01  0.88920030289E+00  0.88000000000E+00 0. -1.
        -11    1    4    4    0    0  0.52626040991E-01 -0.73076666627E-02 -0.42613974509E-01  0.68111042621E-01  0.51100000000E-03 0.  1.
         11    1    4    4    0    0  0.56238490024E-01 -0.14516510939E-01 -0.25611282096E-01  0.63479884543E-01  0.51100000000E-03 0. -1.
</event>
<event>
 8    1  0.1052028E+005  0.1043930E+01  0.7957747E-01            NaN
         13   -1    0    0    0    0  0.00000000000E+00  0.00000000000E+00  0.74505805969E-08  0.10566000000E+00  0.10566000000E+00 0. -1.
     999900   -1    0    0    0    0 -0.00000000000E+00 -0.00000000000E+00 -0.74505805969E-08  0.93827000000E+00  0.93827000000E+00 0. -1.
     999902    2    1    2    0    0 -0.20693454385E-01 -0.73953002222E-02 -0.63823227896E-02  0.10210467405E+01  0.10207902834E+01 0.  0.
     999903    2    3    3    0    0 -0.34157986800E-01 -0.12484645830E+00 -0.18105224503E-01  0.13306391717E+00  0.24996013396E-01 0.  0.
         14    1    1    2    0    0  0.20693454385E-01  0.73953002222E-02  0.63823227896E-02  0.22883259470E-01  0.00000000000E+00 0. -1.
     999901    1    3    3    0    0  0.13464532415E-01  0.11745115807E+00  0.11722901713E-01  0.88798282336E+00  0.88000000000E+00 0.  1.
        -11    1    4    4    0    0 -0.51199897917E-02 -0.63898421942E-01 -0.50909008064E-02  0.64307083701E-01  0.51100000000E-03 0.  1.
         11    1    4    4    0    0 -0.29037997009E-01 -0.60948036354E-01 -0.13014323696E-01  0.68756833464E-01  0.51100000000E-03 0. -1.
</event>
<event>
 8    1  0.1052028E+005  0.1043930E+01  0.7957747E-01            NaN
         13   -1    0    0    0    0  0.00000000000E+00  0.00000000000E+00  0.74505805969E-08  0.10566000000E+00  0.10566000000E+00 0. -1.
     999900   -1    0    0    0    0 -0.00000000000E+00 -0.00000000000E+00 -0.74505805969E-08  0.93827000000E+00  0.93827000000E+00 0.  1.
     999902    2    1    2    0    0  0.21476196279E-01  0.14939088315E-03  0.99430376057E-02  0.10202632866E+01  0.10199887552E+01 0.  0.
     999903    2    3    3    0    0 -0.39791739862E-01  0.87110295120E-01  0.86579587059E-01  0.13055034441E+00  0.19385083265E-01 0.  0.
         14    1    1    2    0    0 -0.21476196279E-01 -0.14939088315E-03 -0.99430376057E-02  0.23666713357E-01  0.00000000000E+00 0.  1.
     999901    1    3    3    0    0  0.61267936142E-01 -0.86960904237E-01 -0.76636549454E-01  0.88971294223E+00  0.88000000000E+00 0.  1.
        -11    1    4    4    0    0 -0.31017470176E-01  0.66778432597E-01  0.54681048678E-01  0.91715433389E-01  0.51100000000E-03 0.  1.
         11    1    4    4    0    0 -0.87742696865E-02  0.20331862523E-01  0.31898538381E-01  0.38834911021E-01  0.51100000000E-03 0. -1.
</event>
<event>
 8    1  0.1052028E+005  0.1043930E+01  0.7957747E-01            NaN
         13   -1    0    0    0    0  0.00000000000E+00  0.00000000000E+00  0.74505805969E-08  0.10566000000E+00  0.10566000000E+00 0.  1.
     999900   -1    0    0    0    0 -0.00000000000E+00 -0.00000000000E+00 -0.74505805969E-08  0.93827000000E+00  0.93827000000E+00 0.  1.
     999902    2    1    2    0    0 -0.95641588434E-02  0.14548273578E-01  0.14846146663E-01  0.10210491462E+01  0.10207927437E+01 0.  0.
     999903    2    3    3    0    0  0.75054701658E-01  0.18329701847E-01 -0.10170998882E+00  0.12933171146E+00  0.20312152853E-01 0.  0.
         14    1    1    2    0    0  0.95641588434E-02 -0.14548273578E-01 -0.14846146663E-01  0.22880853769E-01  0.00000000000E+00 0. -1.
     999901    1    3    3    0    0 -0.84618860502E-01 -0.37814282694E-02  0.11655613548E+00  0.89171743477E+00  0.88000000000E+00 0. -1.
        -11    1    4    4    0    0  0.17587656791E-01  0.13529332430E-01 -0.29615100528E-01  0.37009239491E-01  0.51100000000E-03 0. -1.
         11    1    4    4    0    0  0.57467044867E-01  0.48003694166E-02 -0.72094888290E-01  0.92322471971E-01  0.51100000000E-03 0.  1.
</event>
<event>
 8    1  0.1052028E+005  0.1043930E+01  0.7957747E-01            NaN
         13   -1    0    0    0    0  0.00000000000E+00  0.00000000000E+00  0.74505805969E-08  0.10566000000E+00  0.10566000000E+00 0.  1.
     999900   -1    0    0    0    0 -0.00000000000E+00 -0.00000000000E+00 -0.74505805969E-08  0.93827000000E+00  0.93827000000E+00 0.  1.
     999902    2    1    2    0    0  0.10469525676E-01  0.73612927272E-02 -0.18517152160E-01  0.10214203460E+01  0.10211722865E+01 0.  0.
     999903    2    3    3    0    0  0.60757801097E-02 -0.12890399798E+00  0.31908158867E-02  0.13065731898E+00  0.20198957810E-01 0.  0.
         14    1    1    2    0    0 -0.10469525676E-01 -0.73612927272E-02  0.18517152160E-01  0.22509653987E-01  0.00000000000E+00 0.  1.
     999901    1    3    3    0    0  0.43937455659E-02  0.13626529071E+00 -0.21707968047E-01  0.89076302703E+00  0.88000000000E+00 0.  1.
        -11    1    4    4    0    0 -0.14635791386E-02 -0.43691320476E-01 -0.77931330518E-02  0.44407967670E-01  0.51100000000E-03 0.  1.
         11    1    4    4    0    0  0.75393592482E-02 -0.85212677509E-01  0.10983948939E-01  0.86249351310E-01  0.51100000000E-03 0. -1.
</event>
<event>
 8    1  0.1052028E+005  0.1043930E+01  0.7957747E-01            NaN
         13   -1    0    0    0    0  0.00000000000E+00  0.00000000000E+00  0.74505805969E-08  0.10566000000E+00  0.10566000000E+00 0.  1.
     999900   -1    0    0    0    0 -0.00000000000E+00 -0.00000000000E+00 -0.74505805969E-08  0.93827000000E+00  0.93827000000E+00 0. -1.
     999902    2    1    2    0    0 -0.19652782083E-01 -0.12654600989E-01  0.40068670464E-02  0.10202144829E+01  0.10199388047E+01 0.  0.
     999903    2    3    3    0    0 -0.11201096356E+00  0.61085481994E-01  0.29298680756E-01  0.13195364878E+00  0.16597007654E-01 0.  0.
         14    1    1    2    0    0  0.19652782083E-01  0.12654600989E-01 -0.40068670464E-02  0.23715517142E-01  0.00000000000E+00 0. -1.
     999901    1    3    3    0    0  0.92358181477E-01 -0.73740082983E-01 -0.25291813710E-01  0.88826083408E+00  0.88000000000E+00 0. -1.
        -11    1    4    4    0    0 -0.74641713936E-01  0.47756561952E-01  0.15593774656E-01  0.89975005406E-01  0.51100000000E-03 0. -1.
         11    1    4    4    0    0 -0.37369249623E-01  0.13328920042E-01  0.13704906100E-01  0.41978643369E-01  0.51100000000E-03 0.  1.
</event>
<event>
 8    1  0.1052028E+005  0.1043930E+01  0.7957747E-01            NaN
         13   -1    0    0    0    0  0.00000000000E+00  0.00000000000E+00  0.74505805969E-08  0.10566000000E+00  0.10566000000E+00 0.  1.
     999900   -1    0    0    0    0 -0.00000000000E+00 -0.00000000000E+00 -0.74505805969E-08  0.93827000000E+00  0.93827000000E+00 0.  1.
     999902    2    1    2    0    0  0.15115439141E-01 -0.14859144256E-01 -0.11841786519E-01  0.10196504082E+01  0.10193612983E+01 0.  0.
     999903    2    3    3    0    0  0.12794776130E+00 -0.20457746577E-01 -0.17852244251E-01  0.13240827506E+00  0.20593680175E-01 0.  0.
         14    1    1    2    0    0 -0.15115439141E-01  0.14859144256E-01  0.11841786519E-01  0.24279591768E-01  0.00000000000E+00 0.  1.
     999901    1    3    3    0    0 -0.11283232216E+00  0.55986023209E-02  0.60104577320E-02  0.88724213317E+00  0.88000000000E+00 0. -1.
        -11    1    4    4    0    0  0.55007413373E-01 -0.17920030418E-01 -0.12754114136E-01  0.59244169034E-01  0.51100000000E-03 0.  1.
         11    1    4    4    0    0  0.72940347927E-01 -0.25377161590E-02 -0.50981301151E-02  0.73164106027E-01  0.51100000000E-03 0. -1.
</event>
<event>
 8    1  0.1052028E+005  0.1043930E+01  0.7957747E-01            NaN
         13   -1    0    0    0    0  0.00000000000E+00  0.00000000000E+00  0.74505805969E-08  0.10566000000E+00  0.10566000000E+00 0. -1.
     999900   -1    0    0    0    0 -0.00000000000E+00 -0.00000000000E+00 -0.74505805969E-08  0.93827000000E+00  0.93827000000E+00 0.  1.
     999902    2    1    2    0    0 -0.16384884748E-01 -0.12283527073E-01  0.11503166989E-01  0.10204422939E+01  0.10201719477E+01 0.  0.
     999903    2    3    3    0    0 -0.79987550770E-01 -0.65872908684E-01  0.82644652918E-01  0.13366259639E+00  0.17271440064E-01 0.  0.
         14    1    1    2    0    0  0.16384884748E-01  0.12283527073E-01 -0.11503166989E-01  0.23487706068E-01  0.00000000000E+00 0. -1.
     999901    1    3    3    0    0  0.63602666022E-01  0.53589381611E-01 -0.71141485929E-01  0.88677969754E+00  0.88000000000E+00 0.  1.
        -11    1    4    4    0    0 -0.26605596947E-01 -0.15003727765E-01  0.17133716850E-01  0.35025633611E-01  0.51100000000E-03 0.  1.
         11    1    4    4    0    0 -0.53381953823E-01 -0.50869180919E-01  0.65510936068E-01  0.98636962782E-01  0.51100000000E-03 0. -1.
</event>
<event>
 8    1  0.1052028E+005  0.1043930E+01  0.7957747E-01            NaN
         13   -1    0    0    0    0  0.00000000000E+00  0.00000000000E+00  0.74505805969E-08  0.10566000000E+00  0.10566000000E+00 0. -1.
     999900   -1    0    0    0    0 -0.00000000000E+00 -0.00000000000E+00 -0.74505805969E-08  0.93827000000E+00  0.93827000000E+00 0. -1.
     999902    2    1    2    0    0  0.98983478179E-02  0.91055589938E-02  0.19044317312E-01  0.10206153154E+01  0.10203489832E+01 0.  0.
     999903    2    3    3    0    0 -0.23714213758E-01 -0.26398152829E-01 -0.12145862639E+00  0.12812923990E+00  0.20141444489E-01 0.  0.
         14    1    1    2    0    0 -0.98983478179E-02 -0.91055589938E-02 -0.19044317312E-01  0.23314684557E-01  0.00000000000E+00 0.  1.
     999901    1    3    3    0    0  0.33612561576E-01  0.35503711823E-01  0.14050294370E+00  0.89248607554E+00  0.88000000000E+00 0.  1.
        -11    1    4    4    0    0 -0.22671496918E-01 -0.11184590491E-01 -0.68559582828E-01  0.73073725480E-01  0.51100000000E-03 0.  1.
         11    1    4    4    0    0 -0.10427168407E-02 -0.15213562338E-01 -0.52899043561E-01  0.55055514420E-01  0.51100000000E-03 0. -1.
</event>
<event>
 8    1  0.1052028E+005  0.1043930E+01  0.7957747E-01            NaN
         13   -1    0    0    0    0  0.00000000000E+00  0.00000000000E+00  0.74505805969E-08  0.10566000000E+00  0.10566000000E+00 0.  1.
     999900   -1    0    0    0    0 -0.00000000000E+00 -0.00000000000E+00 -0.74505805969E-08  0.93827000000E+00  0.93827000000E+00 0.  1.
     999902    2    1    2    0    0  0.13565162972E-01 -0.11553461964E-01  0.15664602055E-01  0.10202049945E+01  0.10199290931E+01 0.  0.
     999903    2    3    3    0    0  0.12359499579E+00 -0.96554836006E-02  0.43408187577E-01  0.13291706321E+00  0.20340196545E-01 0.  0.
         14    1    1    2    0    0 -0.13565162972E-01  0.11553461964E-01 -0.15664602055E-01  0.23725005529E-01  0.00000000000E+00 0. -1.
     999901    1    3    3    0    0 -0.11002983281E+00 -0.18979783633E-02 -0.27743585523E-01  0.88728793127E+00  0.88000000000E+00 0.  1.
        -11    1    4    4    0    0  0.11662079862E+00 -0.56048658545E-02  0.44097101010E-01  0.12480641262E+00  0.51100000000E-03 0. -1.
         11    1    4    4    0    0  0.69741971626E-02 -0.40506177461E-02 -0.68891343248E-03  0.81106505846E-02  0.51100000000E-03 0.  1.
</event>
<event>
 8    1  0.1052028E+005  0.1043930E+01  0.7957747E-01            NaN
         13   -1    0    0    0    0  0.00000000000E+00  0.00000000000E+00  0.74505805969E-08  0.10566000000E+00  0.10566000000E+00 0. -1.
     999900   -1    0    0    0    0 -0.00000000000E+00 -0.00000000000E+00 -0.74505805969E-08  0.93827000000E+00  0.93827000000E+00 0. -1.
     999902    2    1    2    0    0 -0.20547523642E-02  0.22412321656E-01 -0.89079382372E-02  0.10197249275E+01  0.10194376108E+01 0.  0.
     999903    2    3    3    0    0  0.18322008473E-01  0.53142623607E-01 -0.11805874810E+00  0.13221523005E+00  0.19574591106E-01 0.  0.
         14    1    1    2    0    0  0.20547523642E-02 -0.22412321656E-01  0.89079382372E-02  0.24205072463E-01  0.00000000000E+00 0.  1.
     999901    1    3    3    0    0 -0.20376760837E-01 -0.30730301951E-01  0.10915080986E+00  0.88750969749E+00  0.88000000000E+00 0.  1.
        -11    1    4    4    0    0  0.12040455085E-02  0.10739115321E-01 -0.94248620317E-02  0.14348082408E-01  0.51100000000E-03 0. -1.
         11    1    4    4    0    0  0.17117962965E-01  0.42403508286E-01 -0.10863388606E+00  0.11786714764E+00  0.51100000000E-03 0.  1.
</event>
<event>
 8    1  0.1052028E+005  0.1043930E+01  0.7957747E-01            NaN
         13   -1    0    0    0    0  0.00000000000E+00  0.00000000000E+00  0.74505805969E-08  0.10566000000E+00  0.10566000000E+00 0.  1.
     999900   -1    0    0    0    0 -0.00000000000E+00 -0.00000000000E+00 -0.74505805969E-08  0.93827000000E+00  0.93827000000E+00 0. -1.
     999902    2    1    2    0    0  0.64144057792E-02  0.22094875463E-01 -0.73140455339E-02  0.10197882647E+01  0.10195024676E+01 0.  0.
     999903    2    3    3    0    0 -0.90888739211E-01  0.33631750384E-01 -0.87484324156E-01  0.13072793201E+00  0.66654096870E-02 0.  0.
         14    1    1    2    0    0 -0.64144057792E-02 -0.22094875463E-01  0.73140455339E-02  0.24141735342E-01  0.00000000000E+00 0. -1.
     999901    1    3    3    0    0  0.97303144990E-01 -0.11536874921E-01  0.80170278622E-01  0.88906033264E+00  0.88000000000E+00 0. -1.
        -11    1    4    4    0    0 -0.65703748838E-01  0.26428183954E-01 -0.66684253191E-01  0.97275291123E-01  0.51100000000E-03 0.  1.
         11    1    4    4    0    0 -0.25184990373E-01  0.72035664303E-02 -0.20800070965E-01  0.33452640891E-01  0.51100000000E-03 0. -1.
</event>
<event>
 8    1  0.1052028E+005  0.1043930E+01  0.7957747E-01            NaN
         13   -1    0    0    0    0  0.00000000000E+00  0.00000000000E+00  0.74505805969E-08  0.10566000000E+00  0.10566000000E+00 0.  1.
     999900   -1    0    0    0    0 -0.00000000000E+00 -0.00000000000E+00 -0.74505805969E-08  0.93827000000E+00  0.93827000000E+00 0.  1.
     999902    2    1    2    0    0 -0.18067692367E-01 -0.15032237446E-01  0.48670314007E-02  0.10199279654E+01  0.10196455055E+01 0.  0.
     999903    2    3    3    0    0 -0.21163236721E-01 -0.97208483737E-01 -0.83889865205E-01  0.13164855860E+00  0.19911343489E-01 0.  0.
         14    1    1    2    0    0  0.18067692367E-01  0.15032237446E-01 -0.48670314007E-02  0.24002034596E-01  0.00000000000E+00 0.  1.
     999901    1    3    3    0    0  0.30955443537E-02  0.82176246292E-01  0.88756896606E-01  0.88827940680E+00  0.88000000000E+00 0. -1.
        -11    1    4    4    0    0 -0.15032307219E-02 -0.43164702121E-01 -0.43998301186E-01  0.61656815033E-01  0.51100000000E-03 0. -1.
         11    1    4    4    0    0 -0.19660005999E-01 -0.54043781616E-01 -0.39891564019E-01  0.69991743571E-01  0.51100000000E-03 0.  1.
</event>
<event>
 8    1  0.1052028E+005  0.1043930E+01  0.7957747E-01            NaN
         13   -1    0    0    0    0  0.00000000000E+00  0.00000000000E+00  0.74505805969E-08  0.10566000000E+00  0.10566000000E+00 0.  1.
     999900   -1    0    0    0    0 -0.00000000000E+00 -0.00000000000E+00 -0.74505805969E-08  0.93827000000E+00  0.93827000000E+00 0.  1.
     999902    2    1    2    0    0  0.77153457740E-02 -0.54793075855E-03  0.22766840988E-01  0.10198851287E+01  0.10196016476E+01 0.  0.
     999903    2    3    3    0    0 -0.81654623400E-01 -0.84248098154E-01 -0.48537088424E-01  0.12855075833E+00  0.20105445742E-01 0.  0.
         14    1    1    2    0    0 -0.77153457740E-02  0.54793075855E-03 -0.22766840988E-01  0.24044871326E-01  0.00000000000E+00 0. -1.
     999901    1    3    3    0    0  0.89369969174E-01  0.83700167396E-01  0.71303929412E-01  0.89133437035E+00  0.88000000000E+00 0. -1.
        -11    1    4    4    0    0 -0.48298124229E-02 -0.52448217903E-02  0.18423751954E-02  0.73817823737E-02  0.51100000000E-03 0.  1.
         11    1    4    4    0    0 -0.76824810977E-01 -0.79003276364E-01 -0.50379463620E-01  0.12116897595E+00  0.51100000000E-03 0. -1.
</event>
<event>
 8    1  0.1052028E+005  0.1043930E+01  0.7957747E-01            NaN
         13   -1    0    0    0    0  0.00000000000E+00  0.00000000000E+00  0.74505805969E-08  0.10566000000E+00  0.10566000000E+00 0. -1.
     999900   -1    0    0    0    0 -0.00000000000E+00 -0.00000000000E+00 -0.74505805969E-08  0.93827000000E+00  0.93827000000E+00 0.  1.
     999902    2    1    2    0    0 -0.88658582430E-02 -0.15704924266E-01 -0.14533070959E-01  0.10207684318E+01  0.10205056262E+01 0.  0.
     999903    2    3    3    0    0 -0.31921077758E-01 -0.12772535363E+00 -0.55808431724E-02  0.13332251115E+00  0.20273751588E-01 0.  0.
         14    1    1    2    0    0  0.88658582430E-02  0.15704924266E-01  0.14533070959E-01  0.23161568170E-01  0.00000000000E+00 0. -1.
     999901    1    3    3    0    0  0.23055219515E-01  0.11202042937E+00 -0.89522277870E-02  0.88744592068E+00  0.88000000000E+00 0.  1.
        -11    1    4    4    0    0 -0.15128978448E-01 -0.58846660068E-01  0.75145368225E-02  0.61225360552E-01  0.51100000000E-03 0.  1.
         11    1    4    4    0    0 -0.16792099311E-01 -0.68878693566E-01 -0.13095379995E-01  0.72097150602E-01  0.51100000000E-03 0. -1.
</event>
<event>
 8    1  0.1052028E+005  0.1043930E+01  0.7957747E-01            NaN
         13   -1    0    0    0    0  0.00000000000E+00  0.00000000000E+00  0.74505805969E-08  0.10566000000E+00  0.10566000000E+00 0.  1.
     999900   -1    0    0    0    0 -0.00000000000E+00 -0.00000000000E+00 -0.74505805969E-08  0.93827000000E+00  0.93827000000E+00 0.  1.
     999902    2    1    2    0    0  0.23519571400E-01  0.93245212423E-02  0.13626275349E-01  0.10151933976E+01  0.10147865994E+01 0.  0.
     999903    2    3    3    0    0  0.19344404324E-01 -0.11644584620E+00  0.38931242196E-01  0.12588132716E+00  0.19915467176E-01 0.  0.
         14    1    1    2    0    0 -0.23519571400E-01 -0.93245212423E-02 -0.13626275349E-01  0.28736602359E-01  0.00000000000E+00 0. -1.
     999901    1    3    3    0    0  0.41751670762E-02  0.12577036745E+00 -0.25304966847E-01  0.88931207048E+00  0.88000000000E+00 0.  1.
        -11    1    4    4    0    0  0.20444627383E-03 -0.26462790567E-01  0.13474040039E-02  0.26502786673E-01  0.51100000000E-03 0. -1.
         11    1    4    4    0    0  0.19139958050E-01 -0.89983055638E-01  0.37583838192E-01  0.99378540492E-01  0.51100000000E-03 0.  1.
</event>
<event>
 8    1  0.1052028E+005  0.1043930E+01  0.7957747E-01            NaN
         13   -1    0    0    0    0  0.00000000000E+00  0.00000000000E+00  0.74505805969E-08  0.10566000000E+00  0.10566000000E+00 0.  1.
     999900   -1    0    0    0    0 -0.00000000000E+00 -0.00000000000E+00 -0.74505805969E-08  0.93827000000E+00  0.93827000000E+00 0.  1.
     999902    2    1    2    0    0  0.40151154607E-02  0.23502360436E-02 -0.22752994188E-01  0.10207062297E+01  0.10204419944E+01 0.  0.
     999903    2    3    3    0    0 -0.68866996191E-01 -0.10638997235E+00  0.18242282431E-01  0.13007900813E+00  0.22940752119E-01 0.  0.
         14    1    1    2    0    0 -0.40151154607E-02 -0.23502360436E-02  0.22752994188E-01  0.23223770282E-01  0.00000000000E+00 0.  1.
     999901    1    3    3    0    0  0.72882111652E-01  0.10874020839E+00 -0.40995276619E-01  0.89062722158E+00  0.88000000000E+00 0. -1.
        -11    1    4    4    0    0 -0.38790890117E-01 -0.75843963311E-01  0.18645825780E-01  0.87206466886E-01  0.51100000000E-03 0.  1.
         11    1    4    4    0    0 -0.30076106074E-01 -0.30546009040E-01 -0.40354334859E-03  0.42872541248E-01  0.51100000000E-03 0. -1.
</event>
<event>
 8    1  0.1052028E+005  0.1043930E+01  0.7957747E-01            NaN
         13   -1    0    0    0    0  0.00000000000E+00  0.00000000000E+00  0.74505805969E-08  0.10566000000E+00  0.10566000000E+00 0.  1.
     999900   -1    0    0    0    0 -0.00000000000E+00 -0.00000000000E+00 -0.74505805969E-08  0.93827000000E+00  0.93827000000E+00 0.  1.
     999902    2    1    2    0    0 -0.86816636444E-02 -0.17649275537E-01 -0.11901553483E-01  0.10209405419E+01  0.10206816716E+01 0.  0.
     999903    2    3    3    0    0  0.10351683760E-01  0.11937886038E+00 -0.45106544715E-01  0.12951384841E+00  0.19513249089E-01 0.  0.
         14    1    1    2    0    0  0.86816636444E-02  0.17649275537E-01  0.11901553483E-01  0.22989458147E-01  0.00000000000E+00 0.  1.
     999901    1    3    3    0    0 -0.19033347405E-01 -0.13702813592E+00  0.33204991233E-01  0.89142669345E+00  0.88000000000E+00 0. -1.
        -11    1    4    4    0    0  0.14083246951E-03  0.37826145247E-01 -0.23483381281E-01  0.44526030762E-01  0.51100000000E-03 0. -1.
         11    1    4    4    0    0  0.10210851291E-01  0.81552715135E-01 -0.21623163434E-01  0.84987817644E-01  0.51100000000E-03 0.  1.
</event>
<event>
 8    1  0.1052028E+005  0.1043930E+01  0.7957747E-01            NaN
         13   -1    0    0    0    0  0.00000000000E+00  0.00000000000E+00  0.74505805969E-08  0.10566000000E+00  0.10566000000E+00 0.  1.
     999900   -1    0    0    0    0 -0.00000000000E+00 -0.00000000000E+00 -0.74505805969E-08  0.93827000000E+00  0.93827000000E+00 0. -1.
     999902    2    1    2    0    0 -0.95262588399E-02  0.17027409227E-01 -0.14925127833E-01  0.10193649494E+01  0.10190689173E+01 0.  0.
     999903    2    3    3    0    0 -0.65394389522E-01 -0.70917132396E-01 -0.85379307030E-01  0.13042216053E+00  0.20362908467E-01 0.  0.
         14    1    1    2    0    0  0.95262588399E-02 -0.17027409227E-01  0.14925127833E-01  0.24565050647E-01  0.00000000000E+00 0.  1.
     999901    1    3    3    0    0  0.55868130682E-01  0.87944541622E-01  0.70454179197E-01  0.88894278882E+00  0.88000000000E+00 0.  1.
        -11    1    4    4    0    0 -0.46789132799E-02 -0.15173714966E-01 -0.10341320123E-01  0.18956209490E-01  0.51100000000E-03 0. -1.
         11    1    4    4    0    0 -0.60715476242E-01 -0.55743417430E-01 -0.75037986907E-01  0.11146595104E+00  0.51100000000E-03 0.  1.
</event>
<event>
 8    1  0.1052028E+005  0.1043930E+01  0.7957747E-01            NaN
         13   -1    0    0    0    0  0.00000000000E+00  0.00000000000E+00  0.74505805969E-08  0.10566000000E+00  0.10566000000E+00 0.  1.
     999900   -1    0    0    0    0 -0.00000000000E+00 -0.00000000000E+00 -0.74505805969E-08  0.93827000000E+00  0.93827000000E+00 0.  1.
     999902    2    1    2    0    0  0.98649749188E-02  0.18864735936E-01 -0.13286597866E-01  0.10188355848E+01  0.10185264941E+01 0.  0.
     999903    2    3    3    0    0 -0.86606436543E-01 -0.90129710765E-01  0.23497962847E-02  0.12674196892E+00  0.20831839352E-01 0.  0.
         14    1    1    2    0    0 -0.98649749188E-02 -0.18864735936E-01  0.13286597866E-01  0.25094415214E-01  0.00000000000E+00 0.  1.
     999901    1    3    3    0    0  0.96471411462E-01  0.10899444670E+00 -0.15636394150E-01  0.89209361586E+00  0.88000000000E+00 0.  1.
        -11    1    4    4    0    0 -0.44716040588E-01 -0.36301418327E-01 -0.64859492126E-02  0.57962452645E-01  0.51100000000E-03 0.  1.
         11    1    4    4    0    0 -0.41890395956E-01 -0.53828292437E-01  0.88357454974E-02  0.68779516279E-01  0.51100000000E-03 0. -1.
</event>
<event>
 8    1  0.1052028E+005  0.1043930E+01  0.7957747E-01            NaN
         13   -1    0    0    0    0  0.00000000000E+00  0.00000000000E+00  0.74505805969E-08  0.10566000000E+00  0.10566000000E+00 0.  1.
     999900   -1    0    0    0    0 -0.00000000000E+00 -0.00000000000E+00 -0.74505805969E-08  0.93827000000E+00  0.93827000000E+00 0. -1.
     999902    2    1    2    0    0  0.13568724916E-01  0.16879406292E-01 -0.10664225864E-01  0.10197897770E+01  0.10195040161E+01 0.  0.
     999903    2    3    3    0    0  0.85218183343E-01 -0.95185813605E-01 -0.96136036199E-02  0.12979350612E+00  0.20771494199E-01 0.  0.
         14    1    1    2    0    0 -0.13568724916E-01 -0.16879406292E-01  0.10664225864E-01  0.24140222988E-01  0.00000000000E+00 0. -1.
     999901    1    3    3    0    0 -0.71649458427E-01  0.11206521990E+00 -0.10506222445E-02  0.88999627090E+00  0.88000000000E+00 0.  1.
        -11    1    4    4    0    0  0.46402238237E-01 -0.57172057849E-01  0.41285886966E-02  0.73750378153E-01  0.51100000000E-03 0.  1.
         11    1    4    4    0    0  0.38815945106E-01 -0.38013755756E-01 -0.13742192316E-01  0.56043127962E-01  0.51100000000E-03 0. -1.
</event>
<event>
 8    1  0.1052028E+005  0.1043930E+01  0.7957747E-01            NaN
         13   -1    0    0    0    0  0.00000000000E+00  0.00000000000E+00  0.74505805969E-08  0.10566000000E+00  0.10566000000E+00 0. -1.
     999900   -1    0    0    0    0 -0.00000000000E+00 -0.00000000000E+00 -0.74505805969E-08  0.93827000000E+00  0.93827000000E+00 0.  1.
     999902    2    1    2    0    0  0.98266848321E-02 -0.15770028354E-01  0.14221877731E-01  0.10205308689E+01  0.10202625814E+01 0.  0.
     999903    2    3    3    0    0  0.32122535717E-01  0.10951202680E+00  0.59540182478E-01  0.13022392912E+00  0.19710329086E-01 0.  0.
         14    1    1    2    0    0 -0.98266848321E-02  0.15770028354E-01 -0.14221877731E-01  0.23399131080E-01  0.00000000000E+00 0.  1.
     999901    1    3    3    0    0 -0.22295850884E-01 -0.12528205515E+00 -0.45318304747E-01  0.89030693980E+00  0.88000000000E+00 0.  1.
        -11    1    4    4    0    0  0.29478616642E-03  0.32119863596E-01  0.15857371201E-01  0.35825826979E-01  0.51100000000E-03 0.  1.
         11    1    4    4    0    0  0.31827749550E-01  0.77392163199E-01  0.43682811276E-01  0.94398102143E-01  0.51100000000E-03 0. -1.
</event>
<event>
 8    1  0.1052028E+005  0.1043930E+01  0.7957747E-01            NaN
         13   -1    0    0    0    0  0.00000000000E+00  0.00000000000E+00  0.74505805969E-08  0.10566000000E+00  0.10566000000E+00 0.  1.
     999900   -1    0    0    0    0 -0.00000000000E+00 -0.00000000000E+00 -0.74505805969E-08  0.93827000000E+00  0.93827000000E+00 0. -1.
     999902    2    1    2    0    0 -0.15277527215E-01  0.10578692049E-01 -0.13889961927E-01  0.10207299438E+01  0.10204662541E+01 0.  0.
     999903    2    3    3    0    0 -0.92754986047E-01  0.34194420724E-01  0.84515639420E-01  0.13154822921E+00  0.19730622290E-01 0.  0.
         14    1    1    2    0    0  0.15277527215E-01 -0.10578692049E-01  0.13889961927E-01  0.23200056155E-01  0.00000000000E+00 0. -1.
     999901    1    3    3    0    0  0.77477458832E-01 -0.23615728674E-01 -0.98405601347E-01  0.88918171464E+00  0.88000000000E+00 0. -1.
        -11    1    4    4    0    0 -0.57933316256E-01  0.30915872278E-01  0.58622802776E-01  0.88028145598E-01  0.51100000000E-03 0.  1.
         11    1    4    4    0    0 -0.34821669791E-01  0.32785484461E-02  0.25892836644E-01  0.43520083610E-01  0.51100000000E-03 0. -1.
</event>
<event>
 8    1  0.1052028E+005  0.1043930E+01  0.7957747E-01            NaN
         13   -1    0    0    0    0  0.00000000000E+00  0.00000000000E+00  0.74505805969E-08  0.10566000000E+00  0.10566000000E+00 0. -1.
     999900   -1    0    0    0    0 -0.00000000000E+00 -0.00000000000E+00 -0.74505805969E-08  0.93827000000E+00  0.93827000000E+00 0.  1.
     999902    2    1    2    0    0 -0.24629481675E-01  0.24950118817E-03 -0.12687434408E-01  0.10162235998E+01  0.10158458349E+01 0.  0.
     999903    2    3    3    0    0  0.94944489518E-01  0.49588564410E-01  0.59174180502E-01  0.12386920306E+00  0.19196718926E-01 0.  0.
         14    1    1    2    0    0  0.24629481675E-01 -0.24950118817E-03  0.12687434408E-01  0.27706400168E-01  0.00000000000E+00 0. -1.
     999901    1    3    3    0    0 -0.11957397119E+00 -0.49339063222E-01 -0.71861614910E-01  0.89235439678E+00  0.88000000000E+00 0.  1.
        -11    1    4    4    0    0  0.86560808930E-01  0.42469269712E-01  0.46394612806E-01  0.10700062491E+00  0.51100000000E-03 0. -1.
         11    1    4    4    0    0  0.83836805887E-02  0.71192946987E-02  0.12779567697E-01  0.16868578148E-01  0.51100000000E-03 0.  1.
</event>
<event>
 8    1  0.1052028E+005  0.1043930E+01  0.7957747E-01            NaN
         13   -1    0    0    0    0  0.00000000000E+00  0.00000000000E+00  0.74505805969E-08  0.10566000000E+00  0.10566000000E+00 0.  1.
     999900   -1    0    0    0    0 -0.00000000000E+00 -0.00000000000E+00 -0.74505805969E-08  0.93827000000E+00  0.93827000000E+00 0.  1.
     999902    2    1    2    0    0 -0.22171846321E-01  0.57449746436E-02  0.77675994092E-02  0.10197446511E+01  0.10194578080E+01 0.  0.
     999903    2    3    3    0    0 -0.96819418227E-01  0.13757934158E-01  0.87160183518E-01  0.13298670780E+00  0.22919126584E-01 0.  0.
         14    1    1    2    0    0  0.22171846321E-01 -0.57449746436E-02 -0.77675994092E-02  0.24185348943E-01  0.00000000000E+00 0. -1.
     999901    1    3    3    0    0  0.74647571906E-01 -0.80129595148E-02 -0.79392584109E-01  0.88675794325E+00  0.88000000000E+00 0.  1.
        -11    1    4    4    0    0 -0.92750452214E-02 -0.49417016678E-02  0.57817052567E-02  0.12005670157E-01  0.51100000000E-03 0.  1.
         11    1    4    4    0    0 -0.87544373005E-01  0.18699635826E-01  0.81378478261E-01  0.12098103765E+00  0.51100000000E-03 0. -1.
</event>
<event>
 8    1  0.1052028E+005  0.1043930E+01  0.7957747E-01            NaN
         13   -1    0    0    0    0  0.00000000000E+00  0.00000000000E+00  0.74505805969E-08  0.10566000000E+00  0.10566000000E+00 0. -1.
     999900   -1    0    0    0    0 -0.00000000000E+00 -0.00000000000E+00 -0.74505805969E-08  0.93827000000E+00  0.93827000000E+00 0.  1.
     999902    2    1    2    0    0 -0.12073687140E-01 -0.55939407260E-02  0.19065550827E-01  0.10206800253E+01  0.10204151865E+01 0.  0.
     999903    2    3    3    0    0 -0.63833861706E-01 -0.81751824143E-01 -0.76971155484E-01  0.13067879621E+00  0.19856141371E-01 0.  0.
         14    1    1    2    0    0  0.12073687140E-01  0.55939407260E-02 -0.19065550827E-01  0.23249974674E-01  0.00000000000E+00 0.  1.
     999901    1    3    3    0    0  0.51760174567E-01  0.76157883417E-01  0.96036706311E-01  0.89000122912E+00  0.88000000000E+00 0. -1.
        -11    1    4    4    0    0 -0.39432459301E-02 -0.51430999335E-02  0.24880719429E-03  0.65056661005E-02  0.51100000000E-03 0.  1.
         11    1    4    4    0    0 -0.59890615776E-01 -0.76608724209E-01 -0.77219962678E-01  0.12417313010E+00  0.51100000000E-03 0. -1.
</event>
<event>
 8    1  0.1052028E+005  0.1043930E+01  0.7957747E-01            NaN
         13   -1    0    0    0    0  0.00000000000E+00  0.00000000000E+00  0.74505805969E-08  0.10566000000E+00  0.10566000000E+00 0. -1.
     999900   -1    0    0    0    0 -0.00000000000E+00 -0.00000000000E+00 -0.74505805969E-08  0.93827000000E+00  0.93827000000E+00 0. -1.
     999902    2    1    2    0    0 -0.17796059758E-02  0.98249138272E-02  0.20279544011E-01  0.10213256678E+01  0.10210754937E+01 0.  0.
     999903    2    3    3    0    0  0.16034016141E-01 -0.62506591617E-01 -0.10905673490E+00  0.12875799817E+00  0.22827330055E-01 0.  0.
         14    1    1    2    0    0  0.17796059758E-02 -0.98249138272E-02 -0.20279544011E-01  0.22604332205E-01  0.00000000000E+00 0.  1.
     999901    1    3    3    0    0 -0.17813622117E-01  0.72331505444E-01  0.12933627891E+00  0.89256766962E+00  0.88000000000E+00 0.  1.
        -11    1    4    4    0    0  0.18234425975E-01 -0.38339888960E-01 -0.82472739987E-01  0.92760203417E-01  0.51100000000E-03 0. -1.
         11    1    4    4    0    0 -0.22004098334E-02 -0.24166702658E-01 -0.26583994912E-01  0.35997794755E-01  0.51100000000E-03 0.  1.
</event>
<event>
 8    1  0.1052028E+005  0.1043930E+01  0.7957747E-01            NaN
         13   -1    0    0    0    0  0.00000000000E+00  0.00000000000E+00  0.74505805969E-08  0.10566000000E+00  0.10566000000E+00 0.  1.
     999900   -1    0    0    0    0 -0.00000000000E+00 -0.00000000000E+00 -0.74505805969E-08  0.93827000000E+00  0.93827000000E+00 0. -1.
     999902    2    1    2    0    0  0.15944532662E-01 -0.11868956355E-01  0.13510222988E-01  0.10198961411E+01  0.10196129228E+01 0.  0.
     999903    2    3    3    0    0  0.12769845975E-01  0.79007302878E-01 -0.98623804218E-01  0.12813237579E+00  0.16912365070E-01 0.  0.
         14    1    1    2    0    0 -0.15944532662E-01  0.11868956355E-01 -0.13510222988E-01  0.24033858865E-01  0.00000000000E+00 0. -1.
     999901    1    3    3    0    0  0.31746866871E-02 -0.90876259233E-01  0.11213402721E+00  0.89176376535E+00  0.88000000000E+00 0.  1.
        -11    1    4    4    0    0  0.11318343223E-01  0.63841233839E-01 -0.68196824729E-01  0.94100350985E-01  0.51100000000E-03 0. -1.
         11    1    4    4    0    0  0.14515027521E-02  0.15166069039E-01 -0.30426979489E-01  0.34032024803E-01  0.51100000000E-03 0.  1.
</event>
<event>
 8    1  0.1052028E+005  0.1043930E+01  0.7957747E-01            NaN
         13   -1    0    0    0    0  0.00000000000E+00  0.00000000000E+00  0.74505805969E-08  0.10566000000E+00  0.10566000000E+00 0. -1.
     999900   -1    0    0    0    0 -0.00000000000E+00 -0.00000000000E+00 -0.74505805969E-08  0.93827000000E+00  0.93827000000E+00 0. -1.
     999902    2    1    2    0    0  0.10925064387E-01 -0.64312035459E-02 -0.20467938998E-01  0.10198539966E+01  0.10195697723E+01 0.  0.
     999903    2    3    3    0    0  0.11012248738E+00  0.18344681304E-01 -0.68890986021E-01  0.13261177228E+00  0.19401665754E-01 0.  0.
         14    1    1    2    0    0 -0.10925064387E-01  0.64312035459E-02  0.20467938998E-01  0.24076003359E-01  0.00000000000E+00 0. -1.
     999901    1    3    3    0    0 -0.99197422995E-01 -0.24775884849E-01  0.48423047022E-01  0.88724222436E+00  0.88000000000E+00 0. -1.
        -11    1    4    4    0    0  0.21241656707E-01  0.96776600557E-02 -0.20330467353E-01  0.30958909988E-01  0.51100000000E-03 0.  1.
         11    1    4    4    0    0  0.88880830675E-01  0.86670212479E-02 -0.48560518667E-01  0.10165286230E+00  0.51100000000E-03 0. -1.
</event>
<event>
 8    1  0.1052028E+005  0.1043930E+01  0.7957747E-01            NaN
         13   -1    0    0    0    0  0.00000000000E+00  0.00000000000E+00  0.74505805969E-08  0.10566000000E+00  0.10566000000E+00 0.  1.
     999900   -1    0    0    0    0 -0.00000000000E+00 -0.00000000000E+00 -0.74505805969E-08  0.93827000000E+00  0.93827000000E+00 0.  1.
     999902    2    1    2    0    0  0.99570178172E-02  0.18674297762E-01 -0.49184542532E-02  0.10222029939E+01  0.10219720632E+01 0.  0.
     999903    2    3    3    0    0 -0.11503856321E+00  0.17086171109E-02 -0.60225014722E-01  0.13148949048E+00  0.20631124750E-01 0.  0.
         14    1    1    2    0    0 -0.99570178172E-02 -0.18674297762E-01  0.49184542532E-02  0.21727006074E-01  0.00000000000E+00 0.  1.
     999901    1    3    3    0    0  0.12499558103E+00  0.16965680651E-01  0.55306560469E-01  0.89071350345E+00  0.88000000000E+00 0.  1.
        -11    1    4    4    0    0 -0.47811010292E-01 -0.88049257258E-02 -0.29111504665E-01  0.56667100217E-01  0.51100000000E-03 0.  1.
         11    1    4    4    0    0 -0.67227552923E-01  0.10513542837E-01 -0.31113510057E-01  0.74822390259E-01  0.51100000000E-03 0. -1.
</event>
<event>
 8    1  0.1052028E+005  0.1043930E+01  0.7957747E-01            NaN
         13   -1    0    0    0    0  0.00000000000E+00  0.00000000000E+00  0.74505805969E-08  0.10566000000E+00  0.10566000000E+00 0. -1.
     999900   -1    0    0    0    0 -0.00000000000E+00 -0.00000000000E+00 -0.74505805969E-08  0.93827000000E+00  0.93827000000E+00 0.  1.
     999902    2    1    2    0    0 -0.18133376294E-01  0.10454627725E-01 -0.10756189349E-01  0.10203967430E+01  0.10201253349E+01 0.  0.
     999903    2    3    3    0    0  0.57315269165E-01 -0.49172655756E-01 -0.10491366590E+00  0.13016444665E+00  0.15261576806E-01 0.  0.
         14    1    1    2    0    0  0.18133376294E-01 -0.10454627725E-01  0.10756189349E-01  0.23533257021E-01  0.00000000000E+00 0. -1.
     999901    1    3    3    0    0 -0.75448645459E-01  0.59627283481E-01  0.94157476546E-01  0.89023229633E+00  0.88000000000E+00 0. -1.
        -11    1    4    4    0    0  0.34621315846E-01 -0.38479377638E-01 -0.74836349897E-01  0.90994716337E-01  0.51100000000E-03 0. -1.
         11    1    4    4    0    0  0.22693953319E-01 -0.10693278119E-01 -0.30077315998E-01  0.39169730314E-01  0.51100000000E-03 0.  1.
</event>
<event>
 8    1  0.1052028E+005  0.1043930E+01  0.7957747E-01            NaN
         13   -1    0    0    0    0  0.00000000000E+00  0.00000000000E+00  0.74505805969E-08  0.10566000000E+00  0.10566000000E+00 0.  1.
     999900   -1    0    0    0    0 -0.00000000000E+00 -0.00000000000E+00 -0.74505805969E-08  0.93827000000E+00  0.93827000000E+00 0. -1.
     999902    2    1    2    0    0  0.61693415708E-02 -0.21514027732E-01 -0.73791184828E-02  0.10203638048E+01  0.10200916276E+01 0.  0.
     999903    2    3    3    0    0  0.97789732703E-01 -0.29328622176E-01 -0.81902465573E-01  0.13243976912E+00  0.20230637051E-01 0.  0.
         14    1    1    2    0    0 -0.61693415708E-02  0.21514027732E-01  0.73791184828E-02  0.23566195159E-01  0.00000000000E+00 0.  1.
     999901    1    3    3    0    0 -0.91620391132E-01  0.78145944443E-02  0.74523347091E-01  0.88792403573E+00  0.88000000000E+00 0.  1.
        -11    1    4    4    0    0  0.78394310777E-01 -0.18074307942E-01 -0.71828164094E-01  0.10785126262E+00  0.51100000000E-03 0.  1.
         11    1    4    4    0    0  0.19395421926E-01 -0.11254314235E-01 -0.10074301480E-01  0.24588506500E-01  0.51100000000E-03 0. -1.
</event>
<event>
 8    1  0.1052028E+005  0.1043930E+01  0.7957747E-01            NaN
         13   -1    0    0    0    0  0.00000000000E+00  0.00000000000E+00  0.74505805969E-08  0.10566000000E+00  0.10566000000E+00 0.  1.
     999900   -1    0    0    0    0 -0.00000000000E+00 -0.00000000000E+00 -0.74505805969E-08  0.93827000000E+00  0.93827000000E+00 0. -1.
     999902    2    1    2    0    0 -0.16691430923E-01 -0.14565542728E-01 -0.82794400166E-02  0.10202803060E+01  0.10200061739E+01 0.  0.
     999903    2    3    3    0    0 -0.97357964805E-01 -0.42303183648E-01 -0.78095681217E-01  0.13340332805E+00  0.20721482868E-01 0.  0.
         14    1    1    2    0    0  0.16691430923E-01  0.14565542728E-01  0.82794400166E-02  0.23649694040E-01  0.00000000000E+00 0. -1.
     999901    1    3    3    0    0  0.80666533882E-01  0.27737640920E-01  0.69816241200E-01  0.88687697791E+00  0.88000000000E+00 0.  1.
        -11    1    4    4    0    0 -0.11892866682E-01 -0.78237011492E-02 -0.19663382584E-01  0.24280863107E-01  0.51100000000E-03 0.  1.
         11    1    4    4    0    0 -0.85465098123E-01 -0.34479482499E-01 -0.58432298633E-01  0.10912246494E+00  0.51100000000E-03 0. -1.
</event>
<event>
 8    1  0.1052028E+005  0.1043930E+01  0.7957747E-01            NaN
         13   -1    0    0    0    0  0.00000000000E+00  0.00000000000E+00  0.74505805969E-08  0.10566000000E+00  0.10566000000E+00 0.  1.
     999900   -1    0    0    0    0 -0.00000000000E+00 -0.00000000000E+00 -0.74505805969E-08  0.93827000000E+00  0.93827000000E+00 0. -1.
     999902    2    1    2    0    0 -0.20544350431E-01  0.25446617871E-02  0.16739087800E-01  0.10173077781E+01  0.10169593761E+01 0.  0.
     999903    2    3    3    0    0  0.87181922025E-02  0.12050830727E+00 -0.35020395210E-01  0.12744781039E+00  0.20451339713E-01 0.  0.
         14    1    1    2    0    0  0.20544350431E-01 -0.25446617871E-02 -0.16739087800E-01  0.26622221895E-01  0.00000000000E+00 0.  1.
     999901    1    3    3    0    0 -0.29262542633E-01 -0.11796364549E+00  0.51759483010E-01  0.88985996771E+00  0.88000000000E+00 0.  1.
        -11    1    4    4    0    0  0.79806609663E-02  0.25872624947E-01 -0.17751081792E-02  0.27138456131E-01  0.51100000000E-03 0.  1.
         11    1    4    4    0    0  0.73753123622E-03  0.94635682326E-01 -0.33245287031E-01  0.10030935426E+00  0.51100000000E-03 0. -1.
</event>
<event>
 8    1  0.1052028E+005  0.1043930E+01  0.7957747E-01            NaN
         13   -1    0    0    0    0  0.00000000000E+00  0.00000000000E+00  0.74505805969E-08  0.10566000000E+00  0.10566000000E+00 0.  1.
     999900   -1    0    0    0    0 -0.00000000000E+00 -0.00000000000E+00 -0.74505805969E-08  0.93827000000E+00  0.93827000000E+00 0.  1.
     999902    2    1    2    0    0  0.10650364266E-04 -0.13288422757E-01  0.25035813384E-01  0.10155861427E+01  0.10151905432E+01 0.  0.
     999903    2    3    3    0    0 -0.55690643217E-01 -0.10996301216E+00 -0.24161552526E-01  0.12717802078E+00  0.19928787342E-01 0.  0.
         14    1    1    2    0    0 -0.10650364266E-04  0.13288422757E-01 -0.25035813384E-01  0.28343857264E-01  0.00000000000E+00 0. -1.
     999901    1    3    3    0    0  0.55701293582E-01  0.96674589399E-01  0.49197365910E-01  0.88840812195E+00  0.88000000000E+00 0. -1.
        -11    1    4    4    0    0 -0.16868004468E-01 -0.47995187606E-01 -0.17273033310E-01  0.53727892279E-01  0.51100000000E-03 0.  1.
         11    1    4    4    0    0 -0.38822638749E-01 -0.61967824550E-01 -0.68885192161E-02  0.73450128502E-01  0.51100000000E-03 0. -1.
</event>
<event>
 8    1  0.1052028E+005  0.1043930E+01  0.7957747E-01            NaN
         13   -1    0    0    0    0  0.00000000000E+00  0.00000000000E+00  0.74505805969E-08  0.10566000000E+00  0.10566000000E+00 0. -1.
     999900   -1    0    0    0    0 -0.00000000000E+00 -0.00000000000E+00 -0.74505805969E-08  0.93827000000E+00  0.93827000000E+00 0.  1.
     999902    2    1    2    0    0  0.10687301396E-01 -0.24402909347E-01 -0.12917898001E-01  0.10143226954E+01  0.10138904960E+01 0.  0.
     999903    2    3    3    0    0  0.10906400016E+00  0.71018656454E-02 -0.61042048992E-01  0.12697470302E+00  0.21237957445E-01 0.  0.
         14    1    1    2    0    0 -0.10687301396E-01  0.24402909347E-01  0.12917898001E-01  0.29607304580E-01  0.00000000000E+00 0.  1.
     999901    1    3    3    0    0 -0.98376698760E-01 -0.31504774992E-01  0.48124150992E-01  0.88734799240E+00  0.88000000000E+00 0. -1.
        -11    1    4    4    0    0  0.41459701183E-01  0.86953680698E-02 -0.33278207758E-01  0.53872223647E-01  0.51100000000E-03 0.  1.
         11    1    4    4    0    0  0.67604298973E-01 -0.15935024244E-02 -0.27763841234E-01  0.73102479374E-01  0.51100000000E-03 0. -1.
</event>
<event>
 8    1  0.1052028E+005  0.1043930E+01  0.7957747E-01            NaN
         13   -1    0    0    0    0  0.00000000000E+00  0.00000000000E+00  0.74505805969E-08  0.10566000000E+00  0.10566000000E+00 0.  1.
     999900   -1    0    0    0    0 -0.00000000000E+00 -0.00000000000E+00 -0.74505805969E-08  0.93827000000E+00  0.93827000000E+00 0.  1.
     999902    2    1    2    0    0  0.18915075967E-01 -0.54705082416E-02 -0.15229739579E-01  0.10190371993E+01  0.10187331162E+01 0.  0.
     999903    2    3    3    0    0  0.11618070007E+00  0.40916111730E-01 -0.43057076409E-01  0.13202723271E+00  0.20129458053E-01 0.  0.
         14    1    1    2    0    0 -0.18915075967E-01  0.54705082416E-02  0.15229739579E-01  0.24892800705E-01  0.00000000000E+00 0.  1.
     999901    1    3    3    0    0 -0.97265624100E-01 -0.46386619971E-01  0.27827336830E-01  0.88700996658E+00  0.88000000000E+00 0.  1.
        -11    1    4    4    0    0  0.73890470618E-01  0.27781144129E-01 -0.37492324496E-01  0.87392958151E-01  0.51100000000E-03 0.  1.
         11    1    4    4    0    0  0.42290229449E-01  0.13134967600E-01 -0.55647519130E-02  0.44634274560E-01  0.51100000000E-03 0. -1.
</event>
<event>
 8    1  0.1052028E+005  0.1043930E+01  0.7957747E-01            NaN
         13   -1    0    0    0    0  0.00000000000E+00  0.00000000000E+00  0.74505805969E-08  0.10566000000E+00  0.10566000000E+00 0. -1.
     999900   -1    0    0    0    0 -0.00000000000E+00 -0.00000000000E+00 -0.74505805969E-08  0.93827000000E+00  0.93827000000E+00 0. -1.
     999902    2    1    2    0    0 -0.33239803865E-02 -0.13019805157E-03 -0.22950735642E-01  0.10207394402E+01  0.10204759687E+01 0.  0.
     999903    2    3    3    0    0  0.12513305424E+00  0.18276340430E-01  0.22760488556E-01  0.13004896286E+00  0.20059586718E-01 0.  0.
         14    1    1    2    0    0  0.33239803865E-02  0.13019805157E-03  0.22950735642E-01  0.23190559796E-01  0.00000000000E+00 0. -1.
     999901    1    3    3    0    0 -0.12845703463E+00 -0.18406538482E-01 -0.45711224199E-01  0.89069047734E+00  0.88000000000E+00 0. -1.
        -11    1    4    4    0    0  0.22836750884E-01 -0.33288753787E-02  0.81428944705E-02  0.24477876820E-01  0.51100000000E-03 0.  1.
         11    1    4    4    0    0  0.10229630336E+00  0.21605215809E-01  0.14617594086E-01  0.10557108605E+00  0.51100000000E-03 0. -1.
</event>
<event>
 8    1  0.1052028E+005  0.1043930E+01  0.7957747E-01            NaN
         13   -1    0    0    0    0  0.00000000000E+00  0.00000000000E+00  0.74505805969E-08  0.10566000000E+00  0.10566000000E+00 0. -1.
     999900   -1    0    0    0    0 -0.00000000000E+00 -0.00000000000E+00 -0.74505805969E-08  0.93827000000E+00  0.93827000000E+00 0.  1.
     999902    2    1    2    0    0 -0.82851574086E-02  0.11677079236E-01 -0.10308050123E-01  0.10262876104E+01  0.10261359585E+01 0.  0.
     999903    2    3    3    0    0 -0.12388826315E+00  0.47672111007E-01  0.28927208893E-01  0.13713119790E+00  0.18634648112E-01 0.  0.
         14    1    1    2    0    0  0.82851574086E-02 -0.11677079236E-01  0.10308050123E-01  0.17642389580E-01  0.00000000000E+00 0. -1.
     999901    1    3    3    0    0  0.11560310574E+00 -0.35995031771E-01 -0.39235259016E-01  0.88915641252E+00  0.88000000000E+00 0. -1.
        -11    1    4    4    0    0 -0.25053925338E-01  0.96570977604E-02  0.13698201632E-01  0.30147314324E-01  0.51100000000E-03 0.  1.
         11    1    4    4    0    0 -0.98834337811E-01  0.38015013246E-01  0.15229007261E-01  0.10698388358E+00  0.51100000000E-03 0. -1.
</event>
<event>
 8    1  0.1052028E+005  0.1043930E+01  0.7957747E-01            NaN
         13   -1    0    0    0    0  0.00000000000E+00  0.00000000000E+00  0.74505805969E-08  0.10566000000E+00  0.10566000000E+00 0. -1.
     999900   -1    0    0    0    0 -0.00000000000E+00 -0.00000000000E+00 -0.74505805969E-08  0.93827000000E+00  0.93827000000E+00 0. -1.
     999902    2    1    2    0    0 -0.15952781814E-02 -0.12623683531E-02 -0.24311501420E-01  0.10195335333E+01  0.10192415994E+01 0.  0.
     999903    2    3    3    0    0  0.44337862499E-01 -0.11794001920E+00 -0.27151255044E-01  0.13064006846E+00  0.21305930129E-01 0.  0.
         14    1    1    2    0    0  0.15952781814E-02  0.12623683531E-02  0.24311501420E-01  0.24396466704E-01  0.00000000000E+00 0. -1.
     999901    1    3    3    0    0 -0.45933140680E-01  0.11667765085E+00  0.28397536239E-02  0.88889346483E+00  0.88000000000E+00 0. -1.
        -11    1    4    4    0    0  0.28567475602E-01 -0.47963494909E-01 -0.15735384657E-01  0.58003973635E-01  0.51100000000E-03 0. -1.
         11    1    4    4    0    0  0.15770386897E-01 -0.69976524289E-01 -0.11415870386E-01  0.72636094830E-01  0.51100000000E-03 0.  1.
</event>
<event>
 8    1  0.1052028E+005  0.1043930E+01  0.7957747E-01            NaN
         13   -1    0    0    0    0  0.00000000000E+00  0.00000000000E+00  0.74505805969E-08  0.10566000000E+00  0.10566000000E+00 0. -1.
     999900   -1    0    0    0    0 -0.00000000000E+00 -0.00000000000E+00 -0.74505805969E-08  0.93827000000E+00  0.93827000000E+00 0. -1.
     999902    2    1    2    0    0  0.78799682609E-02 -0.27149770761E-02 -0.22459754416E-01  0.10199736737E+01  0.10196923014E+01 0.  0.
     999903    2    3    3    0    0 -0.10023493486E-01 -0.53113180130E-01 -0.11982602197E+00  0.13298962490E+00  0.20161459850E-01 0.  0.
         14    1    1    2    0    0 -0.78799682609E-02  0.27149770761E-02  0.22459754416E-01  0.23956326278E-01  0.00000000000E+00 0. -1.
     999901    1    3    3    0    0  0.17903461747E-01  0.50398203054E-01  0.97366267555E-01  0.88698404883E+00  0.88000000000E+00 0.  1.
        -11    1    4    4    0    0 -0.11997298719E-01 -0.21943996378E-01 -0.38944891857E-01  0.46286497776E-01  0.51100000000E-03 0.  1.
         11    1    4    4    0    0  0.19738052323E-02 -0.31169183752E-01 -0.80881130114E-01  0.86703127120E-01  0.51100000000E-03 0. -1.
</event>
<event>
 8    1  0.1052028E+005  0.1043930E+01  0.7957747E-01            NaN
         13   -1    0    0    0    0  0.00000000000E+00  0.00000000000E+00  0.74505805969E-08  0.10566000000E+00  0.10566000000E+00 0.  1.
     999900   -1    0    0    0    0 -0.00000000000E+00 -0.00000000000E+00 -0.74505805969E-08  0.93827000000E+00  0.93827000000E+00 0. -1.
     999902    2    1    2    0    0  0.20876622762E-02  0.47000130372E-02 -0.23682517895E-01  0.10196955182E+01  0.10194074944E+01 0.  0.
     999903    2    3    3    0    0 -0.31450717827E-01  0.12510558204E+00 -0.50666728456E-03  0.13056142026E+00  0.20136371090E-01 0.  0.
         14    1    1    2    0    0 -0.20876622762E-02 -0.47000130372E-02  0.23682517895E-01  0.24234481842E-01  0.00000000000E+00 0.  1.
     999901    1    3    3    0    0  0.33538380103E-01 -0.12040556900E+00 -0.23175850610E-01  0.88913409789E+00  0.88000000000E+00 0.  1.
        -11    1    4    4    0    0 -0.97281970472E-03  0.39871448998E-01  0.27571480010E-02  0.39981768463E-01  0.51100000000E-03 0.  1.
         11    1    4    4    0    0 -0.30477898122E-01  0.85234133040E-01 -0.32638152856E-02  0.90579651800E-01  0.51100000000E-03 0. -1.
</event>
<event>
 8    1  0.1052028E+005  0.1043930E+01  0.7957747E-01            NaN
         13   -1    0    0    0    0  0.00000000000E+00  0.00000000000E+00  0.74505805969E-08  0.10566000000E+00  0.10566000000E+00 0.  1.
     999900   -1    0    0    0    0 -0.00000000000E+00 -0.00000000000E+00 -0.74505805969E-08  0.93827000000E+00  0.93827000000E+00 0.  1.
     999902    2    1    2    0    0 -0.26367932698E-01  0.16230406471E-02 -0.89053326486E-02  0.10160515659E+01  0.10156690295E+01 0.  0.
     999903    2    3    3    0    0  0.23634795631E-01  0.19540199192E-02 -0.12333987275E+00  0.12723457333E+00  0.20334470326E-01 0.  0.
         14    1    1    2    0    0  0.26367932698E-01 -0.16230406471E-02  0.89053326486E-02  0.27878434054E-01  0.00000000000E+00 0. -1.
     999901    1    3    3    0    0 -0.50002728329E-01 -0.33097927215E-03  0.11443454010E+00  0.88881699261E+00  0.88000000000E+00 0. -1.
        -11    1    4    4    0    0  0.10746482049E-01 -0.50137210229E-02 -0.23534593775E-01  0.26358347825E-01  0.51100000000E-03 0.  1.
         11    1    4    4    0    0  0.12888313582E-01  0.69677409421E-02 -0.99805278975E-01  0.10087622551E+00  0.51100000000E-03 0. -1.
</event>
<event>
 8    1  0.1052028E+005  0.1043930E+01  0.7957747E-01            NaN
         13   -1    0    0    0    0  0.00000000000E+00  0.00000000000E+00  0.74505805969E-08  0.10566000000E+00  0.10566000000E+00 0. -1.
     999900   -1    0    0    0    0 -0.00000000000E+00 -0.00000000000E+00 -0.74505805969E-08  0.93827000000E+00  0.93827000000E+00 0. -1.
     999902    2    1    2    0    0  0.20566775373E-01  0.79651710398E-02 -0.78601325111E-02  0.10205159469E+01  0.10202473132E+01 0.  0.
     999903    2    3    3    0    0 -0.67848394530E-01  0.10429411401E+00  0.32059543634E-01  0.12995989137E+00  0.19521582138E-01 0.  0.
         14    1    1    2    0    0 -0.20566775373E-01 -0.79651710398E-02  0.78601325111E-02  0.23414053089E-01  0.00000000000E+00 0. -1.
     999901    1    3    3    0    0  0.88415169903E-01 -0.96328942969E-01 -0.39919676145E-01  0.89055605554E+00  0.88000000000E+00 0.  1.
        -11    1    4    4    0    0 -0.54721226352E-01  0.72712765349E-01  0.16963708125E-01  0.92572065833E-01  0.51100000000E-03 0.  1.
         11    1    4    4    0    0 -0.13127168178E-01  0.31581348660E-01  0.15095835509E-01  0.37387825535E-01  0.51100000000E-03 0. -1.
</event>
<event>
 8    1  0.1052028E+005  0.1043930E+01  0.7957747E-01            NaN
         13   -1    0    0    0    0  0.00000000000E+00  0.00000000000E+00  0.74505805969E-08  0.10566000000E+00  0.10566000000E+00 0.  1.
     999900   -1    0    0    0    0 -0.00000000000E+00 -0.00000000000E+00 -0.74505805969E-08  0.93827000000E+00  0.93827000000E+00 0. -1.
     999902    2    1    2    0    0 -0.23068591284E-01 -0.54592645293E-02  0.32414667091E-02  0.10200036426E+01  0.10197229821E+01 0.  0.
     999903    2    3    3    0    0  0.48449911674E-01  0.97202036392E-01 -0.65658061846E-01  0.12848730285E+00  0.20059314237E-01 0.  0.
         14    1    1    2    0    0  0.23068591284E-01  0.54592645293E-02 -0.32414667091E-02  0.23926357422E-01  0.00000000000E+00 0.  1.
     999901    1    3    3    0    0 -0.71518502958E-01 -0.10266130092E+00  0.68899528555E-01  0.89151633973E+00  0.88000000000E+00 0.  1.
        -11    1    4    4    0    0  0.38873569979E-01  0.59774891455E-01 -0.48345814336E-01  0.86149700964E-01  0.51100000000E-03 0. -1.
         11    1    4    4    0    0  0.95763416956E-02  0.37427144937E-01 -0.17312247510E-01  0.42337601884E-01  0.51100000000E-03 0.  1.
</event>
<event>
 8    1  0.1052028E+005  0.1043930E+01  0.7957747E-01            NaN
         13   -1    0    0    0    0  0.00000000000E+00  0.00000000000E+00  0.74505805969E-08  0.10566000000E+00  0.10566000000E+00 0. -1.
     999900   -1    0    0    0    0 -0.00000000000E+00 -0.00000000000E+00 -0.74505805969E-08  0.93827000000E+00  0.93827000000E+00 0.  1.
     999902    2    1    2    0    0 -0.13577143744E-01 -0.14617210283E-01  0.15676795330E-01  0.10185575035E+01  0.10182414371E+01 0.  0.
     999903    2    3    3    0    0  0.95797145181E-01 -0.50665013018E-01  0.68097785406E-01  0.12950737025E+00  0.19769016256E-01 0.  0.
         14    1    1    2    0    0  0.13577143744E-01  0.14617210283E-01 -0.15676795330E-01  0.25372496537E-01  0.00000000000E+00 0.  1.
     999901    1    3    3    0    0 -0.10937428893E+00  0.36047802735E-01 -0.52420990076E-01  0.88905013321E+00  0.88000000000E+00 0.  1.
        -11    1    4    4    0    0  0.73403258747E-03 -0.42407304559E-02  0.21102844573E-02  0.48204792428E-02  0.51100000000E-03 0. -1.
         11    1    4    4    0    0  0.95063112594E-01 -0.46424282562E-01  0.65987500949E-01  0.12468689101E+00  0.51100000000E-03 0.  1.
</event>
<event>
 8    1  0.1052028E+005  0.1043930E+01  0.7957747E-01            NaN
         13   -1    0    0    0    0  0.00000000000E+00  0.00000000000E+00  0.74505805969E-08  0.10566000000E+00  0.10566000000E+00 0.  1.
     999900   -1    0    0    0    0 -0.00000000000E+00 -0.00000000000E+00 -0.74505805969E-08  0.93827000000E+00  0.93827000000E+00 0.  1.
     999902    2    1    2    0    0 -0.56855921299E-02  0.10894802475E-01  0.24417873523E-01  0.10165940305E+01  0.10162264353E+01 0.  0.
     999903    2    3    3    0    0 -0.32342101154E-01 -0.49860909567E-01 -0.10762826115E+00  0.12427233535E+00  0.18101075304E-01 0.  0.
         14    1    1    2    0    0  0.56855921299E-02 -0.10894802475E-01 -0.24417873523E-01  0.27335969459E-01  0.00000000000E+00 0. -1.
     999901    1    3    3    0    0  0.26656509024E-01  0.60755712043E-01  0.13204613467E+00  0.89232169519E+00  0.88000000000E+00 0. -1.
        -11    1    4    4    0    0 -0.40579050224E-02 -0.22093454653E-01 -0.37478888990E-01  0.43698004218E-01  0.51100000000E-03 0. -1.
         11    1    4    4    0    0 -0.28284196132E-01 -0.27767454914E-01 -0.70149372156E-01  0.80574331137E-01  0.51100000000E-03 0.  1.
</event>
<event>
 8    1  0.1052028E+005  0.1043930E+01  0.7957747E-01            NaN
         13   -1    0    0    0    0  0.00000000000E+00  0.00000000000E+00  0.74505805969E-08  0.10566000000E+00  0.10566000000E+00 0. -1.
     999900   -1    0    0    0    0 -0.00000000000E+00 -0.00000000000E+00 -0.74505805969E-08  0.93827000000E+00  0.93827000000E+00 0. -1.
     999902    2    1    2    0    0 -0.82326914225E-02 -0.18948076528E-01  0.10959041210E-01  0.10205439487E+01  0.10202759645E+01 0.  0.
     999903    2    3    3    0    0 -0.28112566696E-01  0.23710248817E-01  0.12510533796E+00  0.13192461554E+00  0.20006656266E-01 0.  0.
         14    1    1    2    0    0  0.82326914225E-02  0.18948076528E-01 -0.10959041210E-01  0.23386051322E-01  0.00000000000E+00 0.  1.
     999901    1    3    3    0    0  0.19879875274E-01 -0.42658325345E-01 -0.11414629675E+00  0.88861933314E+00  0.88000000000E+00 0. -1.
        -11    1    4    4    0    0 -0.13781857986E-01  0.24289727861E-03  0.52606240796E-01  0.54384522617E-01  0.51100000000E-03 0.  1.
         11    1    4    4    0    0 -0.14330708710E-01  0.23467351538E-01  0.72499097163E-01  0.77540092925E-01  0.51100000000E-03 0. -1.
</event>
<event>
 8    1  0.1052028E+005  0.1043930E+01  0.7957747E-01            NaN
         13   -1    0    0    0    0  0.00000000000E+00  0.00000000000E+00  0.74505805969E-08  0.10566000000E+00  0.10566000000E+00 0.  1.
     999900   -1    0    0    0    0 -0.00000000000E+00 -0.00000000000E+00 -0.74505805969E-08  0.93827000000E+00  0.93827000000E+00 0.  1.
     999902    2    1    2    0    0  0.15655139420E-01  0.13635600694E-01 -0.91251229701E-02  0.10212522385E+01  0.10210004181E+01 0.  0.
     999903    2    3    3    0    0  0.41639812136E-01  0.15250618134E-01 -0.12425561531E+00  0.13337114188E+00  0.19543496175E-01 0.  0.
         14    1    1    2    0    0 -0.15655139420E-01 -0.13635600694E-01  0.91251229701E-02  0.22677761481E-01  0.00000000000E+00 0.  1.
     999901    1    3    3    0    0 -0.25984672715E-01 -0.16150174403E-02  0.11513049234E+00  0.88788109664E+00  0.88000000000E+00 0. -1.
        -11    1    4    4    0    0  0.10410872423E-01  0.13070960978E-01 -0.52071449526E-01  0.54689425507E-01  0.51100000000E-03 0.  1.
         11    1    4    4    0    0  0.31228939713E-01  0.21796571559E-02 -0.72184165784E-01  0.78681716376E-01  0.51100000000E-03 0. -1.
</event>
<event>
 8    1  0.1052028E+005  0.1043930E+01  0.7957747E-01            NaN
         13   -1    0    0    0    0  0.00000000000E+00  0.00000000000E+00  0.74505805969E-08  0.10566000000E+00  0.10566000000E+00 0.  1.
     999900   -1    0    0    0    0 -0.00000000000E+00 -0.00000000000E+00 -0.74505805969E-08  0.93827000000E+00  0.93827000000E+00 0. -1.
     999902    2    1    2    0    0 -0.23724717954E-01  0.16348391226E-02 -0.77748803363E-03  0.10201363154E+01  0.10198587954E+01 0.  0.
     999903    2    3    3    0    0 -0.11443026841E+00 -0.56970719305E-01 -0.29682217829E-01  0.13306383142E+00  0.22022715344E-01 0.  0.
         14    1    1    2    0    0  0.23724717954E-01 -0.16348391226E-02  0.77748803363E-03  0.23793684637E-01  0.00000000000E+00 0.  1.
     999901    1    3    3    0    0  0.90705550454E-01  0.58605558428E-01  0.28904729796E-01  0.88707248394E+00  0.88000000000E+00 0.  1.
        -11    1    4    4    0    0 -0.76268978048E-02 -0.47268600448E-02  0.34648506188E-02  0.96321901361E-02  0.51100000000E-03 0. -1.
         11    1    4    4    0    0 -0.10680337060E+00 -0.52243859261E-01 -0.33147068448E-01  0.12343164129E+00  0.51100000000E-03 0.  1.
</event>
<event>
 8    1  0.1052028E+005  0.1043930E+01  0.7957747E-01            NaN
         13   -1    0    0    0    0  0.00000000000E+00  0.00000000000E+00  0.74505805969E-08  0.10566000000E+00  0.10566000000E+00 0.  1.
     999900   -1    0    0    0    0 -0.00000000000E+00 -0.00000000000E+00 -0.74505805969E-08  0.93827000000E+00  0.93827000000E+00 0. -1.
     999902    2    1    2    0    0 -0.68307048873E-02 -0.21998229683E-01 -0.89300462423E-02  0.10192252158E+01  0.10189257648E+01 0.  0.
     999903    2    3    3    0    0  0.70889969345E-01  0.97100238379E-01  0.34889821691E-01  0.12673144596E+00  0.19741218091E-01 0.  0.
         14    1    1    2    0    0  0.68307048873E-02  0.21998229683E-01  0.89300462423E-02  0.24704784240E-01  0.00000000000E+00 0.  1.
     999901    1    3    3    0    0 -0.77720674233E-01 -0.11909846806E+00 -0.43819867933E-01  0.89249376980E+00  0.88000000000E+00 0.  1.
        -11    1    4    4    0    0  0.38858675942E-01  0.46440963513E-01  0.81613796998E-02  0.61103428935E-01  0.51100000000E-03 0. -1.
         11    1    4    4    0    0  0.32031293403E-01  0.50659274866E-01  0.26728441991E-01  0.65628017030E-01  0.51100000000E-03 0.  1.
</event>
<event>
 8    1  0.1052028E+005  0.1043930E+01  0.7957747E-01            NaN
         13   -1    0    0    0    0  0.00000000000E+00  0.00000000000E+00  0.74505805969E-08  0.10566000000E+00  0.10566000000E+00 0. -1.
     999900   -1    0    0    0    0 -0.00000000000E+00 -0.00000000000E+00 -0.74505805969E-08  0.93827000000E+00  0.93827000000E+00 0. -1.
     999902    2    1    2    0    0 -0.14143431939E-01 -0.72711521133E-02 -0.13914340022E-01  0.10227990942E+01  0.10225807900E+01 0.  0.
     999903    2    3    3    0    0 -0.65202466095E-01 -0.20899275228E-01 -0.11572868668E+00  0.13535393430E+00  0.15473116040E-01 0.  0.
         14    1    1    2    0    0  0.14143431939E-01  0.72711521133E-02  0.13914340022E-01  0.21130905762E-01  0.00000000000E+00 0. -1.
     999901    1    3    3    0    0  0.51059034156E-01  0.13628123115E-01  0.10181434666E+00  0.88744515994E+00  0.88000000000E+00 0.  1.
        -11    1    4    4    0    0 -0.13154550914E-01  0.80133808996E-03 -0.15518241669E-01  0.20365689234E-01  0.51100000000E-03 0.  1.
         11    1    4    4    0    0 -0.52047915180E-01 -0.21700613318E-01 -0.10021044501E+00  0.11498824507E+00  0.51100000000E-03 0. -1.
</event>
<event>
 8    1  0.1052028E+005  0.1043930E+01  0.7957747E-01            NaN
         13   -1    0    0    0    0  0.00000000000E+00  0.00000000000E+00  0.74505805969E-08  0.10566000000E+00  0.10566000000E+00 0.  1.
     999900   -1    0    0    0    0 -0.00000000000E+00 -0.00000000000E+00 -0.74505805969E-08  0.93827000000E+00  0.93827000000E+00 0. -1.
     999902    2    1    2    0    0  0.10092748500E-01 -0.15050941348E-01  0.15717840323E-01  0.10199415671E+01  0.10196594311E+01 0.  0.
     999903    2    3    3    0    0  0.10088148912E+00 -0.12140228663E-01  0.83118952987E-01  0.13270204046E+00  0.19406473117E-01 0.  0.
         14    1    1    2    0    0 -0.10092748500E-01  0.15050941348E-01 -0.15717840323E-01  0.23988432882E-01  0.00000000000E+00 0. -1.
     999901    1    3    3    0    0 -0.90788740617E-01 -0.29107126845E-02 -0.67401112665E-01  0.88723952666E+00  0.88000000000E+00 0. -1.
        -11    1    4    4    0    0  0.45768348599E-01 -0.10645925611E-01  0.27807614223E-01  0.54604047426E-01  0.51100000000E-03 0. -1.
         11    1    4    4    0    0  0.55113140518E-01 -0.14943030523E-02  0.55311338765E-01  0.78097993037E-01  0.51100000000E-03 0.  1.
</event>
<event>
 8    1  0.1052028E+005  0.1043930E+01  0.7957747E-01            NaN
         13   -1    0    0    0    0  0.00000000000E+00  0.00000000000E+00  0.74505805969E-08  0.10566000000E+00  0.10566000000E+00 0. -1.
     999900   -1    0    0    0    0 -0.00000000000E+00 -0.00000000000E+00 -0.74505805969E-08  0.93827000000E+00  0.93827000000E+00 0.  1.
     999902    2    1    2    0    0  0.33491824411E-02  0.83917072871E-02 -0.22519726246E-01  0.10196652963E+01  0.10193765451E+01 0.  0.
     999903    2    3    3    0    0 -0.72858044503E-01  0.95308577829E-01  0.44942237756E-01  0.12954552887E+00  0.19241093003E-01 0.  0.
         14    1    1    2    0    0 -0.33491824411E-02 -0.83917072871E-02  0.22519726246E-01  0.24264703675E-01  0.00000000000E+00 0. -1.
     999901    1    3    3    0    0  0.76207226944E-01 -0.86916870541E-01 -0.67461964002E-01  0.89011976745E+00  0.88000000000E+00 0. -1.
        -11    1    4    4    0    0 -0.43411332884E-01  0.52856878526E-01  0.35349939580E-01  0.76995277645E-01  0.51100000000E-03 0. -1.
         11    1    4    4    0    0 -0.29446711619E-01  0.42451699303E-01  0.95922981756E-02  0.52550251228E-01  0.51100000000E-03 0.  1.
</event>
<event>
 8    1  0.1052028E+005  0.1043930E+01  0.7957747E-01            NaN
         13   -1    0    0    0    0  0.00000000000E+00  0.00000000000E+00  0.74505805969E-08  0.10566000000E+00  0.10566000000E+00 0.  1.
     999900   -1    0    0    0    0 -0.00000000000E+00 -0.00000000000E+00 -0.74505805969E-08  0.93827000000E+00  0.93827000000E+00 0.  1.
     999902    2    1    2    0    0  0.20755763715E-01 -0.15687299139E-02  0.11287698919E-01  0.10202514277E+01  0.10199766178E+01 0.  0.
     999903    2    3    3    0    0 -0.33350735498E-01  0.10608508530E+00 -0.62256191310E-01  0.12900198953E+00  0.19984070253E-01 0.  0.
         14    1    1    2    0    0 -0.20755763715E-01  0.15687299139E-02 -0.11287698919E-01  0.23678572335E-01  0.00000000000E+00 0. -1.
     999901    1    3    3    0    0  0.54106499213E-01 -0.10765381522E+00  0.73543890228E-01  0.89124943814E+00  0.88000000000E+00 0.  1.
        -11    1    4    4    0    0 -0.97716171484E-02  0.51735522957E-01 -0.38236941809E-01  0.65072065260E-01  0.51100000000E-03 0.  1.
         11    1    4    4    0    0 -0.23579118349E-01  0.54349562347E-01 -0.24019249501E-01  0.63929924269E-01  0.51100000000E-03 0. -1.
</event>
<event>
 8    1  0.1052028E+005  0.1043930E+01  0.7957747E-01            NaN
         13   -1    0    0    0    0  0.00000000000E+00  0.00000000000E+00  0.74505805969E-08  0.10566000000E+00  0.10566000000E+00 0.  1.
     999900   -1    0    0    0    0 -0.00000000000E+00 -0.00000000000E+00 -0.74505805969E-08  0.93827000000E+00  0.93827000000E+00 0.  1.
     999902    2    1    2    0    0 -0.21253367696E-01  0.77114085972E-02  0.70961459622E-02  0.10202334444E+01  0.10199582120E+01 0.  0.
     999903    2    3    3    0    0  0.42263772419E-01  0.11938760345E+00 -0.23697494210E-01  0.13037151809E+00  0.19888066234E-01 0.  0.
         14    1    1    2    0    0  0.21253367696E-01 -0.77114085972E-02 -0.70961459622E-02  0.23696555625E-01  0.00000000000E+00 0. -1.
     999901    1    3    3    0    0 -0.63517140115E-01 -0.11167619486E+00  0.30793640172E-01  0.88986192629E+00  0.88000000000E+00 0. -1.
        -11    1    4    4    0    0  0.34180492854E-01  0.72463807576E-01 -0.95065222715E-02  0.80684227621E-01  0.51100000000E-03 0. -1.
         11    1    4    4    0    0  0.80832795651E-02  0.46923795877E-01 -0.14190971938E-01  0.49687290464E-01  0.51100000000E-03 0.  1.
</event>
<event>
 8    1  0.1052028E+005  0.1043930E+01  0.7957747E-01            NaN
         13   -1    0    0    0    0  0.00000000000E+00  0.00000000000E+00  0.74505805969E-08  0.10566000000E+00  0.10566000000E+00 0. -1.
     999900   -1    0    0    0    0 -0.00000000000E+00 -0.00000000000E+00 -0.74505805969E-08  0.93827000000E+00  0.93827000000E+00 0. -1.
     999902    2    1    2    0    0  0.15666408376E-01  0.12616567790E-01 -0.83633380233E-02  0.10221456121E+01  0.10219134468E+01 0.  0.
     999903    2    3    3    0    0 -0.56016835194E-01  0.80924834092E-01  0.85173928426E-01  0.13166611941E+00  0.19865908439E-01 0.  0.
         14    1    1    2    0    0 -0.15666408376E-01 -0.12616567790E-01  0.83633380233E-02  0.21784387921E-01  0.00000000000E+00 0. -1.
     999901    1    3    3    0    0  0.71683243571E-01 -0.68308266302E-01 -0.93537266449E-01  0.89047949267E+00  0.88000000000E+00 0. -1.
        -11    1    4    4    0    0 -0.16510286091E-01  0.30649948752E-01  0.41798431134E-01  0.54400173452E-01  0.51100000000E-03 0. -1.
         11    1    4    4    0    0 -0.39506549104E-01  0.50274885340E-01  0.43375497292E-01  0.77265945955E-01  0.51100000000E-03 0.  1.
</event>
<event>
 8    1  0.1052028E+005  0.1043930E+01  0.7957747E-01            NaN
         13   -1    0    0    0    0  0.00000000000E+00  0.00000000000E+00  0.74505805969E-08  0.10566000000E+00  0.10566000000E+00 0. -1.
     999900   -1    0    0    0    0 -0.00000000000E+00 -0.00000000000E+00 -0.74505805969E-08  0.93827000000E+00  0.93827000000E+00 0.  1.
     999902    2    1    2    0    0 -0.27386597713E-02 -0.65328417507E-02 -0.24928439061E-01  0.10180146502E+01  0.10176847364E+01 0.  0.
     999903    2    3    3    0    0  0.11723836397E+00  0.19071012448E-01 -0.46919708169E-01  0.12923252875E+00  0.19774983458E-01 0.  0.
         14    1    1    2    0    0  0.27386597713E-02  0.65328417507E-02  0.24928439061E-01  0.25915349751E-01  0.00000000000E+00 0. -1.
     999901    1    3    3    0    0 -0.11997702374E+00 -0.25603854199E-01  0.21991269108E-01  0.88878212150E+00  0.88000000000E+00 0. -1.
        -11    1    4    4    0    0  0.90683164814E-01  0.13553753921E-01 -0.44720853777E-01  0.10201645215E+00  0.51100000000E-03 0.  1.
         11    1    4    4    0    0  0.26555199156E-01  0.55172585271E-02 -0.21988543917E-02  0.27216076600E-01  0.51100000000E-03 0. -1.
</event>
<event>
 8    1  0.1052028E+005  0.1043930E+01  0.7957747E-01            NaN
         13   -1    0    0    0    0  0.00000000000E+00  0.00000000000E+00  0.74505805969E-08  0.10566000000E+00  0.10566000000E+00 0.  1.
     999900   -1    0    0    0    0 -0.00000000000E+00 -0.00000000000E+00 -0.74505805969E-08  0.93827000000E+00  0.93827000000E+00 0. -1.
     999902    2    1    2    0    0  0.28839874551E-02  0.73862808291E-02  0.21089471113E-01  0.10213991252E+01  0.10211505925E+01 0.  0.
     999903    2    3    3    0    0  0.41226133669E-01  0.28193308374E-01 -0.11784815837E+00  0.12943123481E+00  0.19230168470E-01 0.  0.
         14    1    1    2    0    0 -0.28839874551E-02 -0.73862808291E-02 -0.21089471113E-01  0.22530874816E-01  0.00000000000E+00 0. -1.
     999901    1    3    3    0    0 -0.38342146214E-01 -0.20807027545E-01  0.13893762948E+00  0.89196789037E+00  0.88000000000E+00 0.  1.
        -11    1    4    4    0    0  0.30333972173E-01  0.10830692808E-01 -0.60730228789E-01  0.68745004068E-01  0.51100000000E-03 0. -1.
         11    1    4    4    0    0  0.10892161496E-01  0.17362615566E-01 -0.57117929579E-01  0.60686230743E-01  0.51100000000E-03 0.  1.
</event>
<event>
 8    1  0.1052028E+005  0.1043930E+01  0.7957747E-01            NaN
         13   -1    0    0    0    0  0.00000000000E+00  0.00000000000E+00  0.74505805969E-08  0.10566000000E+00  0.10566000000E+00 0.  1.
     999900   -1    0    0    0    0 -0.00000000000E+00 -0.00000000000E+00 -0.74505805969E-08  0.93827000000E+00  0.93827000000E+00 0. -1.
     999902    2    1    2    0    0 -0.46407073092E-02 -0.22150655187E-01  0.81472364466E-02  0.10198766187E+01  0.10195929346E+01 0.  0.
     999903    2    3    3    0    0  0.67807449958E-01  0.78111712743E-01  0.74091109072E-01  0.12878185818E+00  0.19899362188E-01 0.  0.
         14    1    1    2    0    0  0.46407073092E-02  0.22150655187E-01 -0.81472364466E-02  0.24053381285E-01  0.00000000000E+00 0. -1.
     999901    1    3    3    0    0 -0.72448157267E-01 -0.10026236793E+00 -0.65943872625E-01  0.89109476053E+00  0.88000000000E+00 0. -1.
        -11    1    4    4    0    0  0.38021147912E-01  0.29964988492E-01  0.29297015379E-01  0.56586963649E-01  0.51100000000E-03 0.  1.
         11    1    4    4    0    0  0.29786302046E-01  0.48146724251E-01  0.44794093693E-01  0.72194894532E-01  0.51100000000E-03 0. -1.
</event>
<event>
 8    1  0.1052028E+005  0.1043930E+01  0.7957747E-01            NaN
         13   -1    0    0    0    0  0.00000000000E+00  0.00000000000E+00  0.74505805969E-08  0.10566000000E+00  0.10566000000E+00 0. -1.
     999900   -1    0    0    0    0 -0.00000000000E+00 -0.00000000000E+00 -0.74505805969E-08  0.93827000000E+00  0.93827000000E+00 0. -1.
     999902    2    1    2    0    0  0.65056183170E-02  0.14303392768E-01  0.17461492031E-01  0.10204392823E+01  0.10201688659E+01 0.  0.
     999903    2    3    3    0    0  0.69868439833E-02  0.16444088462E-01 -0.12601980811E+00  0.12881621303E+00  0.19834330574E-01 0.  0.
         14    1    1    2    0    0 -0.65056183170E-02 -0.14303392768E-01 -0.17461492031E-01  0.23490717706E-01  0.00000000000E+00 0.  1.
     999901    1    3    3    0    0 -0.48122566623E-03 -0.21406956940E-02  0.14348130014E+00  0.89162306927E+00  0.88000000000E+00 0.  1.
        -11    1    4    4    0    0  0.12195243156E-01  0.83312202561E-02 -0.99545948027E-01  0.10063692203E+00  0.51100000000E-03 0. -1.
         11    1    4    4    0    0 -0.52083991724E-02  0.81128682059E-02 -0.26473860081E-01  0.28179290997E-01  0.51100000000E-03 0.  1.
</event>
<event>
 8    1  0.1052028E+005  0.1043930E+01  0.7957747E-01            NaN
         13   -1    0    0    0    0  0.00000000000E+00  0.00000000000E+00  0.74505805969E-08  0.10566000000E+00  0.10566000000E+00 0.  1.
     999900   -1    0    0    0    0 -0.00000000000E+00 -0.00000000000E+00 -0.74505805969E-08  0.93827000000E+00  0.93827000000E+00 0.  1.
     999902    2    1    2    0    0 -0.15415520588E-01  0.16103849398E-01 -0.58607467053E-02  0.10208796075E+01  0.10206193475E+01 0.  0.
     999903    2    3    3    0    0 -0.60202548740E-01  0.46708944425E-01 -0.10768081667E+00  0.13334939601E+00  0.19514885965E-01 0.  0.
         14    1    1    2    0    0  0.15415520588E-01 -0.16103849398E-01  0.58607467053E-02  0.23050392457E-01  0.00000000000E+00 0. -1.
     999901    1    3    3    0    0  0.44787028152E-01 -0.30605095027E-01  0.10182006996E+00  0.88753021153E+00  0.88000000000E+00 0. -1.
        -11    1    4    4    0    0 -0.29620200514E-01  0.11030425519E-01 -0.40970151728E-01  0.51747860045E-01  0.51100000000E-03 0.  1.
         11    1    4    4    0    0 -0.30582348226E-01  0.35678518906E-01 -0.66710664942E-01  0.81601535968E-01  0.51100000000E-03 0. -1.
</event>
<event>
 8    1  0.1052028E+005  0.1043930E+01  0.7957747E-01            NaN
         13   -1    0    0    0    0  0.00000000000E+00  0.00000000000E+00  0.74505805969E-08  0.10566000000E+00  0.10566000000E+00 0.  1.
     999900   -1    0    0    0    0 -0.00000000000E+00 -0.00000000000E+00 -0.74505805969E-08  0.93827000000E+00  0.93827000000E+00 0.  1.
     999902    2    1    2    0    0  0.43703814111E-02  0.12898822384E-01 -0.19311127215E-01  0.10202995221E+01  0.10200258405E+01 0.  0.
     999903    2    3    3    0    0  0.80534108569E-01  0.35662879026E-02 -0.10373972848E+00  0.13293477281E+00  0.20279583453E-01 0.  0.
         14    1    1    2    0    0 -0.43703814111E-02 -0.12898822384E-01  0.19311127215E-01  0.23630477923E-01  0.00000000000E+00 0.  1.
     999901    1    3    3    0    0 -0.76163727157E-01  0.93325344815E-02  0.84428601260E-01  0.88736474927E+00  0.88000000000E+00 0. -1.
        -11    1    4    4    0    0  0.61231916648E-01  0.48743995394E-03 -0.63612317076E-01  0.88297073671E-01  0.51100000000E-03 0.  1.
         11    1    4    4    0    0  0.19302191921E-01  0.30788479487E-02 -0.40127411399E-01  0.44637699137E-01  0.51100000000E-03 0. -1.
</event>
<event>
 8    1  0.1052028E+005  0.1043930E+01  0.7957747E-01            NaN
         13   -1    0    0    0    0  0.00000000000E+00  0.00000000000E+00  0.74505805969E-08  0.10566000000E+00  0.10566000000E+00 0. -1.
     999900   -1    0    0    0    0 -0.00000000000E+00 -0.00000000000E+00 -0.74505805969E-08  0.93827000000E+00  0.93827000000E+00 0. -1.
     999902    2    1    2    0    0 -0.17922690468E-01  0.94059936222E-02 -0.26107055348E-02  0.10235213907E+01  0.10233179007E+01 0.  0.
     999903    2    3    3    0    0 -0.36079928283E-01 -0.53179471740E-01  0.11530046439E+00  0.13326880310E+00  0.18345553982E-01 0.  0.
         14    1    1    2    0    0  0.17922690468E-01 -0.94059936222E-02  0.26107055348E-02  0.20408609286E-01  0.00000000000E+00 0. -1.
     999901    1    3    3    0    0  0.18157237816E-01  0.62585465362E-01 -0.11791116993E+00  0.89025258761E+00  0.88000000000E+00 0. -1.
        -11    1    4    4    0    0 -0.36018036754E-02 -0.19259734437E-01  0.28716392367E-01  0.34767839620E-01  0.51100000000E-03 0.  1.
         11    1    4    4    0    0 -0.32478124608E-01 -0.33919737303E-01  0.86584072026E-01  0.98500963479E-01  0.51100000000E-03 0. -1.
</event>
<event>
 8    1  0.1052028E+005  0.1043930E+01  0.7957747E-01            NaN
         13   -1    0    0    0    0  0.00000000000E+00  0.00000000000E+00  0.74505805969E-08  0.10566000000E+00  0.10566000000E+00 0. -1.
     999900   -1    0    0    0    0 -0.00000000000E+00 -0.00000000000E+00 -0.74505805969E-08  0.93827000000E+00  0.93827000000E+00 0. -1.
     999902    2    1    2    0    0  0.20083911767E-01  0.45224836869E-02 -0.14105292089E-01  0.10189745269E+01  0.10186688917E+01 0.  0.
     999903    2    3    3    0    0 -0.69288810601E-01 -0.82398764029E-01  0.63601972536E-01  0.12679673873E+00  0.21016813598E-01 0.  0.
         14    1    1    2    0    0 -0.20083911767E-01 -0.45224836869E-02  0.14105292089E-01  0.24955473057E-01  0.00000000000E+00 0. -1.
     999901    1    3    3    0    0  0.89372722367E-01  0.86921247716E-01 -0.77707264626E-01  0.89217778821E+00  0.88000000000E+00 0. -1.
        -11    1    4    4    0    0 -0.20674670056E-01 -0.38556616521E-01  0.31298326061E-01  0.53794990424E-01  0.51100000000E-03 0. -1.
         11    1    4    4    0    0 -0.48614140544E-01 -0.43842147508E-01  0.32303646475E-01  0.73001748305E-01  0.51100000000E-03 0.  1.
</event>
<event>
 8    1  0.1052028E+005  0.1043930E+01  0.7957747E-01            NaN
         13   -1    0    0    0    0  0.00000000000E+00  0.00000000000E+00  0.74505805969E-08  0.10566000000E+00  0.10566000000E+00 0. -1.
     999900   -1    0    0    0    0 -0.00000000000E+00 -0.00000000000E+00 -0.74505805969E-08  0.93827000000E+00  0.93827000000E+00 0. -1.
     999902    2    1    2    0    0  0.13367659134E-01 -0.12627469710E-01  0.16691429417E-02  0.10254656197E+01  0.10252993728E+01 0.  0.
     999903    2    3    3    0    0  0.82511696133E-01 -0.80506728124E-01  0.71656390211E-01  0.13738527065E+00  0.21226423656E-01 0.  0.
         14    1    1    2    0    0 -0.13367659134E-01  0.12627469710E-01 -0.16691429417E-02  0.18464380308E-01  0.00000000000E+00 0. -1.
     999901    1    3    3    0    0 -0.69144037000E-01  0.67879258414E-01 -0.69987247270E-01  0.88808034904E+00  0.88000000000E+00 0.  1.
        -11    1    4    4    0    0  0.14418916605E-01 -0.25717246918E-01  0.22655005315E-01  0.37185915774E-01  0.51100000000E-03 0. -1.
         11    1    4    4    0    0  0.68092779529E-01 -0.54789481206E-01  0.49001384897E-01  0.10019935488E+00  0.51100000000E-03 0.  1.
</event>
<event>
 8    1  0.1052028E+005  0.1043930E+01  0.7957747E-01            NaN
         13   -1    0    0    0    0  0.00000000000E+00  0.00000000000E+00  0.74505805969E-08  0.10566000000E+00  0.10566000000E+00 0.  1.
     999900   -1    0    0    0    0 -0.00000000000E+00 -0.00000000000E+00 -0.74505805969E-08  0.93827000000E+00  0.93827000000E+00 0.  1.
     999902    2    1    2    0    0  0.15967561826E-01  0.17750104535E-01  0.21825126125E-03  0.10200537173E+01  0.10197742443E+01 0.  0.
     999903    2    3    3    0    0  0.51695071446E-01 -0.26111207141E-01  0.11583365821E+00  0.13069035403E+00  0.17560088667E-01 0.  0.
         14    1    1    2    0    0 -0.15967561826E-01 -0.17750104535E-01 -0.21825126125E-03  0.23876282694E-01  0.00000000000E+00 0. -1.
     999901    1    3    3    0    0 -0.35727509620E-01  0.43861311676E-01 -0.11561540695E+00  0.88936336327E+00  0.88000000000E+00 0. -1.
        -11    1    4    4    0    0  0.15487734447E-01 -0.12424370617E-01  0.24839320022E-01  0.31803896674E-01  0.51100000000E-03 0.  1.
         11    1    4    4    0    0  0.36207337000E-01 -0.13686836525E-01  0.90994338185E-01  0.98886457361E-01  0.51100000000E-03 0. -1.
</event>
<event>
 8    1  0.1052028E+005  0.1043930E+01  0.7957747E-01            NaN
         13   -1    0    0    0    0  0.00000000000E+00  0.00000000000E+00  0.74505805969E-08  0.10566000000E+00  0.10566000000E+00 0.  1.
     999900   -1    0    0    0    0 -0.00000000000E+00 -0.00000000000E+00 -0.74505805969E-08  0.93827000000E+00  0.93827000000E+00 0. -1.
     999902    2    1    2    0    0  0.21493874024E-01 -0.10098119886E-02  0.90560534217E-02  0.10205843699E+01  0.10203173220E+01 0.  0.
     999903    2    3    3    0    0  0.50743441760E-01  0.14149496586E-01  0.12041546013E+00  0.13295479666E+00  0.20049682802E-01 0.  0.
         14    1    1    2    0    0 -0.21493874024E-01  0.10098119886E-02 -0.90560534217E-02  0.23345630092E-01  0.00000000000E+00 0. -1.
     999901    1    3    3    0    0 -0.29249567735E-01 -0.15159308575E-01 -0.11135940671E+00  0.88762957325E+00  0.88000000000E+00 0. -1.
        -11    1    4    4    0    0  0.45949357764E-01  0.16625093818E-01  0.93509419809E-01  0.10550834061E+00  0.51100000000E-03 0. -1.
         11    1    4    4    0    0  0.47940839960E-02 -0.24755972316E-02  0.26906040320E-01  0.27446456050E-01  0.51100000000E-03 0.  1.
</event>
<event>
 8    1  0.1052028E+005  0.1043930E+01  0.7957747E-01            NaN
         13   -1    0    0    0    0  0.00000000000E+00  0.00000000000E+00  0.74505805969E-08  0.10566000000E+00  0.10566000000E+00 0. -1.
     999900   -1    0    0    0    0 -0.00000000000E+00 -0.00000000000E+00 -0.74505805969E-08  0.93827000000E+00  0.93827000000E+00 0.  1.
     999902    2    1    2    0    0  0.26695553749E-02  0.15506732463E-01  0.17171721424E-01  0.10206393733E+01  0.10203735967E+01 0.  0.
     999903    2    3    3    0    0 -0.69251384171E-01  0.10654589451E+00  0.33880075452E-01  0.13286692512E+00  0.18920317968E-01 0.  0.
         14    1    1    2    0    0 -0.26695553749E-02 -0.15506732463E-01 -0.17171721424E-01  0.23290626747E-01  0.00000000000E+00 0.  1.
     999901    1    3    3    0    0  0.71920939546E-01 -0.91039162044E-01 -0.16708354027E-01  0.88777244813E+00  0.88000000000E+00 0.  1.
        -11    1    4    4    0    0 -0.65177395101E-01  0.90661709391E-01  0.25906588775E-01  0.11462569888E+00  0.51100000000E-03 0.  1.
         11    1    4    4    0    0 -0.40739890704E-02  0.15884185117E-01  0.79734866767E-02  0.18241226235E-01  0.51100000000E-03 0. -1.
</event>
<event>
 8    1  0.1052028E+005  0.1043930E+01  0.7957747E-01            NaN
         13   -1    0    0    0    0  0.00000000000E+00  0.00000000000E+00  0.74505805969E-08  0.10566000000E+00  0.10566000000E+00 0.  1.
     999900   -1    0    0    0    0 -0.00000000000E+00 -0.00000000000E+00 -0.74505805969E-08  0.93827000000E+00  0.93827000000E+00 0. -1.
     999902    2    1    2    0    0  0.24160147902E-02  0.98920166489E-02 -0.22133257745E-01  0.10195667034E+01  0.10192755724E+01 0.  0.
     999903    2    3    3    0    0 -0.53379777377E-01 -0.11142473500E+00 -0.33672544729E-01  0.12941835637E+00  0.18718934073E-01 0.  0.
         14    1    1    2    0    0 -0.24160147902E-02 -0.98920166489E-02  0.22133257745E-01  0.24363296560E-01  0.00000000000E+00 0.  1.
     999901    1    3    3    0    0  0.55795792167E-01  0.12131675165E+00  0.11539286984E-01  0.89014834707E+00  0.88000000000E+00 0.  1.
        -11    1    4    4    0    0 -0.14556872923E-01 -0.30778290528E-01 -0.18117159766E-01  0.38570692450E-01  0.51100000000E-03 0. -1.
         11    1    4    4    0    0 -0.38822904453E-01 -0.80646444475E-01 -0.15555384964E-01  0.90847663916E-01  0.51100000000E-03 0.  1.
</event>
<event>
 8    1  0.1052028E+005  0.1043930E+01  0.7957747E-01            NaN
         13   -1    0    0    0    0  0.00000000000E+00  0.00000000000E+00  0.74505805969E-08  0.10566000000E+00  0.10566000000E+00 0. -1.
     999900   -1    0    0    0    0 -0.00000000000E+00 -0.00000000000E+00 -0.74505805969E-08  0.93827000000E+00  0.93827000000E+00 0.  1.
     999902    2    1    2    0    0  0.27576560320E-02  0.21130126405E-02 -0.23136502166E-01  0.10205341196E+01  0.10202659075E+01 0.  0.
     999903    2    3    3    0    0  0.11988406529E+00 -0.44341469879E-02  0.45951882152E-01  0.13006532960E+00  0.20336266151E-01 0.  0.
         14    1    1    2    0    0 -0.27576560320E-02 -0.21130126405E-02  0.23136502166E-01  0.23395880443E-01  0.00000000000E+00 0. -1.
     999901    1    3    3    0    0 -0.11712640925E+00  0.65471596284E-02 -0.69088384318E-01  0.89046878996E+00  0.88000000000E+00 0.  1.
        -11    1    4    4    0    0  0.13633611310E-01 -0.68577959403E-03  0.12744200955E-01  0.18682115244E-01  0.51100000000E-03 0. -1.
         11    1    4    4    0    0  0.10625045398E+00 -0.37483673939E-02  0.33207681197E-01  0.11138321435E+00  0.51100000000E-03 0.  1.
</event>
<event>
 8    1  0.1052028E+005  0.1043930E+01  0.7957747E-01            NaN
         13   -1    0    0    0    0  0.00000000000E+00  0.00000000000E+00  0.74505805969E-08  0.10566000000E+00  0.10566000000E+00 0.  1.
     999900   -1    0    0    0    0 -0.00000000000E+00 -0.00000000000E+00 -0.74505805969E-08  0.93827000000E+00  0.93827000000E+00 0.  1.
     999902    2    1    2    0    0 -0.19850608360E-01 -0.93557904669E-02 -0.11085197685E-01  0.10193442506E+01  0.10190477134E+01 0.  0.
     999903    2    3    3    0    0  0.81536970596E-03 -0.12855924213E+00  0.12740014929E-01  0.13074749934E+00  0.20111117248E-01 0.  0.
         14    1    1    2    0    0  0.19850608360E-01  0.93557904669E-02  0.11085197685E-01  0.24585749434E-01  0.00000000000E+00 0. -1.
     999901    1    3    3    0    0 -0.20665978066E-01  0.11920345167E+00 -0.23825212614E-01  0.88859675123E+00  0.88000000000E+00 0. -1.
        -11    1    4    4    0    0  0.50176826893E-02 -0.52665845581E-01  0.13992329256E-01  0.54725815018E-01  0.51100000000E-03 0.  1.
         11    1    4    4    0    0 -0.42023129833E-02 -0.75893396552E-01 -0.12523143269E-02  0.76021684319E-01  0.51100000000E-03 0. -1.
</event>
<event>
 8    1  0.1052028E+005  0.1043930E+01  0.7957747E-01            NaN
         13   -1    0    0    0    0  0.00000000000E+00  0.00000000000E+00  0.74505805969E-08  0.10566000000E+00  0.10566000000E+00 0. -1.
     999900   -1    0    0    0    0 -0.00000000000E+00 -0.00000000000E+00 -0.74505805969E-08  0.93827000000E+00  0.93827000000E+00 0.  1.
     999902    2    1    2    0    0  0.15344478611E-02  0.21440196270E-01  0.12862085698E-01  0.10188806528E+01  0.10185726851E+01 0.  0.
     999903    2    3    3    0    0 -0.11629742554E+00 -0.49784045049E-01 -0.88316225776E-03  0.12806856556E+00  0.19930759637E-01 0.  0.
         14    1    1    2    0    0 -0.15344478611E-02 -0.21440196270E-01 -0.12862085698E-01  0.25049347193E-01  0.00000000000E+00 0.  1.
     999901    1    3    3    0    0  0.11783187341E+00  0.71224241319E-01  0.13745247955E-01  0.89081208725E+00  0.88000000000E+00 0. -1.
        -11    1    4    4    0    0 -0.96957020868E-01 -0.32903274507E-01 -0.69785338800E-03  0.10239158896E+00  0.51100000000E-03 0. -1.
         11    1    4    4    0    0 -0.19340404676E-01 -0.16880770542E-01 -0.18530886976E-03  0.25676976604E-01  0.51100000000E-03 0.  1.
</event>
<event>
 8    1  0.1052028E+005  0.1043930E+01  0.7957747E-01            NaN
         13   -1    0    0    0    0  0.00000000000E+00  0.00000000000E+00  0.74505805969E-08  0.10566000000E+00  0.10566000000E+00 0.  1.
     999900   -1    0    0    0    0 -0.00000000000E+00 -0.00000000000E+00 -0.74505805969E-08  0.93827000000E+00  0.93827000000E+00 0. -1.
     999902    2    1    2    0    0  0.22689033510E-01 -0.73763508322E-02 -0.65267737394E-02  0.10191953771E+01  0.10188951934E+01 0.  0.
     999903    2    3    3    0    0 -0.77920373572E-01  0.45163252344E-01  0.83397929478E-01  0.12736068676E+00  0.33973900435E-01 0.  0.
         14    1    1    2    0    0 -0.22689033510E-01  0.73763508322E-02  0.65267737394E-02  0.24734622873E-01  0.00000000000E+00 0.  1.
     999901    1    3    3    0    0  0.10060940708E+00 -0.52539603176E-01 -0.89924703217E-01  0.89183469037E+00  0.88000000000E+00 0. -1.
        -11    1    4    4    0    0 -0.60889110923E-01  0.21561171981E-01  0.43124128483E-01  0.77668008502E-01  0.51100000000E-03 0.  1.
         11    1    4    4    0    0 -0.17031262649E-01  0.23602080362E-01  0.40273800994E-01  0.49692678257E-01  0.51100000000E-03 0. -1.
</event>
<event>
 8    1  0.1052028E+005  0.1043930E+01  0.7957747E-01            NaN
         13   -1    0    0    0    0  0.00000000000E+00  0.00000000000E+00  0.74505805969E-08  0.10566000000E+00  0.10566000000E+00 0. -1.
     999900   -1    0    0    0    0 -0.00000000000E+00 -0.00000000000E+00 -0.74505805969E-08  0.93827000000E+00  0.93827000000E+00 0. -1.
     999902    2    1    2    0    0  0.12976830856E-01 -0.63010706767E-02  0.19862387068E-01  0.10193817607E+01  0.10190861387E+01 0.  0.
     999903    2    3    3    0    0 -0.12273202041E-01  0.10891471963E+00  0.68470936393E-01  0.13018266404E+00  0.15691056233E-01 0.  0.
         14    1    1    2    0    0 -0.12976830856E-01  0.63010706767E-02 -0.19862387068E-01  0.24548239260E-01  0.00000000000E+00 0.  1.
     999901    1    3    3    0    0  0.25250032897E-01 -0.11521579031E+00 -0.48608549325E-01  0.88919909670E+00  0.88000000000E+00 0. -1.
        -11    1    4    4    0    0 -0.14899328719E-01  0.88508471137E-01  0.51312923095E-01  0.10338770070E+00  0.51100000000E-03 0.  1.
         11    1    4    4    0    0  0.26261266782E-02  0.20406248497E-01  0.17158013298E-01  0.26794963340E-01  0.51100000000E-03 0. -1.
</event>
<event>
 8    1  0.1052028E+005  0.1043930E+01  0.7957747E-01            NaN
         13   -1    0    0    0    0  0.00000000000E+00  0.00000000000E+00  0.74505805969E-08  0.10566000000E+00  0.10566000000E+00 0.  1.
     999900   -1    0    0    0    0 -0.00000000000E+00 -0.00000000000E+00 -0.74505805969E-08  0.93827000000E+00  0.93827000000E+00 0. -1.
     999902    2    1    2    0    0 -0.12804563687E-01 -0.24938930018E-02 -0.21060336957E-01  0.10191567453E+01  0.10188556117E+01 0.  0.
     999903    2    3    3    0    0 -0.12487213933E-01  0.22975428286E-01  0.12292355134E+00  0.12709164283E+00  0.18928427959E-01 0.  0.
         14    1    1    2    0    0  0.12804563687E-01  0.24938930018E-02  0.21060336957E-01  0.24773254656E-01  0.00000000000E+00 0.  1.
     999901    1    3    3    0    0 -0.31734975413E-03 -0.25469321288E-01 -0.14398388830E+00  0.89206510252E+00  0.88000000000E+00 0. -1.
        -11    1    4    4    0    0 -0.13782718037E-01  0.66293551938E-02  0.71316363956E-01  0.72939677513E-01  0.51100000000E-03 0.  1.
         11    1    4    4    0    0  0.12955041036E-02  0.16346073092E-01  0.51607187387E-01  0.54151965315E-01  0.51100000000E-03 0. -1.
</event>
<event>
 8    1  0.1052028E+005  0.1043930E+01  0.7957747E-01            NaN
         13   -1    0    0    0    0  0.00000000000E+00  0.00000000000E+00  0.74505805969E-08  0.10566000000E+00  0.10566000000E+00 0. -1.
     999900   -1    0    0    0    0 -0.00000000000E+00 -0.00000000000E+00 -0.74505805969E-08  0.93827000000E+00  0.93827000000E+00 0.  1.
     999902    2    1    2    0    0 -0.18863882517E-01 -0.14323167850E-01 -0.39140584649E-02  0.10199233540E+01  0.10196407842E+01 0.  0.
     999903    2    3    3    0    0 -0.27003315317E-01 -0.69049211074E-01  0.10654594298E+00  0.13129373364E+00  0.19723943321E-01 0.  0.
         14    1    1    2    0    0  0.18863882517E-01  0.14323167850E-01  0.39140584649E-02  0.24006646049E-01  0.00000000000E+00 0. -1.
     999901    1    3    3    0    0  0.81394328003E-02  0.54726043223E-01 -0.11046000144E+00  0.88862962031E+00  0.88000000000E+00 0.  1.
        -11    1    4    4    0    0  0.13385268090E-02 -0.19890890382E-01  0.26057080005E-01  0.32812676111E-01  0.51100000000E-03 0. -1.
         11    1    4    4    0    0 -0.28341842126E-01 -0.49158320692E-01  0.80488862974E-01  0.98481057530E-01  0.51100000000E-03 0.  1.
</event>
<event>
 8    1  0.1052028E+005  0.1043930E+01  0.7957747E-01            NaN
         13   -1    0    0    0    0  0.00000000000E+00  0.00000000000E+00  0.74505805969E-08  0.10566000000E+00  0.10566000000E+00 0.  1.
     999900   -1    0    0    0    0 -0.00000000000E+00 -0.00000000000E+00 -0.74505805969E-08  0.93827000000E+00  0.93827000000E+00 0.  1.
     999902    2    1    2    0    0 -0.32252198359E-03 -0.71778401789E-02 -0.22430936414E-01  0.10203763948E+01  0.10201045117E+01 0.  0.
     999903    2    3    3    0    0 -0.11837864026E+00  0.46635088574E-01  0.18629389790E-01  0.12991638516E+00  0.18516992523E-01 0.  0.
         14    1    1    2    0    0  0.32252198359E-03  0.71778401789E-02  0.22430936414E-01  0.23553605212E-01  0.00000000000E+00 0.  1.
     999901    1    3    3    0    0  0.11805611828E+00 -0.53812928753E-01 -0.41060326204E-01  0.89046000963E+00  0.88000000000E+00 0.  1.
        -11    1    4    4    0    0 -0.12539700110E-01  0.11014838128E-01 -0.92491130959E-05  0.16698261718E-01  0.51100000000E-03 0. -1.
         11    1    4    4    0    0 -0.10583894015E+00  0.35620250446E-01  0.18638638903E-01  0.11321812344E+00  0.51100000000E-03 0.  1.
</event>
<event>
 8    1  0.1052028E+005  0.1043930E+01  0.7957747E-01            NaN
         13   -1    0    0    0    0  0.00000000000E+00  0.00000000000E+00  0.74505805969E-08  0.10566000000E+00  0.10566000000E+00 0. -1.
     999900   -1    0    0    0    0 -0.00000000000E+00 -0.00000000000E+00 -0.74505805969E-08  0.93827000000E+00  0.93827000000E+00 0. -1.
     999902    2    1    2    0    0 -0.21031466780E-02  0.17592855218E-01 -0.15409001278E-01  0.10204487500E+01  0.10201785541E+01 0.  0.
     999903    2    3    3    0    0  0.48221910319E-01  0.27487190266E-01 -0.11905891363E+00  0.13288251949E+00  0.20045967396E-01 0.  0.
         14    1    1    2    0    0  0.21031466780E-02 -0.17592855218E-01  0.15409001278E-01  0.23481249989E-01  0.00000000000E+00 0.  1.
     999901    1    3    3    0    0 -0.50325056997E-01 -0.98943350478E-02  0.10364991235E+00  0.88756623052E+00  0.88000000000E+00 0.  1.
        -11    1    4    4    0    0  0.24121402313E-01  0.78164125599E-02 -0.34785992771E-01  0.43049561774E-01  0.51100000000E-03 0.  1.
         11    1    4    4    0    0  0.24100508006E-01  0.19670777706E-01 -0.84272920856E-01  0.89832957718E-01  0.51100000000E-03 0. -1.
</event>
<event>
 8    1  0.1052028E+005  0.1043930E+01  0.7957747E-01            NaN
         13   -1    0    0    0    0  0.00000000000E+00  0.00000000000E+00  0.74505805969E-08  0.10566000000E+00  0.10566000000E+00 0.  1.
     999900   -1    0    0    0    0 -0.00000000000E+00 -0.00000000000E+00 -0.74505805969E-08  0.93827000000E+00  0.93827000000E+00 0. -1.
     999902    2    1    2    0    0  0.23675901171E-02 -0.14820439141E-01  0.17127512275E-01  0.10211571527E+01  0.10209031922E+01 0.  0.
     999903    2    3    3    0    0  0.42239748847E-01  0.48084918660E-01  0.11433843383E+00  0.13267708178E+00  0.20822458875E-01 0.  0.
         14    1    1    2    0    0 -0.23675901171E-02  0.14820439141E-01 -0.17127512275E-01  0.22772847341E-01  0.00000000000E+00 0. -1.
     999901    1    3    3    0    0 -0.39872158730E-01 -0.62905357801E-01 -0.97210921555E-01  0.88848007088E+00  0.88000000000E+00 0. -1.
        -11    1    4    4    0    0  0.34727698597E-01  0.36997674189E-01  0.10410612547E+00  0.11581531603E+00  0.51100000000E-03 0.  1.
         11    1    4    4    0    0  0.75120502501E-02  0.11087244470E-01  0.10232308363E-01  0.16861765754E-01  0.51100000000E-03 0. -1.
</event>
<event>
 8    1  0.1052028E+005  0.1043930E+01  0.7957747E-01            NaN
         13   -1    0    0    0    0  0.00000000000E+00  0.00000000000E+00  0.74505805969E-08  0.10566000000E+00  0.10566000000E+00 0. -1.
     999900   -1    0    0    0    0 -0.00000000000E+00 -0.00000000000E+00 -0.74505805969E-08  0.93827000000E+00  0.93827000000E+00 0.  1.
     999902    2    1    2    0    0 -0.14529895216E-01  0.18684271841E-01  0.17767775232E-02  0.10201944400E+01  0.10199182902E+01 0.  0.
     999903    2    3    3    0    0  0.11178142081E-01  0.12857153763E+00  0.24104420396E-01  0.13270661588E+00  0.19350236864E-01 0.  0.
         14    1    1    2    0    0  0.14529895216E-01 -0.18684271841E-01 -0.17767775232E-02  0.23735559980E-01  0.00000000000E+00 0.  1.
     999901    1    3    3    0    0 -0.25708037297E-01 -0.10988726579E+00 -0.22327642873E-01  0.88748782414E+00  0.88000000000E+00 0.  1.
        -11    1    4    4    0    0  0.47207719028E-02  0.66325355266E-01  0.26463213095E-02  0.66547746588E-01  0.51100000000E-03 0. -1.
         11    1    4    4    0    0  0.64573701782E-02  0.62246182363E-01  0.21458099086E-01  0.66158869290E-01  0.51100000000E-03 0.  1.
</event>
<event>
 8    1  0.1052028E+005  0.1043930E+01  0.7957747E-01            NaN
         13   -1    0    0    0    0  0.00000000000E+00  0.00000000000E+00  0.74505805969E-08  0.10566000000E+00  0.10566000000E+00 0. -1.
     999900   -1    0    0    0    0 -0.00000000000E+00 -0.00000000000E+00 -0.74505805969E-08  0.93827000000E+00  0.93827000000E+00 0.  1.
     999902    2    1    2    0    0  0.10248785296E-01 -0.19969361589E-01 -0.93382710980E-02  0.10196191730E+01  0.10193293097E+01 0.  0.
     999903    2    3    3    0    0 -0.60525282811E-01 -0.69897173738E-01 -0.91448647719E-01  0.13156294218E+00  0.19925557224E-01 0.  0.
         14    1    1    2    0    0 -0.10248785296E-01  0.19969361589E-01  0.93382710980E-02  0.24310827000E-01  0.00000000000E+00 0. -1.
     999901    1    3    3    0    0  0.70774068106E-01  0.49927812149E-01  0.82110376621E-01  0.88805623082E+00  0.88000000000E+00 0.  1.
        -11    1    4    4    0    0 -0.48897405098E-01 -0.60558703367E-01 -0.85152017545E-01  0.11536654624E+00  0.51100000000E-03 0.  1.
         11    1    4    4    0    0 -0.11627877713E-01 -0.93384703711E-02 -0.62966301736E-02  0.16196395942E-01  0.51100000000E-03 0. -1.
</event>
<event>
 8    1  0.1052028E+005  0.1043930E+01  0.7957747E-01            NaN
         13   -1    0    0    0    0  0.00000000000E+00  0.00000000000E+00  0.74505805969E-08  0.10566000000E+00  0.10566000000E+00 0. -1.
     999900   -1    0    0    0    0 -0.00000000000E+00 -0.00000000000E+00 -0.74505805969E-08  0.93827000000E+00  0.93827000000E+00 0.  1.
     999902    2    1    2    0    0 -0.15550869221E-01 -0.22896966222E-02 -0.11073314215E-01  0.10247026619E+01  0.10245222568E+01 0.  0.
     999903    2    3    3    0    0 -0.11578841486E+00  0.40110794363E-01 -0.57253800235E-01  0.13679613273E+00  0.20478072331E-01 0.  0.
         14    1    1    2    0    0  0.15550869221E-01  0.22896966222E-02  0.11073314215E-01  0.19227338138E-01  0.00000000000E+00 0. -1.
     999901    1    3    3    0    0  0.10023754564E+00 -0.42400490986E-01  0.46180486020E-01  0.88790652914E+00  0.88000000000E+00 0. -1.
        -11    1    4    4    0    0 -0.63028330426E-01  0.27889651577E-01 -0.41232213915E-01  0.80316621484E-01  0.51100000000E-03 0. -1.
         11    1    4    4    0    0 -0.52760084439E-01  0.12221142787E-01 -0.16021586320E-01  0.56479511243E-01  0.51100000000E-03 0.  1.
</event>
<event>
 8    1  0.1052028E+005  0.1043930E+01  0.7957747E-01            NaN
         13   -1    0    0    0    0  0.00000000000E+00  0.00000000000E+00  0.74505805969E-08  0.10566000000E+00  0.10566000000E+00 0. -1.
     999900   -1    0    0    0    0 -0.00000000000E+00 -0.00000000000E+00 -0.74505805969E-08  0.93827000000E+00  0.93827000000E+00 0. -1.
     999902    2    1    2    0    0 -0.83496351212E-02 -0.83773848988E-02 -0.18457874858E-01  0.10220076341E+01  0.10217724864E+01 0.  0.
     999903    2    3    3    0    0 -0.15142713482E-01 -0.64183913940E-02  0.12738749226E+00  0.12997576541E+00  0.19890422029E-01 0.  0.
         14    1    1    2    0    0  0.83496351212E-02  0.83773848988E-02  0.18457874858E-01  0.21922365946E-01  0.00000000000E+00 0. -1.
     999901    1    3    3    0    0  0.67930783608E-02 -0.19589935048E-02 -0.14584536712E+00  0.89203186865E+00  0.88000000000E+00 0. -1.
        -11    1    4    4    0    0 -0.17474694922E-01 -0.10681474964E-01  0.92064426459E-01  0.94316375091E-01  0.51100000000E-03 0. -1.
         11    1    4    4    0    0  0.23319814403E-02  0.42630835700E-02  0.35323065805E-01  0.35659390318E-01  0.51100000000E-03 0.  1.
</event>
<event>
 8    1  0.1052028E+005  0.1043930E+01  0.7957747E-01            NaN
         13   -1    0    0    0    0  0.00000000000E+00  0.00000000000E+00  0.74505805969E-08  0.10566000000E+00  0.10566000000E+00 0. -1.
     999900   -1    0    0    0    0 -0.00000000000E+00 -0.00000000000E+00 -0.74505805969E-08  0.93827000000E+00  0.93827000000E+00 0. -1.
     999902    2    1    2    0    0  0.19128923325E-01 -0.12681301597E-01 -0.43687336052E-02  0.10205672743E+01  0.10202998307E+01 0.  0.
     999903    2    3    3    0    0 -0.11088378399E+00 -0.27032120443E-01  0.56678873545E-01  0.12880718304E+00  0.18784211660E-01 0.  0.
         14    1    1    2    0    0 -0.19128923325E-01  0.12681301597E-01  0.43687336052E-02  0.23362725678E-01  0.00000000000E+00 0. -1.
     999901    1    3    3    0    0  0.13001270732E+00  0.14350818846E-01 -0.61047607150E-01  0.89176009128E+00  0.88000000000E+00 0.  1.
        -11    1    4    4    0    0 -0.42660713430E-01 -0.25708889679E-02  0.15609420065E-01  0.45502319240E-01  0.51100000000E-03 0.  1.
         11    1    4    4    0    0 -0.68223070564E-01 -0.24461231476E-01  0.41069453480E-01  0.83304863799E-01  0.51100000000E-03 0. -1.
</event>
<event>
 8    1  0.1052028E+005  0.1043930E+01  0.7957747E-01            NaN
         13   -1    0    0    0    0  0.00000000000E+00  0.00000000000E+00  0.74505805969E-08  0.10566000000E+00  0.10566000000E+00 0. -1.
     999900   -1    0    0    0    0 -0.00000000000E+00 -0.00000000000E+00 -0.74505805969E-08  0.93827000000E+00  0.93827000000E+00 0. -1.
     999902    2    1    2    0    0  0.91371889481E-02 -0.18041695481E-01  0.13727872512E-01  0.10194873021E+01  0.10191942473E+01 0.  0.
     999903    2    3    3    0    0 -0.65328348822E-01  0.83727885745E-01  0.69920918819E-01  0.12872368449E+00  0.20067387688E-01 0.  0.
         14    1    1    2    0    0 -0.91371889481E-02  0.18041695481E-01 -0.13727872512E-01  0.24442697916E-01  0.00000000000E+00 0. -1.
     999901    1    3    3    0    0  0.74465537770E-01 -0.10176958123E+00 -0.56193046307E-01  0.89076361760E+00  0.88000000000E+00 0. -1.
        -11    1    4    4    0    0 -0.36426733776E-01  0.49497712408E-01  0.51868228364E-01  0.80420797695E-01  0.51100000000E-03 0.  1.
         11    1    4    4    0    0 -0.28901615046E-01  0.34230173337E-01  0.18052690455E-01  0.48302886794E-01  0.51100000000E-03 0. -1.
</event>
<event>
 8    1  0.1052028E+005  0.1043930E+01  0.7957747E-01            NaN
         13   -1    0    0    0    0  0.00000000000E+00  0.00000000000E+00  0.74505805969E-08  0.10566000000E+00  0.10566000000E+00 0.  1.
     999900   -1    0    0    0    0 -0.00000000000E+00 -0.00000000000E+00 -0.74505805969E-08  0.93827000000E+00  0.93827000000E+00 0. -1.
     999902    2    1    2    0    0 -0.11027328716E-01  0.21068169664E-01  0.12659042234E-02  0.10201167208E+01  0.10198387382E+01 0.  0.
     999903    2    3    3    0    0 -0.11282983047E+00  0.46217425740E-01 -0.46821455012E-01  0.13258721227E+00  0.22814449835E-01 0.  0.
         14    1    1    2    0    0  0.11027328716E-01 -0.21068169664E-01 -0.12659042234E-02  0.23813279175E-01  0.00000000000E+00 0. -1.
     999901    1    3    3    0    0  0.10180250175E+00 -0.25149256077E-01  0.48087359235E-01  0.88752950856E+00  0.88000000000E+00 0. -1.
        -11    1    4    4    0    0 -0.21705385591E-01  0.20450499565E-02 -0.14884596056E-01  0.26402998196E-01  0.51100000000E-03 0.  1.
         11    1    4    4    0    0 -0.91124444878E-01  0.44172375784E-01 -0.31936858956E-01  0.10618421407E+00  0.51100000000E-03 0. -1.
</event>
<event>
 8    1  0.1052028E+005  0.1043930E+01  0.7957747E-01            NaN
         13   -1    0    0    0    0  0.00000000000E+00  0.00000000000E+00  0.74505805969E-08  0.10566000000E+00  0.10566000000E+00 0. -1.
     999900   -1    0    0    0    0 -0.00000000000E+00 -0.00000000000E+00 -0.74505805969E-08  0.93827000000E+00  0.93827000000E+00 0.  1.
     999902    2    1    2    0    0 -0.12746192509E-01  0.18977403633E-01 -0.62947391370E-04  0.10210693081E+01  0.10208133623E+01 0.  0.
     999903    2    3    3    0    0 -0.27864161220E-01 -0.11874773746E+00 -0.37744896458E-01  0.12943222006E+00  0.21227005171E-01 0.  0.
         14    1    1    2    0    0  0.12746192509E-01 -0.18977403633E-01  0.62947391370E-04  0.22860691908E-01  0.00000000000E+00 0.  1.
     999901    1    3    3    0    0  0.15117968711E-01  0.13772514109E+00  0.37681949067E-01  0.89163708803E+00  0.88000000000E+00 0.  1.
        -11    1    4    4    0    0 -0.15539570753E-01 -0.79020450694E-01 -0.14663768444E-01  0.81859618329E-01  0.51100000000E-03 0. -1.
         11    1    4    4    0    0 -0.12324590467E-01 -0.39727286768E-01 -0.23081128014E-01  0.47572601732E-01  0.51100000000E-03 0.  1.
</event>
<event>
 8    1  0.1052028E+005  0.1043930E+01  0.7957747E-01            NaN
         13   -1    0    0    0    0  0.00000000000E+00  0.00000000000E+00  0.74505805969E-08  0.10566000000E+00  0.10566000000E+00 0. -1.
     999900   -1    0    0    0    0 -0.00000000000E+00 -0.00000000000E+00 -0.74505805969E-08  0.93827000000E+00  0.93827000000E+00 0.  1.
     999902    2    1    2    0    0 -0.98683775521E-02 -0.21361559982E-01 -0.24391362791E-02  0.10202730664E+01  0.10199987645E+01 0.  0.
     999903    2    3    3    0    0  0.40030206233E-01 -0.91256559583E-01 -0.84557906045E-01  0.13228732781E+00  0.20487082436E-01 0.  0.
         14    1    1    2    0    0  0.98683775521E-02  0.21361559982E-01  0.24391362791E-02  0.23656933575E-01  0.00000000000E+00 0. -1.
     999901    1    3    3    0    0 -0.49898583785E-01  0.69894999601E-01  0.82118769766E-01  0.88798573861E+00  0.88000000000E+00 0. -1.
        -11    1    4    4    0    0  0.28378679361E-01 -0.81644554050E-01 -0.69033366345E-01  0.11062119796E+00  0.51100000000E-03 0.  1.
         11    1    4    4    0    0  0.11651526872E-01 -0.96120055336E-02 -0.15524539700E-01  0.21666129851E-01  0.51100000000E-03 0. -1.
</event>
<event>
 8    1  0.1052028E+005  0.1043930E+01  0.7957747E-01            NaN
         13   -1    0    0    0    0  0.00000000000E+00  0.00000000000E+00  0.74505805969E-08  0.10566000000E+00  0.10566000000E+00 0.  1.
     999900   -1    0    0    0    0 -0.00000000000E+00 -0.00000000000E+00 -0.74505805969E-08  0.93827000000E+00  0.93827000000E+00 0. -1.
     999902    2    1    2    0    0 -0.44133458295E-02  0.22833674357E-01  0.62503601784E-03  0.10206653277E+01  0.10204001501E+01 0.  0.
     999903    2    3    3    0    0 -0.40567697549E-01 -0.11939139763E+00 -0.13687264777E-01  0.12839857938E+00  0.19970229240E-01 0.  0.
         14    1    1    2    0    0  0.44133458295E-02 -0.22833674357E-01 -0.62503601784E-03  0.23264672275E-01  0.00000000000E+00 0.  1.
     999901    1    3    3    0    0  0.36154351720E-01  0.14222507199E+00  0.14312300794E-01  0.89226674835E+00  0.88000000000E+00 0. -1.
        -11    1    4    4    0    0 -0.24317291539E-01 -0.49682388090E-01  0.10077806462E-02  0.55325826672E-01  0.51100000000E-03 0. -1.
         11    1    4    4    0    0 -0.16250406010E-01 -0.69709009544E-01 -0.14695045423E-01  0.73072752706E-01  0.51100000000E-03 0.  1.
</event>
<event>
 8    1  0.1052028E+005  0.1043930E+01  0.7957747E-01            NaN
         13   -1    0    0    0    0  0.00000000000E+00  0.00000000000E+00  0.74505805969E-08  0.10566000000E+00  0.10566000000E+00 0. -1.
     999900   -1    0    0    0    0 -0.00000000000E+00 -0.00000000000E+00 -0.74505805969E-08  0.93827000000E+00  0.93827000000E+00 0.  1.
     999902    2    1    2    0    0  0.14788937588E-01 -0.54122140699E-02  0.18034752314E-01  0.10199872135E+01  0.10197061629E+01 0.  0.
     999903    2    3    3    0    0  0.12957199579E+00  0.13293253698E-01 -0.27973790689E-02  0.13209137347E+00  0.21787448884E-01 0.  0.
         14    1    1    2    0    0 -0.14788937588E-01  0.54122140699E-02 -0.18034752314E-01  0.23942786537E-01  0.00000000000E+00 0. -1.
     999901    1    3    3    0    0 -0.11478305820E+00 -0.18705467768E-01  0.20832131383E-01  0.88789583999E+00  0.88000000000E+00 0. -1.
        -11    1    4    4    0    0  0.93129667791E-01  0.32038306825E-02  0.55974797383E-02  0.93354123928E-01  0.51100000000E-03 0. -1.
         11    1    4    4    0    0  0.36442328000E-01  0.10089423016E-01 -0.83948588072E-02  0.38737249544E-01  0.51100000000E-03 0.  1.
</event>
<event>
 8    1  0.1052028E+005  0.1043930E+01  0.7957747E-01            NaN
         13   -1    0    0    0    0  0.00000000000E+00  0.00000000000E+00  0.74505805969E-08  0.10566000000E+00  0.10566000000E+00 0. -1.
     999900   -1    0    0    0    0 -0.00000000000E+00 -0.00000000000E+00 -0.74505805969E-08  0.93827000000E+00  0.93827000000E+00 0.  1.
     999902    2    1    2    0    0 -0.12308671259E-01  0.19527146295E-01  0.41286799816E-02  0.10204809312E+01  0.10202114840E+01 0.  0.
     999903    2    3    3    0    0 -0.33496233280E-01 -0.41187239877E-01  0.11736244638E+00  0.13089842498E+00  0.23282342399E-01 0.  0.
         14    1    1    2    0    0  0.12308671259E-01 -0.19527146295E-01 -0.41286799816E-02  0.23449068830E-01  0.00000000000E+00 0. -1.
     999901    1    3    3    0    0  0.21187562021E-01  0.60714386172E-01 -0.11323376640E+00  0.88958250619E+00  0.88000000000E+00 0.  1.
        -11    1    4    4    0    0 -0.80417846945E-02 -0.12970184698E-01  0.13795661179E-01  0.20578566047E-01  0.51100000000E-03 0. -1.
         11    1    4    4    0    0 -0.25454448585E-01 -0.28217055179E-01  0.10356678520E+00  0.11031985893E+00  0.51100000000E-03 0.  1.
</event>
<event>
 8    1  0.1052028E+005  0.1043930E+01  0.7957747E-01            NaN
         13   -1    0    0    0    0  0.00000000000E+00  0.00000000000E+00  0.74505805969E-08  0.10566000000E+00  0.10566000000E+00 0.  1.
     999900   -1    0    0    0    0 -0.00000000000E+00 -0.00000000000E+00 -0.74505805969E-08  0.93827000000E+00  0.93827000000E+00 0. -1.
     999902    2    1    2    0    0 -0.22258205522E-02  0.20980999838E-01 -0.10048665063E-01  0.10205605263E+01  0.10202929263E+01 0.  0.
     999903    2    3    3    0    0  0.59632683823E-01 -0.73485745346E-01 -0.86915849005E-01  0.13002192272E+00  0.19877721951E-01 0.  0.
         14    1    1    2    0    0  0.22258205522E-02 -0.20980999838E-01  0.10048665063E-01  0.23369473697E-01  0.00000000000E+00 0. -1.
     999901    1    3    3    0    0 -0.61858504375E-01  0.94466745184E-01  0.76867183942E-01  0.89053860359E+00  0.88000000000E+00 0.  1.
        -11    1    4    4    0    0  0.28914206428E-01 -0.44606484130E-01 -0.59188967296E-01  0.79557304695E-01  0.51100000000E-03 0. -1.
         11    1    4    4    0    0  0.30718477396E-01 -0.28879261216E-01 -0.27726881709E-01  0.50464618023E-01  0.51100000000E-03 0.  1.
</event>
<event>
 8    1  0.1052028E+005  0.1043930E+01  0.7957747E-01            NaN
         13   -1    0    0    0    0  0.00000000000E+00  0.00000000000E+00  0.74505805969E-08  0.10566000000E+00  0.10566000000E+00 0.  1.
     999900   -1    0    0    0    0 -0.00000000000E+00 -0.00000000000E+00 -0.74505805969E-08  0.93827000000E+00  0.93827000000E+00 0. -1.
     999902    2    1    2    0    0 -0.14046945377E-01  0.17751327907E-01 -0.18788616669E-01  0.10145116650E+01  0.10140850458E+01 0.  0.
     999903    2    3    3    0    0  0.82571948259E-01  0.88979508012E-01 -0.28775388533E-01  0.12630650861E+00  0.19744154767E-01 0.  0.
         14    1    1    2    0    0  0.14046945377E-01 -0.17751327907E-01  0.18788616669E-01  0.29418334984E-01  0.00000000000E+00 0.  1.
     999901    1    3    3    0    0 -0.96618893636E-01 -0.71228180105E-01  0.99867718634E-02  0.88820515640E+00  0.88000000000E+00 0. -1.
        -11    1    4    4    0    0  0.67727890551E-01  0.61907446950E-01 -0.17374687472E-01  0.93390256624E-01  0.51100000000E-03 0. -1.
         11    1    4    4    0    0  0.14844057707E-01  0.27072061061E-01 -0.11400701061E-01  0.32916251989E-01  0.51100000000E-03 0.  1.
</event>
<event>
 8    1  0.1052028E+005  0.1043930E+01  0.7957747E-01            NaN
         13   -1    0    0    0    0  0.00000000000E+00  0.00000000000E+00  0.74505805969E-08  0.10566000000E+00  0.10566000000E+00 0.  1.
     999900   -1    0    0    0    0 -0.00000000000E+00 -0.00000000000E+00 -0.74505805969E-08  0.93827000000E+00  0.93827000000E+00 0.  1.
     999902    2    1    2    0    0 -0.89531118320E-02  0.68217449867E-02 -0.23825880193E-01  0.10175791559E+01  0.10172379130E+01 0.  0.
     999903    2    3    3    0    0 -0.95647154013E-01 -0.26337332607E-01  0.76772660330E-01  0.12699763371E+00  0.19807181344E-01 0.  0.
         14    1    1    2    0    0  0.89531118320E-02 -0.68217449867E-02  0.23825880193E-01  0.26350844068E-01  0.00000000000E+00 0.  1.
     999901    1    3    3    0    0  0.86694042181E-01  0.33159077594E-01 -0.10059854052E+00  0.89058152223E+00  0.88000000000E+00 0. -1.
        -11    1    4    4    0    0 -0.10276190952E-01  0.13253642288E-02  0.29279418927E-02  0.10779176943E-01  0.51100000000E-03 0. -1.
         11    1    4    4    0    0 -0.85370963061E-01 -0.27662696836E-01  0.73844718437E-01  0.11621845676E+00  0.51100000000E-03 0.  1.
</event>
<event>
 8    1  0.1052028E+005  0.1043930E+01  0.7957747E-01            NaN
         13   -1    0    0    0    0  0.00000000000E+00  0.00000000000E+00  0.74505805969E-08  0.10566000000E+00  0.10566000000E+00 0. -1.
     999900   -1    0    0    0    0 -0.00000000000E+00 -0.00000000000E+00 -0.74505805969E-08  0.93827000000E+00  0.93827000000E+00 0. -1.
     999902    2    1    2    0    0 -0.51884365604E-02  0.18279530279E-01 -0.13861094298E-01  0.10204099865E+01  0.10201388873E+01 0.  0.
     999903    2    3    3    0    0  0.23080366337E-01 -0.12271558440E+00  0.20044657106E-01  0.12809370423E+00  0.20356591572E-01 0.  0.
         14    1    1    2    0    0  0.51884365604E-02 -0.18279530279E-01  0.13861094298E-01  0.23520013527E-01  0.00000000000E+00 0. -1.
     999901    1    3    3    0    0 -0.28268802897E-01  0.14099511468E+00 -0.33905751404E-01  0.89231628224E+00  0.88000000000E+00 0. -1.
        -11    1    4    4    0    0  0.12876524097E-01 -0.77018716426E-01  0.26250893993E-02  0.78133474056E-01  0.51100000000E-03 0. -1.
         11    1    4    4    0    0  0.10203842239E-01 -0.45696867971E-01  0.17419567707E-01  0.49960230173E-01  0.51100000000E-03 0.  1.
</event>
<event>
 8    1  0.1052028E+005  0.1043930E+01  0.7957747E-01            NaN
         13   -1    0    0    0    0  0.00000000000E+00  0.00000000000E+00  0.74505805969E-08  0.10566000000E+00  0.10566000000E+00 0.  1.
     999900   -1    0    0    0    0 -0.00000000000E+00 -0.00000000000E+00 -0.74505805969E-08  0.93827000000E+00  0.93827000000E+00 0. -1.
     999902    2    1    2    0    0 -0.48791888833E-02  0.19359166921E-01 -0.89472710567E-02  0.10220522148E+01  0.10218180328E+01 0.  0.
     999903    2    3    3    0    0 -0.21703780763E-02 -0.12783947736E+00  0.82665447155E-02  0.12965594964E+00  0.19866731071E-01 0.  0.
         14    1    1    2    0    0  0.48791888833E-02 -0.19359166921E-01  0.89472710567E-02  0.21877785249E-01  0.00000000000E+00 0. -1.
     999901    1    3    3    0    0 -0.27088108071E-02  0.14719864428E+00 -0.17213815772E-01  0.89239626511E+00  0.88000000000E+00 0. -1.
        -11    1    4    4    0    0  0.79696702929E-02 -0.73550882519E-01  0.81058371603E-02  0.74425893888E-01  0.51100000000E-03 0. -1.
         11    1    4    4    0    0 -0.10140048369E-01 -0.54288594837E-01  0.16070755519E-03  0.55230055751E-01  0.51100000000E-03 0.  1.
</event>
<event>
 8    1  0.1052028E+005  0.1043930E+01  0.7957747E-01            NaN
         13   -1    0    0    0    0  0.00000000000E+00  0.00000000000E+00  0.74505805969E-08  0.10566000000E+00  0.10566000000E+00 0. -1.
     999900   -1    0    0    0    0 -0.00000000000E+00 -0.00000000000E+00 -0.74505805969E-08  0.93827000000E+00  0.93827000000E+00 0.  1.
     999902    2    1    2    0    0  0.97385463524E-02 -0.88860132781E-02  0.17626836426E-01  0.10219185057E+01  0.10216814212E+01 0.  0.
     999903    2    3    3    0    0  0.68879081346E-01  0.10927469766E+00 -0.14284990378E-01  0.13148157862E+00  0.19951370182E-01 0.  0.
         14    1    1    2    0    0 -0.97385463524E-02  0.88860132781E-02 -0.17626836426E-01  0.22011494257E-01  0.00000000000E+00 0.  1.
     999901    1    3    3    0    0 -0.59140534994E-01 -0.11816071093E+00  0.31911826805E-01  0.89043692712E+00  0.88000000000E+00 0. -1.
        -11    1    4    4    0    0  0.54524578546E-01  0.78523754540E-01 -0.27627232352E-02  0.95638922272E-01  0.51100000000E-03 0.  1.
         11    1    4    4    0    0  0.14354502800E-01  0.30750943117E-01 -0.11522267143E-01  0.35842656351E-01  0.51100000000E-03 0. -1.
</event>
<event>
 8    1  0.1052028E+005  0.1043930E+01  0.7957747E-01            NaN
         13   -1    0    0    0    0  0.00000000000E+00  0.00000000000E+00  0.74505805969E-08  0.10566000000E+00  0.10566000000E+00 0. -1.
     999900   -1    0    0    0    0 -0.00000000000E+00 -0.00000000000E+00 -0.74505805969E-08  0.93827000000E+00  0.93827000000E+00 0.  1.
     999902    2    1    2    0    0 -0.17700170027E-01  0.18322165858E-01 -0.14448939498E-01  0.10146422955E+01  0.10142195119E+01 0.  0.
     999903    2    3    3    0    0 -0.19252346436E-01 -0.82980400414E-01  0.86512009948E-01  0.12309435374E+00  0.20285274515E-01 0.  0.
         14    1    1    2    0    0  0.17700170027E-01 -0.18322165858E-01  0.14448939498E-01  0.29287704473E-01  0.00000000000E+00 0. -1.
     999901    1    3    3    0    0  0.15521764089E-02  0.10130256627E+00 -0.10096094945E+00  0.89154794178E+00  0.88000000000E+00 0.  1.
        -11    1    4    4    0    0 -0.21833534319E-01 -0.52089931201E-01  0.58366499438E-01  0.81221755282E-01  0.51100000000E-03 0.  1.
         11    1    4    4    0    0  0.25811878833E-02 -0.30890469213E-01  0.28145510510E-01  0.41872598462E-01  0.51100000000E-03 0. -1.
</event>
<event>
 8    1  0.1052028E+005  0.1043930E+01  0.7957747E-01            NaN
         13   -1    0    0    0    0  0.00000000000E+00  0.00000000000E+00  0.74505805969E-08  0.10566000000E+00  0.10566000000E+00 0. -1.
     999900   -1    0    0    0    0 -0.00000000000E+00 -0.00000000000E+00 -0.74505805969E-08  0.93827000000E+00  0.93827000000E+00 0.  1.
     999902    2    1    2    0    0 -0.18099704656E-01  0.11136425475E-01 -0.10195990539E-01  0.10203593084E+01  0.10200870260E+01 0.  0.
     999903    2    3    3    0    0 -0.12835918731E+00  0.86882979636E-02  0.24557582502E-01  0.13279468667E+00  0.21904028410E-01 0.  0.
         14    1    1    2    0    0  0.18099704656E-01 -0.11136425475E-01  0.10195990539E-01  0.23570691633E-01  0.00000000000E+00 0. -1.
     999901    1    3    3    0    0  0.11025948266E+00  0.24481275110E-02 -0.34753573041E-01  0.88756462169E+00  0.88000000000E+00 0.  1.
        -11    1    4    4    0    0 -0.70070721087E-01  0.21320058377E-02  0.25738539197E-02  0.70152243354E-01  0.51100000000E-03 0.  1.
         11    1    4    4    0    0 -0.58288466228E-01  0.65562921259E-02  0.21983728582E-01  0.62642443319E-01  0.51100000000E-03 0. -1.
</event>
<event>
 8    1  0.1052028E+005  0.1043930E+01  0.7957747E-01            NaN
         13   -1    0    0    0    0  0.00000000000E+00  0.00000000000E+00  0.74505805969E-08  0.10566000000E+00  0.10566000000E+00 0.  1.
     999900   -1    0    0    0    0 -0.00000000000E+00 -0.00000000000E+00 -0.74505805969E-08  0.93827000000E+00  0.93827000000E+00 0. -1.
     999902    2    1    2    0    0 -0.11408625007E-02 -0.11395046925E-01  0.21498312676E-01  0.10195717137E+01  0.10192807039E+01 0.  0.
     999903    2    3    3    0    0  0.70246850724E-01  0.70003898473E-01  0.82795281664E-01  0.13082016673E+00  0.20583768323E-01 0.  0.
         14    1    1    2    0    0  0.11408625007E-02  0.11395046925E-01 -0.21498312676E-01  0.24358286261E-01  0.00000000000E+00 0. -1.
     999901    1    3    3    0    0 -0.71387713224E-01 -0.81398945398E-01 -0.61296968988E-01  0.88875154701E+00  0.88000000000E+00 0. -1.
        -11    1    4    4    0    0  0.36382697696E-01  0.36880877076E-01  0.56424563106E-01  0.76602168561E-01  0.51100000000E-03 0. -1.
         11    1    4    4    0    0  0.33864153028E-01  0.33123021397E-01  0.26370718558E-01  0.54217998165E-01  0.51100000000E-03 0.  1.
</event>
<event>
 8    1  0.1052028E+005  0.1043930E+01  0.7957747E-01            NaN
         13   -1    0    0    0    0  0.00000000000E+00  0.00000000000E+00  0.74505805969E-08  0.10566000000E+00  0.10566000000E+00 0.  1.
     999900   -1    0    0    0    0 -0.00000000000E+00 -0.00000000000E+00 -0.74505805969E-08  0.93827000000E+00  0.93827000000E+00 0.  1.
     999902    2    1    2    0    0 -0.92737924898E-02 -0.21646768745E-01 -0.75238623610E-02  0.10192076553E+01  0.10189077732E+01 0.  0.
     999903    2    3    3    0    0 -0.53069071015E-01  0.10701996591E+00 -0.41587242357E-01  0.12812209883E+00  0.20400345099E-01 0.  0.
         14    1    1    2    0    0  0.92737924898E-02  0.21646768745E-01  0.75238623610E-02  0.24722344733E-01  0.00000000000E+00 0. -1.
     999901    1    3    3    0    0  0.43795278525E-01 -0.12866673466E+00  0.34063379996E-01  0.89108555643E+00  0.88000000000E+00 0. -1.
        -11    1    4    4    0    0 -0.42027282487E-01  0.91371084487E-01 -0.27274426278E-01  0.10420711590E+00  0.51100000000E-03 0.  1.
         11    1    4    4    0    0 -0.11041788528E-01  0.15648881426E-01 -0.14312816078E-01  0.23914982937E-01  0.51100000000E-03 0. -1.
</event>
<event>
 8    1  0.1052028E+005  0.1043930E+01  0.7957747E-01            NaN
         13   -1    0    0    0    0  0.00000000000E+00  0.00000000000E+00  0.74505805969E-08  0.10566000000E+00  0.10566000000E+00 0.  1.
     999900   -1    0    0    0    0 -0.00000000000E+00 -0.00000000000E+00 -0.74505805969E-08  0.93827000000E+00  0.93827000000E+00 0. -1.
     999902    2    1    2    0    0  0.68596187585E-02  0.38418057430E-02  0.22244020863E-01  0.10203374100E+01  0.10200646155E+01 0.  0.
     999903    2    3    3    0    0 -0.82734559636E-01  0.91871790160E-01 -0.33722197750E-01  0.12965867293E+00  0.19716786254E-01 0.  0.
         14    1    1    2    0    0 -0.68596187585E-02 -0.38418057430E-02 -0.22244020863E-01  0.23592590045E-01  0.00000000000E+00 0. -1.
     999901    1    3    3    0    0  0.89594178395E-01 -0.88029984417E-01  0.55966218613E-01  0.89067873702E+00  0.88000000000E+00 0.  1.
        -11    1    4    4    0    0 -0.23864854342E-01  0.29986145713E-01 -0.14633676324E-02  0.38354957611E-01  0.51100000000E-03 0.  1.
         11    1    4    4    0    0 -0.58869705294E-01  0.61885644446E-01 -0.32258830118E-01  0.91303715322E-01  0.51100000000E-03 0. -1.
</event>
<event>
 8    1  0.1052028E+005  0.1043930E+01  0.7957747E-01            NaN
         13   -1    0    0    0    0  0.00000000000E+00  0.00000000000E+00  0.74505805969E-08  0.10566000000E+00  0.10566000000E+00 0.  1.
     999900   -1    0    0    0    0 -0.00000000000E+00 -0.00000000000E+00 -0.74505805969E-08  0.93827000000E+00  0.93827000000E+00 0. -1.
     999902    2    1    2    0    0  0.15087518007E-01  0.15927775807E-01  0.68666576794E-02  0.10209413456E+01  0.10206824937E+01 0.  0.
     999903    2    3    3    0    0  0.29805459359E-01 -0.19026770000E-01  0.12580168709E+00  0.13213091630E+00  0.19548175984E-01 0.  0.
         14    1    1    2    0    0 -0.15087518007E-01 -0.15927775807E-01 -0.68666576794E-02  0.22988654364E-01  0.00000000000E+00 0. -1.
     999901    1    3    3    0    0 -0.14717941352E-01  0.34954545807E-01 -0.11893502941E+00  0.88881042933E+00  0.88000000000E+00 0. -1.
        -11    1    4    4    0    0  0.60712395379E-02  0.35984380650E-02  0.31648315994E-01  0.32429704475E-01  0.51100000000E-03 0.  1.
         11    1    4    4    0    0  0.23734219821E-01 -0.22625208065E-01  0.94153371095E-01  0.99701211829E-01  0.51100000000E-03 0. -1.
</event>
<event>
 7    1  0.1052028E+005  0.1043930E+01  0.7957747E-01            NaN
         13   -1    0    0    0    0  0.00000000000E+00  0.00000000000E+00  0.74505805969E-08  0.10566000000E+00  0.10566000000E+00 0.  1.
     999900   -1    0    0    0    0 -0.00000000000E+00 -0.00000000000E+00 -0.74505805969E-08  0.93827000000E+00  0.93827000000E+00 0.  1.
     999902    2    1    2    0    0  0.14595749229E-02 -0.10489444609E-01 -0.21673561166E-01  0.10198073538E+01  0.10195220139E+01 0.  0.
         14    1    1    2    0    0 -0.14595749229E-02  0.10489444609E-01  0.21673561166E-01  0.24122646223E-01  0.00000000000E+00 0.  1.
     999901    1    3    3    0    0 -0.97839219589E-01  0.57716202106E-01 -0.52145965977E-01  0.88883230963E+00  0.88000000000E+00 0. -1.
        -11    1    3    3    0    0  0.29457365160E-01 -0.40375813445E-01  0.35467340288E-03  0.49983293086E-01  0.51100000000E-03 0. -1.
         11    1    3    3    0    0  0.69841429352E-01 -0.27829833269E-01  0.30117731408E-01  0.80991751060E-01  0.51100000000E-03 0.  1.
</event>
<event>
 8    1  0.1052028E+005  0.1043930E+01  0.7957747E-01            NaN
         13   -1    0    0    0    0  0.00000000000E+00  0.00000000000E+00  0.74505805969E-08  0.10566000000E+00  0.10566000000E+00 0. -1.
     999900   -1    0    0    0    0 -0.00000000000E+00 -0.00000000000E+00 -0.74505805969E-08  0.93827000000E+00  0.93827000000E+00 0. -1.
     999902    2    1    2    0    0 -0.23139378171E-01 -0.48903973384E-02  0.25598280610E-02  0.10201413572E+01  0.10198639562E+01 0.  0.
     999903    2    3    3    0    0  0.59455321002E-01  0.36807057555E-01  0.10677141862E+00  0.12917524239E+00  0.19910116284E-01 0.  0.
         14    1    1    2    0    0  0.23139378171E-01  0.48903973384E-02 -0.25598280610E-02  0.23788642836E-01  0.00000000000E+00 0.  1.
     999901    1    3    3    0    0 -0.82594699173E-01 -0.41697454894E-01 -0.10421159056E+00  0.89096611478E+00  0.88000000000E+00 0. -1.
        -11    1    4    4    0    0  0.28590362709E-01  0.64764237723E-02  0.39667899792E-01  0.49327034166E-01  0.51100000000E-03 0.  1.
         11    1    4    4    0    0  0.30864958293E-01  0.30330633783E-01  0.67103518826E-01  0.79848208220E-01  0.51100000000E-03 0. -1.
</event>
<event>
 8    1  0.1052028E+005  0.1043930E+01  0.7957747E-01            NaN
         13   -1    0    0    0    0  0.00000000000E+00  0.00000000000E+00  0.74505805969E-08  0.10566000000E+00  0.10566000000E+00 0. -1.
     999900   -1    0    0    0    0 -0.00000000000E+00 -0.00000000000E+00 -0.74505805969E-08  0.93827000000E+00  0.93827000000E+00 0.  1.
     999902    2    1    2    0    0 -0.22286017371E-01 -0.13799075861E-02  0.62163480980E-02  0.10207521291E+01  0.10204889492E+01 0.  0.
     999903    2    3    3    0    0 -0.10762739977E+00 -0.45206565598E-01 -0.60859833785E-01  0.13300039485E+00  0.18918110600E-01 0.  0.
         14    1    1    2    0    0  0.22286017371E-01  0.13799075861E-02 -0.62163480980E-02  0.23177870888E-01  0.00000000000E+00 0. -1.
     999901    1    3    3    0    0  0.85341382399E-01  0.43826658012E-01  0.67076181883E-01  0.88775173426E+00  0.88000000000E+00 0. -1.
        -11    1    4    4    0    0 -0.75416576147E-01 -0.22745264194E-01 -0.36813637236E-01  0.86951204756E-01  0.51100000000E-03 0. -1.
         11    1    4    4    0    0 -0.32210823623E-01 -0.22461301404E-01 -0.24046196549E-01  0.46049190098E-01  0.51100000000E-03 0.  1.
</event>
<event>
 8    1  0.1052028E+005  0.1043930E+01  0.7957747E-01            NaN
         13   -1    0    0    0    0  0.00000000000E+00  0.00000000000E+00  0.74505805969E-08  0.10566000000E+00  0.10566000000E+00 0.  1.
     999900   -1    0    0    0    0 -0.00000000000E+00 -0.00000000000E+00 -0.74505805969E-08  0.93827000000E+00  0.93827000000E+00 0.  1.
     999902    2    1    2    0    0 -0.19293710407E-02 -0.23041446705E-01 -0.47947131420E-02  0.10203160208E+01  0.10200427257E+01 0.  0.
     999903    2    3    3    0    0 -0.88066360259E-01 -0.33334863801E-01 -0.90265883978E-01  0.13192936153E+00  0.19761823554E-01 0.  0.
         14    1    1    2    0    0  0.19293710407E-02  0.23041446705E-01  0.47947131420E-02  0.23613979185E-01  0.00000000000E+00 0.  1.
     999901    1    3    3    0    0  0.86136989218E-01  0.10293417096E-01  0.85471170836E-01  0.88838665928E+00  0.88000000000E+00 0. -1.
        -11    1    4    4    0    0 -0.88227535892E-01 -0.33015879761E-01 -0.85801885722E-01  0.12742201976E+00  0.51100000000E-03 0. -1.
         11    1    4    4    0    0  0.16117563282E-03 -0.31898403934E-03 -0.44639982557E-02  0.45073417696E-02  0.51100000000E-03 0.  1.
</event>
<event>
 8    1  0.1052028E+005  0.1043930E+01  0.7957747E-01            NaN
         13   -1    0    0    0    0  0.00000000000E+00  0.00000000000E+00  0.74505805969E-08  0.10566000000E+00  0.10566000000E+00 0. -1.
     999900   -1    0    0    0    0 -0.00000000000E+00 -0.00000000000E+00 -0.74505805969E-08  0.93827000000E+00  0.93827000000E+00 0.  1.
     999902    2    1    2    0    0  0.39659520422E-02 -0.48910849655E-02  0.22414896550E-01  0.10206474083E+01  0.10203818173E+01 0.  0.
     999903    2    3    3    0    0 -0.24042487401E-01 -0.32440943772E-01 -0.11907315736E+00  0.12848019485E+00  0.26425132557E-01 0.  0.
         14    1    1    2    0    0 -0.39659520422E-02  0.48910849655E-02 -0.22414896550E-01  0.23282591674E-01  0.00000000000E+00 0.  1.
     999901    1    3    3    0    0  0.28008439443E-01  0.27549858807E-01  0.14148805391E+00  0.89216721348E+00  0.88000000000E+00 0. -1.
        -11    1    4    4    0    0 -0.28087559138E-01 -0.18363598993E-01 -0.85229404263E-01  0.91599373460E-01  0.51100000000E-03 0. -1.
         11    1    4    4    0    0  0.40450717366E-02 -0.14077344779E-01 -0.33843753102E-01  0.36880821390E-01  0.51100000000E-03 0.  1.
</event>
<event>
 8    1  0.1052028E+005  0.1043930E+01  0.7957747E-01            NaN
         13   -1    0    0    0    0  0.00000000000E+00  0.00000000000E+00  0.74505805969E-08  0.10566000000E+00  0.10566000000E+00 0.  1.
     999900   -1    0    0    0    0 -0.00000000000E+00 -0.00000000000E+00 -0.74505805969E-08  0.93827000000E+00  0.93827000000E+00 0. -1.
     999902    2    1    2    0    0 -0.17567160961E-01  0.59849793980E-02  0.93035146131E-02  0.10231699300E+01  0.10229592979E+01 0.  0.
     999903    2    3    3    0    0  0.12840227442E+00  0.15988389791E-01  0.62743436024E-02  0.13108455282E+00  0.20025481667E-01 0.  0.
         14    1    1    2    0    0  0.17567160961E-01 -0.59849793980E-02 -0.93035146131E-02  0.20760070009E-01  0.00000000000E+00 0. -1.
     999901    1    3    3    0    0 -0.14596943538E+00 -0.10003410393E-01  0.30291710107E-02  0.89208537717E+00  0.88000000000E+00 0. -1.
        -11    1    4    4    0    0  0.10221196283E+00  0.18975780490E-01  0.10075570815E-01  0.10444684695E+00  0.51100000000E-03 0. -1.
         11    1    4    4    0    0  0.26190311591E-01 -0.29873906991E-02 -0.38012272127E-02  0.26637705865E-01  0.51100000000E-03 0.  1.
</event>
<event>
 8    1  0.1052028E+005  0.1043930E+01  0.7957747E-01            NaN
         13   -1    0    0    0    0  0.00000000000E+00  0.00000000000E+00  0.74505805969E-08  0.10566000000E+00  0.10566000000E+00 0.  1.
     999900   -1    0    0    0    0 -0.00000000000E+00 -0.00000000000E+00 -0.74505805969E-08  0.93827000000E+00  0.93827000000E+00 0.  1.
     999902    2    1    2    0    0 -0.75412965284E-02 -0.24626879864E-01  0.35048495161E-02  0.10179369560E+01  0.10176050354E+01 0.  0.
     999903    2    3    3    0    0 -0.11325212627E+00  0.38074114090E-01  0.43517914178E-01  0.12849486150E+00  0.18478049369E-01 0.  0.
         14    1    1    2    0    0  0.75412965284E-02  0.24626879864E-01 -0.35048495161E-02  0.25993043979E-01  0.00000000000E+00 0.  1.
     999901    1    3    3    0    0  0.10571082974E+00 -0.62700993955E-01 -0.40013064662E-01  0.88944209452E+00  0.88000000000E+00 0. -1.
        -11    1    4    4    0    0 -0.85578938467E-01  0.35864947937E-01  0.29348004558E-01  0.97322226095E-01  0.51100000000E-03 0. -1.
         11    1    4    4    0    0 -0.27673187802E-01  0.22091661535E-02  0.14169909620E-01  0.31172635401E-01  0.51100000000E-03 0.  1.
</event>
<event>
 8    1  0.1052028E+005  0.1043930E+01  0.7957747E-01            NaN
         13   -1    0    0    0    0  0.00000000000E+00  0.00000000000E+00  0.74505805969E-08  0.10566000000E+00  0.10566000000E+00 0. -1.
     999900   -1    0    0    0    0 -0.00000000000E+00 -0.00000000000E+00 -0.74505805969E-08  0.93827000000E+00  0.93827000000E+00 0. -1.
     999902    2    1    2    0    0 -0.19241385847E-01  0.14110238346E-01 -0.20905666259E-02  0.10199779599E+01  0.10196966895E+01 0.  0.
     999903    2    3    3    0    0  0.18609311420E-02  0.82161390382E-01  0.99849082697E-01  0.13123280005E+00  0.22321544736E-01 0.  0.
         14    1    1    2    0    0  0.19241385847E-01 -0.14110238346E-01  0.20905666259E-02  0.23952040087E-01  0.00000000000E+00 0. -1.
     999901    1    3    3    0    0 -0.21102316989E-01 -0.68051152035E-01 -0.10193964932E+00  0.88874515986E+00  0.88000000000E+00 0. -1.
        -11    1    4    4    0    0 -0.40005877086E-02  0.57135028398E-01  0.81640993550E-01  0.99729279155E-01  0.51100000000E-03 0. -1.
         11    1    4    4    0    0  0.58615188506E-02  0.25026361984E-01  0.18208089147E-01  0.31503520895E-01  0.51100000000E-03 0.  1.
</event>
<event>
 8    1  0.1052028E+005  0.1043930E+01  0.7957747E-01            NaN
         13   -1    0    0    0    0  0.00000000000E+00  0.00000000000E+00  0.74505805969E-08  0.10566000000E+00  0.10566000000E+00 0. -1.
     999900   -1    0    0    0    0 -0.00000000000E+00 -0.00000000000E+00 -0.74505805969E-08  0.93827000000E+00  0.93827000000E+00 0. -1.
     999902    2    1    2    0    0  0.54250718213E-02 -0.16210200356E-01 -0.16941383179E-01  0.10198631667E+01  0.10195791614E+01 0.  0.
     999903    2    3    3    0    0 -0.12689369847E+00  0.63801960381E-02  0.99326446153E-02  0.12927864162E+00  0.21716172266E-01 0.  0.
         14    1    1    2    0    0 -0.54250718213E-02  0.16210200356E-01  0.16941383179E-01  0.24066833275E-01  0.00000000000E+00 0. -1.
     999901    1    3    3    0    0  0.13231877029E+00 -0.22590396394E-01 -0.26874027794E-01  0.89058452510E+00  0.88000000000E+00 0. -1.
        -11    1    4    4    0    0 -0.27818101841E-01 -0.74234872465E-02  0.39534264665E-02  0.29066228767E-01  0.51100000000E-03 0.  1.
         11    1    4    4    0    0 -0.99075596630E-01  0.13803683285E-01  0.59792181487E-02  0.10021241286E+00  0.51100000000E-03 0. -1.
</event>
<event>
 7    1  0.1270030E+005  0.1043930E+01  0.7957747E-01            NaN
         13   -1    0    0    0    0  0.00000000000E+00  0.00000000000E+00  0.74505805969E-08  0.10566000000E+00  0.10566000000E+00 0.  1.
     999900   -1    0    0    0    0 -0.00000000000E+00 -0.00000000000E+00 -0.74505805969E-08  0.93827000000E+00  0.93827000000E+00 0. -1.
     999903    2    1    2    0    0 -0.55493294586E-01 -0.44420189630E-01 -0.59034182235E-01  0.94464539362E-01  0.19643205795E-01 0.  0.
         14    1    1    2    0    0 -0.23694704036E-01 -0.28381736704E-01 -0.43404572779E-01  0.57016830110E-01  0.00000000000E+00 0. -1.
     999901    1    1    2    0    0  0.79187998621E-01  0.72801926334E-01  0.10243875501E+00  0.89244863053E+00  0.88000000000E+00 0.  1.
        -11    1    3    3    0    0 -0.38558314350E-01 -0.25452877826E-01 -0.26831797530E-01  0.53430319809E-01  0.51100000000E-03 0. -1.
         11    1    3    3    0    0 -0.16934980236E-01 -0.18967311804E-01 -0.32202384704E-01  0.41034219553E-01  0.51100000000E-03 0.  1.
</event>
<event>
 8    1  0.1052028E+005  0.1043930E+01  0.7957747E-01            NaN
         13   -1    0    0    0    0  0.00000000000E+00  0.00000000000E+00  0.74505805969E-08  0.10566000000E+00  0.10566000000E+00 0.  1.
     999900   -1    0    0    0    0 -0.00000000000E+00 -0.00000000000E+00 -0.74505805969E-08  0.93827000000E+00  0.93827000000E+00 0.  1.
     999902    2    1    2    0    0 -0.19896042718E-01  0.11629427868E-01  0.49374244396E-02  0.10203614984E+01  0.10200892672E+01 0.  0.
     999903    2    3    3    0    0  0.41210297554E-01  0.12022273532E+00 -0.25342480927E-01  0.13106775393E+00  0.19614282257E-01 0.  0.
         14    1    1    2    0    0  0.19896042718E-01 -0.11629427868E-01 -0.49374244396E-02  0.23568501617E-01  0.00000000000E+00 0. -1.
     999901    1    3    3    0    0 -0.61106340273E-01 -0.10859330746E+00  0.30279905367E-01  0.88929374445E+00  0.88000000000E+00 0.  1.
        -11    1    4    4    0    0  0.20918944238E-01  0.44638626270E-01 -0.17915103669E-01  0.52453991686E-01  0.51100000000E-03 0.  1.
         11    1    4    4    0    0  0.20291353316E-01  0.75584109054E-01 -0.74273772587E-02  0.78613762249E-01  0.51100000000E-03 0. -1.
</event>
<event>
 8    1  0.1052028E+005  0.1043930E+01  0.7957747E-01            NaN
         13   -1    0    0    0    0  0.00000000000E+00  0.00000000000E+00  0.74505805969E-08  0.10566000000E+00  0.10566000000E+00 0. -1.
     999900   -1    0    0    0    0 -0.00000000000E+00 -0.00000000000E+00 -0.74505805969E-08  0.93827000000E+00  0.93827000000E+00 0.  1.
     999902    2    1    2    0    0 -0.20955552728E-01 -0.13677809101E-01 -0.89791503418E-02  0.10173434848E+01  0.10169960291E+01 0.  0.
     999903    2    3    3    0    0  0.10089708908E+00 -0.34497138224E-01 -0.65625560888E-01  0.12689959174E+00  0.20652288291E-01 0.  0.
         14    1    1    2    0    0  0.20955552728E-01  0.13677809101E-01  0.89791503418E-02  0.26586515244E-01  0.00000000000E+00 0. -1.
     999901    1    3    3    0    0 -0.12185264181E+00  0.20819329123E-01  0.56646410546E-01  0.89044389302E+00  0.88000000000E+00 0.  1.
        -11    1    4    4    0    0  0.69174469747E-01 -0.21313245659E-01 -0.33119877585E-01  0.79602444168E-01  0.51100000000E-03 0. -1.
         11    1    4    4    0    0  0.31722619334E-01 -0.13183892565E-01 -0.32505683303E-01  0.47297147573E-01  0.51100000000E-03 0.  1.
</event>
<event>
 8    1  0.1156374E+005  0.1043930E+01  0.7957747E-01            NaN
         13   -1    0    0    0    0  0.00000000000E+00  0.00000000000E+00  0.74505805969E-08  0.10566000000E+00  0.10566000000E+00 0. -1.
     999900   -1    0    0    0    0 -0.00000000000E+00 -0.00000000000E+00 -0.74505805969E-08  0.93827000000E+00  0.93827000000E+00 0.  1.
     999902    2    1    2    0    0  0.15497961017E-01  0.17995944053E-01 -0.31483492572E-02  0.10199726859E+01  0.10196912900E+01 0.  0.
     999903    2    3    3    0    0  0.83388642576E-01 -0.72591492900E-01  0.65303104961E-01  0.13008458617E+00  0.20840189273E-01 0.  0.
         14    1    1    2    0    0 -0.15497961017E-01 -0.17995944053E-01  0.31483492572E-02  0.23957314146E-01  0.00000000000E+00 0. -1.
     999901    1    3    3    0    0 -0.67890681559E-01  0.90587436953E-01 -0.68451454218E-01  0.88988809968E+00  0.88000000000E+00 0.  1.
        -11    1    4    4    0    0  0.45256864154E-01 -0.25672027733E-01  0.31040257388E-01  0.60588740378E-01  0.51100000000E-03 0. -1.
         11    1    4    4    0    0  0.38131778423E-01 -0.46919465168E-01  0.34262847573E-01  0.69495845790E-01  0.51100000000E-03 0.  1.
</event>
<event>
 8    1  0.1052028E+005  0.1043930E+01  0.7957747E-01            NaN
         13   -1    0    0    0    0  0.00000000000E+00  0.00000000000E+00  0.74505805969E-08  0.10566000000E+00  0.10566000000E+00 0.  1.
     999900   -1    0    0    0    0 -0.00000000000E+00 -0.00000000000E+00 -0.74505805969E-08  0.93827000000E+00  0.93827000000E+00 0. -1.
     999902    2    1    2    0    0 -0.18953458837E-01 -0.13750198404E-01 -0.10948615584E-02  0.10204885777E+01  0.10202193082E+01 0.  0.
     999903    2    3    3    0    0 -0.92288723120E-01 -0.81138562459E-01  0.48813973501E-01  0.13346538498E+00  0.18152967938E-01 0.  0.
         14    1    1    2    0    0  0.18953458837E-01  0.13750198404E-01  0.10948615584E-02  0.23441422309E-01  0.00000000000E+00 0.  1.
     999901    1    3    3    0    0  0.73335264283E-01  0.67388364055E-01 -0.49908835059E-01  0.88702319272E+00  0.88000000000E+00 0. -1.
        -11    1    4    4    0    0 -0.47579039716E-01 -0.35292005115E-01  0.31645738885E-01  0.67164012358E-01  0.51100000000E-03 0.  1.
         11    1    4    4    0    0 -0.44709683404E-01 -0.45846557343E-01  0.17168234615E-01  0.66301372619E-01  0.51100000000E-03 0. -1.
</event>
<event>
 8    1  0.1052028E+005  0.1043930E+01  0.7957747E-01            NaN
         13   -1    0    0    0    0  0.00000000000E+00  0.00000000000E+00  0.74505805969E-08  0.10566000000E+00  0.10566000000E+00 0. -1.
     999900   -1    0    0    0    0 -0.00000000000E+00 -0.00000000000E+00 -0.74505805969E-08  0.93827000000E+00  0.93827000000E+00 0. -1.
     999902    2    1    2    0    0 -0.81756384972E-02 -0.24867547762E-02  0.24249383817E-01  0.10182189590E+01  0.10178942926E+01 0.  0.
     999903    2    3    3    0    0 -0.46757786489E-02 -0.71775606273E-02  0.13024231654E+00  0.13183938203E+00  0.18579056835E-01 0.  0.
         14    1    1    2    0    0  0.81756384972E-02  0.24867547762E-02 -0.24249383817E-01  0.25711041007E-01  0.00000000000E+00 0.  1.
     999901    1    3    3    0    0 -0.34998598483E-02  0.46908058511E-02 -0.10599293272E+00  0.88637957697E+00  0.88000000000E+00 0. -1.
        -11    1    4    4    0    0 -0.59683540480E-02 -0.12933639605E-01  0.81281095082E-01  0.82521377971E-01  0.51100000000E-03 0. -1.
         11    1    4    4    0    0  0.12925753991E-02  0.57560789780E-02  0.48961221457E-01  0.49318004055E-01  0.51100000000E-03 0.  1.
</event>
<event>
 8    1  0.1052028E+005  0.1043930E+01  0.7957747E-01            NaN
         13   -1    0    0    0    0  0.00000000000E+00  0.00000000000E+00  0.74505805969E-08  0.10566000000E+00  0.10566000000E+00 0. -1.
     999900   -1    0    0    0    0 -0.00000000000E+00 -0.00000000000E+00 -0.74505805969E-08  0.93827000000E+00  0.93827000000E+00 0.  1.
     999902    2    1    2    0    0 -0.12293556850E-01  0.46223941205E-02 -0.19584481997E-01  0.10203492875E+01  0.10200767709E+01 0.  0.
     999903    2    3    3    0    0 -0.97586753792E-01 -0.22421957427E-01  0.78706663271E-01  0.13036755979E+00  0.27839596130E-01 0.  0.
         14    1    1    2    0    0  0.12293556850E-01 -0.46223941205E-02  0.19584481997E-01  0.23580712511E-01  0.00000000000E+00 0. -1.
     999901    1    3    3    0    0  0.85293196941E-01  0.27044351547E-01 -0.98291145268E-01  0.88998172770E+00  0.88000000000E+00 0.  1.
        -11    1    4    4    0    0 -0.28031822515E-01  0.51187166287E-02  0.15571794018E-01  0.32476548822E-01  0.51100000000E-03 0.  1.
         11    1    4    4    0    0 -0.69554931276E-01 -0.27540674055E-01  0.63134869253E-01  0.97891010971E-01  0.51100000000E-03 0. -1.
</event>
<event>
 8    1  0.1052028E+005  0.1043930E+01  0.7957747E-01            NaN
         13   -1    0    0    0    0  0.00000000000E+00  0.00000000000E+00  0.74505805969E-08  0.10566000000E+00  0.10566000000E+00 0. -1.
     999900   -1    0    0    0    0 -0.00000000000E+00 -0.00000000000E+00 -0.74505805969E-08  0.93827000000E+00  0.93827000000E+00 0.  1.
     999902    2    1    2    0    0  0.41808904954E-02 -0.20994221194E-01 -0.10095942391E-01  0.10202621902E+01  0.10199876330E+01 0.  0.
     999903    2    3    3    0    0 -0.23339698694E-01  0.10025535182E+00 -0.74716956979E-01  0.12917593324E+00  0.22537101947E-01 0.  0.
         14    1    1    2    0    0 -0.41808904954E-02  0.20994221194E-01  0.10095942391E-01  0.23667809819E-01  0.00000000000E+00 0. -1.
     999901    1    3    3    0    0  0.27520589190E-01 -0.12124957301E+00  0.64621014588E-01  0.89108625694E+00  0.88000000000E+00 0.  1.
        -11    1    4    4    0    0 -0.13830894587E-01  0.38718387013E-01 -0.17770134902E-01  0.44793369525E-01  0.51100000000E-03 0. -1.
         11    1    4    4    0    0 -0.95088041079E-02  0.61536964807E-01 -0.56946822077E-01  0.84382563714E-01  0.51100000000E-03 0.  1.
</event>
<event>
 8    1  0.1052028E+005  0.1043930E+01  0.7957747E-01            NaN
         13   -1    0    0    0    0  0.00000000000E+00  0.00000000000E+00  0.74505805969E-08  0.10566000000E+00  0.10566000000E+00 0.  1.
     999900   -1    0    0    0    0 -0.00000000000E+00 -0.00000000000E+00 -0.74505805969E-08  0.93827000000E+00  0.93827000000E+00 0.  1.
     999902    2    1    2    0    0 -0.32148899481E-03 -0.17012211476E-01 -0.15572245805E-01  0.10208645814E+01  0.10206039781E+01 0.  0.
     999903    2    3    3    0    0  0.12251671007E+00 -0.19266369527E-01 -0.40860872670E-01  0.13196986380E+00  0.19102272020E-01 0.  0.
         14    1    1    2    0    0  0.32148899481E-03  0.17012211476E-01  0.15572245805E-01  0.23065418571E-01  0.00000000000E+00 0.  1.
     999901    1    3    3    0    0 -0.12283819906E+00  0.22541580515E-02  0.25288626865E-01  0.88889471763E+00  0.88000000000E+00 0. -1.
        -11    1    4    4    0    0  0.38053637694E-01 -0.11858521464E-01 -0.60723713291E-02  0.40321690040E-01  0.51100000000E-03 0.  1.
         11    1    4    4    0    0  0.84463072371E-01 -0.74078480630E-02 -0.34788501340E-01  0.91648173762E-01  0.51100000000E-03 0. -1.
</event>
<event>
 7    1  0.1052028E+005  0.1043930E+01  0.7957747E-01            NaN
         13   -1    0    0    0    0  0.00000000000E+00  0.00000000000E+00  0.74505805969E-08  0.10566000000E+00  0.10566000000E+00 0. -1.
     999900   -1    0    0    0    0 -0.00000000000E+00 -0.00000000000E+00 -0.74505805969E-08  0.93827000000E+00  0.93827000000E+00 0. -1.
     999903    2    1    2    0    0 -0.54050358506E-01 -0.33581526296E-01 -0.45514794458E-01  0.80711434310E-01  0.19838824330E-01 0.  0.
         14    1    1    2    0    0  0.34603209705E-01 -0.49184945345E-01 -0.44123604801E-01  0.74588427193E-01  0.00000000000E+00 0. -1.
     999901    1    1    2    0    0  0.19447148801E-01  0.82766471641E-01  0.89638399259E-01  0.88863013850E+00  0.88000000000E+00 0.  1.
        -11    1    3    3    0    0 -0.28084572876E-01 -0.15820813574E-01 -0.34887535411E-01  0.47502027575E-01  0.51100000000E-03 0.  1.
         11    1    3    3    0    0 -0.25965785630E-01 -0.17760712722E-01 -0.10627259048E-01  0.33209406735E-01  0.51100000000E-03 0. -1.
</event>
<event>
 8    1  0.1052028E+005  0.1043930E+01  0.7957747E-01            NaN
         13   -1    0    0    0    0  0.00000000000E+00  0.00000000000E+00  0.74505805969E-08  0.10566000000E+00  0.10566000000E+00 0.  1.
     999900   -1    0    0    0    0 -0.00000000000E+00 -0.00000000000E+00 -0.74505805969E-08  0.93827000000E+00  0.93827000000E+00 0.  1.
     999902    2    1    2    0    0 -0.21272615999E-01  0.10293712328E-01  0.28493784758E-02  0.10201265620E+01  0.10198488117E+01 0.  0.
     999903    2    3    3    0    0 -0.68014274040E-01  0.10674355500E+00 -0.38899001868E-01  0.13264119193E+00  0.77733803750E-02 0.  0.
         14    1    1    2    0    0  0.21272615999E-01 -0.10293712328E-01 -0.28493784758E-02  0.23803438042E-01  0.00000000000E+00 0. -1.
     999901    1    3    3    0    0  0.46741658041E-01 -0.96449842676E-01  0.41748380344E-01  0.88748537003E+00  0.88000000000E+00 0.  1.
        -11    1    4    4    0    0 -0.35122276583E-01  0.60424939571E-01 -0.18774403675E-01  0.72370484239E-01  0.51100000000E-03 0.  1.
         11    1    4    4    0    0 -0.32891997457E-01  0.46318615433E-01 -0.20124598193E-01  0.60270707693E-01  0.51100000000E-03 0. -1.
</event>
<event>
 8    1  0.1052028E+005  0.1043930E+01  0.7957747E-01            NaN
         13   -1    0    0    0    0  0.00000000000E+00  0.00000000000E+00  0.74505805969E-08  0.10566000000E+00  0.10566000000E+00 0.  1.
     999900   -1    0    0    0    0 -0.00000000000E+00 -0.00000000000E+00 -0.74505805969E-08  0.93827000000E+00  0.93827000000E+00 0.  1.
     999902    2    1    2    0    0 -0.13230282905E-01 -0.65716524750E-02  0.18266142954E-01  0.10204378954E+01  0.10201674467E+01 0.  0.
     999903    2    3    3    0    0  0.60467307190E-01 -0.10066970346E+00  0.55577820766E-01  0.13157461044E+00  0.20791813720E-01 0.  0.
         14    1    1    2    0    0  0.13230282905E-01  0.65716524750E-02 -0.18266142954E-01  0.23492104640E-01  0.00000000000E+00 0. -1.
     999901    1    3    3    0    0 -0.73697590095E-01  0.94098050981E-01 -0.37311677812E-01  0.88886328492E+00  0.88000000000E+00 0.  1.
        -11    1    4    4    0    0  0.20603711100E-01 -0.54424943148E-01  0.27815132924E-01  0.64502171190E-01  0.51100000000E-03 0.  1.
         11    1    4    4    0    0  0.39863596091E-01 -0.46244760308E-01  0.27762687842E-01  0.67072439246E-01  0.51100000000E-03 0. -1.
</event>
<event>
 8    1  0.1052028E+005  0.1043930E+01  0.7957747E-01            NaN
         13   -1    0    0    0    0  0.00000000000E+00  0.00000000000E+00  0.74505805969E-08  0.10566000000E+00  0.10566000000E+00 0.  1.
     999900   -1    0    0    0    0 -0.00000000000E+00 -0.00000000000E+00 -0.74505805969E-08  0.93827000000E+00  0.93827000000E+00 0.  1.
     999902    2    1    2    0    0  0.13545111943E-01  0.18039455199E-01 -0.61981198038E-02  0.10205353705E+01  0.10202671874E+01 0.  0.
     999903    2    3    3    0    0 -0.14635653590E-01 -0.31332590861E-01  0.12413118711E+00  0.12912217632E+00  0.82493149870E-02 0.  0.
         14    1    1    2    0    0 -0.13545111943E-01 -0.18039455199E-01  0.61981198038E-02  0.23394629523E-01  0.00000000000E+00 0.  1.
     999901    1    3    3    0    0  0.28180765533E-01  0.49372046060E-01 -0.13032930691E+00  0.89141319416E+00  0.88000000000E+00 0.  1.
        -11    1    4    4    0    0 -0.11928349619E-01 -0.17123484709E-01  0.79968656075E-01  0.82648329255E-01  0.51100000000E-03 0. -1.
         11    1    4    4    0    0 -0.27073039706E-02 -0.14209106152E-01  0.44162531035E-01  0.46473847063E-01  0.51100000000E-03 0.  1.
</event>
<event>
 8    1  0.1052028E+005  0.1043930E+01  0.7957747E-01            NaN
         13   -1    0    0    0    0  0.00000000000E+00  0.00000000000E+00  0.74505805969E-08  0.10566000000E+00  0.10566000000E+00 0.  1.
     999900   -1    0    0    0    0 -0.00000000000E+00 -0.00000000000E+00 -0.74505805969E-08  0.93827000000E+00  0.93827000000E+00 0.  1.
     999902    2    1    2    0    0 -0.20509206093E-01  0.11085011456E-01  0.60560785720E-02  0.10198430512E+01  0.10195585653E+01 0.  0.
     999903    2    3    3    0    0 -0.26437805878E-01  0.35949527674E-01 -0.12098988530E+00  0.13035214661E+00  0.19021137226E-01 0.  0.
         14    1    1    2    0    0  0.20509206093E-01 -0.11085011456E-01 -0.60560785720E-02  0.24086948773E-01  0.00000000000E+00 0.  1.
     999901    1    3    3    0    0  0.59285997850E-02 -0.24864516218E-01  0.12704596387E+00  0.88949090462E+00  0.88000000000E+00 0. -1.
        -11    1    4    4    0    0 -0.64444566162E-02  0.18280473560E-01 -0.31704015669E-01  0.37163321504E-01  0.51100000000E-03 0. -1.
         11    1    4    4    0    0 -0.19993349262E-01  0.17669054115E-01 -0.89285869629E-01  0.93188825105E-01  0.51100000000E-03 0.  1.
</event>
<event>
 8    1  0.1052028E+005  0.1043930E+01  0.7957747E-01            NaN
         13   -1    0    0    0    0  0.00000000000E+00  0.00000000000E+00  0.74505805969E-08  0.10566000000E+00  0.10566000000E+00 0.  1.
     999900   -1    0    0    0    0 -0.00000000000E+00 -0.00000000000E+00 -0.74505805969E-08  0.93827000000E+00  0.93827000000E+00 0. -1.
     999902    2    1    2    0    0  0.27531536355E-03  0.23698098138E-01 -0.17103050244E-03  0.10202296855E+01  0.10199543648E+01 0.  0.
     999903    2    3    3    0    0  0.10191180535E+00  0.61934128645E-01  0.52923067048E-01  0.13196680029E+00  0.19812445357E-01 0.  0.
         14    1    1    2    0    0 -0.27531536355E-03 -0.23698098138E-01  0.17103050244E-03  0.23700314457E-01  0.00000000000E+00 0.  1.
     999901    1    3    3    0    0 -0.10163648999E+00 -0.38236030506E-01 -0.53094097551E-01  0.88826288525E+00  0.88000000000E+00 0.  1.
        -11    1    4    4    0    0  0.42013698302E-01  0.17905678957E-01  0.27935592743E-01  0.53538982497E-01  0.51100000000E-03 0.  1.
         11    1    4    4    0    0  0.59898107052E-01  0.44028449687E-01  0.24987474305E-01  0.78427817791E-01  0.51100000000E-03 0. -1.
</event>
<event>
 7    1  0.1052028E+005  0.1043930E+01  0.7957747E-01            NaN
         13   -1    0    0    0    0  0.00000000000E+00  0.00000000000E+00  0.74505805969E-08  0.10566000000E+00  0.10566000000E+00 0. -1.
     999900   -1    0    0    0    0 -0.00000000000E+00 -0.00000000000E+00 -0.74505805969E-08  0.93827000000E+00  0.93827000000E+00 0.  1.
     999902    2    1    2    0    0  0.90100632752E-02 -0.76574338814E-02  0.20237884325E-01  0.10204909408E+01  0.10202217263E+01 0.  0.
         14    1    1    2    0    0 -0.90100632752E-02  0.76574338814E-02 -0.20237884325E-01  0.23439059193E-01  0.00000000000E+00 0.  1.
     999901    1    3    3    0    0  0.45973162272E-01 -0.24514867703E-01 -0.10095175260E+00  0.88730252267E+00  0.88000000000E+00 0.  1.
        -11    1    3    3    0    0 -0.25282040033E-01  0.42774099562E-02  0.10937735520E+00  0.11234386826E+00  0.51100000000E-03 0.  1.
         11    1    3    3    0    0 -0.11681058963E-01  0.12580023865E-01  0.11812281727E-01  0.20844549876E-01  0.51100000000E-03 0. -1.
</event>
<event>
 8    1  0.1052028E+005  0.1043930E+01  0.7957747E-01            NaN
         13   -1    0    0    0    0  0.00000000000E+00  0.00000000000E+00  0.74505805969E-08  0.10566000000E+00  0.10566000000E+00 0.  1.
     999900   -1    0    0    0    0 -0.00000000000E+00 -0.00000000000E+00 -0.74505805969E-08  0.93827000000E+00  0.93827000000E+00 0.  1.
     999902    2    1    2    0    0  0.96177133725E-02  0.21627082958E-01 -0.74088525169E-02  0.10191283423E+01  0.10188265092E+01 0.  0.
     999903    2    3    3    0    0  0.11305871875E+00 -0.31447120166E-01  0.51908449892E-01  0.12950176055E+00  0.17464923834E-01 0.  0.
         14    1    1    2    0    0 -0.96177133725E-02 -0.21627082958E-01  0.74088525169E-02  0.24801657675E-01  0.00000000000E+00 0.  1.
     999901    1    3    3    0    0 -0.10344100538E+00  0.53074203124E-01 -0.59317302409E-01  0.88962658177E+00  0.88000000000E+00 0. -1.
        -11    1    4    4    0    0  0.29147215566E-01 -0.14104159823E-01  0.86749308921E-02  0.33526154664E-01  0.51100000000E-03 0.  1.
         11    1    4    4    0    0  0.83911503182E-01 -0.17342960343E-01  0.43233519000E-01  0.95975605889E-01  0.51100000000E-03 0. -1.
</event>
<event>
 8    1  0.1052028E+005  0.1043930E+01  0.7957747E-01            NaN
         13   -1    0    0    0    0  0.00000000000E+00  0.00000000000E+00  0.74505805969E-08  0.10566000000E+00  0.10566000000E+00 0. -1.
     999900   -1    0    0    0    0 -0.00000000000E+00 -0.00000000000E+00 -0.74505805969E-08  0.93827000000E+00  0.93827000000E+00 0. -1.
     999902    2    1    2    0    0  0.16429486483E-01 -0.54562515571E-02  0.16116585427E-01  0.10202774519E+01  0.10200032528E+01 0.  0.
     999903    2    3    3    0    0  0.12818946793E+00 -0.20630508348E-01 -0.17551745966E-01  0.13244069432E+00  0.19347252055E-01 0.  0.
         14    1    1    2    0    0 -0.16429486483E-01  0.54562515571E-02 -0.16116585427E-01  0.23652548128E-01  0.00000000000E+00 0.  1.
     999901    1    3    3    0    0 -0.11175998145E+00  0.15174256791E-01  0.33668331393E-01  0.88783675755E+00  0.88000000000E+00 0.  1.
        -11    1    4    4    0    0  0.31002027940E-01 -0.27685594657E-02 -0.12341848124E-01  0.33486907800E-01  0.51100000000E-03 0.  1.
         11    1    4    4    0    0  0.97187439991E-01 -0.17861948882E-01 -0.52098978422E-02  0.98953786519E-01  0.51100000000E-03 0. -1.
</event>
<event>
 8    1  0.1052028E+005  0.1043930E+01  0.7957747E-01            NaN
         13   -1    0    0    0    0  0.00000000000E+00  0.00000000000E+00  0.74505805969E-08  0.10566000000E+00  0.10566000000E+00 0.  1.
     999900   -1    0    0    0    0 -0.00000000000E+00 -0.00000000000E+00 -0.74505805969E-08  0.93827000000E+00  0.93827000000E+00 0.  1.
     999902    2    1    2    0    0  0.33205491440E-02  0.23388542753E-01  0.71934065612E-02  0.10192359708E+01  0.10189367837E+01 0.  0.
     999903    2    3    3    0    0 -0.49187785823E-01 -0.63980559576E-01  0.98568006021E-01  0.12865200359E+00  0.17964852854E-01 0.  0.
         14    1    1    2    0    0 -0.33205491440E-02 -0.23388542753E-01 -0.71934065612E-02  0.24694029171E-01  0.00000000000E+00 0. -1.
     999901    1    3    3    0    0  0.52508334967E-01  0.87369102329E-01 -0.91374599460E-01  0.89058396724E+00  0.88000000000E+00 0.  1.
        -11    1    4    4    0    0 -0.27624273777E-01 -0.35696142676E-01  0.68710921591E-01  0.82211720396E-01  0.51100000000E-03 0. -1.
         11    1    4    4    0    0 -0.21563512046E-01 -0.28284416900E-01  0.29857084431E-01  0.46440283191E-01  0.51100000000E-03 0.  1.
</event>
<event>
 8    1  0.1052028E+005  0.1043930E+01  0.7957747E-01            NaN
         13   -1    0    0    0    0  0.00000000000E+00  0.00000000000E+00  0.74505805969E-08  0.10566000000E+00  0.10566000000E+00 0. -1.
     999900   -1    0    0    0    0 -0.00000000000E+00 -0.00000000000E+00 -0.74505805969E-08  0.93827000000E+00  0.93827000000E+00 0.  1.
     999902    2    1    2    0    0  0.14411244058E-01  0.76203462977E-02  0.17044523442E-01  0.10203446356E+01  0.10200720102E+01 0.  0.
     999903    2    3    3    0    0  0.11171250075E+00 -0.11810469608E-01  0.68779758702E-01  0.13325860501E+00  0.20199766934E-01 0.  0.
         14    1    1    2    0    0 -0.14411244058E-01 -0.76203462977E-02 -0.17044523442E-01  0.23585364368E-01  0.00000000000E+00 0.  1.
     999901    1    3    3    0    0 -0.97301256697E-01  0.19430815906E-01 -0.51735235260E-01  0.88708603062E+00  0.88000000000E+00 0.  1.
        -11    1    4    4    0    0  0.62261264624E-01 -0.65695802611E-02  0.26507594145E-01  0.67989250075E-01  0.51100000000E-03 0. -1.
         11    1    4    4    0    0  0.49451236131E-01 -0.52408893469E-02  0.42272164557E-01  0.65269354933E-01  0.51100000000E-03 0.  1.
</event>
<event>
 8    1  0.1052028E+005  0.1043930E+01  0.7957747E-01            NaN
         13   -1    0    0    0    0  0.00000000000E+00  0.00000000000E+00  0.74505805969E-08  0.10566000000E+00  0.10566000000E+00 0. -1.
     999900   -1    0    0    0    0 -0.00000000000E+00 -0.00000000000E+00 -0.74505805969E-08  0.93827000000E+00  0.93827000000E+00 0. -1.
     999902    2    1    2    0    0  0.21059966120E-01 -0.99612869869E-02  0.13907465960E-02  0.10205915427E+01  0.10203246608E+01 0.  0.
     999903    2    3    3    0    0 -0.12428288432E+00  0.24558690785E-01 -0.58931705039E-02  0.12797223503E+00  0.17111366168E-01 0.  0.
         14    1    1    2    0    0 -0.21059966120E-01  0.99612869869E-02 -0.13907465960E-02  0.23338457265E-01  0.00000000000E+00 0. -1.
     999901    1    3    3    0    0  0.14534285044E+00 -0.34519977771E-01  0.72839170999E-02  0.89261930770E+00  0.88000000000E+00 0. -1.
        -11    1    4    4    0    0 -0.53260854031E-01  0.35655973981E-02  0.24728227577E-02  0.53439760762E-01  0.51100000000E-03 0.  1.
         11    1    4    4    0    0 -0.71022030289E-01  0.20993093386E-01 -0.83659932616E-02  0.74532474268E-01  0.51100000000E-03 0. -1.
</event>
<event>
 8    1  0.1052028E+005  0.1043930E+01  0.7957747E-01            NaN
         13   -1    0    0    0    0  0.00000000000E+00  0.00000000000E+00  0.74505805969E-08  0.10566000000E+00  0.10566000000E+00 0.  1.
     999900   -1    0    0    0    0 -0.00000000000E+00 -0.00000000000E+00 -0.74505805969E-08  0.93827000000E+00  0.93827000000E+00 0. -1.
     999902    2    1    2    0    0 -0.63843165565E-02 -0.10607055839E-01 -0.18930489978E-01  0.10213107033E+01  0.10210601942E+01 0.  0.
     999903    2    3    3    0    0  0.11383115808E+00 -0.48663255476E-02  0.58852901024E-01  0.12971944482E+00  0.19551386900E-01 0.  0.
         14    1    1    2    0    0  0.63843165565E-02  0.10607055839E-01  0.18930489978E-01  0.22619296679E-01  0.00000000000E+00 0.  1.
     999901    1    3    3    0    0 -0.12021547464E+00 -0.57407302910E-02 -0.77783391002E-01  0.89159125851E+00  0.88000000000E+00 0. -1.
        -11    1    4    4    0    0  0.23823415006E-02 -0.89847536405E-03  0.55237362256E-02  0.61037358966E-02  0.51100000000E-03 0.  1.
         11    1    4    4    0    0  0.11144881658E+00 -0.39678501836E-02  0.53329164798E-01  0.12361570892E+00  0.51100000000E-03 0. -1.
</event>
<event>
 8    1  0.1052028E+005  0.1043930E+01  0.7957747E-01            NaN
         13   -1    0    0    0    0  0.00000000000E+00  0.00000000000E+00  0.74505805969E-08  0.10566000000E+00  0.10566000000E+00 0.  1.
     999900   -1    0    0    0    0 -0.00000000000E+00 -0.00000000000E+00 -0.74505805969E-08  0.93827000000E+00  0.93827000000E+00 0. -1.
     999902    2    1    2    0    0  0.42367113436E-03 -0.21975707784E-01  0.13368545507E-01  0.10182039580E+01  0.10178789077E+01 0.  0.
     999903    2    3    3    0    0 -0.64943467302E-01  0.55782031354E-01 -0.90561003032E-01  0.12628441011E+00  0.20424690931E-01 0.  0.
         14    1    1    2    0    0 -0.42367113436E-03  0.21975707784E-01 -0.13368545507E-01  0.25726042036E-01  0.00000000000E+00 0. -1.
     999901    1    3    3    0    0  0.65367138436E-01 -0.77757739138E-01  0.10392954854E+00  0.89191954785E+00  0.88000000000E+00 0.  1.
        -11    1    4    4    0    0 -0.31913621537E-01  0.35643780866E-01 -0.61380372195E-01  0.77825250182E-01  0.51100000000E-03 0. -1.
         11    1    4    4    0    0 -0.33029845765E-01  0.20138250488E-01 -0.29180630837E-01  0.48459159929E-01  0.51100000000E-03 0.  1.
</event>
<event>
 8    1  0.1052028E+005  0.1043930E+01  0.7957747E-01            NaN
         13   -1    0    0    0    0  0.00000000000E+00  0.00000000000E+00  0.74505805969E-08  0.10566000000E+00  0.10566000000E+00 0.  1.
     999900   -1    0    0    0    0 -0.00000000000E+00 -0.00000000000E+00 -0.74505805969E-08  0.93827000000E+00  0.93827000000E+00 0.  1.
     999902    2    1    2    0    0  0.19244798964E-01  0.13274916861E-01 -0.45990172149E-02  0.10201027747E+01  0.10198244625E+01 0.  0.
     999903    2    3    3    0    0  0.59265649951E-01 -0.21388227668E-01  0.11288959517E+00  0.13071715749E+00  0.19314269795E-01 0.  0.
         14    1    1    2    0    0 -0.19244798964E-01 -0.13274916861E-01  0.45990172149E-02  0.23827225272E-01  0.00000000000E+00 0. -1.
     999901    1    3    3    0    0 -0.40020850987E-01  0.34663144529E-01 -0.11748861239E+00  0.88938561723E+00  0.88000000000E+00 0.  1.
        -11    1    4    4    0    0  0.45364070037E-01 -0.23458240634E-01  0.79566950767E-01  0.94548128904E-01  0.51100000000E-03 0.  1.
         11    1    4    4    0    0  0.13901579914E-01  0.20700129661E-02  0.33322644407E-01  0.36169028589E-01  0.51100000000E-03 0. -1.
</event>
<event>
 8    1  0.1052028E+005  0.1043930E+01  0.7957747E-01            NaN
         13   -1    0    0    0    0  0.00000000000E+00  0.00000000000E+00  0.74505805969E-08  0.10566000000E+00  0.10566000000E+00 0. -1.
     999900   -1    0    0    0    0 -0.00000000000E+00 -0.00000000000E+00 -0.74505805969E-08  0.93827000000E+00  0.93827000000E+00 0.  1.
     999902    2    1    2    0    0 -0.16109491260E-01  0.73615645437E-03  0.17652112943E-01  0.10200206979E+01  0.10197404422E+01 0.  0.
     999903    2    3    3    0    0  0.62562989769E-01  0.63180771112E-01  0.94058098526E-01  0.13101756867E+00  0.20316000453E-01 0.  0.
         14    1    1    2    0    0  0.16109491260E-01 -0.73615645437E-03 -0.17652112943E-01  0.23909302088E-01  0.00000000000E+00 0.  1.
     999901    1    3    3    0    0 -0.78672481029E-01 -0.62444614658E-01 -0.76405985583E-01  0.88900312924E+00  0.88000000000E+00 0.  1.
        -11    1    4    4    0    0  0.48266432516E-01  0.56020201182E-01  0.68110031685E-01  0.10053431745E+00  0.51100000000E-03 0. -1.
         11    1    4    4    0    0  0.14296557252E-01  0.71605699306E-02  0.25948066841E-01  0.30483251217E-01  0.51100000000E-03 0.  1.
</event>
<event>
 8    1  0.1052028E+005  0.1043930E+01  0.7957747E-01            NaN
         13   -1    0    0    0    0  0.00000000000E+00  0.00000000000E+00  0.74505805969E-08  0.10566000000E+00  0.10566000000E+00 0. -1.
     999900   -1    0    0    0    0 -0.00000000000E+00 -0.00000000000E+00 -0.74505805969E-08  0.93827000000E+00  0.93827000000E+00 0.  1.
     999902    2    1    2    0    0  0.16290255170E-01 -0.10514581016E-01 -0.14305573774E-01  0.10198348082E+01  0.10195501252E+01 0.  0.
     999903    2    3    3    0    0  0.15874264725E-01 -0.53539868489E-01  0.11502144002E+00  0.12934234617E+00  0.19519248203E-01 0.  0.
         14    1    1    2    0    0 -0.16290255170E-01  0.10514581016E-01  0.14305573774E-01  0.24095191812E-01  0.00000000000E+00 0. -1.
     999901    1    3    3    0    0  0.41599044555E-03  0.43025287473E-01 -0.12932701379E+00  0.89049246202E+00  0.88000000000E+00 0.  1.
        -11    1    4    4    0    0  0.44428531788E-02 -0.43940072486E-01  0.83517495414E-01  0.94476992309E-01  0.51100000000E-03 0. -1.
         11    1    4    4    0    0  0.11431411546E-01 -0.95997960035E-02  0.31503944607E-01  0.34865353863E-01  0.51100000000E-03 0.  1.
</event>
<event>
 8    1  0.1052028E+005  0.1043930E+01  0.7957747E-01            NaN
         13   -1    0    0    0    0  0.00000000000E+00  0.00000000000E+00  0.74505805969E-08  0.10566000000E+00  0.10566000000E+00 0.  1.
     999900   -1    0    0    0    0 -0.00000000000E+00 -0.00000000000E+00 -0.74505805969E-08  0.93827000000E+00  0.93827000000E+00 0. -1.
     999902    2    1    2    0    0 -0.19331656763E-01 -0.93492540178E-02  0.88095477280E-02  0.10207194499E+01  0.10204555188E+01 0.  0.
     999903    2    3    3    0    0  0.80652989927E-01 -0.37674574246E-01 -0.90915809406E-01  0.12901075298E+00  0.21302855582E-01 0.  0.
         14    1    1    2    0    0  0.19331656763E-01  0.93492540178E-02 -0.88095477280E-02  0.23210550081E-01  0.00000000000E+00 0.  1.
     999901    1    3    3    0    0 -0.99984646690E-01  0.28325320228E-01  0.99725357134E-01  0.89170869694E+00  0.88000000000E+00 0.  1.
        -11    1    4    4    0    0  0.27890343778E-01 -0.22924435433E-01 -0.43685320308E-01  0.56675121062E-01  0.51100000000E-03 0.  1.
         11    1    4    4    0    0  0.52762646150E-01 -0.14750138813E-01 -0.47230489098E-01  0.72335631920E-01  0.51100000000E-03 0. -1.
</event>
<event>
 8    1  0.1052028E+005  0.1043930E+01  0.7957747E-01            NaN
         13   -1    0    0    0    0  0.00000000000E+00  0.00000000000E+00  0.74505805969E-08  0.10566000000E+00  0.10566000000E+00 0.  1.
     999900   -1    0    0    0    0 -0.00000000000E+00 -0.00000000000E+00 -0.74505805969E-08  0.93827000000E+00  0.93827000000E+00 0. -1.
     999902    2    1    2    0    0  0.41407839987E-02 -0.10259693399E-01 -0.21393112343E-01  0.10198453024E+01  0.10195608703E+01 0.  0.
     999903    2    3    3    0    0  0.58245217788E-01 -0.10284431362E+00 -0.57307408076E-01  0.13260855935E+00  0.18205294638E-01 0.  0.
         14    1    1    2    0    0 -0.41407839987E-02  0.10259693399E-01  0.21393112343E-01  0.24084697559E-01  0.00000000000E+00 0.  1.
     999901    1    3    3    0    0 -0.54104433790E-01  0.92584620220E-01  0.35914295733E-01  0.88723674309E+00  0.88000000000E+00 0.  1.
        -11    1    4    4    0    0  0.16949003904E-01 -0.42015192931E-01 -0.14710826550E-01  0.47636275139E-01  0.51100000000E-03 0.  1.
         11    1    4    4    0    0  0.41296213884E-01 -0.60829120689E-01 -0.42596581526E-01  0.84972284209E-01  0.51100000000E-03 0. -1.
</event>
<event>
 8    1  0.1052028E+005  0.1043930E+01  0.7957747E-01            NaN
         13   -1    0    0    0    0  0.00000000000E+00  0.00000000000E+00  0.74505805969E-08  0.10566000000E+00  0.10566000000E+00 0. -1.
     999900   -1    0    0    0    0 -0.00000000000E+00 -0.00000000000E+00 -0.74505805969E-08  0.93827000000E+00  0.93827000000E+00 0. -1.
     999902    2    1    2    0    0 -0.48796681040E-02  0.16662332983E-01 -0.15974241268E-01  0.10203371857E+01  0.10200643861E+01 0.  0.
     999903    2    3    3    0    0 -0.73815838145E-01 -0.75931182513E-01 -0.74288501620E-01  0.13088437213E+00  0.19940284765E-01 0.  0.
         14    1    1    2    0    0  0.48796681040E-02 -0.16662332983E-01  0.15974241268E-01  0.23592814273E-01  0.00000000000E+00 0. -1.
     999901    1    3    3    0    0  0.68936170041E-01  0.92593515497E-01  0.58314260352E-01  0.88945281360E+00  0.88000000000E+00 0.  1.
        -11    1    4    4    0    0 -0.54634372256E-01 -0.55295366887E-01 -0.43226357396E-01  0.88945327734E-01  0.51100000000E-03 0.  1.
         11    1    4    4    0    0 -0.19181465889E-01 -0.20635815626E-01 -0.31062144224E-01  0.41939044398E-01  0.51100000000E-03 0. -1.
</event>
<event>
 8    1  0.1052028E+005  0.1043930E+01  0.7957747E-01            NaN
         13   -1    0    0    0    0  0.00000000000E+00  0.00000000000E+00  0.74505805969E-08  0.10566000000E+00  0.10566000000E+00 0.  1.
     999900   -1    0    0    0    0 -0.00000000000E+00 -0.00000000000E+00 -0.74505805969E-08  0.93827000000E+00  0.93827000000E+00 0.  1.
     999902    2    1    2    0    0 -0.92914314002E-02  0.50969615069E-02 -0.20645650807E-01  0.10207232637E+01  0.10204594203E+01 0.  0.
     999903    2    3    3    0    0 -0.86903197628E-01  0.93340999996E-01  0.25949579810E-01  0.13168911803E+00  0.20098136172E-01 0.  0.
         14    1    1    2    0    0  0.92914314002E-02 -0.50969615069E-02  0.20645650807E-01  0.23206736334E-01  0.00000000000E+00 0.  1.
     999901    1    3    3    0    0  0.77611766228E-01 -0.88244038489E-01 -0.46595230616E-01  0.88903414563E+00  0.88000000000E+00 0. -1.
        -11    1    4    4    0    0 -0.72993425544E-01  0.65961154413E-01  0.20455001844E-01  0.10048672691E+00  0.51100000000E-03 0. -1.
         11    1    4    4    0    0 -0.13909772084E-01  0.27379845583E-01  0.54945779659E-02  0.31202391120E-01  0.51100000000E-03 0.  1.
</event>
<event>
 8    1  0.1052028E+005  0.1043930E+01  0.7957747E-01            NaN
         13   -1    0    0    0    0  0.00000000000E+00  0.00000000000E+00  0.74505805969E-08  0.10566000000E+00  0.10566000000E+00 0.  1.
     999900   -1    0    0    0    0 -0.00000000000E+00 -0.00000000000E+00 -0.74505805969E-08  0.93827000000E+00  0.93827000000E+00 0.  1.
     999902    2    1    2    0    0  0.88917928998E-02  0.19058200444E-01 -0.16880992183E-01  0.10169624847E+01  0.10166048634E+01 0.  0.
     999903    2    3    3    0    0  0.81893050910E-01 -0.75017178756E-01  0.56224015827E-01  0.12593852157E+00  0.19113407983E-01 0.  0.
         14    1    1    2    0    0 -0.88917928998E-02 -0.19058200444E-01  0.16880992183E-01  0.26967515314E-01  0.00000000000E+00 0.  1.
     999901    1    3    3    0    0 -0.73001258010E-01  0.94075379200E-01 -0.73105008011E-01  0.89102396311E+00  0.88000000000E+00 0.  1.
        -11    1    4    4    0    0  0.20548390968E-01 -0.24196976815E-01  0.24861251382E-01  0.40324595468E-01  0.51100000000E-03 0.  1.
         11    1    4    4    0    0  0.61344659942E-01 -0.50820201942E-01  0.31362764445E-01  0.85613926107E-01  0.51100000000E-03 0. -1.
</event>
<event>
 8    1  0.1052028E+005  0.1043930E+01  0.7957747E-01            NaN
         13   -1    0    0    0    0  0.00000000000E+00  0.00000000000E+00  0.74505805969E-08  0.10566000000E+00  0.10566000000E+00 0. -1.
     999900   -1    0    0    0    0 -0.00000000000E+00 -0.00000000000E+00 -0.74505805969E-08  0.93827000000E+00  0.93827000000E+00 0.  1.
     999902    2    1    2    0    0 -0.19437253128E-01 -0.62407872653E-02 -0.12354124081E-01  0.10200683442E+01  0.10197892176E+01 0.  0.
     999903    2    3    3    0    0  0.55314797002E-01 -0.91864322511E-01 -0.72190217246E-01  0.13074297247E+00  0.19583586668E-01 0.  0.
         14    1    1    2    0    0  0.19437253128E-01  0.62407872653E-02  0.12354124081E-01  0.23861655783E-01  0.00000000000E+00 0. -1.
     999901    1    3    3    0    0 -0.74752050130E-01  0.85623535246E-01  0.59836093164E-01  0.88932537175E+00  0.88000000000E+00 0.  1.
        -11    1    4    4    0    0  0.49002497730E-01 -0.66418795421E-01 -0.50963206050E-01  0.97006240319E-01  0.51100000000E-03 0. -1.
         11    1    4    4    0    0  0.63122992721E-02 -0.25445527090E-01 -0.21227011195E-01  0.33736732152E-01  0.51100000000E-03 0.  1.
</event>
<event>
 8    1  0.1052028E+005  0.1043930E+01  0.7957747E-01            NaN
         13   -1    0    0    0    0  0.00000000000E+00  0.00000000000E+00  0.74505805969E-08  0.10566000000E+00  0.10566000000E+00 0.  1.
     999900   -1    0    0    0    0 -0.00000000000E+00 -0.00000000000E+00 -0.74505805969E-08  0.93827000000E+00  0.93827000000E+00 0. -1.
     999902    2    1    2    0    0  0.13177703001E-01  0.14867244740E-01 -0.11497184783E-01  0.10209763057E+01  0.10207182495E+01 0.  0.
     999903    2    3    3    0    0 -0.63994189545E-01 -0.10922627956E+00  0.94057710758E-02  0.12868059391E+00  0.21085309554E-01 0.  0.
         14    1    1    2    0    0 -0.13177703001E-01 -0.14867244740E-01  0.11497184783E-01  0.22953694267E-01  0.00000000000E+00 0.  1.
     999901    1    3    3    0    0  0.77171892546E-01  0.12409352430E+00 -0.20902955859E-01  0.89229571182E+00  0.88000000000E+00 0.  1.
        -11    1    4    4    0    0 -0.44436892917E-01 -0.91942497173E-01  0.53197847985E-02  0.10225762304E+00  0.51100000000E-03 0.  1.
         11    1    4    4    0    0 -0.19557296627E-01 -0.17283782382E-01  0.40859862774E-02  0.26422970871E-01  0.51100000000E-03 0. -1.
</event>
<event>
 8    1  0.1052028E+005  0.1043930E+01  0.7957747E-01            NaN
         13   -1    0    0    0    0  0.00000000000E+00  0.00000000000E+00  0.74505805969E-08  0.10566000000E+00  0.10566000000E+00 0. -1.
     999900   -1    0    0    0    0 -0.00000000000E+00 -0.00000000000E+00 -0.74505805969E-08  0.93827000000E+00  0.93827000000E+00 0.  1.
     999902    2    1    2    0    0 -0.25773134740E-02 -0.11385333312E-01 -0.20857430231E-01  0.10200281014E+01  0.10197480213E+01 0.  0.
     999903    2    3    3    0    0  0.69118100410E-01 -0.10961511897E+00  0.31999856600E-02  0.13133913311E+00  0.21140999653E-01 0.  0.
         14    1    1    2    0    0  0.25773134740E-02  0.11385333312E-01  0.20857430231E-01  0.23901898569E-01  0.00000000000E+00 0. -1.
     999901    1    3    3    0    0 -0.71695413884E-01  0.98229785656E-01 -0.24057415891E-01  0.88868896832E+00  0.88000000000E+00 0. -1.
        -11    1    4    4    0    0  0.49709890983E-01 -0.59395811523E-01  0.13799537614E-02  0.77466774048E-01  0.51100000000E-03 0. -1.
         11    1    4    4    0    0  0.19408209426E-01 -0.50219307445E-01  0.18200318986E-02  0.53872359059E-01  0.51100000000E-03 0.  1.
</event>
<event>
 8    1  0.1052028E+005  0.1043930E+01  0.7957747E-01            NaN
         13   -1    0    0    0    0  0.00000000000E+00  0.00000000000E+00  0.74505805969E-08  0.10566000000E+00  0.10566000000E+00 0. -1.
     999900   -1    0    0    0    0 -0.00000000000E+00 -0.00000000000E+00 -0.74505805969E-08  0.93827000000E+00  0.93827000000E+00 0.  1.
     999902    2    1    2    0    0  0.15698930726E-01  0.13109276173E-01  0.11365648934E-01  0.10205315487E+01  0.10202632770E+01 0.  0.
     999903    2    3    3    0    0 -0.11692711886E+00 -0.48205055304E-01  0.11110764693E-01  0.12848380264E+00  0.19722068019E-01 0.  0.
         14    1    1    2    0    0 -0.15698930726E-01 -0.13109276173E-01 -0.11365648934E-01  0.23398451303E-01  0.00000000000E+00 0. -1.
     999901    1    3    3    0    0  0.13262604959E+00  0.61314331476E-01  0.25488424112E-03  0.89204774605E+00  0.88000000000E+00 0.  1.
        -11    1    4    4    0    0 -0.30939922104E-01 -0.21905359657E-01  0.28638219059E-03  0.37913938034E-01  0.51100000000E-03 0. -1.
         11    1    4    4    0    0 -0.85987196760E-01 -0.26299695647E-01  0.10824382502E-01  0.90569864609E-01  0.51100000000E-03 0.  1.
</event>
<event>
 8    1  0.1052028E+005  0.1043930E+01  0.7957747E-01            NaN
         13   -1    0    0    0    0  0.00000000000E+00  0.00000000000E+00  0.74505805969E-08  0.10566000000E+00  0.10566000000E+00 0. -1.
     999900   -1    0    0    0    0 -0.00000000000E+00 -0.00000000000E+00 -0.74505805969E-08  0.93827000000E+00  0.93827000000E+00 0.  1.
     999902    2    1    2    0    0  0.40941603498E-02  0.21746565805E-01 -0.96261765399E-02  0.10197983082E+01  0.10195127517E+01 0.  0.
     999903    2    3    3    0    0 -0.53872749440E-01  0.93352765433E-01  0.72113037209E-01  0.13122140692E+00  0.20043840783E-01 0.  0.
         14    1    1    2    0    0 -0.40941603498E-02 -0.21746565805E-01  0.96261765399E-02  0.24131691778E-01  0.00000000000E+00 0. -1.
     999901    1    3    3    0    0  0.57966909790E-01 -0.71606199628E-01 -0.81739213749E-01  0.88857690130E+00  0.88000000000E+00 0.  1.
        -11    1    4    4    0    0 -0.53234361900E-01  0.86717029601E-01  0.62184251606E-01  0.11925134288E+00  0.51100000000E-03 0.  1.
         11    1    4    4    0    0 -0.63838754053E-03  0.66357358322E-02  0.99287856032E-02  0.11970064045E-01  0.51100000000E-03 0. -1.
</event>
<event>
 8    1  0.1052028E+005  0.1043930E+01  0.7957747E-01            NaN
         13   -1    0    0    0    0  0.00000000000E+00  0.00000000000E+00  0.74505805969E-08  0.10566000000E+00  0.10566000000E+00 0. -1.
     999900   -1    0    0    0    0 -0.00000000000E+00 -0.00000000000E+00 -0.74505805969E-08  0.93827000000E+00  0.93827000000E+00 0.  1.
     999902    2    1    2    0    0  0.17233685687E-01 -0.15431625543E-01 -0.14030289090E-02  0.10207545069E+01  0.10204913816E+01 0.  0.
     999903    2    3    3    0    0 -0.12711077322E+00  0.50486078777E-03  0.54950811947E-02  0.12882576631E+00  0.20210853346E-01 0.  0.
         14    1    1    2    0    0 -0.17233685687E-01  0.15431625543E-01  0.14030289090E-02  0.23175493077E-01  0.00000000000E+00 0. -1.
     999901    1    3    3    0    0  0.14434445891E+00 -0.15936486330E-01 -0.68981101037E-02  0.89192874062E+00  0.88000000000E+00 0.  1.
        -11    1    4    4    0    0 -0.63971589186E-01 -0.46313939818E-02  0.11603348616E-01  0.65182151340E-01  0.51100000000E-03 0. -1.
         11    1    4    4    0    0 -0.63139184039E-01  0.51362547695E-02 -0.61082674217E-02  0.63643614967E-01  0.51100000000E-03 0.  1.
</event>
<event>
 8    1  0.1052028E+005  0.1043930E+01  0.7957747E-01            NaN
         13   -1    0    0    0    0  0.00000000000E+00  0.00000000000E+00  0.74505805969E-08  0.10566000000E+00  0.10566000000E+00 0. -1.
     999900   -1    0    0    0    0 -0.00000000000E+00 -0.00000000000E+00 -0.74505805969E-08  0.93827000000E+00  0.93827000000E+00 0.  1.
     999902    2    1    2    0    0 -0.70655460737E-02 -0.95474244374E-02 -0.20763326702E-01  0.10200094860E+01  0.10197289642E+01 0.  0.
     999903    2    3    3    0    0 -0.13151998152E-01 -0.10975609016E+00  0.64779935829E-01  0.13018002404E+00  0.23043962137E-01 0.  0.
         14    1    1    2    0    0  0.70655460737E-02  0.95474244374E-02  0.20763326702E-01  0.23920514008E-01  0.00000000000E+00 0. -1.
     999901    1    3    3    0    0  0.60864520781E-02  0.10020866572E+00 -0.85543262531E-01  0.88982946195E+00  0.88000000000E+00 0. -1.
        -11    1    4    4    0    0 -0.18128674972E-01 -0.57131263786E-01  0.37347440880E-01  0.70623810569E-01  0.51100000000E-03 0.  1.
         11    1    4    4    0    0  0.49766768206E-02 -0.52624826376E-01  0.27432494949E-01  0.59556213475E-01  0.51100000000E-03 0. -1.
</event>
<event>
 8    1  0.1052028E+005  0.1043930E+01  0.7957747E-01            NaN
         13   -1    0    0    0    0  0.00000000000E+00  0.00000000000E+00  0.74505805969E-08  0.10566000000E+00  0.10566000000E+00 0.  1.
     999900   -1    0    0    0    0 -0.00000000000E+00 -0.00000000000E+00 -0.74505805969E-08  0.93827000000E+00  0.93827000000E+00 0. -1.
     999902    2    1    2    0    0  0.15483023004E-01  0.92609743173E-02  0.14726623398E-01  0.10206413100E+01  0.10203755782E+01 0.  0.
     999903    2    3    3    0    0 -0.96672889724E-01 -0.56915192695E-01  0.62061761314E-01  0.12979965787E+00  0.20280586722E-01 0.  0.
         14    1    1    2    0    0 -0.15483023004E-01 -0.92609743173E-02 -0.14726623398E-01  0.23288690031E-01  0.00000000000E+00 0. -1.
     999901    1    3    3    0    0  0.11215591273E+00  0.66176167012E-01 -0.47335137916E-01  0.89084165210E+00  0.88000000000E+00 0.  1.
        -11    1    4    4    0    0 -0.60870545265E-01 -0.46354792781E-01  0.44882569457E-01  0.88705672066E-01  0.51100000000E-03 0.  1.
         11    1    4    4    0    0 -0.35802344459E-01 -0.10560399913E-01  0.17179191857E-01  0.41093985800E-01  0.51100000000E-03 0. -1.
</event>
<event>
 8    1  0.1052028E+005  0.1043930E+01  0.7957747E-01            NaN
         13   -1    0    0    0    0  0.00000000000E+00  0.00000000000E+00  0.74505805969E-08  0.10566000000E+00  0.10566000000E+00 0.  1.
     999900   -1    0    0    0    0 -0.00000000000E+00 -0.00000000000E+00 -0.74505805969E-08  0.93827000000E+00  0.93827000000E+00 0. -1.
     999902    2    1    2    0    0  0.17596689618E-01 -0.15916617143E-01  0.51959285926E-02  0.10196404990E+01  0.10193511501E+01 0.  0.
     999903    2    3    3    0    0  0.55618282458E-01  0.88353418163E-01 -0.73358439927E-01  0.12919753582E+00  0.20268761924E-01 0.  0.
         14    1    1    2    0    0 -0.17596689618E-01  0.15916617143E-01 -0.51959285926E-02  0.24289501039E-01  0.00000000000E+00 0.  1.
     999901    1    3    3    0    0 -0.38021592840E-01 -0.10427003531E+00  0.78554368520E-01  0.89044296314E+00  0.88000000000E+00 0.  1.
        -11    1    4    4    0    0  0.11739374014E-01  0.35888790134E-01 -0.29834091757E-01  0.48126420099E-01  0.51100000000E-03 0. -1.
         11    1    4    4    0    0  0.43878908444E-01  0.52464628029E-01 -0.43524348169E-01  0.81071115726E-01  0.51100000000E-03 0.  1.
</event>
