<event>
 8    1  0.1170483E+005  0.1043930E+01  0.7957747E-01            NaN
         13   -1    0    0    0    0  0.00000000000E+00  0.00000000000E+00  0.74505805969E-08  0.10566000000E+00  0.10566000000E+00 0.  1.
     999900   -1    0    0    0    0 -0.00000000000E+00 -0.00000000000E+00 -0.74505805969E-08  0.93827000000E+00  0.93827000000E+00 0. -1.
     999902    2    1    2    0    0 -0.15435451545E-01 -0.15978953616E-01  0.14668024853E-02  0.10216649684E+01  0.10214223299E+01 0.  0.
     999903    2    3    3    0    0 -0.13170971319E+00  0.96051912935E-02 -0.47617750808E-02  0.13362609111E+00  0.19838081432E-01 0.  0.
         14    1    1    2    0    0  0.15435451545E-01  0.15978953616E-01 -0.14668024853E-02  0.22265031610E-01  0.00000000000E+00 0.  1.
     999901    1    3    3    0    0  0.11627426164E+00 -0.25584144909E-01  0.62285775661E-02  0.88803887728E+00  0.88000000000E+00 0.  1.
        -11    1    4    4    0    0 -0.24661474869E-01 -0.59149005915E-02 -0.14229482113E-02  0.25405910618E-01  0.51100000000E-03 0.  1.
         11    1    4    4    0    0 -0.10704823832E+00  0.15520091885E-01 -0.33388268694E-02  0.10822018049E+00  0.51100000000E-03 0. -1.
</event>
<event>
 8    1  0.1170483E+005  0.1043930E+01  0.7957747E-01            NaN
         13   -1    0    0    0    0  0.00000000000E+00  0.00000000000E+00  0.74505805969E-08  0.10566000000E+00  0.10566000000E+00 0. -1.
     999900   -1    0    0    0    0 -0.00000000000E+00 -0.00000000000E+00 -0.74505805969E-08  0.93827000000E+00  0.93827000000E+00 0. -1.
     999902    2    1    2    0    0 -0.15852644105E-01 -0.16131495116E-01  0.43818441094E-02  0.10208923782E+01  0.10206324098E+01 0.  0.
     999903    2    3    3    0    0 -0.89864490958E-02  0.78174676612E-01 -0.10128882667E+00  0.12954110665E+00  0.18150360128E-01 0.  0.
         14    1    1    2    0    0  0.15852644105E-01  0.16131495116E-01 -0.43818441094E-02  0.23037621786E-01  0.00000000000E+00 0.  1.
     999901    1    3    3    0    0 -0.68661950088E-02 -0.94306171728E-01  0.10567067078E+00  0.89135127157E+00  0.88000000000E+00 0.  1.
        -11    1    4    4    0    0  0.36639484241E-02  0.20894725967E-01 -0.18999157754E-01  0.28482331500E-01  0.51100000000E-03 0. -1.
         11    1    4    4    0    0 -0.12650397520E-01  0.57279950645E-01 -0.82289668914E-01  0.10105877515E+00  0.51100000000E-03 0.  1.
</event>
<event>
 8    1  0.1170483E+005  0.1043930E+01  0.7957747E-01            NaN
         13   -1    0    0    0    0  0.00000000000E+00  0.00000000000E+00  0.74505805969E-08  0.10566000000E+00  0.10566000000E+00 0.  1.
     999900   -1    0    0    0    0 -0.00000000000E+00 -0.00000000000E+00 -0.74505805969E-08  0.93827000000E+00  0.93827000000E+00 0.  1.
     999902    2    1    2    0    0 -0.23698167669E-01  0.94121121230E-02  0.22626821479E-01  0.10098394726E+01  0.10092638884E+01 0.  0.
     999903    2    3    3    0    0 -0.11954189571E+00  0.11074530486E-01 -0.20653572596E-01  0.12357654531E+00  0.20776968883E-01 0.  0.
         14    1    1    2    0    0  0.23698167669E-01 -0.94121121230E-02 -0.22626821479E-01  0.34090527361E-01  0.00000000000E+00 0. -1.
     999901    1    3    3    0    0  0.95843728039E-01 -0.16624183633E-02  0.43280394074E-01  0.88626292732E+00  0.88000000000E+00 0. -1.
        -11    1    4    4    0    0 -0.86211341440E-01 -0.13410180722E-02 -0.13115406313E-01  0.87215071668E-01  0.51100000000E-03 0. -1.
         11    1    4    4    0    0 -0.33330554268E-01  0.12415548559E-01 -0.75381662827E-02  0.36361473647E-01  0.51100000000E-03 0.  1.
</event>
<event>
 8    1  0.1170483E+005  0.1043930E+01  0.7957747E-01            NaN
         13   -1    0    0    0    0  0.00000000000E+00  0.00000000000E+00  0.74505805969E-08  0.10566000000E+00  0.10566000000E+00 0.  1.
     999900   -1    0    0    0    0 -0.00000000000E+00 -0.00000000000E+00 -0.74505805969E-08  0.93827000000E+00  0.93827000000E+00 0. -1.
     999902    2    1    2    0    0 -0.77933362669E-02 -0.15900238221E-02 -0.22130538563E-01  0.10204135164E+01  0.10201424995E+01 0.  0.
     999903    2    3    3    0    0 -0.83635233234E-01 -0.30920401468E-02  0.96408387317E-01  0.12923130921E+00  0.20043482329E-01 0.  0.
         14    1    1    2    0    0  0.77933362669E-02  0.15900238221E-02  0.22130538563E-01  0.23516483645E-01  0.00000000000E+00 0.  1.
     999901    1    3    3    0    0  0.75841896967E-01  0.15020163247E-02 -0.11853892588E+00  0.89118220715E+00  0.88000000000E+00 0. -1.
        -11    1    4    4    0    0 -0.29222283264E-01  0.43623494039E-02  0.22458582341E-01  0.37116316806E-01  0.51100000000E-03 0.  1.
         11    1    4    4    0    0 -0.54412949970E-01 -0.74543895506E-02  0.73949804976E-01  0.92114992401E-01  0.51100000000E-03 0. -1.
</event>
<event>
 8    1  0.1421296E+005  0.1043930E+01  0.7957747E-01            NaN
         13   -1    0    0    0    0  0.00000000000E+00  0.00000000000E+00  0.74505805969E-08  0.10566000000E+00  0.10566000000E+00 0. -1.
     999900   -1    0    0    0    0 -0.00000000000E+00 -0.00000000000E+00 -0.74505805969E-08  0.93827000000E+00  0.93827000000E+00 0.  1.
     999902    2    1    2    0    0 -0.10220259213E-01 -0.54333492350E-02 -0.19329602011E-01  0.10213998314E+01  0.10211513145E+01 0.  0.
     999903    2    3    3    0    0  0.11008019484E+00  0.19517329434E-01 -0.66882226663E-01  0.13159311773E+00  0.18572585932E-01 0.  0.
         14    1    1    2    0    0  0.10220259213E-01  0.54333492350E-02  0.19329602011E-01  0.22530168579E-01  0.00000000000E+00 0.  1.
     999901    1    3    3    0    0 -0.12030045405E+00 -0.24950678669E-01  0.47552624652E-01  0.88980671369E+00  0.88000000000E+00 0.  1.
        -11    1    4    4    0    0  0.41626582931E-01  0.16581348397E-01 -0.26283636453E-01  0.51950016241E-01  0.51100000000E-03 0. -1.
         11    1    4    4    0    0  0.68453611905E-01  0.29359810361E-02 -0.40598590210E-01  0.79643101493E-01  0.51100000000E-03 0.  1.
</event>
<event>
 8    1  0.1170483E+005  0.1043930E+01  0.7957747E-01            NaN
         13   -1    0    0    0    0  0.00000000000E+00  0.00000000000E+00  0.74505805969E-08  0.10566000000E+00  0.10566000000E+00 0.  1.
     999900   -1    0    0    0    0 -0.00000000000E+00 -0.00000000000E+00 -0.74505805969E-08  0.93827000000E+00  0.93827000000E+00 0.  1.
     999902    2    1    2    0    0  0.14655099892E-01 -0.62246398298E-02 -0.17691402114E-01  0.10201286596E+01  0.10198509589E+01 0.  0.
     999903    2    3    3    0    0 -0.15879547600E-01  0.94439053353E-01  0.82934494250E-01  0.12816951549E+00  0.19452494311E-01 0.  0.
         14    1    1    2    0    0 -0.14655099892E-01  0.62246398298E-02  0.17691402114E-01  0.23801340353E-01  0.00000000000E+00 0.  1.
     999901    1    3    3    0    0  0.30534647492E-01 -0.10066369318E+00 -0.10062589636E+00  0.89195914415E+00  0.88000000000E+00 0.  1.
        -11    1    4    4    0    0  0.43990976374E-03  0.52700509990E-01  0.48863365246E-01  0.71870904112E-01  0.51100000000E-03 0. -1.
         11    1    4    4    0    0 -0.16319457363E-01  0.41738543363E-01  0.34071129004E-01  0.56298611380E-01  0.51100000000E-03 0.  1.
</event>
<event>
 8    1  0.1170483E+005  0.1043930E+01  0.7957747E-01            NaN
         13   -1    0    0    0    0  0.00000000000E+00  0.00000000000E+00  0.74505805969E-08  0.10566000000E+00  0.10566000000E+00 0.  1.
     999900   -1    0    0    0    0 -0.00000000000E+00 -0.00000000000E+00 -0.74505805969E-08  0.93827000000E+00  0.93827000000E+00 0. -1.
     999902    2    1    2    0    0 -0.97679396036E-02 -0.11001957575E-01 -0.18834720608E-01  0.10200301587E+01  0.10197501273E+01 0.  0.
     999903    2    3    3    0    0 -0.97467913395E-01 -0.84010233916E-01  0.22738692550E-01  0.13168909665E+00  0.16347981304E-01 0.  0.
         14    1    1    2    0    0  0.97679396036E-02  0.11001957575E-01  0.18834720608E-01  0.23899841316E-01  0.00000000000E+00 0.  1.
     999901    1    3    3    0    0  0.87699973792E-01  0.73008276342E-01 -0.41573413158E-01  0.88834106204E+00  0.88000000000E+00 0. -1.
        -11    1    4    4    0    0 -0.55867714217E-01 -0.37765809490E-01  0.13988061286E-01  0.68872235609E-01  0.51100000000E-03 0.  1.
         11    1    4    4    0    0 -0.41600199178E-01 -0.46244424427E-01  0.87506312642E-02  0.62816861038E-01  0.51100000000E-03 0. -1.
</event>
<event>
 8    1  0.1170483E+005  0.1043930E+01  0.7957747E-01            NaN
         13   -1    0    0    0    0  0.00000000000E+00  0.00000000000E+00  0.74505805969E-08  0.10566000000E+00  0.10566000000E+00 0.  1.
     999900   -1    0    0    0    0 -0.00000000000E+00 -0.00000000000E+00 -0.74505805969E-08  0.93827000000E+00  0.93827000000E+00 0. -1.
     999902    2    1    2    0    0 -0.81758583431E-02  0.13595850135E-01  0.17420134874E-01  0.10203683171E+01  0.10200962453E+01 0.  0.
     999903    2    3    3    0    0 -0.64015614531E-01  0.11457787685E+00 -0.17529552720E-02  0.13262789591E+00  0.18999925098E-01 0.  0.
         14    1    1    2    0    0  0.81758583431E-02 -0.13595850135E-01 -0.17420134874E-01  0.23561682868E-01  0.00000000000E+00 0. -1.
     999901    1    3    3    0    0  0.55839756188E-01 -0.10098202671E+00  0.19173090146E-01  0.88774042122E+00  0.88000000000E+00 0.  1.
        -11    1    4    4    0    0 -0.39663388253E-01  0.61778895417E-01 -0.92596165148E-02  0.73998769623E-01  0.51100000000E-03 0. -1.
         11    1    4    4    0    0 -0.24352226277E-01  0.52798981432E-01  0.75066612427E-02  0.58629126285E-01  0.51100000000E-03 0.  1.
</event>
<event>
 8    1  0.1170483E+005  0.1043930E+01  0.7957747E-01            NaN
         13   -1    0    0    0    0  0.00000000000E+00  0.00000000000E+00  0.74505805969E-08  0.10566000000E+00  0.10566000000E+00 0. -1.
     999900   -1    0    0    0    0 -0.00000000000E+00 -0.00000000000E+00 -0.74505805969E-08  0.93827000000E+00  0.93827000000E+00 0.  1.
     999902    2    1    2    0    0 -0.69593964323E-02  0.27550657973E-03 -0.22606434924E-01  0.10202749793E+01  0.10200007223E+01 0.  0.
     999903    2    3    3    0    0  0.10657442543E+00 -0.40818162653E-01  0.55719166328E-01  0.12858359877E+00  0.20121774774E-01 0.  0.
         14    1    1    2    0    0  0.69593964323E-02 -0.27550657973E-03  0.22606434924E-01  0.23655020663E-01  0.00000000000E+00 0. -1.
     999901    1    3    3    0    0 -0.11353382186E+00  0.41093669232E-01 -0.78325601253E-01  0.89169138056E+00  0.88000000000E+00 0.  1.
        -11    1    4    4    0    0  0.82850341319E-01 -0.25129003369E-01  0.48486776358E-01  0.99231418762E-01  0.51100000000E-03 0. -1.
         11    1    4    4    0    0  0.23724084108E-01 -0.15689159284E-01  0.72323899707E-02  0.29352180013E-01  0.51100000000E-03 0.  1.
</event>
<event>
 8    1  0.1170483E+005  0.1043930E+01  0.7957747E-01            NaN
         13   -1    0    0    0    0  0.00000000000E+00  0.00000000000E+00  0.74505805969E-08  0.10566000000E+00  0.10566000000E+00 0.  1.
     999900   -1    0    0    0    0 -0.00000000000E+00 -0.00000000000E+00 -0.74505805969E-08  0.93827000000E+00  0.93827000000E+00 0.  1.
     999902    2    1    2    0    0 -0.73257845714E-02 -0.11037256108E-01  0.19391180087E-01  0.10204458350E+01  0.10201755712E+01 0.  0.
     999903    2    3    3    0    0 -0.19597515886E-01 -0.72554874437E-01  0.10857827234E+00  0.13371625377E+00  0.21036227436E-01 0.  0.
         14    1    1    2    0    0  0.73257845714E-02  0.11037256108E-01 -0.19391180087E-01  0.23484165029E-01  0.00000000000E+00 0. -1.
     999901    1    3    3    0    0  0.12271731314E-01  0.61517618329E-01 -0.89187092251E-01  0.88672958120E+00  0.88000000000E+00 0.  1.
        -11    1    4    4    0    0 -0.25987847541E-02 -0.37787433431E-01  0.66595605559E-01  0.76615139550E-01  0.51100000000E-03 0.  1.
         11    1    4    4    0    0 -0.16998731132E-01 -0.34767441006E-01  0.41982666778E-01  0.57101114218E-01  0.51100000000E-03 0. -1.
</event>
<event>
 8    1  0.1170483E+005  0.1043930E+01  0.7957747E-01            NaN
         13   -1    0    0    0    0  0.00000000000E+00  0.00000000000E+00  0.74505805969E-08  0.10566000000E+00  0.10566000000E+00 0.  1.
     999900   -1    0    0    0    0 -0.00000000000E+00 -0.00000000000E+00 -0.74505805969E-08  0.93827000000E+00  0.93827000000E+00 0.  1.
     999902    2    1    2    0    0  0.19592763096E-01 -0.91207412268E-02 -0.86998388604E-02  0.10206329727E+01  0.10203670484E+01 0.  0.
     999903    2    3    3    0    0  0.25041221498E-01 -0.10280335310E+00 -0.77978993415E-01  0.13293611072E+00  0.19892057111E-01 0.  0.
         14    1    1    2    0    0 -0.19592763096E-01  0.91207412268E-02  0.86998388604E-02  0.23297027331E-01  0.00000000000E+00 0.  1.
     999901    1    3    3    0    0 -0.54484584023E-02  0.93682611870E-01  0.69279154554E-01  0.88769686195E+00  0.88000000000E+00 0. -1.
        -11    1    4    4    0    0  0.27275427366E-03 -0.39017447945E-01 -0.32382994573E-01  0.50708530816E-01  0.51100000000E-03 0.  1.
         11    1    4    4    0    0  0.24768467225E-01 -0.63785905152E-01 -0.45595998842E-01  0.82227579899E-01  0.51100000000E-03 0. -1.
</event>
<event>
 8    1  0.1170483E+005  0.1043930E+01  0.7957747E-01            NaN
         13   -1    0    0    0    0  0.00000000000E+00  0.00000000000E+00  0.74505805969E-08  0.10566000000E+00  0.10566000000E+00 0.  1.
     999900   -1    0    0    0    0 -0.00000000000E+00 -0.00000000000E+00 -0.74505805969E-08  0.93827000000E+00  0.93827000000E+00 0. -1.
     999902    2    1    2    0    0  0.23054963585E-01  0.47858104471E-02  0.61343545464E-03  0.10203755603E+01  0.10201036577E+01 0.  0.
     999903    2    3    3    0    0  0.16880779941E-02  0.78463524113E-01 -0.10280699361E+00  0.13100458344E+00  0.20821832849E-01 0.  0.
         14    1    1    2    0    0 -0.23054963585E-01 -0.47858104471E-02 -0.61343545464E-03  0.23554439721E-01  0.00000000000E+00 0. -1.
     999901    1    3    3    0    0  0.21366885590E-01 -0.73677713666E-01  0.10342042907E+00  0.88937097684E+00  0.88000000000E+00 0. -1.
        -11    1    4    4    0    0 -0.53931414347E-02  0.28214546828E-01 -0.50663539973E-01  0.58242613530E-01  0.51100000000E-03 0.  1.
         11    1    4    4    0    0  0.70812194288E-02  0.50248977284E-01 -0.52143453642E-01  0.72761969912E-01  0.51100000000E-03 0. -1.
</event>
<event>
 8    1  0.1170483E+005  0.1043930E+01  0.7957747E-01            NaN
         13   -1    0    0    0    0  0.00000000000E+00  0.00000000000E+00  0.74505805969E-08  0.10566000000E+00  0.10566000000E+00 0. -1.
     999900   -1    0    0    0    0 -0.00000000000E+00 -0.00000000000E+00 -0.74505805969E-08  0.93827000000E+00  0.93827000000E+00 0.  1.
     999902    2    1    2    0    0 -0.59746461635E-02  0.17719114700E-01  0.14292560164E-01  0.10203940552E+01  0.10201225844E+01 0.  0.
     999903    2    3    3    0    0 -0.57444707407E-01 -0.81803887782E-01  0.81950229519E-01  0.13071346337E+00  0.19452478553E-01 0.  0.
         14    1    1    2    0    0  0.59746461635E-02 -0.17719114700E-01 -0.14292560164E-01  0.23535944820E-01  0.00000000000E+00 0.  1.
     999901    1    3    3    0    0  0.51470061243E-01  0.99523002482E-01 -0.67657669354E-01  0.88968059181E+00  0.88000000000E+00 0.  1.
        -11    1    4    4    0    0 -0.33565478009E-01 -0.62784523437E-01  0.60057376228E-01  0.93143369370E-01  0.51100000000E-03 0. -1.
         11    1    4    4    0    0 -0.23879229397E-01 -0.19019364344E-01  0.21892853291E-01  0.37570093996E-01  0.51100000000E-03 0.  1.
</event>
<event>
 8    1  0.1170483E+005  0.1043930E+01  0.7957747E-01            NaN
         13   -1    0    0    0    0  0.00000000000E+00  0.00000000000E+00  0.74505805969E-08  0.10566000000E+00  0.10566000000E+00 0.  1.
     999900   -1    0    0    0    0 -0.00000000000E+00 -0.00000000000E+00 -0.74505805969E-08  0.93827000000E+00  0.93827000000E+00 0. -1.
     999902    2    1    2    0    0  0.74456227108E-02  0.53863731655E-02  0.21472588387E-01  0.10205735798E+01  0.10203062821E+01 0.  0.
     999903    2    3    3    0    0 -0.20811802590E-01  0.12146582497E+00 -0.37617943762E-01  0.13053728153E+00  0.20923537303E-01 0.  0.
         14    1    1    2    0    0 -0.74456227108E-02 -0.53863731655E-02 -0.21472588387E-01  0.23356420219E-01  0.00000000000E+00 0. -1.
     999901    1    3    3    0    0  0.28257425301E-01 -0.11607945181E+00  0.59090532149E-01  0.89003629825E+00  0.88000000000E+00 0.  1.
        -11    1    4    4    0    0 -0.14158268484E-01  0.66976464984E-01 -0.31313033297E-01  0.75279948216E-01  0.51100000000E-03 0.  1.
         11    1    4    4    0    0 -0.66535341056E-02  0.54489359987E-01 -0.63049104657E-02  0.55257333313E-01  0.51100000000E-03 0. -1.
</event>
<event>
 8    1  0.1170483E+005  0.1043930E+01  0.7957747E-01            NaN
         13   -1    0    0    0    0  0.00000000000E+00  0.00000000000E+00  0.74505805969E-08  0.10566000000E+00  0.10566000000E+00 0.  1.
     999900   -1    0    0    0    0 -0.00000000000E+00 -0.00000000000E+00 -0.74505805969E-08  0.93827000000E+00  0.93827000000E+00 0. -1.
     999902    2    1    2    0    0 -0.15551864888E-01  0.13614548377E-01  0.12433103811E-01  0.10198095004E+01  0.10195242119E+01 0.  0.
     999903    2    3    3    0    0  0.62992791471E-02  0.99915340549E-01 -0.81288899476E-01  0.13036635266E+00  0.19098286111E-01 0.  0.
         14    1    1    2    0    0  0.15551864888E-01 -0.13614548377E-01 -0.12433103811E-01  0.24120499567E-01  0.00000000000E+00 0. -1.
     999901    1    3    3    0    0 -0.21851144035E-01 -0.86300792172E-01  0.93722003287E-01  0.88944314778E+00  0.88000000000E+00 0.  1.
        -11    1    4    4    0    0 -0.11290018324E-02  0.30119340788E-01 -0.35442701465E-01  0.46528438001E-01  0.51100000000E-03 0. -1.
         11    1    4    4    0    0  0.74282809795E-02  0.69795999760E-01 -0.45846198012E-01  0.83837914657E-01  0.51100000000E-03 0.  1.
</event>
<event>
 8    1  0.1170483E+005  0.1043930E+01  0.7957747E-01            NaN
         13   -1    0    0    0    0  0.00000000000E+00  0.00000000000E+00  0.74505805969E-08  0.10566000000E+00  0.10566000000E+00 0. -1.
     999900   -1    0    0    0    0 -0.00000000000E+00 -0.00000000000E+00 -0.74505805969E-08  0.93827000000E+00  0.93827000000E+00 0. -1.
     999902    2    1    2    0    0  0.22746650968E-01  0.14663419514E-02 -0.83031584054E-02  0.10196709248E+01  0.10193823091E+01 0.  0.
     999903    2    3    3    0    0 -0.98814454719E-01 -0.23114799006E-01  0.73708222609E-01  0.12719840338E+00  0.21164624937E-01 0.  0.
         14    1    1    2    0    0 -0.22746650968E-01 -0.14663419514E-02  0.83031584054E-02  0.24259075178E-01  0.00000000000E+00 0. -1.
     999901    1    3    3    0    0  0.12156110569E+00  0.24581140957E-01 -0.82011381014E-01  0.89247252144E+00  0.88000000000E+00 0. -1.
        -11    1    4    4    0    0 -0.10806334691E-01  0.99758969020E-03  0.15616179585E-01  0.19023623222E-01  0.51100000000E-03 0.  1.
         11    1    4    4    0    0 -0.88008120028E-01 -0.24112388696E-01  0.58092043024E-01  0.10817478016E+00  0.51100000000E-03 0. -1.
</event>
<event>
 8    1  0.1170483E+005  0.1043930E+01  0.7957747E-01            NaN
         13   -1    0    0    0    0  0.00000000000E+00  0.00000000000E+00  0.74505805969E-08  0.10566000000E+00  0.10566000000E+00 0.  1.
     999900   -1    0    0    0    0 -0.00000000000E+00 -0.00000000000E+00 -0.74505805969E-08  0.93827000000E+00  0.93827000000E+00 0. -1.
     999902    2    1    2    0    0 -0.12222155862E-01 -0.60032832953E-02 -0.19628771686E-01  0.10200404797E+01  0.10197606930E+01 0.  0.
     999903    2    3    3    0    0 -0.38686924882E-01 -0.12425215683E+00 -0.14822960668E-02  0.13155160822E+00  0.19192493042E-01 0.  0.
         14    1    1    2    0    0  0.12222155862E-01  0.60032832953E-02  0.19628771686E-01  0.23889520342E-01  0.00000000000E+00 0.  1.
     999901    1    3    3    0    0  0.26464769019E-01  0.11824887354E+00 -0.18146475619E-01  0.88848887144E+00  0.88000000000E+00 0.  1.
        -11    1    4    4    0    0 -0.12679790741E-01 -0.72702709743E-01 -0.61291461965E-03  0.73804457064E-01  0.51100000000E-03 0. -1.
         11    1    4    4    0    0 -0.26007134141E-01 -0.51549447090E-01 -0.86938144712E-03  0.57747151156E-01  0.51100000000E-03 0.  1.
</event>
<event>
 8    1  0.1170483E+005  0.1043930E+01  0.7957747E-01            NaN
         13   -1    0    0    0    0  0.00000000000E+00  0.00000000000E+00  0.74505805969E-08  0.10566000000E+00  0.10566000000E+00 0. -1.
     999900   -1    0    0    0    0 -0.00000000000E+00 -0.00000000000E+00 -0.74505805969E-08  0.93827000000E+00  0.93827000000E+00 0. -1.
     999902    2    1    2    0    0 -0.10553991557E-01  0.34908451645E-02  0.24052525302E-01  0.10174328924E+01  0.10170878005E+01 0.  0.
     999903    2    3    3    0    0  0.71381108849E-01  0.10384301443E+00  0.14682972701E-02  0.12766103068E+00  0.20409520118E-01 0.  0.
         14    1    1    2    0    0  0.10553991557E-01 -0.34908451645E-02 -0.24052525302E-01  0.26497107599E-01  0.00000000000E+00 0.  1.
     999901    1    3    3    0    0 -0.81935100405E-01 -0.10035216926E+00  0.22584228032E-01  0.88977186172E+00  0.88000000000E+00 0. -1.
        -11    1    4    4    0    0  0.44445765770E-01  0.79310020003E-01  0.49987394117E-02  0.91053577000E-01  0.51100000000E-03 0.  1.
         11    1    4    4    0    0  0.26935343079E-01  0.24532994424E-01 -0.35304421416E-02  0.36607453680E-01  0.51100000000E-03 0. -1.
</event>
<event>
 8    1  0.1170483E+005  0.1043930E+01  0.7957747E-01            NaN
         13   -1    0    0    0    0  0.00000000000E+00  0.00000000000E+00  0.74505805969E-08  0.10566000000E+00  0.10566000000E+00 0. -1.
     999900   -1    0    0    0    0 -0.00000000000E+00 -0.00000000000E+00 -0.74505805969E-08  0.93827000000E+00  0.93827000000E+00 0. -1.
     999902    2    1    2    0    0 -0.20073951661E-01 -0.10108829672E-01  0.44097553867E-02  0.10210258974E+01  0.10207689676E+01 0.  0.
     999903    2    3    3    0    0 -0.73660587283E-01  0.90073572374E-01  0.59166892704E-01  0.13203411720E+00  0.19828170729E-01 0.  0.
         14    1    1    2    0    0  0.20073951661E-01  0.10108829672E-01 -0.44097553867E-02  0.22904102585E-01  0.00000000000E+00 0. -1.
     999901    1    3    3    0    0  0.53586635622E-01 -0.10018240205E+00 -0.54757137317E-01  0.88899178021E+00  0.88000000000E+00 0. -1.
        -11    1    4    4    0    0 -0.45575479197E-01  0.58664268646E-01  0.47982111788E-01  0.88437350099E-01  0.51100000000E-03 0.  1.
         11    1    4    4    0    0 -0.28085108086E-01  0.31409303727E-01  0.11184780915E-01  0.43596767105E-01  0.51100000000E-03 0. -1.
</event>
<event>
 8    1  0.1170483E+005  0.1043930E+01  0.7957747E-01            NaN
         13   -1    0    0    0    0  0.00000000000E+00  0.00000000000E+00  0.74505805969E-08  0.10566000000E+00  0.10566000000E+00 0.  1.
     999900   -1    0    0    0    0 -0.00000000000E+00 -0.00000000000E+00 -0.74505805969E-08  0.93827000000E+00  0.93827000000E+00 0. -1.
     999902    2    1    2    0    0  0.13856634053E-01 -0.10152889210E-01  0.16220885469E-01  0.10203036462E+01  0.10200300613E+01 0.  0.
     999903    2    3    3    0    0 -0.10055586597E+00 -0.20582976987E-01 -0.73493670308E-01  0.12831277834E+00  0.22971904341E-01 0.  0.
         14    1    1    2    0    0 -0.13856634053E-01  0.10152889210E-01 -0.16220885469E-01  0.23626353760E-01  0.00000000000E+00 0. -1.
     999901    1    3    3    0    0  0.11441250002E+00  0.10430087776E-01  0.89714555777E-01  0.89199086790E+00  0.88000000000E+00 0.  1.
        -11    1    4    4    0    0 -0.31209469041E-01 -0.14524561365E-01 -0.33465537712E-01  0.48012468964E-01  0.51100000000E-03 0.  1.
         11    1    4    4    0    0 -0.69346396925E-01 -0.60584156217E-02 -0.40028132596E-01  0.80300309380E-01  0.51100000000E-03 0. -1.
</event>
<event>
 8    1  0.1170483E+005  0.1043930E+01  0.7957747E-01            NaN
         13   -1    0    0    0    0  0.00000000000E+00  0.00000000000E+00  0.74505805969E-08  0.10566000000E+00  0.10566000000E+00 0. -1.
     999900   -1    0    0    0    0 -0.00000000000E+00 -0.00000000000E+00 -0.74505805969E-08  0.93827000000E+00  0.93827000000E+00 0. -1.
     999902    2    1    2    0    0 -0.42052482876E-02 -0.17387024269E-01 -0.15416531637E-01  0.10203151281E+01  0.10200418121E+01 0.  0.
     999903    2    3    3    0    0  0.19598266891E-01 -0.91781273946E-01 -0.92831569005E-01  0.13347004597E+00  0.19714427611E-01 0.  0.
         14    1    1    2    0    0  0.42052482876E-02  0.17387024269E-01  0.15416531637E-01  0.23614871878E-01  0.00000000000E+00 0. -1.
     999901    1    3    3    0    0 -0.23803515179E-01  0.74394249677E-01  0.77415037368E-01  0.88684508215E+00  0.88000000000E+00 0.  1.
        -11    1    4    4    0    0  0.15800413450E-01 -0.75613908621E-01 -0.64546717117E-01  0.10066606208E+00  0.51100000000E-03 0.  1.
         11    1    4    4    0    0  0.37978534414E-02 -0.16167365326E-01 -0.28284851887E-01  0.32803983898E-01  0.51100000000E-03 0. -1.
</event>
<event>
 8    1  0.1170483E+005  0.1043930E+01  0.7957747E-01            NaN
         13   -1    0    0    0    0  0.00000000000E+00  0.00000000000E+00  0.74505805969E-08  0.10566000000E+00  0.10566000000E+00 0.  1.
     999900   -1    0    0    0    0 -0.00000000000E+00 -0.00000000000E+00 -0.74505805969E-08  0.93827000000E+00  0.93827000000E+00 0.  1.
     999902    2    1    2    0    0  0.13250602179E-01  0.87854375956E-02 -0.17360665583E-01  0.10203895013E+01  0.10201179242E+01 0.  0.
     999903    2    3    3    0    0 -0.56763494071E-01 -0.56560971989E-01  0.97319326044E-01  0.12779573733E+00  0.20963335743E-01 0.  0.
         14    1    1    2    0    0 -0.13250602179E-01 -0.87854375956E-02  0.17360665583E-01  0.23540498748E-01  0.00000000000E+00 0.  1.
     999901    1    3    3    0    0  0.70014096250E-01  0.65346409584E-01 -0.11467999163E+00  0.89259376393E+00  0.88000000000E+00 0.  1.
        -11    1    4    4    0    0 -0.32532476011E-01 -0.18395120834E-01  0.39213410514E-01  0.54172826685E-01  0.51100000000E-03 0.  1.
         11    1    4    4    0    0 -0.24231018060E-01 -0.38165851155E-01  0.58105915531E-01  0.73622910641E-01  0.51100000000E-03 0. -1.
</event>
<event>
 8    1  0.1170483E+005  0.1043930E+01  0.7957747E-01            NaN
         13   -1    0    0    0    0  0.00000000000E+00  0.00000000000E+00  0.74505805969E-08  0.10566000000E+00  0.10566000000E+00 0.  1.
     999900   -1    0    0    0    0 -0.00000000000E+00 -0.00000000000E+00 -0.74505805969E-08  0.93827000000E+00  0.93827000000E+00 0. -1.
     999902    2    1    2    0    0 -0.12425202145E-01 -0.68253218117E-02  0.17627430872E-01  0.10213092797E+01  0.10210587387E+01 0.  0.
     999903    2    3    3    0    0  0.12163869920E+00  0.40607450506E-01  0.53025694863E-02  0.12980779362E+00  0.19416690307E-01 0.  0.
         14    1    1    2    0    0  0.12425202145E-01  0.68253218117E-02 -0.17627430872E-01  0.22620720265E-01  0.00000000000E+00 0.  1.
     999901    1    3    3    0    0 -0.13406390134E+00 -0.47432772317E-01  0.12324861386E-01  0.89150148611E+00  0.88000000000E+00 0.  1.
        -11    1    4    4    0    0  0.11499185453E-01  0.87362558694E-02 -0.33128742227E-02  0.14825305707E-01  0.51100000000E-03 0. -1.
         11    1    4    4    0    0  0.11013951375E+00  0.31871194636E-01  0.86154437090E-02  0.11498248791E+00  0.51100000000E-03 0.  1.
</event>
<event>
 8    1  0.1170483E+005  0.1043930E+01  0.7957747E-01            NaN
         13   -1    0    0    0    0  0.00000000000E+00  0.00000000000E+00  0.74505805969E-08  0.10566000000E+00  0.10566000000E+00 0.  1.
     999900   -1    0    0    0    0 -0.00000000000E+00 -0.00000000000E+00 -0.74505805969E-08  0.93827000000E+00  0.93827000000E+00 0. -1.
     999902    2    1    2    0    0 -0.14792437091E-01 -0.18721943907E-01 -0.58125851130E-02  0.10193716303E+01  0.10190757612E+01 0.  0.
     999903    2    3    3    0    0 -0.11848510016E+00  0.29052323193E-01  0.42430955162E-01  0.13068609074E+00  0.19892509001E-01 0.  0.
         14    1    1    2    0    0  0.14792437091E-01  0.18721943907E-01  0.58125851130E-02  0.24558369743E-01  0.00000000000E+00 0.  1.
     999901    1    3    3    0    0  0.10369266307E+00 -0.47774267100E-01 -0.48243540275E-01  0.88868553952E+00  0.88000000000E+00 0.  1.
        -11    1    4    4    0    0 -0.15722939370E-01 -0.28390733823E-02  0.46576878244E-02  0.16650115224E-01  0.51100000000E-03 0.  1.
         11    1    4    4    0    0 -0.10276216079E+00  0.31891396575E-01  0.37773267337E-01  0.11403597551E+00  0.51100000000E-03 0. -1.
</event>
<event>
 8    1  0.1170483E+005  0.1043930E+01  0.7957747E-01            NaN
         13   -1    0    0    0    0  0.00000000000E+00  0.00000000000E+00  0.74505805969E-08  0.10566000000E+00  0.10566000000E+00 0.  1.
     999900   -1    0    0    0    0 -0.00000000000E+00 -0.00000000000E+00 -0.74505805969E-08  0.93827000000E+00  0.93827000000E+00 0. -1.
     999902    2    1    2    0    0  0.17202848949E-02  0.24617170226E-01  0.24835299835E-02  0.10191281377E+01  0.10188262996E+01 0.  0.
     999903    2    3    3    0    0  0.12080140377E+00 -0.37570313829E-01 -0.14117875285E-01  0.12877809271E+00  0.19492950654E-01 0.  0.
         14    1    1    2    0    0 -0.17202848949E-02 -0.24617170226E-01 -0.24835299835E-02  0.24801862254E-01  0.00000000000E+00 0. -1.
     999901    1    3    3    0    0 -0.11908111887E+00  0.62187484055E-01  0.16601405268E-01  0.89035004504E+00  0.88000000000E+00 0. -1.
        -11    1    4    4    0    0  0.87224631421E-01 -0.33835526486E-01 -0.16092834412E-01  0.94932711009E-01  0.51100000000E-03 0.  1.
         11    1    4    4    0    0  0.33576772347E-01 -0.37347873434E-02  0.19749591276E-02  0.33845381698E-01  0.51100000000E-03 0. -1.
</event>
<event>
 8    1  0.1170483E+005  0.1043930E+01  0.7957747E-01            NaN
         13   -1    0    0    0    0  0.00000000000E+00  0.00000000000E+00  0.74505805969E-08  0.10566000000E+00  0.10566000000E+00 0.  1.
     999900   -1    0    0    0    0 -0.00000000000E+00 -0.00000000000E+00 -0.74505805969E-08  0.93827000000E+00  0.93827000000E+00 0.  1.
     999902    2    1    2    0    0 -0.49049673584E-02 -0.11076633752E-02  0.23307403794E-01  0.10200863280E+01  0.10198076269E+01 0.  0.
     999903    2    3    3    0    0  0.86663544844E-01 -0.88373628643E-01 -0.31895351820E-01  0.12932963543E+00  0.19707178616E-01 0.  0.
         14    1    1    2    0    0  0.49049673584E-02  0.11076633752E-02 -0.23307403794E-01  0.23843672003E-01  0.00000000000E+00 0. -1.
     999901    1    3    3    0    0 -0.91568512202E-01  0.87265965268E-01  0.55202755614E-01  0.89075669256E+00  0.88000000000E+00 0. -1.
        -11    1    4    4    0    0  0.40136830326E-01 -0.32881960965E-01 -0.21512156084E-01  0.56171367136E-01  0.51100000000E-03 0.  1.
         11    1    4    4    0    0  0.46526714518E-01 -0.55491667678E-01 -0.10383195735E-01  0.73158268297E-01  0.51100000000E-03 0. -1.
</event>
<event>
 8    1  0.1170483E+005  0.1043930E+01  0.7957747E-01            NaN
         13   -1    0    0    0    0  0.00000000000E+00  0.00000000000E+00  0.74505805969E-08  0.10566000000E+00  0.10566000000E+00 0.  1.
     999900   -1    0    0    0    0 -0.00000000000E+00 -0.00000000000E+00 -0.74505805969E-08  0.93827000000E+00  0.93827000000E+00 0. -1.
     999902    2    1    2    0    0  0.10110209377E-01  0.14207790299E-01  0.15636672857E-01  0.10205081475E+01  0.10202393326E+01 0.  0.
     999903    2    3    3    0    0 -0.35445808661E-01 -0.14276518719E-01  0.12481539226E+00  0.13213508426E+00  0.20507901134E-01 0.  0.
         14    1    1    2    0    0 -0.10110209377E-01 -0.14207790299E-01 -0.15636672857E-01  0.23421852550E-01  0.00000000000E+00 0. -1.
     999901    1    3    3    0    0  0.45556018037E-01  0.28484309018E-01 -0.10917871940E+00  0.88837306319E+00  0.88000000000E+00 0. -1.
        -11    1    4    4    0    0 -0.60077447789E-02  0.51527828939E-02  0.27625645296E-01  0.28741634746E-01  0.51100000000E-03 0. -1.
         11    1    4    4    0    0 -0.29438063882E-01 -0.19429301613E-01  0.97189746960E-01  0.10339344951E+00  0.51100000000E-03 0.  1.
</event>
<event>
 8    1  0.1170483E+005  0.1043930E+01  0.7957747E-01            NaN
         13   -1    0    0    0    0  0.00000000000E+00  0.00000000000E+00  0.74505805969E-08  0.10566000000E+00  0.10566000000E+00 0.  1.
     999900   -1    0    0    0    0 -0.00000000000E+00 -0.00000000000E+00 -0.74505805969E-08  0.93827000000E+00  0.93827000000E+00 0.  1.
     999902    2    1    2    0    0 -0.12315585004E-01 -0.52535037342E-02 -0.19320588518E-01  0.10204234461E+01  0.10201526608E+01 0.  0.
     999903    2    3    3    0    0 -0.73472656541E-01  0.41028912988E-01 -0.10237256944E+00  0.13319186358E+00  0.13353897886E-01 0.  0.
         14    1    1    2    0    0  0.12315585004E-01  0.52535037342E-02  0.19320588518E-01  0.23506553898E-01  0.00000000000E+00 0.  1.
     999901    1    3    3    0    0  0.61157071537E-01 -0.46282416723E-01  0.83051980922E-01  0.88723158253E+00  0.88000000000E+00 0. -1.
        -11    1    4    4    0    0 -0.69262949845E-02  0.57242288934E-03 -0.12135091699E-01  0.13993670059E-01  0.51100000000E-03 0. -1.
         11    1    4    4    0    0 -0.66546361557E-01  0.40456490099E-01 -0.90237477742E-01  0.11919819352E+00  0.51100000000E-03 0.  1.
</event>
<event>
 8    1  0.1170483E+005  0.1043930E+01  0.7957747E-01            NaN
         13   -1    0    0    0    0  0.00000000000E+00  0.00000000000E+00  0.74505805969E-08  0.10566000000E+00  0.10566000000E+00 0. -1.
     999900   -1    0    0    0    0 -0.00000000000E+00 -0.00000000000E+00 -0.74505805969E-08  0.93827000000E+00  0.93827000000E+00 0.  1.
     999902    2    1    2    0    0  0.22980948951E-02 -0.23499579584E-01  0.25424294947E-02  0.10201818332E+01  0.10199053864E+01 0.  0.
     999903    2    3    3    0    0  0.50469545345E-01  0.11359884048E+00 -0.22094849440E-01  0.12792432496E+00  0.20605314326E-01 0.  0.
         14    1    1    2    0    0 -0.22980948951E-02  0.23499579584E-01 -0.25424294947E-02  0.23748166845E-01  0.00000000000E+00 0.  1.
     999901    1    3    3    0    0 -0.48171450450E-01 -0.13709842006E+00  0.24637278935E-01  0.89225750820E+00  0.88000000000E+00 0. -1.
        -11    1    4    4    0    0  0.17943149736E-01  0.65524963515E-01 -0.12951986995E-01  0.69162797472E-01  0.51100000000E-03 0.  1.
         11    1    4    4    0    0  0.32526395609E-01  0.48073876964E-01 -0.91428624452E-02  0.58761527485E-01  0.51100000000E-03 0. -1.
</event>
<event>
 8    1  0.1170483E+005  0.1043930E+01  0.7957747E-01            NaN
         13   -1    0    0    0    0  0.00000000000E+00  0.00000000000E+00  0.74505805969E-08  0.10566000000E+00  0.10566000000E+00 0. -1.
     999900   -1    0    0    0    0 -0.00000000000E+00 -0.00000000000E+00 -0.74505805969E-08  0.93827000000E+00  0.93827000000E+00 0. -1.
     999902    2    1    2    0    0  0.67962493408E-02 -0.20162712468E-01 -0.96944113722E-02  0.10205482637E+01  0.10202803796E+01 0.  0.
     999903    2    3    3    0    0 -0.12644511047E+00  0.72660416709E-02 -0.21382334202E-01  0.13001909292E+00  0.20164299759E-01 0.  0.
         14    1    1    2    0    0 -0.67962493408E-02  0.20162712468E-01  0.96944113722E-02  0.23381736271E-01  0.00000000000E+00 0. -1.
     999901    1    3    3    0    0  0.13324135981E+00 -0.27428754139E-01  0.11687922830E-01  0.89052917081E+00  0.88000000000E+00 0.  1.
        -11    1    4    4    0    0 -0.31271309680E-01  0.68414624114E-02  0.17821254075E-02  0.32064583406E-01  0.51100000000E-03 0.  1.
         11    1    4    4    0    0 -0.95173800791E-01  0.42457925944E-03 -0.23164459609E-01  0.97954509516E-01  0.51100000000E-03 0. -1.
</event>
<event>
 8    1  0.1170483E+005  0.1043930E+01  0.7957747E-01            NaN
         13   -1    0    0    0    0  0.00000000000E+00  0.00000000000E+00  0.74505805969E-08  0.10566000000E+00  0.10566000000E+00 0. -1.
     999900   -1    0    0    0    0 -0.00000000000E+00 -0.00000000000E+00 -0.74505805969E-08  0.93827000000E+00  0.93827000000E+00 0. -1.
     999902    2    1    2    0    0 -0.18588430177E-01  0.64156376052E-02 -0.67224648497E-02  0.10231482369E+01  0.10229371599E+01 0.  0.
     999903    2    3    3    0    0 -0.36804165118E-01  0.90330576275E-02 -0.12757250411E+00  0.13469824067E+00  0.20802152158E-01 0.  0.
         14    1    1    2    0    0  0.18588430177E-01 -0.64156376052E-02  0.67224648497E-02  0.20781763062E-01  0.00000000000E+00 0. -1.
     999901    1    3    3    0    0  0.18215734942E-01 -0.26174200223E-02  0.12085003926E+00  0.88844999627E+00  0.88000000000E+00 0.  1.
        -11    1    4    4    0    0 -0.99184985161E-02  0.12433234059E-01 -0.53801565961E-01  0.56105539323E-01  0.51100000000E-03 0. -1.
         11    1    4    4    0    0 -0.26885666602E-01 -0.34001764313E-02 -0.73770938146E-01  0.78592701343E-01  0.51100000000E-03 0.  1.
</event>
<event>
 8    1  0.1170483E+005  0.1043930E+01  0.7957747E-01            NaN
         13   -1    0    0    0    0  0.00000000000E+00  0.00000000000E+00  0.74505805969E-08  0.10566000000E+00  0.10566000000E+00 0. -1.
     999900   -1    0    0    0    0 -0.00000000000E+00 -0.00000000000E+00 -0.74505805969E-08  0.93827000000E+00  0.93827000000E+00 0. -1.
     999902    2    1    2    0    0  0.15763416199E-01 -0.17378959464E-01  0.44537780407E-03  0.10204627487E+01  0.10201928786E+01 0.  0.
     999903    2    3    3    0    0  0.19289184946E-01 -0.72158191747E-01 -0.10727564212E+00  0.13219645221E+00  0.19722101649E-01 0.  0.
         14    1    1    2    0    0 -0.15763416199E-01  0.17378959464E-01 -0.44537780407E-03  0.23467251303E-01  0.00000000000E+00 0.  1.
     999901    1    3    3    0    0 -0.35257687466E-02  0.54779232283E-01  0.10772101992E+00  0.88826629648E+00  0.88000000000E+00 0.  1.
        -11    1    4    4    0    0  0.14345691351E-01 -0.54343845033E-01 -0.64261375768E-01  0.85374691156E-01  0.51100000000E-03 0.  1.
         11    1    4    4    0    0  0.49434935955E-02 -0.17814346714E-01 -0.43014266352E-01  0.46821761058E-01  0.51100000000E-03 0. -1.
</event>
<event>
 8    1  0.1170483E+005  0.1043930E+01  0.7957747E-01            NaN
         13   -1    0    0    0    0  0.00000000000E+00  0.00000000000E+00  0.74505805969E-08  0.10566000000E+00  0.10566000000E+00 0.  1.
     999900   -1    0    0    0    0 -0.00000000000E+00 -0.00000000000E+00 -0.74505805969E-08  0.93827000000E+00  0.93827000000E+00 0. -1.
     999902    2    1    2    0    0  0.14469316990E-01 -0.18208305553E-01  0.19310776104E-03  0.10206718656E+01  0.10204068387E+01 0.  0.
     999903    2    3    3    0    0  0.96556497006E-01 -0.88572900675E-01  0.17552584892E-01  0.13388506325E+00  0.21184925709E-01 0.  0.
         14    1    1    2    0    0 -0.14469316990E-01  0.18208305553E-01 -0.19310776104E-03  0.23258134402E-01  0.00000000000E+00 0.  1.
     999901    1    3    3    0    0 -0.82087180016E-01  0.70364595123E-01 -0.17359477131E-01  0.88678680235E+00  0.88000000000E+00 0. -1.
        -11    1    4    4    0    0  0.70363612113E-01 -0.61565218826E-01  0.21845522158E-01  0.96014592839E-01  0.51100000000E-03 0.  1.
         11    1    4    4    0    0  0.26192884894E-01 -0.27007681849E-01 -0.42929372652E-02  0.37870470413E-01  0.51100000000E-03 0. -1.
</event>
<event>
 8    1  0.1170483E+005  0.1043930E+01  0.7957747E-01            NaN
         13   -1    0    0    0    0  0.00000000000E+00  0.00000000000E+00  0.74505805969E-08  0.10566000000E+00  0.10566000000E+00 0.  1.
     999900   -1    0    0    0    0 -0.00000000000E+00 -0.00000000000E+00 -0.74505805969E-08  0.93827000000E+00  0.93827000000E+00 0.  1.
     999902    2    1    2    0    0 -0.84240680565E-02  0.21224680636E-01  0.70353219142E-02  0.10200354871E+01  0.10197555821E+01 0.  0.
     999903    2    3    3    0    0 -0.15741285973E-01 -0.11841660367E-01 -0.12622287275E+00  0.12935896278E+00  0.20335059437E-01 0.  0.
         14    1    1    2    0    0  0.84240680565E-02 -0.21224680636E-01 -0.70353219142E-02  0.23894512867E-01  0.00000000000E+00 0.  1.
     999901    1    3    3    0    0  0.73172179169E-02  0.33066341004E-01  0.13325819466E+00  0.89067652435E+00  0.88000000000E+00 0. -1.
        -11    1    4    4    0    0 -0.19966643071E-01 -0.12985264727E-01 -0.10982720655E+00  0.11238131676E+00  0.51100000000E-03 0. -1.
         11    1    4    4    0    0  0.42253570973E-02  0.11436043600E-02 -0.16395666197E-01  0.16977646026E-01  0.51100000000E-03 0.  1.
</event>
<event>
 8    1  0.1170483E+005  0.1043930E+01  0.7957747E-01            NaN
         13   -1    0    0    0    0  0.00000000000E+00  0.00000000000E+00  0.74505805969E-08  0.10566000000E+00  0.10566000000E+00 0. -1.
     999900   -1    0    0    0    0 -0.00000000000E+00 -0.00000000000E+00 -0.74505805969E-08  0.93827000000E+00  0.93827000000E+00 0.  1.
     999902    2    1    2    0    0 -0.11274983880E-01  0.61652267682E-02 -0.15492571557E-01  0.10238015362E+01  0.10236036491E+01 0.  0.
     999903    2    3    3    0    0  0.10969183386E+00 -0.39811219251E-01 -0.59713435088E-01  0.13323863028E+00  0.23866434081E-01 0.  0.
         14    1    1    2    0    0  0.11274983880E-01 -0.61652267682E-02  0.15492571557E-01  0.20128463827E-01  0.00000000000E+00 0. -1.
     999901    1    3    3    0    0 -0.12096681774E+00  0.45976446019E-01  0.44220863531E-01  0.89056290589E+00  0.88000000000E+00 0. -1.
        -11    1    4    4    0    0  0.46648339406E-01 -0.26964086565E-01 -0.19183698809E-01  0.57196197029E-01  0.51100000000E-03 0. -1.
         11    1    4    4    0    0  0.63043494451E-01 -0.12847132686E-01 -0.40529736279E-01  0.76042433250E-01  0.51100000000E-03 0.  1.
</event>
<event>
 8    1  0.1246508E+005  0.1043930E+01  0.7957747E-01            NaN
         13   -1    0    0    0    0  0.00000000000E+00  0.00000000000E+00  0.74505805969E-08  0.10566000000E+00  0.10566000000E+00 0. -1.
     999900   -1    0    0    0    0 -0.00000000000E+00 -0.00000000000E+00 -0.74505805969E-08  0.93827000000E+00  0.93827000000E+00 0. -1.
     999902    2    1    2    0    0 -0.13806021289E-01  0.12263824084E-01  0.15631973634E-01  0.10197356576E+01  0.10194485986E+01 0.  0.
     999903    2    3    3    0    0 -0.59144126538E-02  0.25759889608E-01 -0.12417727858E+00  0.12856168564E+00  0.20237546998E-01 0.  0.
         14    1    1    2    0    0  0.13806021289E-01 -0.12263824084E-01 -0.15631973634E-01  0.24194342411E-01  0.00000000000E+00 0. -1.
     999901    1    3    3    0    0 -0.78916086356E-02 -0.13496065524E-01  0.13980925222E+00  0.89117397195E+00  0.88000000000E+00 0.  1.
        -11    1    4    4    0    0  0.34258422481E-02  0.71459403164E-02 -0.71107677947E-01  0.71549729854E-01  0.51100000000E-03 0. -1.
         11    1    4    4    0    0 -0.93402549019E-02  0.18613949291E-01 -0.53069600638E-01  0.57011955787E-01  0.51100000000E-03 0.  1.
</event>
<event>
 8    1  0.1170483E+005  0.1043930E+01  0.7957747E-01            NaN
         13   -1    0    0    0    0  0.00000000000E+00  0.00000000000E+00  0.74505805969E-08  0.10566000000E+00  0.10566000000E+00 0. -1.
     999900   -1    0    0    0    0 -0.00000000000E+00 -0.00000000000E+00 -0.74505805969E-08  0.93827000000E+00  0.93827000000E+00 0. -1.
     999902    2    1    2    0    0  0.15285038638E-02  0.20615920687E-01  0.12219020036E-01  0.10199163172E+01  0.10196335799E+01 0.  0.
     999903    2    3    3    0    0 -0.41682567656E-01 -0.36917183742E-01  0.11662011794E+00  0.13082867022E+00  0.20385635674E-01 0.  0.
         14    1    1    2    0    0 -0.15285038638E-02 -0.20615920687E-01 -0.12219020036E-01  0.24013682776E-01  0.00000000000E+00 0. -1.
     999901    1    3    3    0    0  0.43211071520E-01  0.57533104428E-01 -0.10440109791E+00  0.88908764700E+00  0.88000000000E+00 0. -1.
        -11    1    4    4    0    0 -0.74066075664E-02 -0.16597355387E-01  0.49957311467E-01  0.53163183986E-01  0.51100000000E-03 0.  1.
         11    1    4    4    0    0 -0.34275960089E-01 -0.20319828355E-01  0.66662806473E-01  0.77665486236E-01  0.51100000000E-03 0. -1.
</event>
<event>
 8    1  0.1170483E+005  0.1043930E+01  0.7957747E-01            NaN
         13   -1    0    0    0    0  0.00000000000E+00  0.00000000000E+00  0.74505805969E-08  0.10566000000E+00  0.10566000000E+00 0.  1.
     999900   -1    0    0    0    0 -0.00000000000E+00 -0.00000000000E+00 -0.74505805969E-08  0.93827000000E+00  0.93827000000E+00 0. -1.
     999902    2    1    2    0    0 -0.10497492680E-01 -0.21110364718E-01  0.42459556550E-02  0.10199743537E+01  0.10196929975E+01 0.  0.
     999903    2    3    3    0    0 -0.15913243456E-01 -0.43926107150E-01  0.12184213557E+00  0.13184218447E+00  0.18818113557E-01 0.  0.
         14    1    1    2    0    0  0.10497492680E-01  0.21110364718E-01 -0.42459556550E-02  0.23955646318E-01  0.00000000000E+00 0.  1.
     999901    1    3    3    0    0  0.54157507766E-02  0.22815742432E-01 -0.11759617992E+00  0.88813216921E+00  0.88000000000E+00 0. -1.
        -11    1    4    4    0    0 -0.36059951218E-02 -0.34865042011E-01  0.86561175193E-01  0.93389895209E-01  0.51100000000E-03 0. -1.
         11    1    4    4    0    0 -0.12307248334E-01 -0.90610651386E-02  0.35280960381E-01  0.38452289261E-01  0.51100000000E-03 0.  1.
</event>
<event>
 8    1  0.1170483E+005  0.1043930E+01  0.7957747E-01            NaN
         13   -1    0    0    0    0  0.00000000000E+00  0.00000000000E+00  0.74505805969E-08  0.10566000000E+00  0.10566000000E+00 0. -1.
     999900   -1    0    0    0    0 -0.00000000000E+00 -0.00000000000E+00 -0.74505805969E-08  0.93827000000E+00  0.93827000000E+00 0. -1.
     999902    2    1    2    0    0  0.83731095222E-02 -0.17258912603E-01  0.12253808460E-01  0.10211674244E+01  0.10209136955E+01 0.  0.
     999903    2    3    3    0    0  0.11993750210E+00 -0.37418359449E-01  0.40330632103E-01  0.13345050721E+00  0.19933387964E-01 0.  0.
         14    1    1    2    0    0 -0.83731095222E-02  0.17258912603E-01 -0.12253808460E-01  0.22762575625E-01  0.00000000000E+00 0.  1.
     999901    1    3    3    0    0 -0.11156439258E+00  0.20159446846E-01 -0.28076823643E-01  0.88771691716E+00  0.88000000000E+00 0. -1.
        -11    1    4    4    0    0  0.80047135023E-01 -0.15047606745E-01  0.27007835435E-01  0.85811762539E-01  0.51100000000E-03 0.  1.
         11    1    4    4    0    0  0.39890367078E-01 -0.22370752704E-01  0.13322796668E-01  0.47638744675E-01  0.51100000000E-03 0. -1.
</event>
<event>
 8    1  0.1170483E+005  0.1043930E+01  0.7957747E-01            NaN
         13   -1    0    0    0    0  0.00000000000E+00  0.00000000000E+00  0.74505805969E-08  0.10566000000E+00  0.10566000000E+00 0. -1.
     999900   -1    0    0    0    0 -0.00000000000E+00 -0.00000000000E+00 -0.74505805969E-08  0.93827000000E+00  0.93827000000E+00 0. -1.
     999902    2    1    2    0    0 -0.46385376334E-02 -0.17507964675E-02  0.23631878367E-01  0.10197836339E+01  0.10194977259E+01 0.  0.
     999903    2    3    3    0    0  0.16530420038E-01 -0.41311786679E-01  0.12367061819E+00  0.13297985282E+00  0.20231187482E-01 0.  0.
         14    1    1    2    0    0  0.46385376334E-02  0.17507964675E-02 -0.23631878367E-01  0.24146366079E-01  0.00000000000E+00 0.  1.
     999901    1    3    3    0    0 -0.21168957671E-01  0.39560990212E-01 -0.10003873982E+00  0.88680378110E+00  0.88000000000E+00 0. -1.
        -11    1    4    4    0    0  0.69508050173E-02 -0.37571184924E-01  0.90172026426E-01  0.97934483701E-01  0.51100000000E-03 0. -1.
         11    1    4    4    0    0  0.95796150206E-02 -0.37406017548E-02  0.33498591762E-01  0.35045369116E-01  0.51100000000E-03 0.  1.
</event>
<event>
 8    1  0.1170483E+005  0.1043930E+01  0.7957747E-01            NaN
         13   -1    0    0    0    0  0.00000000000E+00  0.00000000000E+00  0.74505805969E-08  0.10566000000E+00  0.10566000000E+00 0.  1.
     999900   -1    0    0    0    0 -0.00000000000E+00 -0.00000000000E+00 -0.74505805969E-08  0.93827000000E+00  0.93827000000E+00 0.  1.
     999902    2    1    2    0    0 -0.16189071817E-01  0.81556535424E-02 -0.13900077494E-01  0.10210867759E+01  0.10208312256E+01 0.  0.
     999903    2    3    3    0    0 -0.10237529383E+00  0.25742114009E-01  0.76942241831E-01  0.13204815168E+00  0.19319641914E-01 0.  0.
         14    1    1    2    0    0  0.16189071817E-01 -0.81556535424E-02  0.13900077494E-01  0.22843224057E-01  0.00000000000E+00 0.  1.
     999901    1    3    3    0    0  0.86186222009E-01 -0.17586460467E-01 -0.90842319324E-01  0.88903862427E+00  0.88000000000E+00 0.  1.
        -11    1    4    4    0    0 -0.30422747555E-01  0.14070816482E-01  0.32402485828E-01  0.46623102150E-01  0.51100000000E-03 0. -1.
         11    1    4    4    0    0 -0.71952546271E-01  0.11671297528E-01  0.44539756002E-01  0.85425049527E-01  0.51100000000E-03 0.  1.
</event>
<event>
 8    1  0.1170483E+005  0.1043930E+01  0.7957747E-01            NaN
         13   -1    0    0    0    0  0.00000000000E+00  0.00000000000E+00  0.74505805969E-08  0.10566000000E+00  0.10566000000E+00 0. -1.
     999900   -1    0    0    0    0 -0.00000000000E+00 -0.00000000000E+00 -0.74505805969E-08  0.93827000000E+00  0.93827000000E+00 0. -1.
     999902    2    1    2    0    0 -0.72112420997E-03 -0.13387410053E-01 -0.19255155735E-01  0.10204671828E+01  0.10201974159E+01 0.  0.
     999903    2    3    3    0    0  0.14251639883E-01 -0.12645051248E+00 -0.33051890788E-01  0.13300011374E+00  0.20093815573E-01 0.  0.
         14    1    1    2    0    0  0.72112420997E-03  0.13387410053E-01  0.19255155735E-01  0.23462817189E-01  0.00000000000E+00 0. -1.
     999901    1    3    3    0    0 -0.14972764093E-01  0.11306310242E+00  0.13796735054E-01  0.88746706907E+00  0.88000000000E+00 0. -1.
        -11    1    4    4    0    0  0.13652305903E-03 -0.54519976679E-01 -0.59495767398E-02  0.54846194764E-01  0.51100000000E-03 0.  1.
         11    1    4    4    0    0  0.14115116824E-01 -0.71930535797E-01 -0.27102314049E-01  0.78153918973E-01  0.51100000000E-03 0. -1.
</event>
<event>
 8    1  0.1170483E+005  0.1043930E+01  0.7957747E-01            NaN
         13   -1    0    0    0    0  0.00000000000E+00  0.00000000000E+00  0.74505805969E-08  0.10566000000E+00  0.10566000000E+00 0.  1.
     999900   -1    0    0    0    0 -0.00000000000E+00 -0.00000000000E+00 -0.74505805969E-08  0.93827000000E+00  0.93827000000E+00 0. -1.
     999902    2    1    2    0    0  0.69127535981E-02  0.12481492053E-01 -0.17458188598E-01  0.10213831121E+01  0.10211342221E+01 0.  0.
     999903    2    3    3    0    0 -0.57671806891E-01  0.45831566175E-01  0.10507553819E+00  0.12992480845E+00  0.20322828465E-01 0.  0.
         14    1    1    2    0    0 -0.69127535981E-02 -0.12481492053E-01  0.17458188598E-01  0.22546887929E-01  0.00000000000E+00 0.  1.
     999901    1    3    3    0    0  0.64584560489E-01 -0.33350074122E-01 -0.12253372679E+00  0.89145830362E+00  0.88000000000E+00 0. -1.
        -11    1    4    4    0    0 -0.46024715904E-01  0.26551345836E-01  0.65056540592E-01  0.83999184726E-01  0.51100000000E-03 0. -1.
         11    1    4    4    0    0 -0.11647090986E-01  0.19280220339E-01  0.40018997596E-01  0.45925623723E-01  0.51100000000E-03 0.  1.
</event>
<event>
 8    1  0.1170483E+005  0.1043930E+01  0.7957747E-01            NaN
         13   -1    0    0    0    0  0.00000000000E+00  0.00000000000E+00  0.74505805969E-08  0.10566000000E+00  0.10566000000E+00 0.  1.
     999900   -1    0    0    0    0 -0.00000000000E+00 -0.00000000000E+00 -0.74505805969E-08  0.93827000000E+00  0.93827000000E+00 0. -1.
     999902    2    1    2    0    0  0.98154941955E-02  0.13095482386E-01 -0.17419095402E-01  0.10200289442E+01  0.10197488840E+01 0.  0.
     999903    2    3    3    0    0  0.64241313339E-01  0.11396578499E+00 -0.57537113539E-02  0.13251946877E+00  0.20326286474E-01 0.  0.
         14    1    1    2    0    0 -0.98154941955E-02 -0.13095482386E-01  0.17419095402E-01  0.23901055831E-01  0.00000000000E+00 0. -1.
     999901    1    3    3    0    0 -0.54425819144E-01 -0.10087030260E+00 -0.11665384048E-01  0.88750947540E+00  0.88000000000E+00 0. -1.
        -11    1    4    4    0    0  0.18651770486E-01  0.23095882829E-01 -0.82724610294E-02  0.30822119953E-01  0.51100000000E-03 0. -1.
         11    1    4    4    0    0  0.45589542853E-01  0.90869902157E-01  0.25187496755E-02  0.10169734882E+00  0.51100000000E-03 0.  1.
</event>
<event>
 8    1  0.1170483E+005  0.1043930E+01  0.7957747E-01            NaN
         13   -1    0    0    0    0  0.00000000000E+00  0.00000000000E+00  0.74505805969E-08  0.10566000000E+00  0.10566000000E+00 0.  1.
     999900   -1    0    0    0    0 -0.00000000000E+00 -0.00000000000E+00 -0.74505805969E-08  0.93827000000E+00  0.93827000000E+00 0.  1.
     999902    2    1    2    0    0 -0.18949416702E-01 -0.13873608890E-01 -0.73515478646E-02  0.10193210042E+01  0.10190238991E+01 0.  0.
     999903    2    3    3    0    0 -0.87974337299E-01  0.61429667298E-01 -0.72791844234E-01  0.13099817132E+00  0.18675659440E-01 0.  0.
         14    1    1    2    0    0  0.18949416702E-01  0.13873608890E-01  0.73515478646E-02  0.24608995774E-01  0.00000000000E+00 0. -1.
     999901    1    3    3    0    0  0.69024920597E-01 -0.75303276188E-01  0.65440296369E-01  0.88832283290E+00  0.88000000000E+00 0. -1.
        -11    1    4    4    0    0 -0.49548396083E-01  0.44909218826E-01 -0.48689039196E-01  0.82721007905E-01  0.51100000000E-03 0. -1.
         11    1    4    4    0    0 -0.38425941216E-01  0.16520448472E-01 -0.24102805038E-01  0.48277163419E-01  0.51100000000E-03 0.  1.
</event>
<event>
 8    1  0.1170483E+005  0.1043930E+01  0.7957747E-01            NaN
         13   -1    0    0    0    0  0.00000000000E+00  0.00000000000E+00  0.74505805969E-08  0.10566000000E+00  0.10566000000E+00 0. -1.
     999900   -1    0    0    0    0 -0.00000000000E+00 -0.00000000000E+00 -0.74505805969E-08  0.93827000000E+00  0.93827000000E+00 0. -1.
     999902    2    1    2    0    0 -0.17131848693E-01 -0.59189969973E-02 -0.15506427360E-01  0.10200766134E+01  0.10197976824E+01 0.  0.
     999903    2    3    3    0    0 -0.73171306179E-01 -0.10736351976E+00 -0.16640711609E-01  0.13247721126E+00  0.19807392472E-01 0.  0.
         14    1    1    2    0    0  0.17131848693E-01  0.59189969973E-02  0.15506427360E-01  0.23853386647E-01  0.00000000000E+00 0. -1.
     999901    1    3    3    0    0  0.56039457486E-01  0.10144452277E+00  0.11342842489E-02  0.88759940209E+00  0.88000000000E+00 0.  1.
        -11    1    4    4    0    0 -0.62007574314E-02 -0.14943239012E-01  0.35461526106E-02  0.16570639826E-01  0.51100000000E-03 0. -1.
         11    1    4    4    0    0 -0.66970548748E-01 -0.92420280751E-01 -0.20186864219E-01  0.11590657143E+00  0.51100000000E-03 0.  1.
</event>
<event>
 8    1  0.1170483E+005  0.1043930E+01  0.7957747E-01            NaN
         13   -1    0    0    0    0  0.00000000000E+00  0.00000000000E+00  0.74505805969E-08  0.10566000000E+00  0.10566000000E+00 0. -1.
     999900   -1    0    0    0    0 -0.00000000000E+00 -0.00000000000E+00 -0.74505805969E-08  0.93827000000E+00  0.93827000000E+00 0. -1.
     999902    2    1    2    0    0  0.18904652664E-02  0.24430781184E-01 -0.38708398536E-03  0.10194231283E+01  0.10191285138E+01 0.  0.
     999903    2    3    3    0    0 -0.76448946700E-01  0.46061123323E-01 -0.93521226715E-01  0.13078433567E+00  0.19805405234E-01 0.  0.
         14    1    1    2    0    0 -0.18904652664E-02 -0.24430781184E-01  0.38708398536E-03  0.24506871734E-01  0.00000000000E+00 0. -1.
     999901    1    3    3    0    0  0.78339411966E-01 -0.21630342140E-01  0.93134142730E-01  0.88863879260E+00  0.88000000000E+00 0.  1.
        -11    1    4    4    0    0 -0.11341840767E-01  0.18334752005E-02 -0.20039273135E-01  0.23104817075E-01  0.51100000000E-03 0. -1.
         11    1    4    4    0    0 -0.65107105933E-01  0.44227648123E-01 -0.73481953580E-01  0.10767951859E+00  0.51100000000E-03 0.  1.
</event>
<event>
 8    1  0.1170483E+005  0.1043930E+01  0.7957747E-01            NaN
         13   -1    0    0    0    0  0.00000000000E+00  0.00000000000E+00  0.74505805969E-08  0.10566000000E+00  0.10566000000E+00 0.  1.
     999900   -1    0    0    0    0 -0.00000000000E+00 -0.00000000000E+00 -0.74505805969E-08  0.93827000000E+00  0.93827000000E+00 0. -1.
     999902    2    1    2    0    0 -0.63689047965E-02  0.21806639731E-01  0.83848814301E-02  0.10197143290E+01  0.10194267576E+01 0.  0.
     999903    2    3    3    0    0 -0.50879412303E-02 -0.12213482081E+00 -0.29262982819E-01  0.12722447103E+00  0.19670848065E-01 0.  0.
         14    1    1    2    0    0  0.63689047965E-02 -0.21806639731E-01 -0.83848814301E-02  0.24215670985E-01  0.00000000000E+00 0. -1.
     999901    1    3    3    0    0 -0.12809635662E-02  0.14394146054E+00  0.37647864249E-01  0.89248985799E+00  0.88000000000E+00 0.  1.
        -11    1    4    4    0    0 -0.38700276449E-02 -0.35884747860E-01 -0.17668105916E-01  0.40188497491E-01  0.51100000000E-03 0. -1.
         11    1    4    4    0    0 -0.12179135854E-02 -0.86250072952E-01 -0.11594876904E-01  0.87035973535E-01  0.51100000000E-03 0.  1.
</event>
<event>
 8    1  0.1170483E+005  0.1043930E+01  0.7957747E-01            NaN
         13   -1    0    0    0    0  0.00000000000E+00  0.00000000000E+00  0.74505805969E-08  0.10566000000E+00  0.10566000000E+00 0. -1.
     999900   -1    0    0    0    0 -0.00000000000E+00 -0.00000000000E+00 -0.74505805969E-08  0.93827000000E+00  0.93827000000E+00 0. -1.
     999902    2    1    2    0    0 -0.19086142943E-01 -0.10510728700E-01 -0.10070755626E-01  0.10199263255E+01  0.10196438266E+01 0.  0.
     999903    2    3    3    0    0  0.51460415129E-01  0.11494652366E+00  0.10792582466E-01  0.12798932218E+00  0.20097490629E-01 0.  0.
         14    1    1    2    0    0  0.19086142943E-01  0.10510728700E-01  0.10070755626E-01  0.24003674493E-01  0.00000000000E+00 0. -1.
     999901    1    3    3    0    0 -0.70546558072E-01 -0.12545725236E+00 -0.20863338092E-01  0.89193700333E+00  0.88000000000E+00 0.  1.
        -11    1    4    4    0    0  0.13105835994E-01  0.47596855969E-01 -0.21095202822E-02  0.49415937025E-01  0.51100000000E-03 0.  1.
         11    1    4    4    0    0  0.38354579135E-01  0.67349667691E-01  0.12902102748E-01  0.78573385157E-01  0.51100000000E-03 0. -1.
</event>
<event>
 7    1  0.1224983E+005  0.1043930E+01  0.7957747E-01            NaN
         13   -1    0    0    0    0  0.00000000000E+00  0.00000000000E+00  0.74505805969E-08  0.10566000000E+00  0.10566000000E+00 0. -1.
     999900   -1    0    0    0    0 -0.00000000000E+00 -0.00000000000E+00 -0.74505805969E-08  0.93827000000E+00  0.93827000000E+00 0.  1.
     999903    2    1    2    0    0  0.71308461503E-01 -0.45372653506E-01 -0.29059810160E-01  0.91695231516E-01  0.20493134174E-01 0.  0.
         14    1    1    2    0    0 -0.39747109758E-01 -0.52186808784E-01 -0.33894162948E-02  0.65687014607E-01  0.00000000000E+00 0.  1.
     999901    1    1    2    0    0 -0.31561351745E-01  0.97559462290E-01  0.32449226455E-01  0.88654775388E+00  0.88000000000E+00 0. -1.
        -11    1    3    3    0    0  0.10698396747E-01 -0.15340403277E-01 -0.19139229755E-02  0.18807123326E-01  0.51100000000E-03 0.  1.
         11    1    3    3    0    0  0.60610064756E-01 -0.30032250229E-01 -0.27145887185E-01  0.72888108190E-01  0.51100000000E-03 0. -1.
</event>
<event>
 8    1  0.1170483E+005  0.1043930E+01  0.7957747E-01            NaN
         13   -1    0    0    0    0  0.00000000000E+00  0.00000000000E+00  0.74505805969E-08  0.10566000000E+00  0.10566000000E+00 0. -1.
     999900   -1    0    0    0    0 -0.00000000000E+00 -0.00000000000E+00 -0.74505805969E-08  0.93827000000E+00  0.93827000000E+00 0.  1.
     999902    2    1    2    0    0 -0.20298819302E-01 -0.85707114058E-02 -0.83086347592E-02  0.10203814847E+01  0.10201097205E+01 0.  0.
     999903    2    3    3    0    0  0.75611172580E-02 -0.47011820637E-01  0.11930597967E+00  0.12991004514E+00  0.19375790773E-01 0.  0.
         14    1    1    2    0    0  0.20298819302E-01  0.85707114058E-02  0.83086347592E-02  0.23548515253E-01  0.00000000000E+00 0. -1.
     999901    1    3    3    0    0 -0.27859936560E-01  0.38441109231E-01 -0.12761461443E+00  0.89047143961E+00  0.88000000000E+00 0.  1.
        -11    1    4    4    0    0 -0.45503888073E-02 -0.30446773293E-01  0.67750085829E-01  0.74418057574E-01  0.51100000000E-03 0. -1.
         11    1    4    4    0    0  0.12111506065E-01 -0.16565047344E-01  0.51555893845E-01  0.55491987564E-01  0.51100000000E-03 0.  1.
</event>
<event>
 8    1  0.1170483E+005  0.1043930E+01  0.7957747E-01            NaN
         13   -1    0    0    0    0  0.00000000000E+00  0.00000000000E+00  0.74505805969E-08  0.10566000000E+00  0.10566000000E+00 0. -1.
     999900   -1    0    0    0    0 -0.00000000000E+00 -0.00000000000E+00 -0.74505805969E-08  0.93827000000E+00  0.93827000000E+00 0. -1.
     999902    2    1    2    0    0 -0.22839988637E-01 -0.19112284787E-02  0.55409620761E-02  0.10203499208E+01  0.10200774190E+01 0.  0.
     999903    2    3    3    0    0 -0.64257582171E-01  0.47943825940E-01  0.10350239029E+00  0.13254510838E+00  0.20683656510E-01 0.  0.
         14    1    1    2    0    0  0.22839988637E-01  0.19112284787E-02 -0.55409620761E-02  0.23580079218E-01  0.00000000000E+00 0.  1.
     999901    1    3    3    0    0  0.41417593534E-01 -0.49855054419E-01 -0.97961428218E-01  0.88780481240E+00  0.88000000000E+00 0. -1.
        -11    1    4    4    0    0 -0.30104995761E-01  0.15841415340E-01  0.29954945709E-01  0.45330134603E-01  0.51100000000E-03 0. -1.
         11    1    4    4    0    0 -0.34152586410E-01  0.32102410600E-01  0.73547444586E-01  0.87214973777E-01  0.51100000000E-03 0.  1.
</event>
<event>
 8    1  0.1170483E+005  0.1043930E+01  0.7957747E-01            NaN
         13   -1    0    0    0    0  0.00000000000E+00  0.00000000000E+00  0.74505805969E-08  0.10566000000E+00  0.10566000000E+00 0.  1.
     999900   -1    0    0    0    0 -0.00000000000E+00 -0.00000000000E+00 -0.74505805969E-08  0.93827000000E+00  0.93827000000E+00 0. -1.
     999902    2    1    2    0    0 -0.11810457147E-01 -0.29317775852E-02  0.94875352716E-02  0.10284996551E+01  0.10283838996E+01 0.  0.
     999903    2    3    3    0    0  0.11985114299E+00  0.14048486901E-01  0.61970307865E-01  0.13699668386E+00  0.19134154578E-01 0.  0.
         14    1    1    2    0    0  0.11810457147E-01  0.29317775852E-02 -0.94875352716E-02  0.15430344888E-01  0.00000000000E+00 0. -1.
     999901    1    3    3    0    0 -0.13166160014E+00 -0.16980264486E-01 -0.52482772594E-01  0.89150297125E+00  0.88000000000E+00 0. -1.
        -11    1    4    4    0    0  0.99153496559E-01  0.11357415976E-01  0.42592540389E-01  0.10851171547E+00  0.51100000000E-03 0.  1.
         11    1    4    4    0    0  0.20697646431E-01  0.26910709248E-02  0.19377767477E-01  0.28484968385E-01  0.51100000000E-03 0. -1.
</event>
<event>
 8    1  0.1170483E+005  0.1043930E+01  0.7957747E-01            NaN
         13   -1    0    0    0    0  0.00000000000E+00  0.00000000000E+00  0.74505805969E-08  0.10566000000E+00  0.10566000000E+00 0. -1.
     999900   -1    0    0    0    0 -0.00000000000E+00 -0.00000000000E+00 -0.74505805969E-08  0.93827000000E+00  0.93827000000E+00 0. -1.
     999902    2    1    2    0    0  0.63638256008E-02  0.12250443712E-01 -0.14790284324E-01  0.10236982389E+01  0.10234982951E+01 0.  0.
     999903    2    3    3    0    0 -0.46367260870E-02  0.90769810083E-01 -0.98811302645E-01  0.13614777015E+00  0.22624856579E-01 0.  0.
         14    1    1    2    0    0 -0.63638256008E-02 -0.12250443712E-01  0.14790284324E-01  0.20231761114E-01  0.00000000000E+00 0. -1.
     999901    1    3    3    0    0  0.11000551688E-01 -0.78519366371E-01  0.84021018321E-01  0.88755046874E+00  0.88000000000E+00 0. -1.
        -11    1    4    4    0    0  0.87390893060E-02  0.30543398074E-01 -0.29518042548E-01  0.43368730724E-01  0.51100000000E-03 0.  1.
         11    1    4    4    0    0 -0.13375815393E-01  0.60226412010E-01 -0.69293260097E-01  0.92779039426E-01  0.51100000000E-03 0. -1.
</event>
<event>
 8    1  0.1170483E+005  0.1043930E+01  0.7957747E-01            NaN
         13   -1    0    0    0    0  0.00000000000E+00  0.00000000000E+00  0.74505805969E-08  0.10566000000E+00  0.10566000000E+00 0. -1.
     999900   -1    0    0    0    0 -0.00000000000E+00 -0.00000000000E+00 -0.74505805969E-08  0.93827000000E+00  0.93827000000E+00 0. -1.
     999902    2    1    2    0    0  0.47823092358E-02  0.23548028971E-01 -0.91494158628E-02  0.10182182914E+01  0.10178936079E+01 0.  0.
     999903    2    3    3    0    0  0.11060720844E+00 -0.36107538168E-01  0.49485581299E-01  0.12793981871E+00  0.19546498000E-01 0.  0.
         14    1    1    2    0    0 -0.47823092358E-02 -0.23548028971E-01  0.91494158628E-02  0.25711708630E-01  0.00000000000E+00 0. -1.
     999901    1    3    3    0    0 -0.10582489921E+00  0.59655567139E-01 -0.58634997162E-01  0.89027847266E+00  0.88000000000E+00 0. -1.
        -11    1    4    4    0    0  0.85064166699E-01 -0.28361593184E-01  0.46692018802E-01  0.10109746864E+00  0.51100000000E-03 0. -1.
         11    1    4    4    0    0  0.25543041743E-01 -0.77459449840E-02  0.27935624977E-02  0.26842350077E-01  0.51100000000E-03 0.  1.
</event>
<event>
 8    1  0.1170483E+005  0.1043930E+01  0.7957747E-01            NaN
         13   -1    0    0    0    0  0.00000000000E+00  0.00000000000E+00  0.74505805969E-08  0.10566000000E+00  0.10566000000E+00 0.  1.
     999900   -1    0    0    0    0 -0.00000000000E+00 -0.00000000000E+00 -0.74505805969E-08  0.93827000000E+00  0.93827000000E+00 0.  1.
     999902    2    1    2    0    0  0.85180384682E-02 -0.19824779783E-01  0.11445993528E-01  0.10195048154E+01  0.10192121855E+01 0.  0.
     999903    2    3    3    0    0  0.70873083837E-01  0.31164295788E-01  0.10382187176E+00  0.13101095481E+00  0.19765674282E-01 0.  0.
         14    1    1    2    0    0 -0.85180384682E-02  0.19824779783E-01 -0.11445993528E-01  0.24425184557E-01  0.00000000000E+00 0.  1.
     999901    1    3    3    0    0 -0.62355045369E-01 -0.50989075571E-01 -0.92375878228E-01  0.88849386064E+00  0.88000000000E+00 0. -1.
        -11    1    4    4    0    0  0.53677025023E-01  0.25651815731E-01  0.64559874887E-01  0.87792239019E-01  0.51100000000E-03 0. -1.
         11    1    4    4    0    0  0.17196058814E-01  0.55124800567E-02  0.39261996870E-01  0.43218715787E-01  0.51100000000E-03 0.  1.
</event>
<event>
 8    1  0.1170483E+005  0.1043930E+01  0.7957747E-01            NaN
         13   -1    0    0    0    0  0.00000000000E+00  0.00000000000E+00  0.74505805969E-08  0.10566000000E+00  0.10566000000E+00 0.  1.
     999900   -1    0    0    0    0 -0.00000000000E+00 -0.00000000000E+00 -0.74505805969E-08  0.93827000000E+00  0.93827000000E+00 0.  1.
     999902    2    1    2    0    0 -0.51691624056E-02 -0.13041459090E-01 -0.19249691076E-01  0.10201108795E+01  0.10198327588E+01 0.  0.
     999903    2    3    3    0    0 -0.35800322891E-01 -0.58800213204E-01  0.10770335066E+00  0.12929709066E+00  0.19457587633E-01 0.  0.
         14    1    1    2    0    0  0.51691624056E-02  0.13041459090E-01  0.19249691076E-01  0.23819120507E-01  0.00000000000E+00 0.  1.
     999901    1    3    3    0    0  0.30631160485E-01  0.45758754114E-01 -0.12695304174E+00  0.89081378883E+00  0.88000000000E+00 0.  1.
        -11    1    4    4    0    0 -0.20978303957E-01 -0.39763814929E-01  0.52963112487E-01  0.69473754900E-01  0.51100000000E-03 0. -1.
         11    1    4    4    0    0 -0.14822018934E-01 -0.19036398276E-01  0.54740238177E-01  0.59823335758E-01  0.51100000000E-03 0.  1.
</event>
<event>
 8    1  0.1170483E+005  0.1043930E+01  0.7957747E-01            NaN
         13   -1    0    0    0    0  0.00000000000E+00  0.00000000000E+00  0.74505805969E-08  0.10566000000E+00  0.10566000000E+00 0. -1.
     999900   -1    0    0    0    0 -0.00000000000E+00 -0.00000000000E+00 -0.74505805969E-08  0.93827000000E+00  0.93827000000E+00 0.  1.
     999902    2    1    2    0    0 -0.23947577829E-01 -0.15972314611E-02  0.18623065723E-02  0.10198570729E+01  0.10195729220E+01 0.  0.
     999903    2    3    3    0    0 -0.81959348140E-01 -0.10107061777E+00  0.11952456112E-01  0.13229742355E+00  0.20667427217E-01 0.  0.
         14    1    1    2    0    0  0.23947577829E-01  0.15972314611E-02 -0.18623065723E-02  0.24072927076E-01  0.00000000000E+00 0.  1.
     999901    1    3    3    0    0  0.58011770311E-01  0.99473386306E-01 -0.10090149540E-01  0.88755964937E+00  0.88000000000E+00 0.  1.
        -11    1    4    4    0    0 -0.67327327525E-01 -0.71745092721E-01  0.14357992964E-01  0.99432089610E-01  0.51100000000E-03 0. -1.
         11    1    4    4    0    0 -0.14632020614E-01 -0.29325525047E-01 -0.24055368525E-02  0.32865333941E-01  0.51100000000E-03 0.  1.
</event>
<event>
 8    1  0.1170483E+005  0.1043930E+01  0.7957747E-01            NaN
         13   -1    0    0    0    0  0.00000000000E+00  0.00000000000E+00  0.74505805969E-08  0.10566000000E+00  0.10566000000E+00 0. -1.
     999900   -1    0    0    0    0 -0.00000000000E+00 -0.00000000000E+00 -0.74505805969E-08  0.93827000000E+00  0.93827000000E+00 0.  1.
     999902    2    1    2    0    0  0.30316047139E-02  0.16334149840E-01 -0.14082232729E-01  0.10221514703E+01  0.10219194312E+01 0.  0.
     999903    2    3    3    0    0 -0.30884723630E-01  0.12797382134E+00  0.14867450043E-01  0.13397816641E+00  0.19948506251E-01 0.  0.
         14    1    1    2    0    0 -0.30316047139E-02 -0.16334149840E-01  0.14082232729E-01  0.21778529720E-01  0.00000000000E+00 0.  1.
     999901    1    3    3    0    0  0.33916328344E-01 -0.11163967150E+00 -0.28949682772E-01  0.88817330387E+00  0.88000000000E+00 0.  1.
        -11    1    4    4    0    0  0.10131924870E-02  0.28378318074E-01  0.41411656737E-03  0.28404015724E-01  0.51100000000E-03 0.  1.
         11    1    4    4    0    0 -0.31897916117E-01  0.99595503263E-01  0.14453333475E-01  0.10557415068E+00  0.51100000000E-03 0. -1.
</event>
<event>
 8    1  0.1170483E+005  0.1043930E+01  0.7957747E-01            NaN
         13   -1    0    0    0    0  0.00000000000E+00  0.00000000000E+00  0.74505805969E-08  0.10566000000E+00  0.10566000000E+00 0. -1.
     999900   -1    0    0    0    0 -0.00000000000E+00 -0.00000000000E+00 -0.74505805969E-08  0.93827000000E+00  0.93827000000E+00 0.  1.
     999902    2    1    2    0    0  0.21638480133E-01  0.28464879378E-02 -0.11405793747E-01  0.10193044351E+01  0.10190069249E+01 0.  0.
     999903    2    3    3    0    0  0.50747598919E-01  0.24462731200E-01 -0.11758064894E+00  0.13218116145E+00  0.21746411725E-01 0.  0.
         14    1    1    2    0    0 -0.21638480133E-01 -0.28464879378E-02  0.11405793747E-01  0.24625564908E-01  0.00000000000E+00 0. -1.
     999901    1    3    3    0    0 -0.29109118786E-01 -0.21616243263E-01  0.10617485519E+00  0.88712327365E+00  0.88000000000E+00 0. -1.
        -11    1    4    4    0    0  0.28683244309E-01  0.24661690524E-01 -0.65937996534E-01  0.76019786842E-01  0.51100000000E-03 0.  1.
         11    1    4    4    0    0  0.22064354610E-01 -0.19895932397E-03 -0.51642652403E-01  0.56161374604E-01  0.51100000000E-03 0. -1.
</event>
<event>
 8    1  0.1170483E+005  0.1043930E+01  0.7957747E-01            NaN
         13   -1    0    0    0    0  0.00000000000E+00  0.00000000000E+00  0.74505805969E-08  0.10566000000E+00  0.10566000000E+00 0.  1.
     999900   -1    0    0    0    0 -0.00000000000E+00 -0.00000000000E+00 -0.74505805969E-08  0.93827000000E+00  0.93827000000E+00 0.  1.
     999902    2    1    2    0    0  0.42149191685E-02 -0.17262850733E-01 -0.16082136736E-01  0.10199632171E+01  0.10196815962E+01 0.  0.
     999903    2    3    3    0    0 -0.91184472176E-01 -0.38707771099E-01  0.80672285822E-01  0.12927677019E+00  0.19788029264E-01 0.  0.
         14    1    1    2    0    0 -0.42149191685E-02  0.17262850733E-01  0.16082136736E-01  0.23966782868E-01  0.00000000000E+00 0.  1.
     999901    1    3    3    0    0  0.95399391344E-01  0.21444920366E-01 -0.96754422558E-01  0.89068644694E+00  0.88000000000E+00 0.  1.
        -11    1    4    4    0    0 -0.49478445614E-01 -0.27648181706E-01  0.35892760786E-01  0.67090162691E-01  0.51100000000E-03 0.  1.
         11    1    4    4    0    0 -0.41706026562E-01 -0.11059589393E-01  0.44779525036E-01  0.62186607501E-01  0.51100000000E-03 0. -1.
</event>
<event>
 8    1  0.1170483E+005  0.1043930E+01  0.7957747E-01            NaN
         13   -1    0    0    0    0  0.00000000000E+00  0.00000000000E+00  0.74505805969E-08  0.10566000000E+00  0.10566000000E+00 0.  1.
     999900   -1    0    0    0    0 -0.00000000000E+00 -0.00000000000E+00 -0.74505805969E-08  0.93827000000E+00  0.93827000000E+00 0. -1.
     999902    2    1    2    0    0 -0.16061477696E-01  0.15401558172E-01 -0.10759355597E-01  0.10192127430E+01  0.10189129859E+01 0.  0.
     999903    2    3    3    0    0 -0.73797335823E-01 -0.37977650499E-01 -0.99620419456E-01  0.13124931027E+00  0.20342191643E-01 0.  0.
         14    1    1    2    0    0  0.16061477696E-01 -0.15401558172E-01  0.10759355597E-01  0.24717256983E-01  0.00000000000E+00 0.  1.
     999901    1    3    3    0    0  0.57735858127E-01  0.53379208671E-01  0.88861063859E-01  0.88796343275E+00  0.88000000000E+00 0.  1.
        -11    1    4    4    0    0 -0.45077033359E-01 -0.16740403432E-01 -0.69546287898E-01  0.84552512233E-01  0.51100000000E-03 0.  1.
         11    1    4    4    0    0 -0.28720302463E-01 -0.21237247067E-01 -0.30074131558E-01  0.46696798033E-01  0.51100000000E-03 0. -1.
</event>
<event>
 8    1  0.1170483E+005  0.1043930E+01  0.7957747E-01            NaN
         13   -1    0    0    0    0  0.00000000000E+00  0.00000000000E+00  0.74505805969E-08  0.10566000000E+00  0.10566000000E+00 0.  1.
     999900   -1    0    0    0    0 -0.00000000000E+00 -0.00000000000E+00 -0.74505805969E-08  0.93827000000E+00  0.93827000000E+00 0. -1.
     999902    2    1    2    0    0  0.16358081554E-01  0.52689164855E-02  0.19767256286E-01  0.10177366281E+01  0.10173995043E+01 0.  0.
     999903    2    3    3    0    0 -0.35588727424E-01 -0.86132376896E-01 -0.81659539989E-01  0.12569399320E+00  0.21103449598E-01 0.  0.
         14    1    1    2    0    0 -0.16358081554E-01 -0.52689164855E-02 -0.19767256286E-01  0.26193371950E-01  0.00000000000E+00 0. -1.
     999901    1    3    3    0    0  0.51946808978E-01  0.91401293382E-01  0.10142679627E+00  0.89204263485E+00  0.88000000000E+00 0.  1.
        -11    1    4    4    0    0 -0.35699896406E-01 -0.66447808711E-01 -0.69381376457E-01  0.10248819642E+00  0.51100000000E-03 0. -1.
         11    1    4    4    0    0  0.11116898127E-03 -0.19684568185E-01 -0.12278163531E-01  0.23205796773E-01  0.51100000000E-03 0.  1.
</event>
<event>
 8    1  0.1170483E+005  0.1043930E+01  0.7957747E-01            NaN
         13   -1    0    0    0    0  0.00000000000E+00  0.00000000000E+00  0.74505805969E-08  0.10566000000E+00  0.10566000000E+00 0.  1.
     999900   -1    0    0    0    0 -0.00000000000E+00 -0.00000000000E+00 -0.74505805969E-08  0.93827000000E+00  0.93827000000E+00 0.  1.
     999902    2    1    2    0    0  0.18161445739E-01 -0.45472394026E-02  0.12620822536E-01  0.10213512343E+01  0.10211016322E+01 0.  0.
     999903    2    3    3    0    0  0.12441855111E+00  0.44617843510E-01  0.10643855351E-02  0.13352167352E+00  0.18872640573E-01 0.  0.
         14    1    1    2    0    0 -0.18161445739E-01  0.45472394026E-02 -0.12620822536E-01  0.22578765666E-01  0.00000000000E+00 0. -1.
     999901    1    3    3    0    0 -0.10625710537E+00 -0.49165082913E-01  0.11556437001E-01  0.88782956081E+00  0.88000000000E+00 0. -1.
        -11    1    4    4    0    0  0.45793130137E-01  0.76792764492E-02  0.39422883942E-02  0.46602412098E-01  0.51100000000E-03 0.  1.
         11    1    4    4    0    0  0.78625420976E-01  0.36938567061E-01 -0.28779028591E-02  0.86919261421E-01  0.51100000000E-03 0. -1.
</event>
<event>
 8    1  0.1170483E+005  0.1043930E+01  0.7957747E-01            NaN
         13   -1    0    0    0    0  0.00000000000E+00  0.00000000000E+00  0.74505805969E-08  0.10566000000E+00  0.10566000000E+00 0.  1.
     999900   -1    0    0    0    0 -0.00000000000E+00 -0.00000000000E+00 -0.74505805969E-08  0.93827000000E+00  0.93827000000E+00 0. -1.
     999902    2    1    2    0    0 -0.21292305535E-01  0.94278175788E-02 -0.27363134170E-02  0.10204836052E+01  0.10202142201E+01 0.  0.
     999903    2    3    3    0    0  0.16041708780E-01 -0.10936385443E-01  0.12679990727E+00  0.12998477763E+00  0.20997261354E-01 0.  0.
         14    1    1    2    0    0  0.21292305535E-01 -0.94278175788E-02  0.27363134170E-02  0.23446394827E-01  0.00000000000E+00 0. -1.
     999901    1    3    3    0    0 -0.37334014315E-01  0.20364203022E-01 -0.12953622069E+00  0.89049882755E+00  0.88000000000E+00 0. -1.
        -11    1    4    4    0    0  0.11969181318E-01 -0.15019440690E-01  0.61555147966E-01  0.64483658877E-01  0.51100000000E-03 0.  1.
         11    1    4    4    0    0  0.40725274619E-02  0.40830552470E-02  0.65244759303E-01  0.65501118750E-01  0.51100000000E-03 0. -1.
</event>
<event>
 8    1  0.1170483E+005  0.1043930E+01  0.7957747E-01            NaN
         13   -1    0    0    0    0  0.00000000000E+00  0.00000000000E+00  0.74505805969E-08  0.10566000000E+00  0.10566000000E+00 0.  1.
     999900   -1    0    0    0    0 -0.00000000000E+00 -0.00000000000E+00 -0.74505805969E-08  0.93827000000E+00  0.93827000000E+00 0.  1.
     999902    2    1    2    0    0 -0.75765589625E-02 -0.25075460258E-01 -0.17357746069E-01  0.10125058962E+01  0.10120181399E+01 0.  0.
     999903    2    3    3    0    0 -0.34072073319E-02 -0.30310909160E-01 -0.12084135086E+00  0.12641693344E+00  0.21171884781E-01 0.  0.
         14    1    1    2    0    0  0.75765589625E-02  0.25075460258E-01  0.17357746069E-01  0.31424103829E-01  0.00000000000E+00 0. -1.
     999901    1    3    3    0    0 -0.41693516306E-02  0.52354489018E-02  0.10348360479E+00  0.88608896273E+00  0.88000000000E+00 0. -1.
        -11    1    4    4    0    0 -0.11197348696E-01 -0.22701520907E-01 -0.70489463713E-01  0.74898366370E-01  0.51100000000E-03 0.  1.
         11    1    4    4    0    0  0.77901413639E-02 -0.76093882534E-02 -0.50351887150E-01  0.51518567067E-01  0.51100000000E-03 0. -1.
</event>
<event>
 8    1  0.1170483E+005  0.1043930E+01  0.7957747E-01            NaN
         13   -1    0    0    0    0  0.00000000000E+00  0.00000000000E+00  0.74505805969E-08  0.10566000000E+00  0.10566000000E+00 0. -1.
     999900   -1    0    0    0    0 -0.00000000000E+00 -0.00000000000E+00 -0.74505805969E-08  0.93827000000E+00  0.93827000000E+00 0. -1.
     999902    2    1    2    0    0  0.68698573387E-02 -0.96530865994E-02  0.20658665079E-01  0.10201149320E+01  0.10198369071E+01 0.  0.
     999903    2    3    3    0    0  0.65745401966E-01 -0.22859958799E-02 -0.10851231281E+00  0.12870832147E+00  0.21522693320E-01 0.  0.
         14    1    1    2    0    0 -0.68698573387E-02  0.96530865994E-02 -0.20658665079E-01  0.23815067995E-01  0.00000000000E+00 0.  1.
     999901    1    3    3    0    0 -0.58875544627E-01 -0.73670907195E-02  0.12917097789E+00  0.89140661054E+00  0.88000000000E+00 0.  1.
        -11    1    4    4    0    0  0.20706838105E-01  0.91734315260E-02 -0.38624316637E-01  0.44777493755E-01  0.51100000000E-03 0. -1.
         11    1    4    4    0    0  0.45038563861E-01 -0.11459427406E-01 -0.69887996169E-01  0.83930827713E-01  0.51100000000E-03 0.  1.
</event>
<event>
 8    1  0.1170483E+005  0.1043930E+01  0.7957747E-01            NaN
         13   -1    0    0    0    0  0.00000000000E+00  0.00000000000E+00  0.74505805969E-08  0.10566000000E+00  0.10566000000E+00 0.  1.
     999900   -1    0    0    0    0 -0.00000000000E+00 -0.00000000000E+00 -0.74505805969E-08  0.93827000000E+00  0.93827000000E+00 0. -1.
     999902    2    1    2    0    0  0.16085570262E-01  0.49569559028E-02  0.12869691192E-01  0.10227416557E+01  0.10225221506E+01 0.  0.
     999903    2    3    3    0    0  0.23709371071E-02 -0.86495647643E-01 -0.96161749904E-01  0.13120392515E+00  0.21915050226E-01 0.  0.
         14    1    1    2    0    0 -0.16085570262E-01 -0.49569559028E-02 -0.12869691192E-01  0.21188344293E-01  0.00000000000E+00 0. -1.
     999901    1    3    3    0    0  0.13714633155E-01  0.91452603546E-01  0.10903144110E+00  0.89153773056E+00  0.88000000000E+00 0.  1.
        -11    1    4    4    0    0  0.29871185429E-02 -0.44236647428E-01 -0.65036588582E-01  0.78713549204E-01  0.51100000000E-03 0.  1.
         11    1    4    4    0    0 -0.61618143584E-03 -0.42259000215E-01 -0.31125161322E-01  0.52490375947E-01  0.51100000000E-03 0. -1.
</event>
<event>
 8    1  0.1170483E+005  0.1043930E+01  0.7957747E-01            NaN
         13   -1    0    0    0    0  0.00000000000E+00  0.00000000000E+00  0.74505805969E-08  0.10566000000E+00  0.10566000000E+00 0.  1.
     999900   -1    0    0    0    0 -0.00000000000E+00 -0.00000000000E+00 -0.74505805969E-08  0.93827000000E+00  0.93827000000E+00 0. -1.
     999902    2    1    2    0    0 -0.18571562466E-01 -0.10496280474E-01  0.95627154391E-02  0.10205522250E+01  0.10202844327E+01 0.  0.
     999903    2    3    3    0    0 -0.12913784968E+00 -0.18669664498E-01 -0.13021239639E-01  0.13330832220E+00  0.24008654570E-01 0.  0.
         14    1    1    2    0    0  0.18571562466E-01  0.10496280474E-01 -0.95627154391E-02  0.23377774975E-01  0.00000000000E+00 0. -1.
     999901    1    3    3    0    0  0.11056628721E+00  0.81733840240E-02  0.22583955078E-01  0.88724390283E+00  0.88000000000E+00 0.  1.
        -11    1    4    4    0    0 -0.60583579820E-01  0.17606511203E-02 -0.79023779733E-04  0.60611363637E-01  0.51100000000E-03 0.  1.
         11    1    4    4    0    0 -0.68554269856E-01 -0.20430315618E-01 -0.12942215859E-01  0.72696958562E-01  0.51100000000E-03 0. -1.
</event>
<event>
 8    1  0.1170483E+005  0.1043930E+01  0.7957747E-01            NaN
         13   -1    0    0    0    0  0.00000000000E+00  0.00000000000E+00  0.74505805969E-08  0.10566000000E+00  0.10566000000E+00 0. -1.
     999900   -1    0    0    0    0 -0.00000000000E+00 -0.00000000000E+00 -0.74505805969E-08  0.93827000000E+00  0.93827000000E+00 0.  1.
     999902    2    1    2    0    0 -0.21416496208E-01  0.44437409262E-02 -0.12066278902E-01  0.10189498433E+01  0.10186435956E+01 0.  0.
     999903    2    3    3    0    0  0.42056325176E-02 -0.11765819220E+00  0.46686601740E-01  0.12821010770E+00  0.19926248984E-01 0.  0.
         14    1    1    2    0    0  0.21416496208E-01 -0.44437409262E-02  0.12066278902E-01  0.24980156720E-01  0.00000000000E+00 0. -1.
     999901    1    3    3    0    0 -0.25622128725E-01  0.12210193312E+00 -0.58752880642E-01  0.89073973558E+00  0.88000000000E+00 0.  1.
        -11    1    4    4    0    0 -0.17244692191E-02 -0.17589581883E-01  0.13173900502E-03  0.17681788967E-01  0.51100000000E-03 0. -1.
         11    1    4    4    0    0  0.59301017367E-02 -0.10006861032E+00  0.46554862735E-01  0.11052831874E+00  0.51100000000E-03 0.  1.
</event>
<event>
 8    1  0.1170483E+005  0.1043930E+01  0.7957747E-01            NaN
         13   -1    0    0    0    0  0.00000000000E+00  0.00000000000E+00  0.74505805969E-08  0.10566000000E+00  0.10566000000E+00 0.  1.
     999900   -1    0    0    0    0 -0.00000000000E+00 -0.00000000000E+00 -0.74505805969E-08  0.93827000000E+00  0.93827000000E+00 0. -1.
     999902    2    1    2    0    0  0.60295017587E-02 -0.11308833698E-01  0.20740318760E-01  0.10195495686E+01  0.10192580230E+01 0.  0.
     999903    2    3    3    0    0 -0.63308291931E-01 -0.26974760566E-01 -0.10590799767E+00  0.12764545555E+00  0.18473787262E-01 0.  0.
         14    1    1    2    0    0 -0.60295017587E-02  0.11308833698E-01 -0.20740318760E-01  0.24380431361E-01  0.00000000000E+00 0. -1.
     999901    1    3    3    0    0  0.69337793689E-01  0.15665926868E-01  0.12664831643E+00  0.89190411309E+00  0.88000000000E+00 0.  1.
        -11    1    4    4    0    0 -0.16445212857E-01 -0.58177585688E-03 -0.34691405391E-01  0.38399716380E-01  0.51100000000E-03 0. -1.
         11    1    4    4    0    0 -0.46863079073E-01 -0.26392984709E-01 -0.71216592281E-01  0.89245739166E-01  0.51100000000E-03 0.  1.
</event>
<event>
 8    1  0.1170483E+005  0.1043930E+01  0.7957747E-01            NaN
         13   -1    0    0    0    0  0.00000000000E+00  0.00000000000E+00  0.74505805969E-08  0.10566000000E+00  0.10566000000E+00 0. -1.
     999900   -1    0    0    0    0 -0.00000000000E+00 -0.00000000000E+00 -0.74505805969E-08  0.93827000000E+00  0.93827000000E+00 0. -1.
     999902    2    1    2    0    0 -0.19314626481E-01 -0.52497211381E-02 -0.57702751611E-02  0.10230994829E+01  0.10228874041E+01 0.  0.
     999903    2    3    3    0    0 -0.65418457080E-01 -0.94842923240E-01  0.66200375988E-01  0.13443065835E+00  0.20355773343E-01 0.  0.
         14    1    1    2    0    0  0.19314626481E-01  0.52497211381E-02  0.57702751611E-02  0.20830517122E-01  0.00000000000E+00 0. -1.
     999901    1    3    3    0    0  0.46103830598E-01  0.89593202102E-01 -0.71970651149E-01  0.88866882453E+00  0.88000000000E+00 0. -1.
        -11    1    4    4    0    0 -0.52885028710E-01 -0.74606549884E-01  0.61377778237E-01  0.11013835086E+00  0.51100000000E-03 0.  1.
         11    1    4    4    0    0 -0.12533428370E-01 -0.20236373356E-01  0.48225977503E-02  0.24292307494E-01  0.51100000000E-03 0. -1.
</event>
<event>
 8    1  0.1170483E+005  0.1043930E+01  0.7957747E-01            NaN
         13   -1    0    0    0    0  0.00000000000E+00  0.00000000000E+00  0.74505805969E-08  0.10566000000E+00  0.10566000000E+00 0. -1.
     999900   -1    0    0    0    0 -0.00000000000E+00 -0.00000000000E+00 -0.74505805969E-08  0.93827000000E+00  0.93827000000E+00 0.  1.
     999902    2    1    2    0    0  0.55951858256E-02 -0.17056389523E-01 -0.14883223406E-01  0.10206118340E+01  0.10203454213E+01 0.  0.
     999903    2    3    3    0    0  0.44932235372E-01  0.10904172406E+00  0.47496022503E-01  0.12856962195E+00  0.19112094895E-01 0.  0.
         14    1    1    2    0    0 -0.55951858256E-02  0.17056389523E-01  0.14883223406E-01  0.23318166028E-01  0.00000000000E+00 0. -1.
     999901    1    3    3    0    0 -0.39337049547E-01 -0.12609811359E+00 -0.62379245909E-01  0.89204221203E+00  0.88000000000E+00 0.  1.
        -11    1    4    4    0    0  0.42130671212E-01  0.81564448541E-01  0.38009921126E-01  0.99361803262E-01  0.51100000000E-03 0. -1.
         11    1    4    4    0    0  0.28015641605E-02  0.27477275523E-01  0.94861013774E-02  0.29207818683E-01  0.51100000000E-03 0.  1.
</event>
<event>
 8    1  0.1170483E+005  0.1043930E+01  0.7957747E-01            NaN
         13   -1    0    0    0    0  0.00000000000E+00  0.00000000000E+00  0.74505805969E-08  0.10566000000E+00  0.10566000000E+00 0. -1.
     999900   -1    0    0    0    0 -0.00000000000E+00 -0.00000000000E+00 -0.74505805969E-08  0.93827000000E+00  0.93827000000E+00 0.  1.
     999902    2    1    2    0    0  0.15814208583E-01  0.23144461579E-02  0.17703144883E-01  0.10200794823E+01  0.10198006193E+01 0.  0.
     999903    2    3    3    0    0  0.83230503353E-01 -0.26928004290E-01 -0.94039456693E-01  0.12997472068E+00  0.19939270251E-01 0.  0.
         14    1    1    2    0    0 -0.15814208583E-01 -0.23144461579E-02 -0.17703144883E-01  0.23850517665E-01  0.00000000000E+00 0.  1.
     999901    1    3    3    0    0 -0.67416294770E-01  0.29242450448E-01  0.11174260158E+00  0.89010476165E+00  0.88000000000E+00 0.  1.
        -11    1    4    4    0    0  0.39229549470E-01 -0.10046410979E-01 -0.57538866684E-01  0.70362420549E-01  0.51100000000E-03 0. -1.
         11    1    4    4    0    0  0.44000953883E-01 -0.16881593311E-01 -0.36500590009E-01  0.59612300135E-01  0.51100000000E-03 0.  1.
</event>
<event>
 8    1  0.1170483E+005  0.1043930E+01  0.7957747E-01            NaN
         13   -1    0    0    0    0  0.00000000000E+00  0.00000000000E+00  0.74505805969E-08  0.10566000000E+00  0.10566000000E+00 0. -1.
     999900   -1    0    0    0    0 -0.00000000000E+00 -0.00000000000E+00 -0.74505805969E-08  0.93827000000E+00  0.93827000000E+00 0. -1.
     999902    2    1    2    0    0 -0.12502077650E-01 -0.15440451429E-01  0.11351014922E-01  0.10210486752E+01  0.10207922619E+01 0.  0.
     999903    2    3    3    0    0  0.10387106945E+00 -0.59188102431E-01 -0.48020183438E-01  0.13032901921E+00  0.19679550116E-01 0.  0.
         14    1    1    2    0    0  0.12502077650E-01  0.15440451429E-01 -0.11351014922E-01  0.22881324823E-01  0.00000000000E+00 0.  1.
     999901    1    3    3    0    0 -0.11637314710E+00  0.43747651002E-01  0.59371198361E-01  0.89071965597E+00  0.88000000000E+00 0.  1.
        -11    1    4    4    0    0  0.66380841755E-01 -0.48290479273E-01 -0.31293632410E-01  0.87851801864E-01  0.51100000000E-03 0.  1.
         11    1    4    4    0    0  0.37490227693E-01 -0.10897623159E-01 -0.16726551029E-01  0.42477217344E-01  0.51100000000E-03 0. -1.
</event>
<event>
 8    1  0.1170483E+005  0.1043930E+01  0.7957747E-01            NaN
         13   -1    0    0    0    0  0.00000000000E+00  0.00000000000E+00  0.74505805969E-08  0.10566000000E+00  0.10566000000E+00 0.  1.
     999900   -1    0    0    0    0 -0.00000000000E+00 -0.00000000000E+00 -0.74505805969E-08  0.93827000000E+00  0.93827000000E+00 0. -1.
     999902    2    1    2    0    0 -0.15905704129E-01 -0.63150979415E-02 -0.16227010774E-01  0.10203463666E+01  0.10200737817E+01 0.  0.
     999903    2    3    3    0    0 -0.75571428792E-01  0.14392301032E-01 -0.10714923793E+00  0.13341026604E+00  0.19979006927E-01 0.  0.
         14    1    1    2    0    0  0.15905704129E-01  0.63150979415E-02  0.16227010774E-01  0.23583633403E-01  0.00000000000E+00 0.  1.
     999901    1    3    3    0    0  0.59665724663E-01 -0.20707398974E-01  0.90922227159E-01  0.88693610055E+00  0.88000000000E+00 0.  1.
        -11    1    4    4    0    0 -0.56858690106E-01  0.83470969418E-02 -0.92435584158E-01  0.10884476564E+00  0.51100000000E-03 0. -1.
         11    1    4    4    0    0 -0.18712738686E-01  0.60452040904E-02 -0.14713653774E-01  0.24565500402E-01  0.51100000000E-03 0.  1.
</event>
<event>
 8    1  0.1170483E+005  0.1043930E+01  0.7957747E-01            NaN
         13   -1    0    0    0    0  0.00000000000E+00  0.00000000000E+00  0.74505805969E-08  0.10566000000E+00  0.10566000000E+00 0. -1.
     999900   -1    0    0    0    0 -0.00000000000E+00 -0.00000000000E+00 -0.74505805969E-08  0.93827000000E+00  0.93827000000E+00 0.  1.
     999902    2    1    2    0    0  0.30651951407E-02 -0.23621601751E-01 -0.12519941904E-02  0.10200774743E+01  0.10197985638E+01 0.  0.
     999903    2    3    3    0    0 -0.96064852544E-01 -0.79935382234E-02 -0.85951623498E-01  0.13033311223E+00  0.17512453075E-01 0.  0.
         14    1    1    2    0    0 -0.30651951407E-02  0.23621601751E-01  0.12519941904E-02  0.23852525653E-01  0.00000000000E+00 0.  1.
     999901    1    3    3    0    0  0.99130047685E-01 -0.15628063528E-01  0.84699629308E-01  0.88974436212E+00  0.88000000000E+00 0. -1.
        -11    1    4    4    0    0 -0.83239265652E-01 -0.65195935254E-02 -0.65409813388E-01  0.10606594767E+00  0.51100000000E-03 0.  1.
         11    1    4    4    0    0 -0.12825586892E-01 -0.14739446980E-02 -0.20541810110E-01  0.24267164559E-01  0.51100000000E-03 0. -1.
</event>
<event>
 8    1  0.1170483E+005  0.1043930E+01  0.7957747E-01            NaN
         13   -1    0    0    0    0  0.00000000000E+00  0.00000000000E+00  0.74505805969E-08  0.10566000000E+00  0.10566000000E+00 0.  1.
     999900   -1    0    0    0    0 -0.00000000000E+00 -0.00000000000E+00 -0.74505805969E-08  0.93827000000E+00  0.93827000000E+00 0. -1.
     999902    2    1    2    0    0 -0.62015727747E-02  0.13616071830E-01 -0.15106795093E-01  0.10226680110E+01  0.10224469613E+01 0.  0.
     999903    2    3    3    0    0 -0.81714001308E-01  0.75811769023E-01 -0.74222746287E-01  0.13527569232E+00  0.19128369907E-01 0.  0.
         14    1    1    2    0    0  0.62015727747E-02 -0.13616071830E-01  0.15106795093E-01  0.21261988970E-01  0.00000000000E+00 0.  1.
     999901    1    3    3    0    0  0.75512428533E-01 -0.62195697193E-01  0.59115951194E-01  0.88739231871E+00  0.88000000000E+00 0. -1.
        -11    1    4    4    0    0 -0.19337636915E-01  0.28136289002E-01 -0.17131829922E-01  0.38201514077E-01  0.51100000000E-03 0.  1.
         11    1    4    4    0    0 -0.62376364393E-01  0.47675480021E-01 -0.57090916365E-01  0.97074178248E-01  0.51100000000E-03 0. -1.
</event>
<event>
 8    1  0.1170483E+005  0.1043930E+01  0.7957747E-01            NaN
         13   -1    0    0    0    0  0.00000000000E+00  0.00000000000E+00  0.74505805969E-08  0.10566000000E+00  0.10566000000E+00 0. -1.
     999900   -1    0    0    0    0 -0.00000000000E+00 -0.00000000000E+00 -0.74505805969E-08  0.93827000000E+00  0.93827000000E+00 0.  1.
     999902    2    1    2    0    0 -0.24996826813E-01  0.18032974927E-02  0.70490768324E-02  0.10178957396E+01  0.10175627518E+01 0.  0.
     999903    2    3    3    0    0 -0.12608364421E+00 -0.21244276935E-01  0.25031699087E-01  0.13162653100E+00  0.18723062367E-01 0.  0.
         14    1    1    2    0    0  0.24996826813E-01 -0.18032974927E-02 -0.70490768324E-02  0.26034260441E-01  0.00000000000E+00 0.  1.
     999901    1    3    3    0    0  0.10108681740E+00  0.23047574427E-01 -0.17982622255E-01  0.88626920856E+00  0.88000000000E+00 0.  1.
        -11    1    4    4    0    0 -0.39813758944E-01 -0.10671632362E-02  0.10772903130E-02  0.39845902098E-01  0.51100000000E-03 0. -1.
         11    1    4    4    0    0 -0.86269885264E-01 -0.20177113698E-01  0.23954408774E-01  0.91780628900E-01  0.51100000000E-03 0.  1.
</event>
<event>
 8    1  0.1170483E+005  0.1043930E+01  0.7957747E-01            NaN
         13   -1    0    0    0    0  0.00000000000E+00  0.00000000000E+00  0.74505805969E-08  0.10566000000E+00  0.10566000000E+00 0. -1.
     999900   -1    0    0    0    0 -0.00000000000E+00 -0.00000000000E+00 -0.74505805969E-08  0.93827000000E+00  0.93827000000E+00 0.  1.
     999902    2    1    2    0    0  0.98961351430E-02 -0.23644295862E-01 -0.45122932494E-03  0.10182942861E+01  0.10179715435E+01 0.  0.
     999903    2    3    3    0    0 -0.85229641723E-01  0.76267526748E-01  0.48831764642E-01  0.12618437182E+00  0.21380528268E-01 0.  0.
         14    1    1    2    0    0 -0.98961351430E-02  0.23644295862E-01  0.45122932494E-03  0.25635713867E-01  0.00000000000E+00 0. -1.
     999901    1    3    3    0    0  0.95125776866E-01 -0.99911822610E-01 -0.49282993967E-01  0.89210991431E+00  0.88000000000E+00 0.  1.
        -11    1    4    4    0    0 -0.34516103839E-01  0.21760324287E-01  0.91580648198E-02  0.41821100051E-01  0.51100000000E-03 0. -1.
         11    1    4    4    0    0 -0.50713537884E-01  0.54507202461E-01  0.39673699822E-01  0.84363271768E-01  0.51100000000E-03 0.  1.
</event>
<event>
 8    1  0.1170483E+005  0.1043930E+01  0.7957747E-01            NaN
         13   -1    0    0    0    0  0.00000000000E+00  0.00000000000E+00  0.74505805969E-08  0.10566000000E+00  0.10566000000E+00 0.  1.
     999900   -1    0    0    0    0 -0.00000000000E+00 -0.00000000000E+00 -0.74505805969E-08  0.93827000000E+00  0.93827000000E+00 0. -1.
     999902    2    1    2    0    0  0.11205156436E-01 -0.15334095348E-01 -0.14550947485E-01  0.10200046978E+01  0.10197240624E+01 0.  0.
     999903    2    3    3    0    0  0.10311091315E+00 -0.77866545444E-01 -0.23483450580E-01  0.13296649965E+00  0.20822062050E-01 0.  0.
         14    1    1    2    0    0 -0.11205156436E-01  0.15334095348E-01  0.14550947485E-01  0.23925302163E-01  0.00000000000E+00 0. -1.
     999901    1    3    3    0    0 -0.91905756713E-01  0.62532450096E-01  0.89325030946E-02  0.88703819819E+00  0.88000000000E+00 0. -1.
        -11    1    4    4    0    0  0.20085061966E-01 -0.69535275333E-02 -0.78519031874E-02  0.22664394190E-01  0.51100000000E-03 0.  1.
         11    1    4    4    0    0  0.83025851184E-01 -0.70913017911E-01 -0.15631547393E-01  0.11030210546E+00  0.51100000000E-03 0. -1.
</event>
<event>
 8    1  0.1170483E+005  0.1043930E+01  0.7957747E-01            NaN
         13   -1    0    0    0    0  0.00000000000E+00  0.00000000000E+00  0.74505805969E-08  0.10566000000E+00  0.10566000000E+00 0. -1.
     999900   -1    0    0    0    0 -0.00000000000E+00 -0.00000000000E+00 -0.74505805969E-08  0.93827000000E+00  0.93827000000E+00 0.  1.
     999902    2    1    2    0    0  0.22358947003E-01  0.85290594339E-02  0.16038081369E-02  0.10199458476E+01  0.10196638135E+01 0.  0.
     999903    2    3    3    0    0 -0.97687073633E-01  0.75872590793E-01  0.30376670062E-01  0.12878139820E+00  0.19039223981E-01 0.  0.
         14    1    1    2    0    0 -0.22358947003E-01 -0.85290594339E-02 -0.16038081369E-02  0.23984152402E-01  0.00000000000E+00 0.  1.
     999901    1    3    3    0    0  0.12004602064E+00 -0.67343531359E-01 -0.28772861925E-01  0.89116444940E+00  0.88000000000E+00 0. -1.
        -11    1    4    4    0    0 -0.81601441879E-01  0.71030696614E-01  0.24081183194E-01  0.11083465019E+00  0.51100000000E-03 0. -1.
         11    1    4    4    0    0 -0.16085631754E-01  0.48418941788E-02  0.62954868679E-02  0.17946748008E-01  0.51100000000E-03 0.  1.
</event>
<event>
 8    1  0.1170483E+005  0.1043930E+01  0.7957747E-01            NaN
         13   -1    0    0    0    0  0.00000000000E+00  0.00000000000E+00  0.74505805969E-08  0.10566000000E+00  0.10566000000E+00 0. -1.
     999900   -1    0    0    0    0 -0.00000000000E+00 -0.00000000000E+00 -0.74505805969E-08  0.93827000000E+00  0.93827000000E+00 0.  1.
     999902    2    1    2    0    0  0.17788391827E-01  0.11186482503E-01  0.11684474894E-01  0.10198864722E+01  0.10196030232E+01 0.  0.
     999903    2    3    3    0    0  0.36024221248E-01  0.89603893678E-01 -0.86009875571E-01  0.13082740671E+00  0.19786595770E-01 0.  0.
         14    1    1    2    0    0 -0.17788391827E-01 -0.11186482503E-01 -0.11684474894E-01  0.24043527781E-01  0.00000000000E+00 0. -1.
     999901    1    3    3    0    0 -0.18235829421E-01 -0.78417411175E-01  0.97694350465E-01  0.88905906551E+00  0.88000000000E+00 0. -1.
        -11    1    4    4    0    0  0.24188290219E-01  0.65966361966E-01 -0.73138824456E-01  0.10142082162E+00  0.51100000000E-03 0.  1.
         11    1    4    4    0    0  0.11835931029E-01  0.23637531712E-01 -0.12871051115E-01  0.29406585088E-01  0.51100000000E-03 0. -1.
</event>
<event>
 8    1  0.1170483E+005  0.1043930E+01  0.7957747E-01            NaN
         13   -1    0    0    0    0  0.00000000000E+00  0.00000000000E+00  0.74505805969E-08  0.10566000000E+00  0.10566000000E+00 0.  1.
     999900   -1    0    0    0    0 -0.00000000000E+00 -0.00000000000E+00 -0.74505805969E-08  0.93827000000E+00  0.93827000000E+00 0.  1.
     999902    2    1    2    0    0 -0.12035977369E-01  0.62518867784E-02  0.19398451483E-01  0.10202603832E+01  0.10199857836E+01 0.  0.
     999903    2    3    3    0    0  0.79274941605E-01  0.92973309831E-01 -0.37309142481E-01  0.12948878489E+00  0.21138131250E-01 0.  0.
         14    1    1    2    0    0  0.12035977369E-01 -0.62518867784E-02 -0.19398451483E-01  0.23669616800E-01  0.00000000000E+00 0. -1.
     999901    1    3    3    0    0 -0.91310918974E-01 -0.86721423052E-01  0.56707593964E-01  0.89077159831E+00  0.88000000000E+00 0.  1.
        -11    1    4    4    0    0  0.68355335144E-01  0.67043871733E-01 -0.26527301236E-01  0.99354372885E-01  0.51100000000E-03 0.  1.
         11    1    4    4    0    0  0.10919606460E-01  0.25929438098E-01 -0.10781841245E-01  0.30134412006E-01  0.51100000000E-03 0. -1.
</event>
<event>
 8    1  0.1170483E+005  0.1043930E+01  0.7957747E-01            NaN
         13   -1    0    0    0    0  0.00000000000E+00  0.00000000000E+00  0.74505805969E-08  0.10566000000E+00  0.10566000000E+00 0.  1.
     999900   -1    0    0    0    0 -0.00000000000E+00 -0.00000000000E+00 -0.74505805969E-08  0.93827000000E+00  0.93827000000E+00 0.  1.
     999902    2    1    2    0    0  0.84918816786E-02 -0.10668328706E-02 -0.21951018017E-01  0.10203694954E+01  0.10200974511E+01 0.  0.
     999903    2    3    3    0    0  0.11595663692E+00 -0.59263426459E-01 -0.14817307582E-02  0.13168816392E+00  0.19531554737E-01 0.  0.
         14    1    1    2    0    0 -0.84918816786E-02  0.10668328706E-02  0.21951018017E-01  0.23560504638E-01  0.00000000000E+00 0.  1.
     999901    1    3    3    0    0 -0.10746475524E+00  0.58196593589E-01 -0.20469287259E-01  0.88868133144E+00  0.88000000000E+00 0.  1.
        -11    1    4    4    0    0  0.23050688078E-01 -0.15984991497E-01  0.67787633431E-02  0.28862898806E-01  0.51100000000E-03 0.  1.
         11    1    4    4    0    0  0.92905948841E-01 -0.43278434962E-01 -0.82604941013E-02  0.10282526512E+00  0.51100000000E-03 0. -1.
</event>
<event>
 8    1  0.1170483E+005  0.1043930E+01  0.7957747E-01            NaN
         13   -1    0    0    0    0  0.00000000000E+00  0.00000000000E+00  0.74505805969E-08  0.10566000000E+00  0.10566000000E+00 0. -1.
     999900   -1    0    0    0    0 -0.00000000000E+00 -0.00000000000E+00 -0.74505805969E-08  0.93827000000E+00  0.93827000000E+00 0. -1.
     999902    2    1    2    0    0  0.50413335881E-02  0.18920805092E-01 -0.12251260553E-01  0.10208322665E+01  0.10205709240E+01 0.  0.
     999903    2    3    3    0    0  0.62355805795E-01  0.11472019879E+00  0.17431201093E-01  0.13328310101E+00  0.20287131804E-01 0.  0.
         14    1    1    2    0    0 -0.50413335881E-02 -0.18920805092E-01  0.12251260553E-01  0.23097733542E-01  0.00000000000E+00 0. -1.
     999901    1    3    3    0    0 -0.57314472207E-01 -0.95799393697E-01 -0.29682461646E-01  0.88754916545E+00  0.88000000000E+00 0. -1.
        -11    1    4    4    0    0  0.51158533297E-01  0.10661358863E+00  0.16740787752E-01  0.11943269195E+00  0.51100000000E-03 0.  1.
         11    1    4    4    0    0  0.11197272498E-01  0.81066101550E-02  0.69041334149E-03  0.13850409062E-01  0.51100000000E-03 0. -1.
</event>
<event>
 8    1  0.1170483E+005  0.1043930E+01  0.7957747E-01            NaN
         13   -1    0    0    0    0  0.00000000000E+00  0.00000000000E+00  0.74505805969E-08  0.10566000000E+00  0.10566000000E+00 0. -1.
     999900   -1    0    0    0    0 -0.00000000000E+00 -0.00000000000E+00 -0.74505805969E-08  0.93827000000E+00  0.93827000000E+00 0.  1.
     999902    2    1    2    0    0  0.22401431821E-01 -0.92216981116E-02 -0.71773885216E-02  0.10186638414E+01  0.10183504520E+01 0.  0.
     999903    2    3    3    0    0 -0.11677210627E-01  0.12321230837E+00  0.23329713115E-01  0.12757978074E+00  0.20364055526E-01 0.  0.
         14    1    1    2    0    0 -0.22401431821E-01  0.92216981116E-02  0.71773885216E-02  0.25266158586E-01  0.00000000000E+00 0. -1.
     999901    1    3    3    0    0  0.34078642447E-01 -0.13243400648E+00 -0.30507101637E-01  0.89108406068E+00  0.88000000000E+00 0. -1.
        -11    1    4    4    0    0 -0.86563391870E-02  0.11592859211E+00  0.17070137783E-01  0.11749902724E+00  0.51100000000E-03 0.  1.
         11    1    4    4    0    0 -0.30208714398E-02  0.72837162571E-02  0.62595753321E-02  0.10080753499E-01  0.51100000000E-03 0. -1.
</event>
<event>
 7    1  0.1170483E+005  0.1043930E+01  0.7957747E-01            NaN
         13   -1    0    0    0    0  0.00000000000E+00  0.00000000000E+00  0.74505805969E-08  0.10566000000E+00  0.10566000000E+00 0.  1.
     999900   -1    0    0    0    0 -0.00000000000E+00 -0.00000000000E+00 -0.74505805969E-08  0.93827000000E+00  0.93827000000E+00 0.  1.
     999903    2    1    2    0    0 -0.65666941149E-01  0.40863528762E-01 -0.11868664871E-01  0.80740915218E-01  0.19906155872E-01 0.  0.
         14    1    1    2    0    0  0.43428950121E-01 -0.67819749065E-01 -0.15766605656E-01  0.82062037056E-01  0.00000000000E+00 0. -1.
     999901    1    1    2    0    0  0.22237991028E-01  0.26956220302E-01  0.27635270526E-01  0.88112704773E+00  0.88000000000E+00 0.  1.
        -11    1    3    3    0    0 -0.30405009683E-01  0.11126484053E-01 -0.12219405998E-01  0.34609800131E-01  0.51100000000E-03 0.  1.
         11    1    3    3    0    0 -0.35261931466E-01  0.29737044709E-01  0.35074112711E-03  0.46131115086E-01  0.51100000000E-03 0. -1.
</event>
<event>
 8    1  0.1170483E+005  0.1043930E+01  0.7957747E-01            NaN
         13   -1    0    0    0    0  0.00000000000E+00  0.00000000000E+00  0.74505805969E-08  0.10566000000E+00  0.10566000000E+00 0. -1.
     999900   -1    0    0    0    0 -0.00000000000E+00 -0.00000000000E+00 -0.74505805969E-08  0.93827000000E+00  0.93827000000E+00 0.  1.
     999902    2    1    2    0    0 -0.61145537823E-02  0.73946161897E-02 -0.23157586164E-01  0.10188632508E+01  0.10185548498E+01 0.  0.
     999903    2    3    3    0    0 -0.12451611298E+00 -0.29254313818E-01  0.70014295482E-02  0.12966606263E+00  0.20104489856E-01 0.  0.
         14    1    1    2    0    0  0.61145537823E-02 -0.73946161897E-02  0.23157586164E-01  0.25066749161E-01  0.00000000000E+00 0. -1.
     999901    1    3    3    0    0  0.11840155920E+00  0.36648930008E-01 -0.30159015712E-01  0.88919718821E+00  0.88000000000E+00 0.  1.
        -11    1    4    4    0    0 -0.58346921864E-01 -0.23074291818E-01 -0.79701472642E-03  0.62750956864E-01  0.51100000000E-03 0.  1.
         11    1    4    4    0    0 -0.66169191120E-01 -0.61800220000E-02  0.77984442746E-02  0.66915105765E-01  0.51100000000E-03 0. -1.
</event>
<event>
 8    1  0.1170483E+005  0.1043930E+01  0.7957747E-01            NaN
         13   -1    0    0    0    0  0.00000000000E+00  0.00000000000E+00  0.74505805969E-08  0.10566000000E+00  0.10566000000E+00 0. -1.
     999900   -1    0    0    0    0 -0.00000000000E+00 -0.00000000000E+00 -0.74505805969E-08  0.93827000000E+00  0.93827000000E+00 0.  1.
     999902    2    1    2    0    0  0.14284366040E-01  0.90488001602E-02  0.15955464821E-01  0.10206813279E+01  0.10204165190E+01 0.  0.
     999903    2    3    3    0    0  0.29541045467E-01 -0.34282929646E-02  0.12808871800E+00  0.13334694301E+00  0.22141837548E-01 0.  0.
         14    1    1    2    0    0 -0.14284366040E-01 -0.90488001602E-02 -0.15955464821E-01  0.23248672116E-01  0.00000000000E+00 0.  1.
     999901    1    3    3    0    0 -0.15256679428E-01  0.12477093125E-01 -0.11213325318E+00  0.88733438488E+00  0.88000000000E+00 0.  1.
        -11    1    4    4    0    0  0.15704748088E-01 -0.33489450316E-02  0.10646365727E+00  0.10766905770E+00  0.51100000000E-03 0. -1.
         11    1    4    4    0    0  0.13836297379E-01 -0.79347932996E-04  0.21625060729E-01  0.25677885306E-01  0.51100000000E-03 0.  1.
</event>
<event>
 8    1  0.1170483E+005  0.1043930E+01  0.7957747E-01            NaN
         13   -1    0    0    0    0  0.00000000000E+00  0.00000000000E+00  0.74505805969E-08  0.10566000000E+00  0.10566000000E+00 0.  1.
     999900   -1    0    0    0    0 -0.00000000000E+00 -0.00000000000E+00 -0.74505805969E-08  0.93827000000E+00  0.93827000000E+00 0.  1.
     999902    2    1    2    0    0  0.68874831048E-02 -0.13250733851E-01 -0.18579799440E-01  0.10200924599E+01  0.10198139038E+01 0.  0.
     999903    2    3    3    0    0  0.89488407046E-01  0.13194040060E-02  0.90370069468E-01  0.12941559622E+00  0.23910902658E-01 0.  0.
         14    1    1    2    0    0 -0.68874831048E-02  0.13250733851E-01  0.18579799440E-01  0.23837540107E-01  0.00000000000E+00 0.  1.
     999901    1    3    3    0    0 -0.82600923941E-01 -0.14570137858E-01 -0.10894986891E+00  0.89067686368E+00  0.88000000000E+00 0.  1.
        -11    1    4    4    0    0  0.33404538724E-01  0.37764721187E-02  0.50060641164E-01  0.60303017037E-01  0.51100000000E-03 0. -1.
         11    1    4    4    0    0  0.56083868322E-01 -0.24570681126E-02  0.40309428304E-01  0.69112579180E-01  0.51100000000E-03 0.  1.
</event>
<event>
 8    1  0.1170483E+005  0.1043930E+01  0.7957747E-01            NaN
         13   -1    0    0    0    0  0.00000000000E+00  0.00000000000E+00  0.74505805969E-08  0.10566000000E+00  0.10566000000E+00 0.  1.
     999900   -1    0    0    0    0 -0.00000000000E+00 -0.00000000000E+00 -0.74505805969E-08  0.93827000000E+00  0.93827000000E+00 0. -1.
     999902    2    1    2    0    0 -0.82871060885E-03  0.31455557085E-02 -0.23106207638E-01  0.10205959452E+01  0.10203291651E+01 0.  0.
     999903    2    3    3    0    0 -0.11531531581E+00 -0.21070270835E-01  0.51547455830E-01  0.12971617862E+00  0.20677727626E-01 0.  0.
         14    1    1    2    0    0  0.82871060885E-03 -0.31455557085E-02  0.23106207638E-01  0.23334054799E-01  0.00000000000E+00 0.  1.
     999901    1    3    3    0    0  0.11448660521E+00  0.24215826543E-01 -0.74653663467E-01  0.89087976658E+00  0.88000000000E+00 0. -1.
        -11    1    4    4    0    0 -0.48191768391E-01 -0.10391404297E-01  0.32773992156E-01  0.59201549868E-01  0.51100000000E-03 0. -1.
         11    1    4    4    0    0 -0.67123547424E-01 -0.10678866538E-01  0.18773463673E-01  0.70514628756E-01  0.51100000000E-03 0.  1.
</event>
<event>
 8    1  0.1170483E+005  0.1043930E+01  0.7957747E-01            NaN
         13   -1    0    0    0    0  0.00000000000E+00  0.00000000000E+00  0.74505805969E-08  0.10566000000E+00  0.10566000000E+00 0.  1.
     999900   -1    0    0    0    0 -0.00000000000E+00 -0.00000000000E+00 -0.74505805969E-08  0.93827000000E+00  0.93827000000E+00 0.  1.
     999902    2    1    2    0    0  0.20629119001E-01  0.20161587417E-01 -0.74572744816E-02  0.10141363581E+01  0.10136986197E+01 0.  0.
     999903    2    3    3    0    0  0.11325102220E-01 -0.11330585626E+00 -0.42839739496E-01  0.12332097758E+00  0.20158006545E-01 0.  0.
         14    1    1    2    0    0 -0.20629119001E-01 -0.20161587417E-01  0.74572744816E-02  0.29793641950E-01  0.00000000000E+00 0.  1.
     999901    1    3    3    0    0  0.93040167815E-02  0.13346744368E+00  0.35382465015E-01  0.89081538047E+00  0.88000000000E+00 0. -1.
        -11    1    4    4    0    0  0.12447455710E-01 -0.87781543868E-01 -0.24876528274E-01  0.92084968250E-01  0.51100000000E-03 0.  1.
         11    1    4    4    0    0 -0.11223534905E-02 -0.25524312393E-01 -0.17963211222E-01  0.31236009331E-01  0.51100000000E-03 0. -1.
</event>
<event>
 8    1  0.1170483E+005  0.1043930E+01  0.7957747E-01            NaN
         13   -1    0    0    0    0  0.00000000000E+00  0.00000000000E+00  0.74505805969E-08  0.10566000000E+00  0.10566000000E+00 0.  1.
     999900   -1    0    0    0    0 -0.00000000000E+00 -0.00000000000E+00 -0.74505805969E-08  0.93827000000E+00  0.93827000000E+00 0. -1.
     999902    2    1    2    0    0 -0.58687949453E-02 -0.17144211004E-01  0.12803238189E-01  0.10217423991E+01  0.10215014638E+01 0.  0.
     999903    2    3    3    0    0 -0.52073037453E-01 -0.95015467100E-01  0.78020067811E-01  0.13469561375E+00  0.17783058368E-01 0.  0.
         14    1    1    2    0    0  0.58687949453E-02  0.17144211004E-01 -0.12803238189E-01  0.22187600888E-01  0.00000000000E+00 0.  1.
     999901    1    3    3    0    0  0.46204242508E-01  0.77871256096E-01 -0.65216829622E-01  0.88704678536E+00  0.88000000000E+00 0. -1.
        -11    1    4    4    0    0 -0.25892924757E-01 -0.39950979319E-01  0.24399472459E-01  0.53498782026E-01  0.51100000000E-03 0.  1.
         11    1    4    4    0    0 -0.26180112697E-01 -0.55064487781E-01  0.53620595352E-01  0.81196831726E-01  0.51100000000E-03 0. -1.
</event>
<event>
 8    1  0.1170483E+005  0.1043930E+01  0.7957747E-01            NaN
         13   -1    0    0    0    0  0.00000000000E+00  0.00000000000E+00  0.74505805969E-08  0.10566000000E+00  0.10566000000E+00 0. -1.
     999900   -1    0    0    0    0 -0.00000000000E+00 -0.00000000000E+00 -0.74505805969E-08  0.93827000000E+00  0.93827000000E+00 0.  1.
     999902    2    1    2    0    0 -0.12798147943E-02 -0.10512811447E-02 -0.20942570703E-01  0.10229220399E+01  0.10227062948E+01 0.  0.
     999903    2    3    3    0    0  0.12377377361E+00  0.65532219860E-02 -0.48696588089E-01  0.13361527964E+00  0.10899243538E-01 0.  0.
         14    1    1    2    0    0  0.12798147943E-02  0.10512811447E-02  0.20942570703E-01  0.21007960054E-01  0.00000000000E+00 0. -1.
     999901    1    3    3    0    0 -0.12505358841E+00 -0.76045031306E-02  0.27754017386E-01  0.88930676030E+00  0.88000000000E+00 0. -1.
        -11    1    4    4    0    0  0.41713760002E-01  0.50402537276E-02 -0.11929985595E-01  0.43680975361E-01  0.51100000000E-03 0.  1.
         11    1    4    4    0    0  0.82060013611E-01  0.15129682583E-02 -0.36766602494E-01  0.89934304282E-01  0.51100000000E-03 0. -1.
</event>
<event>
 8    1  0.1170483E+005  0.1043930E+01  0.7957747E-01            NaN
         13   -1    0    0    0    0  0.00000000000E+00  0.00000000000E+00  0.74505805969E-08  0.10566000000E+00  0.10566000000E+00 0.  1.
     999900   -1    0    0    0    0 -0.00000000000E+00 -0.00000000000E+00 -0.74505805969E-08  0.93827000000E+00  0.93827000000E+00 0.  1.
     999902    2    1    2    0    0 -0.12605595313E-01 -0.11542503962E-01 -0.15190785347E-01  0.10210632033E+01  0.10208071193E+01 0.  0.
     999903    2    3    3    0    0  0.80443862818E-01 -0.23860624751E-01  0.96009956060E-01  0.12911278842E+00  0.20289307318E-01 0.  0.
         14    1    1    2    0    0  0.12605595313E-01  0.11542503962E-01  0.15190785347E-01  0.22866796679E-01  0.00000000000E+00 0.  1.
     999901    1    3    3    0    0 -0.93049458131E-01  0.12318120789E-01 -0.11120074141E+00  0.89195041490E+00  0.88000000000E+00 0. -1.
        -11    1    4    4    0    0  0.85860556107E-02 -0.73282395271E-02  0.21479695356E-01  0.24270597008E-01  0.51100000000E-03 0. -1.
         11    1    4    4    0    0  0.71857807207E-01 -0.16532385224E-01  0.74530260704E-01  0.10484219141E+00  0.51100000000E-03 0.  1.
</event>
<event>
 8    1  0.1170483E+005  0.1043930E+01  0.7957747E-01            NaN
         13   -1    0    0    0    0  0.00000000000E+00  0.00000000000E+00  0.74505805969E-08  0.10566000000E+00  0.10566000000E+00 0.  1.
     999900   -1    0    0    0    0 -0.00000000000E+00 -0.00000000000E+00 -0.74505805969E-08  0.93827000000E+00  0.93827000000E+00 0.  1.
     999902    2    1    2    0    0  0.22643579825E-01 -0.10577654878E-02 -0.54525880039E-02  0.10206151701E+01  0.10203488346E+01 0.  0.
     999903    2    3    3    0    0  0.25235170984E-01  0.85383489480E-02 -0.12785284008E+00  0.13208794858E+00  0.19777769999E-01 0.  0.
         14    1    1    2    0    0 -0.22643579825E-01  0.10577654878E-02  0.54525880039E-02  0.23314829853E-01  0.00000000000E+00 0. -1.
     999901    1    3    3    0    0 -0.25915911587E-02 -0.95961144358E-02  0.12240025208E+00  0.88852722157E+00  0.88000000000E+00 0. -1.
        -11    1    4    4    0    0  0.13271588880E-01 -0.23231993644E-02 -0.29760671203E-01  0.32672480746E-01  0.51100000000E-03 0.  1.
         11    1    4    4    0    0  0.11963582104E-01  0.10861548312E-01 -0.98092168878E-01  0.99415467834E-01  0.51100000000E-03 0. -1.
</event>
<event>
 8    1  0.1170483E+005  0.1043930E+01  0.7957747E-01            NaN
         13   -1    0    0    0    0  0.00000000000E+00  0.00000000000E+00  0.74505805969E-08  0.10566000000E+00  0.10566000000E+00 0. -1.
     999900   -1    0    0    0    0 -0.00000000000E+00 -0.00000000000E+00 -0.74505805969E-08  0.93827000000E+00  0.93827000000E+00 0.  1.
     999902    2    1    2    0    0  0.17841085275E-01 -0.16205652333E-01 -0.52357681813E-02  0.10192654351E+01  0.10189669703E+01 0.  0.
     999903    2    3    3    0    0 -0.86629350721E-01  0.63301929160E-01 -0.65922769858E-01  0.12745915590E+00  0.19703963974E-01 0.  0.
         14    1    1    2    0    0 -0.17841085275E-01  0.16205652333E-01  0.52357681813E-02  0.24664564861E-01  0.00000000000E+00 0. -1.
     999901    1    3    3    0    0  0.10447043600E+00 -0.79507581493E-01  0.60687001677E-01  0.89180627924E+00  0.88000000000E+00 0.  1.
        -11    1    4    4    0    0 -0.35688327952E-01  0.38226657519E-01 -0.32364109640E-01  0.61503095945E-01  0.51100000000E-03 0. -1.
         11    1    4    4    0    0 -0.50941022769E-01  0.25075271640E-01 -0.33558660218E-01  0.65956059958E-01  0.51100000000E-03 0.  1.
</event>
<event>
 8    1  0.1170483E+005  0.1043930E+01  0.7957747E-01            NaN
         13   -1    0    0    0    0  0.00000000000E+00  0.00000000000E+00  0.74505805969E-08  0.10566000000E+00  0.10566000000E+00 0. -1.
     999900   -1    0    0    0    0 -0.00000000000E+00 -0.00000000000E+00 -0.74505805969E-08  0.93827000000E+00  0.93827000000E+00 0. -1.
     999902    2    1    2    0    0  0.10202337469E-01 -0.76849811240E-02 -0.14762087578E-01  0.10244090919E+01  0.10242230820E+01 0.  0.
     999903    2    3    3    0    0  0.57314334759E-01  0.23431501774E-01  0.11449947826E+00  0.13317605377E+00  0.28138275173E-01 0.  0.
         14    1    1    2    0    0 -0.10202337469E-01  0.76849811240E-02  0.14762087578E-01  0.19520908134E-01  0.00000000000E+00 0. -1.
     999901    1    3    3    0    0 -0.47111997290E-01 -0.31116482898E-01 -0.12926156584E+00  0.89123303810E+00  0.88000000000E+00 0. -1.
        -11    1    4    4    0    0  0.11207329107E-01 -0.22754269743E-02  0.70123543415E-02  0.13424456340E-01  0.51100000000E-03 0. -1.
         11    1    4    4    0    0  0.46107005652E-01  0.25706928748E-01  0.10748712392E+00  0.11975159743E+00  0.51100000000E-03 0.  1.
</event>
<event>
 8    1  0.1170483E+005  0.1043930E+01  0.7957747E-01            NaN
         13   -1    0    0    0    0  0.00000000000E+00  0.00000000000E+00  0.74505805969E-08  0.10566000000E+00  0.10566000000E+00 0. -1.
     999900   -1    0    0    0    0 -0.00000000000E+00 -0.00000000000E+00 -0.74505805969E-08  0.93827000000E+00  0.93827000000E+00 0.  1.
     999902    2    1    2    0    0  0.16442001211E-01 -0.13674999781E-01 -0.12643293277E-01  0.10190865323E+01  0.10187836681E+01 0.  0.
     999903    2    3    3    0    0 -0.65618213280E-01  0.92048593881E-01 -0.55417250149E-01  0.12794065846E+00  0.22782601341E-01 0.  0.
         14    1    1    2    0    0 -0.16442001211E-01  0.13674999781E-01  0.12643293277E-01  0.24843467708E-01  0.00000000000E+00 0. -1.
     999901    1    3    3    0    0  0.82060214491E-01 -0.10572359366E+00  0.42773956872E-01  0.89114587383E+00  0.88000000000E+00 0. -1.
        -11    1    4    4    0    0 -0.24733112417E-01  0.43535133765E-01 -0.13372507959E-01  0.51827789957E-01  0.51100000000E-03 0.  1.
         11    1    4    4    0    0 -0.40885100863E-01  0.48513460116E-01 -0.42044742191E-01  0.76112868504E-01  0.51100000000E-03 0. -1.
</event>
<event>
 8    1  0.1170483E+005  0.1043930E+01  0.7957747E-01            NaN
         13   -1    0    0    0    0  0.00000000000E+00  0.00000000000E+00  0.74505805969E-08  0.10566000000E+00  0.10566000000E+00 0. -1.
     999900   -1    0    0    0    0 -0.00000000000E+00 -0.00000000000E+00 -0.74505805969E-08  0.93827000000E+00  0.93827000000E+00 0.  1.
     999902    2    1    2    0    0 -0.52781736850E-03  0.20288773041E-01  0.12594304991E-01  0.10200442423E+01  0.10197645448E+01 0.  0.
     999903    2    3    3    0    0 -0.29546602513E-01 -0.53476638911E-01 -0.11057643794E+00  0.12793748983E+00  0.20201486236E-01 0.  0.
         14    1    1    2    0    0  0.52781736850E-03 -0.20288773041E-01 -0.12594304991E-01  0.23885757700E-01  0.00000000000E+00 0.  1.
     999901    1    3    3    0    0  0.29018785144E-01  0.73765411953E-01  0.12317074293E+00  0.89210675247E+00  0.88000000000E+00 0. -1.
        -11    1    4    4    0    0 -0.31465944735E-01 -0.43015654040E-01 -0.86349315232E-01  0.10147372829E+00  0.51100000000E-03 0.  1.
         11    1    4    4    0    0  0.19193422221E-02 -0.10460984871E-01 -0.24227122710E-01  0.26463761540E-01  0.51100000000E-03 0. -1.
</event>
<event>
 8    1  0.1170483E+005  0.1043930E+01  0.7957747E-01            NaN
         13   -1    0    0    0    0  0.00000000000E+00  0.00000000000E+00  0.74505805969E-08  0.10566000000E+00  0.10566000000E+00 0. -1.
     999900   -1    0    0    0    0 -0.00000000000E+00 -0.00000000000E+00 -0.74505805969E-08  0.93827000000E+00  0.93827000000E+00 0. -1.
     999902    2    1    2    0    0 -0.15481642137E-01 -0.18183801211E-01  0.82681261496E-03  0.10200340696E+01  0.10197541310E+01 0.  0.
     999903    2    3    3    0    0 -0.10725555675E+00 -0.76009393319E-01  0.10222581289E-01  0.13332412213E+00  0.19739251396E-01 0.  0.
         14    1    1    2    0    0  0.15481642137E-01  0.18183801211E-01 -0.82681261496E-03  0.23895930382E-01  0.00000000000E+00 0. -1.
     999901    1    3    3    0    0  0.91773914617E-01  0.57825592108E-01 -0.93957686742E-02  0.88670994749E+00  0.88000000000E+00 0.  1.
        -11    1    4    4    0    0 -0.77125787350E-01 -0.63549946621E-01  0.12076063287E-01  0.10066317706E+00  0.51100000000E-03 0.  1.
         11    1    4    4    0    0 -0.30129769404E-01 -0.12459446698E-01 -0.18534819974E-02  0.32660945071E-01  0.51100000000E-03 0. -1.
</event>
<event>
 8    1  0.1170483E+005  0.1043930E+01  0.7957747E-01            NaN
         13   -1    0    0    0    0  0.00000000000E+00  0.00000000000E+00  0.74505805969E-08  0.10566000000E+00  0.10566000000E+00 0.  1.
     999900   -1    0    0    0    0 -0.00000000000E+00 -0.00000000000E+00 -0.74505805969E-08  0.93827000000E+00  0.93827000000E+00 0.  1.
     999902    2    1    2    0    0  0.79380940795E-02  0.20603114168E-01 -0.11123252900E-01  0.10192069661E+01  0.10189070671E+01 0.  0.
     999903    2    3    3    0    0 -0.29454214583E-01  0.59544177405E-01  0.10931565228E+00  0.12936421535E+00  0.19290633974E-01 0.  0.
         14    1    1    2    0    0 -0.79380940795E-02 -0.20603114168E-01  0.11123252900E-01  0.24723033918E-01  0.00000000000E+00 0.  1.
     999901    1    3    3    0    0  0.37392308662E-01 -0.38941063237E-01 -0.12043890518E+00  0.88984275073E+00  0.88000000000E+00 0.  1.
        -11    1    4    4    0    0  0.10406512518E-02  0.19618661340E-02  0.12219141015E-01  0.12429819062E-01  0.51100000000E-03 0. -1.
         11    1    4    4    0    0 -0.30494865834E-01  0.57582311271E-01  0.97096511267E-01  0.11693439629E+00  0.51100000000E-03 0.  1.
</event>
<event>
 8    1  0.1170483E+005  0.1043930E+01  0.7957747E-01            NaN
         13   -1    0    0    0    0  0.00000000000E+00  0.00000000000E+00  0.74505805969E-08  0.10566000000E+00  0.10566000000E+00 0. -1.
     999900   -1    0    0    0    0 -0.00000000000E+00 -0.00000000000E+00 -0.74505805969E-08  0.93827000000E+00  0.93827000000E+00 0. -1.
     999902    2    1    2    0    0 -0.19033468974E-01 -0.16060019849E-01 -0.20412258630E-02  0.10189427276E+01  0.10186363033E+01 0.  0.
     999903    2    3    3    0    0 -0.90128467908E-01 -0.58154402469E-01 -0.74521022899E-01  0.13210578831E+00  0.19836360475E-01 0.  0.
         14    1    1    2    0    0  0.19033468974E-01  0.16060019849E-01  0.20412258630E-02  0.24987272395E-01  0.00000000000E+00 0.  1.
     999901    1    3    3    0    0  0.71094998935E-01  0.42094382620E-01  0.72479797036E-01  0.88683693930E+00  0.88000000000E+00 0. -1.
        -11    1    4    4    0    0 -0.35345496514E-01 -0.15964859854E-01 -0.36169888177E-01  0.53034920625E-01  0.51100000000E-03 0.  1.
         11    1    4    4    0    0 -0.54782971394E-01 -0.42189542615E-01 -0.38351134722E-01  0.79070867684E-01  0.51100000000E-03 0. -1.
</event>
<event>
 8    1  0.1170483E+005  0.1043930E+01  0.7957747E-01            NaN
         13   -1    0    0    0    0  0.00000000000E+00  0.00000000000E+00  0.74505805969E-08  0.10566000000E+00  0.10566000000E+00 0. -1.
     999900   -1    0    0    0    0 -0.00000000000E+00 -0.00000000000E+00 -0.74505805969E-08  0.93827000000E+00  0.93827000000E+00 0. -1.
     999902    2    1    2    0    0 -0.10186412186E-01 -0.14058610492E-01 -0.16519688862E-01  0.10199652834E+01  0.10196837116E+01 0.  0.
     999903    2    3    3    0    0  0.53061140572E-01 -0.71855169742E-01 -0.95492271917E-01  0.13228439249E+00  0.20043364070E-01 0.  0.
         14    1    1    2    0    0  0.10186412186E-01  0.14058610492E-01  0.16519688862E-01  0.23964716612E-01  0.00000000000E+00 0. -1.
     999901    1    3    3    0    0 -0.63247552758E-01  0.57796559250E-01  0.78972583054E-01  0.88768089090E+00  0.88000000000E+00 0.  1.
        -11    1    4    4    0    0  0.29630715059E-01 -0.55339668427E-01 -0.62666132591E-01  0.88700414156E-01  0.51100000000E-03 0. -1.
         11    1    4    4    0    0  0.23430425514E-01 -0.16515501315E-01 -0.32826139326E-01  0.43583978334E-01  0.51100000000E-03 0.  1.
</event>
<event>
 8    1  0.1170483E+005  0.1043930E+01  0.7957747E-01            NaN
         13   -1    0    0    0    0  0.00000000000E+00  0.00000000000E+00  0.74505805969E-08  0.10566000000E+00  0.10566000000E+00 0. -1.
     999900   -1    0    0    0    0 -0.00000000000E+00 -0.00000000000E+00 -0.74505805969E-08  0.93827000000E+00  0.93827000000E+00 0. -1.
     999902    2    1    2    0    0  0.16055457769E-01  0.17070777567E-01 -0.26854290189E-02  0.10203418526E+01  0.10200691621E+01 0.  0.
     999903    2    3    3    0    0  0.12289935614E-01  0.11443464992E+00  0.62761051615E-01  0.13254843930E+00  0.19591006592E-01 0.  0.
         14    1    1    2    0    0 -0.16055457769E-01 -0.17070777567E-01  0.26854290189E-02  0.23588147446E-01  0.00000000000E+00 0.  1.
     999901    1    3    3    0    0  0.37655221547E-02 -0.97363872357E-01 -0.65446480634E-01  0.88779341326E+00  0.88000000000E+00 0. -1.
        -11    1    4    4    0    0  0.49789771639E-02  0.18651330095E-01  0.33549605874E-02  0.19600490031E-01  0.51100000000E-03 0. -1.
         11    1    4    4    0    0  0.73109584504E-02  0.95783319829E-01  0.59406091028E-01  0.11294794926E+00  0.51100000000E-03 0.  1.
</event>
<event>
 8    1  0.1170483E+005  0.1043930E+01  0.7957747E-01            NaN
         13   -1    0    0    0    0  0.00000000000E+00  0.00000000000E+00  0.74505805969E-08  0.10566000000E+00  0.10566000000E+00 0. -1.
     999900   -1    0    0    0    0 -0.00000000000E+00 -0.00000000000E+00 -0.74505805969E-08  0.93827000000E+00  0.93827000000E+00 0. -1.
     999902    2    1    2    0    0  0.12744267494E-01 -0.19158554382E-01  0.16063051984E-01  0.10158677799E+01  0.10154801120E+01 0.  0.
     999903    2    3    3    0    0 -0.23833424963E-01 -0.79965026710E-01  0.96816223496E-01  0.12932594251E+00  0.19732729991E-01 0.  0.
         14    1    1    2    0    0 -0.12744267494E-01  0.19158554382E-01 -0.16063051984E-01  0.28062220137E-01  0.00000000000E+00 0.  1.
     999901    1    3    3    0    0  0.36577692457E-01  0.60806472328E-01 -0.80753171512E-01  0.88654183735E+00  0.88000000000E+00 0. -1.
        -11    1    4    4    0    0 -0.11408076572E-01 -0.35845468792E-01  0.58647653827E-01  0.69676755553E-01  0.51100000000E-03 0. -1.
         11    1    4    4    0    0 -0.12425348391E-01 -0.44119557918E-01  0.38168569669E-01  0.59649186960E-01  0.51100000000E-03 0.  1.
</event>
<event>
 8    1  0.1170483E+005  0.1043930E+01  0.7957747E-01            NaN
         13   -1    0    0    0    0  0.00000000000E+00  0.00000000000E+00  0.74505805969E-08  0.10566000000E+00  0.10566000000E+00 0.  1.
     999900   -1    0    0    0    0 -0.00000000000E+00 -0.00000000000E+00 -0.74505805969E-08  0.93827000000E+00  0.93827000000E+00 0.  1.
     999902    2    1    2    0    0 -0.39232326715E-02  0.22204799640E-01  0.76086705155E-02  0.10201321692E+01  0.10198545514E+01 0.  0.
     999903    2    3    3    0    0 -0.93698092930E-02  0.16710119435E-01  0.12887336775E+00  0.13178258518E+00  0.19780885329E-01 0.  0.
         14    1    1    2    0    0  0.39232326715E-02 -0.22204799640E-01 -0.76086705155E-02  0.23797830755E-01  0.00000000000E+00 0. -1.
     999901    1    3    3    0    0  0.54465766214E-02  0.54946802044E-02 -0.12126469723E+00  0.88834958406E+00  0.88000000000E+00 0.  1.
        -11    1    4    4    0    0  0.35862053649E-02 -0.14212656755E-02  0.38694325977E-01  0.38889495353E-01  0.51100000000E-03 0.  1.
         11    1    4    4    0    0 -0.12956014658E-01  0.18131385111E-01  0.90179041774E-01  0.92893089830E-01  0.51100000000E-03 0. -1.
</event>
<event>
 8    1  0.1170483E+005  0.1043930E+01  0.7957747E-01            NaN
         13   -1    0    0    0    0  0.00000000000E+00  0.00000000000E+00  0.74505805969E-08  0.10566000000E+00  0.10566000000E+00 0. -1.
     999900   -1    0    0    0    0 -0.00000000000E+00 -0.00000000000E+00 -0.74505805969E-08  0.93827000000E+00  0.93827000000E+00 0.  1.
     999902    2    1    2    0    0 -0.82111708756E-03 -0.23167326081E-01  0.17970513530E-01  0.10145984711E+01  0.10141744026E+01 0.  0.
     999903    2    3    3    0    0 -0.73341131484E-01 -0.44076576780E-02 -0.97663814906E-01  0.12387832675E+00  0.20230424660E-01 0.  0.
         14    1    1    2    0    0  0.82111708756E-03  0.23167326081E-01 -0.17970513530E-01  0.29331528899E-01  0.00000000000E+00 0.  1.
     999901    1    3    3    0    0  0.72520014396E-01 -0.18759668403E-01  0.11563432844E+00  0.89072014435E+00  0.88000000000E+00 0. -1.
        -11    1    4    4    0    0 -0.21946917287E-01 -0.82272529398E-02 -0.41402556116E-01  0.47579277457E-01  0.51100000000E-03 0.  1.
         11    1    4    4    0    0 -0.51394214197E-01  0.38195952619E-02 -0.56261258790E-01  0.76299049289E-01  0.51100000000E-03 0. -1.
</event>
<event>
 8    1  0.1170483E+005  0.1043930E+01  0.7957747E-01            NaN
         13   -1    0    0    0    0  0.00000000000E+00  0.00000000000E+00  0.74505805969E-08  0.10566000000E+00  0.10566000000E+00 0. -1.
     999900   -1    0    0    0    0 -0.00000000000E+00 -0.00000000000E+00 -0.74505805969E-08  0.93827000000E+00  0.93827000000E+00 0.  1.
     999902    2    1    2    0    0 -0.54731567276E-02  0.14136161864E-01  0.18613664715E-01  0.10199246874E+01  0.10196421495E+01 0.  0.
     999903    2    3    3    0    0  0.24442962149E-01  0.11977845491E+00 -0.40412919022E-01  0.13113933325E+00  0.24899478711E-01 0.  0.
         14    1    1    2    0    0  0.54731567276E-02 -0.14136161864E-01 -0.18613664715E-01  0.24005312557E-01  0.00000000000E+00 0.  1.
     999901    1    3    3    0    0 -0.29916118876E-01 -0.10564229305E+00  0.59026583737E-01  0.88878535420E+00  0.88000000000E+00 0. -1.
        -11    1    4    4    0    0  0.10649821193E-01  0.99173607895E-01 -0.29274669178E-01  0.10395234760E+00  0.51100000000E-03 0. -1.
         11    1    4    4    0    0  0.13793140956E-01  0.20604847019E-01 -0.11138249844E-01  0.27186985649E-01  0.51100000000E-03 0.  1.
</event>
<event>
 8    1  0.1170483E+005  0.1043930E+01  0.7957747E-01            NaN
         13   -1    0    0    0    0  0.00000000000E+00  0.00000000000E+00  0.74505805969E-08  0.10566000000E+00  0.10566000000E+00 0.  1.
     999900   -1    0    0    0    0 -0.00000000000E+00 -0.00000000000E+00 -0.74505805969E-08  0.93827000000E+00  0.93827000000E+00 0. -1.
     999902    2    1    2    0    0 -0.24962087122E-01  0.17470877173E-02 -0.86080156725E-02  0.10174676486E+01  0.10171234733E+01 0.  0.
     999903    2    3    3    0    0 -0.75346191768E-01  0.52894031056E-02 -0.10502010128E+00  0.13076228813E+00  0.19092614410E-01 0.  0.
         14    1    1    2    0    0  0.24962087122E-01 -0.17470877173E-02  0.86080156725E-02  0.26462351423E-01  0.00000000000E+00 0.  1.
     999901    1    3    3    0    0  0.50384104646E-01 -0.35423153883E-02  0.96412085605E-01  0.88670536045E+00  0.88000000000E+00 0. -1.
        -11    1    4    4    0    0 -0.54787993986E-02 -0.28876037775E-02 -0.16905220344E-01  0.18011193584E-01  0.51100000000E-03 0. -1.
         11    1    4    4    0    0 -0.69867392370E-01  0.81770068831E-02 -0.88114880933E-01  0.11275109454E+00  0.51100000000E-03 0.  1.
</event>
<event>
 8    1  0.1170483E+005  0.1043930E+01  0.7957747E-01            NaN
         13   -1    0    0    0    0  0.00000000000E+00  0.00000000000E+00  0.74505805969E-08  0.10566000000E+00  0.10566000000E+00 0.  1.
     999900   -1    0    0    0    0 -0.00000000000E+00 -0.00000000000E+00 -0.74505805969E-08  0.93827000000E+00  0.93827000000E+00 0.  1.
     999902    2    1    2    0    0  0.21683783994E-03 -0.10925074411E-01  0.20644901900E-01  0.10205715702E+01  0.10203042260E+01 0.  0.
     999903    2    3    3    0    0 -0.71040725626E-02 -0.11233125405E+00  0.68760608210E-01  0.13341209737E+00  0.20049638338E-01 0.  0.
         14    1    1    2    0    0 -0.21683783994E-03  0.10925074411E-01 -0.20644901900E-01  0.23358429827E-01  0.00000000000E+00 0. -1.
     999901    1    3    3    0    0  0.73209104026E-02  0.10140617964E+00 -0.48115706310E-01  0.88715947281E+00  0.88000000000E+00 0.  1.
        -11    1    4    4    0    0 -0.48496259872E-02 -0.15412924911E-01  0.34813267532E-02  0.16536562021E-01  0.51100000000E-03 0.  1.
         11    1    4    4    0    0 -0.22544465755E-02 -0.96918329144E-01  0.65279281457E-01  0.11687553534E+00  0.51100000000E-03 0. -1.
</event>
<event>
 8    1  0.1170483E+005  0.1043930E+01  0.7957747E-01            NaN
         13   -1    0    0    0    0  0.00000000000E+00  0.00000000000E+00  0.74505805969E-08  0.10566000000E+00  0.10566000000E+00 0. -1.
     999900   -1    0    0    0    0 -0.00000000000E+00 -0.00000000000E+00 -0.74505805969E-08  0.93827000000E+00  0.93827000000E+00 0. -1.
     999902    2    1    2    0    0 -0.52037395369E-02 -0.22783126102E-01 -0.58612262217E-02  0.10198363553E+01  0.10195517093E+01 0.  0.
     999903    2    3    3    0    0  0.20742930020E-01  0.11850050763E+00 -0.37718597574E-01  0.12762046951E+00  0.19790204151E-01 0.  0.
         14    1    1    2    0    0  0.52037395369E-02  0.22783126102E-01  0.58612262217E-02  0.24093644659E-01  0.00000000000E+00 0.  1.
     999901    1    3    3    0    0 -0.25946669557E-01 -0.14128363373E+00  0.31857371353E-01  0.89221588583E+00  0.88000000000E+00 0. -1.
        -11    1    4    4    0    0  0.14375156766E-01  0.96402274685E-01 -0.38001703596E-01  0.10461565033E+00  0.51100000000E-03 0.  1.
         11    1    4    4    0    0  0.63677732536E-02  0.22098232945E-01  0.28310602150E-03  0.23004819180E-01  0.51100000000E-03 0. -1.
</event>
<event>
 8    1  0.1170483E+005  0.1043930E+01  0.7957747E-01            NaN
         13   -1    0    0    0    0  0.00000000000E+00  0.00000000000E+00  0.74505805969E-08  0.10566000000E+00  0.10566000000E+00 0.  1.
     999900   -1    0    0    0    0 -0.00000000000E+00 -0.00000000000E+00 -0.74505805969E-08  0.93827000000E+00  0.93827000000E+00 0.  1.
     999902    2    1    2    0    0  0.19013338229E-01  0.11441389833E-01  0.12126283585E-01  0.10186424698E+01  0.10183285433E+01 0.  0.
     999903    2    3    3    0    0  0.10084863322E+00  0.70764633305E-01 -0.40503295878E-01  0.13129466008E+00  0.20486352462E-01 0.  0.
         14    1    1    2    0    0 -0.19013338229E-01 -0.11441389833E-01 -0.12126283585E-01  0.25287530237E-01  0.00000000000E+00 0. -1.
     999901    1    3    3    0    0 -0.81835294996E-01 -0.59323243472E-01  0.52629579463E-01  0.88734780969E+00  0.88000000000E+00 0. -1.
        -11    1    4    4    0    0  0.90538197992E-01  0.63050716829E-01 -0.42540709984E-01  0.11824775395E+00  0.51100000000E-03 0. -1.
         11    1    4    4    0    0  0.10310435233E-01  0.77139164753E-02  0.20374141063E-02  0.13046906121E-01  0.51100000000E-03 0.  1.
</event>
<event>
 8    1  0.1170483E+005  0.1043930E+01  0.7957747E-01            NaN
         13   -1    0    0    0    0  0.00000000000E+00  0.00000000000E+00  0.74505805969E-08  0.10566000000E+00  0.10566000000E+00 0.  1.
     999900   -1    0    0    0    0 -0.00000000000E+00 -0.00000000000E+00 -0.74505805969E-08  0.93827000000E+00  0.93827000000E+00 0.  1.
     999902    2    1    2    0    0 -0.96654415366E-02  0.21895689833E-01 -0.79550470580E-04  0.10199957500E+01  0.10197149022E+01 0.  0.
     999903    2    3    3    0    0 -0.66559449826E-01 -0.45835918983E-01 -0.99894113503E-01  0.12994662442E+00  0.19395861788E-01 0.  0.
         14    1    1    2    0    0  0.96654415366E-02 -0.21895689833E-01  0.79550470580E-04  0.23934249970E-01  0.00000000000E+00 0.  1.
     999901    1    3    3    0    0  0.56894008290E-01  0.67731608816E-01  0.99814563032E-01  0.89004912561E+00  0.88000000000E+00 0. -1.
        -11    1    4    4    0    0 -0.57693246979E-01 -0.31415943422E-01 -0.73430633842E-01  0.98528124693E-01  0.51100000000E-03 0. -1.
         11    1    4    4    0    0 -0.88662028471E-02 -0.14419975562E-01 -0.26463479661E-01  0.31418499723E-01  0.51100000000E-03 0.  1.
</event>
<event>
 8    1  0.1170483E+005  0.1043930E+01  0.7957747E-01            NaN
         13   -1    0    0    0    0  0.00000000000E+00  0.00000000000E+00  0.74505805969E-08  0.10566000000E+00  0.10566000000E+00 0. -1.
     999900   -1    0    0    0    0 -0.00000000000E+00 -0.00000000000E+00 -0.74505805969E-08  0.93827000000E+00  0.93827000000E+00 0. -1.
     999902    2    1    2    0    0  0.36971984658E-02 -0.21536813476E-01 -0.97359834004E-02  0.10200073542E+01  0.10197267818E+01 0.  0.
     999903    2    3    3    0    0 -0.10385151997E+00 -0.75929307087E-01 -0.42395218394E-03  0.13174388867E+00  0.28387930379E-01 0.  0.
         14    1    1    2    0    0 -0.36971984658E-02  0.21536813476E-01  0.97359834004E-02  0.23922645840E-01  0.00000000000E+00 0. -1.
     999901    1    3    3    0    0  0.10754871844E+00  0.54392493611E-01 -0.93120312165E-02  0.88826346549E+00  0.88000000000E+00 0.  1.
        -11    1    4    4    0    0 -0.45771958593E-01 -0.45047214550E-01 -0.10875714080E-01  0.65137285865E-01  0.51100000000E-03 0.  1.
         11    1    4    4    0    0 -0.58079561380E-01 -0.30882092537E-01  0.10451761896E-01  0.66606602805E-01  0.51100000000E-03 0. -1.
</event>
<event>
 8    1  0.1170483E+005  0.1043930E+01  0.7957747E-01            NaN
         13   -1    0    0    0    0  0.00000000000E+00  0.00000000000E+00  0.74505805969E-08  0.10566000000E+00  0.10566000000E+00 0. -1.
     999900   -1    0    0    0    0 -0.00000000000E+00 -0.00000000000E+00 -0.74505805969E-08  0.93827000000E+00  0.93827000000E+00 0.  1.
     999902    2    1    2    0    0 -0.83085305176E-02  0.20569312386E-01 -0.80989949929E-02  0.10203138612E+01  0.10200405156E+01 0.  0.
     999903    2    3    3    0    0  0.11146373358E+00  0.52612205523E-01  0.38180005901E-01  0.13041842456E+00  0.18948470663E-01 0.  0.
         14    1    1    2    0    0  0.83085305176E-02 -0.20569312386E-01  0.80989949929E-02  0.23616138789E-01  0.00000000000E+00 0. -1.
     999901    1    3    3    0    0 -0.11977226410E+00 -0.32042893138E-01 -0.46279000894E-01  0.88989543665E+00  0.88000000000E+00 0. -1.
        -11    1    4    4    0    0  0.74755669925E-01  0.26131159978E-01  0.28213204129E-01  0.84068387138E-01  0.51100000000E-03 0.  1.
         11    1    4    4    0    0  0.36708063655E-01  0.26481045545E-01  0.99668017729E-02  0.46350037423E-01  0.51100000000E-03 0. -1.
</event>
<event>
 8    1  0.1170483E+005  0.1043930E+01  0.7957747E-01            NaN
         13   -1    0    0    0    0  0.00000000000E+00  0.00000000000E+00  0.74505805969E-08  0.10566000000E+00  0.10566000000E+00 0.  1.
     999900   -1    0    0    0    0 -0.00000000000E+00 -0.00000000000E+00 -0.74505805969E-08  0.93827000000E+00  0.93827000000E+00 0. -1.
     999902    2    1    2    0    0 -0.17477120084E-01 -0.17834739162E-01  0.14314564894E-03  0.10189590541E+01  0.10186530351E+01 0.  0.
     999903    2    3    3    0    0  0.91544922001E-01  0.67450377558E-01  0.48611508794E-01  0.12682199121E+00  0.28119610422E-01 0.  0.
         14    1    1    2    0    0  0.17477120084E-01  0.17834739162E-01 -0.14314564894E-03  0.24970945878E-01  0.00000000000E+00 0. -1.
     999901    1    3    3    0    0 -0.10902204208E+00 -0.85285116720E-01 -0.48468363145E-01  0.89213706291E+00  0.88000000000E+00 0. -1.
        -11    1    4    4    0    0  0.74281987549E-01  0.42329806355E-01  0.27773077582E-01  0.89895668080E-01  0.51100000000E-03 0.  1.
         11    1    4    4    0    0  0.17262934452E-01  0.25120571204E-01  0.20838431212E-01  0.36926323130E-01  0.51100000000E-03 0. -1.
</event>
<event>
 8    1  0.1170483E+005  0.1043930E+01  0.7957747E-01            NaN
         13   -1    0    0    0    0  0.00000000000E+00  0.00000000000E+00  0.74505805969E-08  0.10566000000E+00  0.10566000000E+00 0.  1.
     999900   -1    0    0    0    0 -0.00000000000E+00 -0.00000000000E+00 -0.74505805969E-08  0.93827000000E+00  0.93827000000E+00 0.  1.
     999902    2    1    2    0    0 -0.15396764555E-01 -0.84632860679E-02  0.16387347627E-01  0.10199043318E+01  0.10196213088E+01 0.  0.
     999903    2    3    3    0    0  0.10524678510E+00 -0.52692071185E-01  0.51172881597E-01  0.12989248645E+00  0.20001352085E-01 0.  0.
         14    1    1    2    0    0  0.15396764555E-01  0.84632860679E-02 -0.16387347627E-01  0.24025668192E-01  0.00000000000E+00 0.  1.
     999901    1    3    3    0    0 -0.12064354966E+00  0.44228785117E-01 -0.34785533970E-01  0.89001184536E+00  0.88000000000E+00 0.  1.
        -11    1    4    4    0    0  0.91421365860E-01 -0.37525625218E-01  0.43537831060E-01  0.10799001129E+00  0.51100000000E-03 0.  1.
         11    1    4    4    0    0  0.13825419240E-01 -0.15166445967E-01  0.76350505378E-02  0.21902475160E-01  0.51100000000E-03 0. -1.
</event>
<event>
 8    1  0.1170483E+005  0.1043930E+01  0.7957747E-01            NaN
         13   -1    0    0    0    0  0.00000000000E+00  0.00000000000E+00  0.74505805969E-08  0.10566000000E+00  0.10566000000E+00 0. -1.
     999900   -1    0    0    0    0 -0.00000000000E+00 -0.00000000000E+00 -0.74505805969E-08  0.93827000000E+00  0.93827000000E+00 0.  1.
     999902    2    1    2    0    0  0.21470877450E-01  0.11872773093E-01  0.63579915742E-02  0.10185846774E+01  0.10182692963E+01 0.  0.
     999903    2    3    3    0    0 -0.10660570987E-01 -0.30989080826E-01 -0.12210632538E+00  0.12764548240E+00  0.17591008382E-01 0.  0.
         14    1    1    2    0    0 -0.21470877450E-01 -0.11872773093E-01 -0.63579915742E-02  0.25345322571E-01  0.00000000000E+00 0.  1.
     999901    1    3    3    0    0  0.32131448437E-01  0.42861853919E-01  0.12846431696E+00  0.89093919502E+00  0.88000000000E+00 0. -1.
        -11    1    4    4    0    0 -0.72443374913E-02 -0.11473099558E-01 -0.79547597370E-01  0.80698164833E-01  0.51100000000E-03 0. -1.
         11    1    4    4    0    0 -0.34162334959E-02 -0.19515981269E-01 -0.42558728011E-01  0.46947317571E-01  0.51100000000E-03 0.  1.
</event>
<event>
 8    1  0.1170483E+005  0.1043930E+01  0.7957747E-01            NaN
         13   -1    0    0    0    0  0.00000000000E+00  0.00000000000E+00  0.74505805969E-08  0.10566000000E+00  0.10566000000E+00 0.  1.
     999900   -1    0    0    0    0 -0.00000000000E+00 -0.00000000000E+00 -0.74505805969E-08  0.93827000000E+00  0.93827000000E+00 0.  1.
     999902    2    1    2    0    0  0.15719335796E-01 -0.55061031218E-03 -0.18222514758E-01  0.10198580094E+01  0.10195738808E+01 0.  0.
     999903    2    3    3    0    0 -0.87020571524E-01 -0.92107605046E-01 -0.14753044998E-01  0.12915592164E+00  0.20179419752E-01 0.  0.
         14    1    1    2    0    0 -0.15719335796E-01  0.55061031218E-03  0.18222514758E-01  0.24071990647E-01  0.00000000000E+00 0.  1.
     999901    1    3    3    0    0  0.10273990732E+00  0.91556994734E-01 -0.34694697596E-02  0.89070208772E+00  0.88000000000E+00 0. -1.
        -11    1    4    4    0    0 -0.39501336998E-01 -0.53134838868E-01 -0.14087221164E-01  0.67693261462E-01  0.51100000000E-03 0.  1.
         11    1    4    4    0    0 -0.47519234526E-01 -0.38972766178E-01 -0.66582383392E-03  0.61462660176E-01  0.51100000000E-03 0. -1.
</event>
<event>
 8    1  0.1170483E+005  0.1043930E+01  0.7957747E-01            NaN
         13   -1    0    0    0    0  0.00000000000E+00  0.00000000000E+00  0.74505805969E-08  0.10566000000E+00  0.10566000000E+00 0. -1.
     999900   -1    0    0    0    0 -0.00000000000E+00 -0.00000000000E+00 -0.74505805969E-08  0.93827000000E+00  0.93827000000E+00 0.  1.
     999902    2    1    2    0    0 -0.14690792920E-01  0.10959153464E-01  0.15847721026E-01  0.10197004168E+01  0.10194125109E+01 0.  0.
     999903    2    3    3    0    0  0.36505265308E-01 -0.12124170488E+00 -0.38000349916E-02  0.12813766653E+00  0.19303779941E-01 0.  0.
         14    1    1    2    0    0  0.14690792920E-01 -0.10959153464E-01 -0.15847721026E-01  0.24229583219E-01  0.00000000000E+00 0.  1.
     999901    1    3    3    0    0 -0.51196058228E-01  0.13220085834E+00  0.19647756018E-01  0.89156275025E+00  0.88000000000E+00 0.  1.
        -11    1    4    4    0    0  0.61740205445E-02 -0.27091344873E-01 -0.86393146344E-02  0.29102549288E-01  0.51100000000E-03 0.  1.
         11    1    4    4    0    0  0.30331244763E-01 -0.94150360006E-01  0.48392796428E-02  0.99035117239E-01  0.51100000000E-03 0. -1.
</event>
<event>
 8    1  0.1170483E+005  0.1043930E+01  0.7957747E-01            NaN
         13   -1    0    0    0    0  0.00000000000E+00  0.00000000000E+00  0.74505805969E-08  0.10566000000E+00  0.10566000000E+00 0.  1.
     999900   -1    0    0    0    0 -0.00000000000E+00 -0.00000000000E+00 -0.74505805969E-08  0.93827000000E+00  0.93827000000E+00 0. -1.
     999902    2    1    2    0    0  0.94540092876E-02  0.19229072778E-01  0.12702628672E-02  0.10224649330E+01  0.10222395953E+01 0.  0.
     999903    2    3    3    0    0 -0.93641535429E-01 -0.85873717011E-01 -0.19202083443E-01  0.12999958093E+00  0.19701233554E-01 0.  0.
         14    1    1    2    0    0 -0.94540092876E-02 -0.19229072778E-01 -0.12702628672E-02  0.21465066952E-01  0.00000000000E+00 0. -1.
     999901    1    3    3    0    0  0.10309554472E+00  0.10510278979E+00  0.20472346311E-01  0.89246535211E+00  0.88000000000E+00 0. -1.
        -11    1    4    4    0    0 -0.43304815445E-01 -0.34649592280E-01 -0.17507147286E-01  0.58160662075E-01  0.51100000000E-03 0. -1.
         11    1    4    4    0    0 -0.50336719984E-01 -0.51224124731E-01 -0.16949361576E-02  0.71838918859E-01  0.51100000000E-03 0.  1.
</event>
<event>
 8    1  0.1170483E+005  0.1043930E+01  0.7957747E-01            NaN
         13   -1    0    0    0    0  0.00000000000E+00  0.00000000000E+00  0.74505805969E-08  0.10566000000E+00  0.10566000000E+00 0. -1.
     999900   -1    0    0    0    0 -0.00000000000E+00 -0.00000000000E+00 -0.74505805969E-08  0.93827000000E+00  0.93827000000E+00 0. -1.
     999902    2    1    2    0    0 -0.17766441021E-01 -0.15585398017E-01 -0.35457170412E-02  0.10200318167E+01  0.10197518246E+01 0.  0.
     999903    2    3    3    0    0 -0.10133376790E+00 -0.51126292088E-01  0.65861852652E-01  0.13264009706E+00  0.19317905016E-01 0.  0.
         14    1    1    2    0    0  0.17766441021E-01  0.15585398017E-01  0.35457170412E-02  0.23898183346E-01  0.00000000000E+00 0. -1.
     999901    1    3    3    0    0  0.83567326878E-01  0.35540894070E-01 -0.69407569693E-01  0.88739171959E+00  0.88000000000E+00 0. -1.
        -11    1    4    4    0    0 -0.51265852067E-01 -0.18355787816E-01  0.23430236600E-01  0.59282034737E-01  0.51100000000E-03 0.  1.
         11    1    4    4    0    0 -0.50067915832E-01 -0.32770504272E-01  0.42431616052E-01  0.73358062323E-01  0.51100000000E-03 0. -1.
</event>
<event>
 8    1  0.1170483E+005  0.1043930E+01  0.7957747E-01            NaN
         13   -1    0    0    0    0  0.00000000000E+00  0.00000000000E+00  0.74505805969E-08  0.10566000000E+00  0.10566000000E+00 0.  1.
     999900   -1    0    0    0    0 -0.00000000000E+00 -0.00000000000E+00 -0.74505805969E-08  0.93827000000E+00  0.93827000000E+00 0. -1.
     999902    2    1    2    0    0 -0.10157902765E-02  0.21052542205E-01 -0.11437776453E-01  0.10199495060E+01  0.10196675589E+01 0.  0.
     999903    2    3    3    0    0  0.71000856510E-01  0.37204851134E-01  0.10021364920E+00  0.12982966273E+00  0.19688658296E-01 0.  0.
         14    1    1    2    0    0  0.10157902765E-02 -0.21052542205E-01  0.11437776453E-01  0.23980494018E-01  0.00000000000E+00 0.  1.
     999901    1    3    3    0    0 -0.72016646786E-01 -0.16152308929E-01 -0.11165142565E+00  0.89011984325E+00  0.88000000000E+00 0. -1.
        -11    1    4    4    0    0  0.44136673503E-01  0.12956811312E-01  0.50141604549E-01  0.68046796655E-01  0.51100000000E-03 0. -1.
         11    1    4    4    0    0  0.26864183007E-01  0.24248039823E-01  0.50072044652E-01  0.61782866076E-01  0.51100000000E-03 0.  1.
</event>
<event>
 8    1  0.1170483E+005  0.1043930E+01  0.7957747E-01            NaN
         13   -1    0    0    0    0  0.00000000000E+00  0.00000000000E+00  0.74505805969E-08  0.10566000000E+00  0.10566000000E+00 0.  1.
     999900   -1    0    0    0    0 -0.00000000000E+00 -0.00000000000E+00 -0.74505805969E-08  0.93827000000E+00  0.93827000000E+00 0. -1.
     999902    2    1    2    0    0 -0.56967288521E-02 -0.13920379700E-01 -0.18370873651E-01  0.10201872392E+01  0.10199109198E+01 0.  0.
     999903    2    3    3    0    0  0.74872209758E-01 -0.10517709683E+00  0.53778192009E-02  0.13148979763E+00  0.24342893173E-01 0.  0.
         14    1    1    2    0    0  0.56967288521E-02  0.13920379700E-01  0.18370873651E-01  0.23742760777E-01  0.00000000000E+00 0.  1.
     999901    1    3    3    0    0 -0.80568938610E-01  0.91256717132E-01 -0.23748692852E-01  0.88869744160E+00  0.88000000000E+00 0.  1.
        -11    1    4    4    0    0  0.74960964619E-02 -0.25635936994E-01  0.53605416841E-02  0.27246821023E-01  0.51100000000E-03 0.  1.
         11    1    4    4    0    0  0.67376113296E-01 -0.79541159838E-01  0.17277516842E-04  0.10424297660E+00  0.51100000000E-03 0. -1.
</event>
<event>
 8    1  0.1170483E+005  0.1043930E+01  0.7957747E-01            NaN
         13   -1    0    0    0    0  0.00000000000E+00  0.00000000000E+00  0.74505805969E-08  0.10566000000E+00  0.10566000000E+00 0.  1.
     999900   -1    0    0    0    0 -0.00000000000E+00 -0.00000000000E+00 -0.74505805969E-08  0.93827000000E+00  0.93827000000E+00 0. -1.
     999902    2    1    2    0    0  0.15643025355E-01 -0.14382086227E-01  0.12129856910E-01  0.10194620194E+01  0.10191683506E+01 0.  0.
     999903    2    3    3    0    0  0.53504341946E-01 -0.11792060531E+00  0.20318987648E-01  0.13254558246E+00  0.19684674409E-01 0.  0.
         14    1    1    2    0    0 -0.15643025355E-01  0.14382086227E-01 -0.12129856910E-01  0.24467980611E-01  0.00000000000E+00 0. -1.
     999901    1    3    3    0    0 -0.37861316591E-01  0.10353851909E+00 -0.81891307389E-02  0.88691643693E+00  0.88000000000E+00 0. -1.
        -11    1    4    4    0    0  0.29177126039E-01 -0.49496086959E-01  0.12937344747E-02  0.57472621117E-01  0.51100000000E-03 0.  1.
         11    1    4    4    0    0  0.24327215907E-01 -0.68424518355E-01  0.19025253174E-01  0.75072961346E-01  0.51100000000E-03 0. -1.
</event>
<event>
 8    1  0.1170483E+005  0.1043930E+01  0.7957747E-01            NaN
         13   -1    0    0    0    0  0.00000000000E+00  0.00000000000E+00  0.74505805969E-08  0.10566000000E+00  0.10566000000E+00 0.  1.
     999900   -1    0    0    0    0 -0.00000000000E+00 -0.00000000000E+00 -0.74505805969E-08  0.93827000000E+00  0.93827000000E+00 0.  1.
     999902    2    1    2    0    0  0.26698973476E-02  0.20734871804E-01  0.12027827077E-01  0.10198108813E+01  0.10195256259E+01 0.  0.
     999903    2    3    3    0    0  0.67434995013E-01 -0.52616261683E-01 -0.93133332546E-01  0.12816421581E+00  0.20887772446E-01 0.  0.
         14    1    1    2    0    0 -0.26698973476E-02 -0.20734871804E-01 -0.12027827077E-01  0.24119118657E-01  0.00000000000E+00 0. -1.
     999901    1    3    3    0    0 -0.64765097665E-01  0.73351133487E-01  0.10516115962E+00  0.89164666553E+00  0.88000000000E+00 0. -1.
        -11    1    4    4    0    0  0.53399573385E-01 -0.36750519266E-01 -0.81001566701E-01  0.10374791580E+00  0.51100000000E-03 0.  1.
         11    1    4    4    0    0  0.14035421628E-01 -0.15865742418E-01 -0.12131765845E-01  0.24416300012E-01  0.51100000000E-03 0. -1.
</event>
<event>
 8    1  0.1170483E+005  0.1043930E+01  0.7957747E-01            NaN
         13   -1    0    0    0    0  0.00000000000E+00  0.00000000000E+00  0.74505805969E-08  0.10566000000E+00  0.10566000000E+00 0.  1.
     999900   -1    0    0    0    0 -0.00000000000E+00 -0.00000000000E+00 -0.74505805969E-08  0.93827000000E+00  0.93827000000E+00 0. -1.
     999902    2    1    2    0    0  0.46319118952E-02 -0.17993765879E-01 -0.14247627441E-01  0.10205157926E+01  0.10202471553E+01 0.  0.
     999903    2    3    3    0    0  0.82919081331E-01 -0.74358899091E-01 -0.70858680341E-01  0.13343590873E+00  0.19477403206E-01 0.  0.
         14    1    1    2    0    0 -0.46319118952E-02  0.17993765879E-01  0.14247627441E-01  0.23414207354E-01  0.00000000000E+00 0.  1.
     999901    1    3    3    0    0 -0.78287169436E-01  0.56365133213E-01  0.56611052900E-01  0.88707988392E+00  0.88000000000E+00 0.  1.
        -11    1    4    4    0    0  0.43000591976E-01 -0.33834607026E-01 -0.45456293239E-01  0.71136258398E-01  0.51100000000E-03 0. -1.
         11    1    4    4    0    0  0.39918489355E-01 -0.40524292065E-01 -0.25402387103E-01  0.62299650330E-01  0.51100000000E-03 0.  1.
</event>
<event>
 8    1  0.1170483E+005  0.1043930E+01  0.7957747E-01            NaN
         13   -1    0    0    0    0  0.00000000000E+00  0.00000000000E+00  0.74505805969E-08  0.10566000000E+00  0.10566000000E+00 0.  1.
     999900   -1    0    0    0    0 -0.00000000000E+00 -0.00000000000E+00 -0.74505805969E-08  0.93827000000E+00  0.93827000000E+00 0.  1.
     999902    2    1    2    0    0  0.15725450781E-01 -0.97711785608E-02 -0.15170131605E-01  0.10199946992E+01  0.10197138264E+01 0.  0.
     999903    2    3    3    0    0 -0.10152443538E+00  0.54443274373E-01  0.51159859319E-01  0.12743058413E+00  0.18706722405E-01 0.  0.
         14    1    1    2    0    0 -0.15725450781E-01  0.97711785608E-02  0.15170131605E-01  0.23935300826E-01  0.00000000000E+00 0.  1.
     999901    1    3    3    0    0  0.11724988616E+00 -0.64214452934E-01 -0.66329990923E-01  0.89256411504E+00  0.88000000000E+00 0. -1.
        -11    1    4    4    0    0 -0.13685413545E-01  0.14688558374E-02  0.94139907202E-02  0.16683297745E-01  0.51100000000E-03 0. -1.
         11    1    4    4    0    0 -0.87839021831E-01  0.52974418536E-01  0.41745868599E-01  0.11074728638E+00  0.51100000000E-03 0.  1.
</event>
<event>
 8    1  0.1170483E+005  0.1043930E+01  0.7957747E-01            NaN
         13   -1    0    0    0    0  0.00000000000E+00  0.00000000000E+00  0.74505805969E-08  0.10566000000E+00  0.10566000000E+00 0. -1.
     999900   -1    0    0    0    0 -0.00000000000E+00 -0.00000000000E+00 -0.74505805969E-08  0.93827000000E+00  0.93827000000E+00 0. -1.
     999902    2    1    2    0    0 -0.13920240387E-01 -0.10882429052E-01  0.15725526125E-01  0.10202764056E+01  0.10200021820E+01 0.  0.
     999903    2    3    3    0    0 -0.94632478558E-01 -0.90130216027E-01 -0.11608108593E-01  0.13261554432E+00  0.19322850980E-01 0.  0.
         14    1    1    2    0    0  0.13920240387E-01  0.10882429052E-01 -0.15725526125E-01  0.23653594366E-01  0.00000000000E+00 0.  1.
     999901    1    3    3    0    0  0.80712238170E-01  0.79247786975E-01  0.27333634718E-01  0.88766086132E+00  0.88000000000E+00 0.  1.
        -11    1    4    4    0    0 -0.85827570068E-01 -0.80673673822E-01 -0.45407372959E-02  0.11787914509E+00  0.51100000000E-03 0. -1.
         11    1    4    4    0    0 -0.88049084891E-02 -0.94565422044E-02 -0.70673712973E-02  0.14736399222E-01  0.51100000000E-03 0.  1.
</event>
<event>
 8    1  0.1170483E+005  0.1043930E+01  0.7957747E-01            NaN
         13   -1    0    0    0    0  0.00000000000E+00  0.00000000000E+00  0.74505805969E-08  0.10566000000E+00  0.10566000000E+00 0. -1.
     999900   -1    0    0    0    0 -0.00000000000E+00 -0.00000000000E+00 -0.74505805969E-08  0.93827000000E+00  0.93827000000E+00 0.  1.
     999902    2    1    2    0    0 -0.10907814257E-01 -0.19434836253E-01  0.84940977635E-02  0.10200795709E+01  0.10198007099E+01 0.  0.
     999903    2    3    3    0    0  0.76873323201E-01 -0.10240624409E-01 -0.10110785459E+00  0.12889908996E+00  0.19437050286E-01 0.  0.
         14    1    1    2    0    0  0.10907814257E-01  0.19434836253E-01 -0.84940977635E-02  0.23850429113E-01  0.00000000000E+00 0.  1.
     999901    1    3    3    0    0 -0.87781137458E-01 -0.91942118436E-02  0.10960195236E+00  0.89118048093E+00  0.88000000000E+00 0. -1.
        -11    1    4    4    0    0  0.24578642796E-01 -0.94505432710E-02 -0.23415254365E-01  0.35241420343E-01  0.51100000000E-03 0. -1.
         11    1    4    4    0    0  0.52294680405E-01 -0.79008113826E-03 -0.77692600229E-01  0.93657669617E-01  0.51100000000E-03 0.  1.
</event>
<event>
 8    1  0.1170483E+005  0.1043930E+01  0.7957747E-01            NaN
         13   -1    0    0    0    0  0.00000000000E+00  0.00000000000E+00  0.74505805969E-08  0.10566000000E+00  0.10566000000E+00 0. -1.
     999900   -1    0    0    0    0 -0.00000000000E+00 -0.00000000000E+00 -0.74505805969E-08  0.93827000000E+00  0.93827000000E+00 0.  1.
     999902    2    1    2    0    0 -0.23218914849E-01  0.49272372255E-02 -0.29273427260E-03  0.10201922375E+01  0.10199160358E+01 0.  0.
     999903    2    3    3    0    0  0.79513007216E-01 -0.89493366695E-01 -0.41697901003E-01  0.12823736979E+00  0.19357868290E-01 0.  0.
         14    1    1    2    0    0  0.23218914849E-01 -0.49272372255E-02  0.29273427260E-03  0.23737762464E-01  0.00000000000E+00 0.  1.
     999901    1    3    3    0    0 -0.10273192207E+00  0.94420603920E-01  0.41405166730E-01  0.89195486774E+00  0.88000000000E+00 0.  1.
        -11    1    4    4    0    0  0.64336325814E-01 -0.62157826186E-01 -0.25510799921E-01  0.93025911492E-01  0.51100000000E-03 0.  1.
         11    1    4    4    0    0  0.15176681403E-01 -0.27335540509E-01 -0.16187101082E-01  0.35211458302E-01  0.51100000000E-03 0. -1.
</event>
<event>
 8    1  0.1170483E+005  0.1043930E+01  0.7957747E-01            NaN
         13   -1    0    0    0    0  0.00000000000E+00  0.00000000000E+00  0.74505805969E-08  0.10566000000E+00  0.10566000000E+00 0. -1.
     999900   -1    0    0    0    0 -0.00000000000E+00 -0.00000000000E+00 -0.74505805969E-08  0.93827000000E+00  0.93827000000E+00 0. -1.
     999902    2    1    2    0    0  0.55982794682E-02  0.19657998919E-01  0.13557184840E-01  0.10194029758E+01  0.10191078707E+01 0.  0.
     999903    2    3    3    0    0 -0.63808292292E-01  0.84926084150E-01 -0.72297807452E-01  0.13010647023E+00  0.20415256507E-01 0.  0.
         14    1    1    2    0    0 -0.55982794682E-02 -0.19657998919E-01 -0.13557184840E-01  0.24527024183E-01  0.00000000000E+00 0.  1.
     999901    1    3    3    0    0  0.69406571761E-01 -0.65268085231E-01  0.85854992292E-01  0.88929650559E+00  0.88000000000E+00 0.  1.
        -11    1    4    4    0    0 -0.28170293677E-01  0.49658606770E-01 -0.46965982089E-01  0.73929745480E-01  0.51100000000E-03 0.  1.
         11    1    4    4    0    0 -0.35637998615E-01  0.35267477381E-01 -0.25331825363E-01  0.56176724747E-01  0.51100000000E-03 0. -1.
</event>
<event>
 8    1  0.1170483E+005  0.1043930E+01  0.7957747E-01            NaN
         13   -1    0    0    0    0  0.00000000000E+00  0.00000000000E+00  0.74505805969E-08  0.10566000000E+00  0.10566000000E+00 0. -1.
     999900   -1    0    0    0    0 -0.00000000000E+00 -0.00000000000E+00 -0.74505805969E-08  0.93827000000E+00  0.93827000000E+00 0. -1.
     999902    2    1    2    0    0 -0.16780737870E-01  0.91012542227E-02 -0.13728820922E-01  0.10204160357E+01  0.10201450777E+01 0.  0.
     999903    2    3    3    0    0 -0.12550096475E+00 -0.32810441682E-01  0.16498634946E-01  0.13222102500E+00  0.19574914089E-01 0.  0.
         14    1    1    2    0    0  0.16780737870E-01 -0.91012542227E-02  0.13728820922E-01  0.23513964272E-01  0.00000000000E+00 0. -1.
     999901    1    3    3    0    0  0.10872022688E+00  0.41911695905E-01 -0.30227455867E-01  0.88819501072E+00  0.88000000000E+00 0.  1.
        -11    1    4    4    0    0 -0.52201018800E-01 -0.19591220643E-01 -0.75880577648E-03  0.55763780335E-01  0.51100000000E-03 0.  1.
         11    1    4    4    0    0 -0.73299945950E-01 -0.13219221038E-01  0.17257440722E-01  0.76457244669E-01  0.51100000000E-03 0. -1.
</event>
<event>
 8    1  0.1170483E+005  0.1043930E+01  0.7957747E-01            NaN
         13   -1    0    0    0    0  0.00000000000E+00  0.00000000000E+00  0.74505805969E-08  0.10566000000E+00  0.10566000000E+00 0.  1.
     999900   -1    0    0    0    0 -0.00000000000E+00 -0.00000000000E+00 -0.74505805969E-08  0.93827000000E+00  0.93827000000E+00 0. -1.
     999902    2    1    2    0    0  0.21219199258E-02 -0.92563393212E-02  0.19837238148E-01  0.10219368561E+01  0.10217001710E+01 0.  0.
     999903    2    3    3    0    0  0.45018424586E-01 -0.11706791833E+00  0.43252024839E-01  0.13401135307E+00  0.18887801454E-01 0.  0.
         14    1    1    2    0    0 -0.21219199258E-02  0.92563393212E-02 -0.19837238148E-01  0.21993143913E-01  0.00000000000E+00 0. -1.
     999901    1    3    3    0    0 -0.42896504660E-01  0.10781157901E+00 -0.23414786691E-01  0.88792550302E+00  0.88000000000E+00 0. -1.
        -11    1    4    4    0    0  0.21594807025E-01 -0.39311524647E-01  0.22550745835E-01  0.50204869477E-01  0.51100000000E-03 0. -1.
         11    1    4    4    0    0  0.23423617562E-01 -0.77756393682E-01  0.20701279004E-01  0.83806483589E-01  0.51100000000E-03 0.  1.
</event>
<event>
 8    1  0.1170483E+005  0.1043930E+01  0.7957747E-01            NaN
         13   -1    0    0    0    0  0.00000000000E+00  0.00000000000E+00  0.74505805969E-08  0.10566000000E+00  0.10566000000E+00 0. -1.
     999900   -1    0    0    0    0 -0.00000000000E+00 -0.00000000000E+00 -0.74505805969E-08  0.93827000000E+00  0.93827000000E+00 0.  1.
     999902    2    1    2    0    0  0.20491470683E-01 -0.74719585441E-02 -0.36104229620E-02  0.10218219542E+01  0.10215827624E+01 0.  0.
     999903    2    3    3    0    0  0.96505959498E-01  0.15503577780E-01 -0.89548226098E-01  0.13407684225E+00  0.20098599152E-01 0.  0.
         14    1    1    2    0    0 -0.20491470683E-01  0.74719585441E-02  0.36104229620E-02  0.22108045802E-01  0.00000000000E+00 0.  1.
     999901    1    3    3    0    0 -0.76014488816E-01 -0.22975536324E-01  0.85937803136E-01  0.88774511195E+00  0.88000000000E+00 0. -1.
        -11    1    4    4    0    0  0.20171360799E-01  0.53875491270E-02 -0.93078882415E-02  0.22864981666E-01  0.51100000000E-03 0.  1.
         11    1    4    4    0    0  0.76334598700E-01  0.10116028653E-01 -0.80240337856E-01  0.11121186058E+00  0.51100000000E-03 0. -1.
</event>
<event>
 8    1  0.1170483E+005  0.1043930E+01  0.7957747E-01            NaN
         13   -1    0    0    0    0  0.00000000000E+00  0.00000000000E+00  0.74505805969E-08  0.10566000000E+00  0.10566000000E+00 0. -1.
     999900   -1    0    0    0    0 -0.00000000000E+00 -0.00000000000E+00 -0.74505805969E-08  0.93827000000E+00  0.93827000000E+00 0.  1.
     999902    2    1    2    0    0 -0.17790562305E-01  0.14436122346E-01 -0.61536998310E-02  0.10202071469E+01  0.10199312962E+01 0.  0.
     999903    2    3    3    0    0  0.30926392935E-01  0.11001762570E+00  0.60513953936E-01  0.13118873230E+00  0.22095816737E-01 0.  0.
         14    1    1    2    0    0  0.17790562305E-01 -0.14436122346E-01  0.61536998310E-02  0.23722853056E-01  0.00000000000E+00 0. -1.
     999901    1    3    3    0    0 -0.48716955240E-01 -0.95581503355E-01 -0.66667653767E-01  0.88901841464E+00  0.88000000000E+00 0.  1.
        -11    1    4    4    0    0  0.26451254111E-01  0.53979493142E-01  0.29075561804E-01  0.66776522365E-01  0.51100000000E-03 0.  1.
         11    1    4    4    0    0  0.44751388239E-02  0.56038132559E-01  0.31438392133E-01  0.64412209938E-01  0.51100000000E-03 0. -1.
</event>
<event>
 8    1  0.1170483E+005  0.1043930E+01  0.7957747E-01            NaN
         13   -1    0    0    0    0  0.00000000000E+00  0.00000000000E+00  0.74505805969E-08  0.10566000000E+00  0.10566000000E+00 0.  1.
     999900   -1    0    0    0    0 -0.00000000000E+00 -0.00000000000E+00 -0.74505805969E-08  0.93827000000E+00  0.93827000000E+00 0. -1.
     999902    2    1    2    0    0  0.21260874488E-01 -0.41383083666E-02  0.63666628648E-02  0.10213538007E+01  0.10211042559E+01 0.  0.
     999903    2    3    3    0    0  0.40033613841E-01  0.99740205448E-01  0.74692955806E-01  0.13241530804E+00  0.20099187446E-01 0.  0.
         14    1    1    2    0    0 -0.21260874488E-01  0.41383083666E-02 -0.63666628648E-02  0.22576199329E-01  0.00000000000E+00 0.  1.
     999901    1    3    3    0    0 -0.18772739353E-01 -0.10387851381E+00 -0.68326292941E-01  0.88893849263E+00  0.88000000000E+00 0. -1.
        -11    1    4    4    0    0  0.51988332989E-02  0.29376616852E-01  0.12931555891E-01  0.32519221149E-01  0.51100000000E-03 0. -1.
         11    1    4    4    0    0  0.34834780542E-01  0.70363588596E-01  0.61761399915E-01  0.99896086890E-01  0.51100000000E-03 0.  1.
</event>
<event>
 8    1  0.1170483E+005  0.1043930E+01  0.7957747E-01            NaN
         13   -1    0    0    0    0  0.00000000000E+00  0.00000000000E+00  0.74505805969E-08  0.10566000000E+00  0.10566000000E+00 0.  1.
     999900   -1    0    0    0    0 -0.00000000000E+00 -0.00000000000E+00 -0.74505805969E-08  0.93827000000E+00  0.93827000000E+00 0. -1.
     999902    2    1    2    0    0 -0.21330484423E-01  0.49434320390E-02  0.60026008625E-02  0.10212262932E+01  0.10209738898E+01 0.  0.
     999903    2    3    3    0    0  0.11290743801E+00 -0.57717699447E-01  0.10426219532E-01  0.12883299109E+00  0.20243792968E-01 0.  0.
         14    1    1    2    0    0  0.21330484423E-01 -0.49434320390E-02 -0.60026008625E-02  0.22703706815E-01  0.00000000000E+00 0. -1.
     999901    1    3    3    0    0 -0.13423792243E+00  0.62661131486E-01 -0.44236186691E-02  0.89239330209E+00  0.88000000000E+00 0.  1.
        -11    1    4    4    0    0  0.10210058714E+00 -0.58258422289E-01  0.10243791539E-01  0.11799902562E+00  0.51100000000E-03 0.  1.
         11    1    4    4    0    0  0.10806850866E-01  0.54072284187E-03  0.18242799240E-03  0.10833965470E-01  0.51100000000E-03 0. -1.
</event>
<event>
 8    1  0.1170483E+005  0.1043930E+01  0.7957747E-01            NaN
         13   -1    0    0    0    0  0.00000000000E+00  0.00000000000E+00  0.74505805969E-08  0.10566000000E+00  0.10566000000E+00 0. -1.
     999900   -1    0    0    0    0 -0.00000000000E+00 -0.00000000000E+00 -0.74505805969E-08  0.93827000000E+00  0.93827000000E+00 0.  1.
     999902    2    1    2    0    0 -0.44688081208E-02  0.19990123543E-02  0.23493068255E-01  0.10199322803E+01  0.10196499231E+01 0.  0.
     999903    2    3    3    0    0 -0.79011429292E-02 -0.12805616987E+00  0.10958148341E-01  0.13027883338E+00  0.19790975467E-01 0.  0.
         14    1    1    2    0    0  0.44688081208E-02 -0.19990123543E-02 -0.23493068255E-01  0.23997719735E-01  0.00000000000E+00 0.  1.
     999901    1    3    3    0    0  0.34323348084E-02  0.13005518222E+00  0.12534919915E-01  0.88965344689E+00  0.88000000000E+00 0.  1.
        -11    1    4    4    0    0 -0.25929774747E-02 -0.87854127424E-02  0.56425806075E-02  0.10770647434E-01  0.51100000000E-03 0.  1.
         11    1    4    4    0    0 -0.53081654545E-02 -0.11927075713E+00  0.53155677331E-02  0.11950818594E+00  0.51100000000E-03 0. -1.
</event>
<event>
 8    1  0.1170483E+005  0.1043930E+01  0.7957747E-01            NaN
         13   -1    0    0    0    0  0.00000000000E+00  0.00000000000E+00  0.74505805969E-08  0.10566000000E+00  0.10566000000E+00 0.  1.
     999900   -1    0    0    0    0 -0.00000000000E+00 -0.00000000000E+00 -0.74505805969E-08  0.93827000000E+00  0.93827000000E+00 0.  1.
     999902    2    1    2    0    0 -0.18612998519E-01 -0.94067337076E-02  0.11119498013E-01  0.10202958385E+01  0.10200220706E+01 0.  0.
     999903    2    3    3    0    0  0.45356587414E-01  0.80958783632E-01  0.89137138727E-01  0.12993367237E+00  0.18049516488E-01 0.  0.
         14    1    1    2    0    0  0.18612998519E-01  0.94067337076E-02 -0.11119498013E-01  0.23634161482E-01  0.00000000000E+00 0. -1.
     999901    1    3    3    0    0 -0.63969585933E-01 -0.90365517340E-01 -0.78017640715E-01  0.89036216615E+00  0.88000000000E+00 0.  1.
        -11    1    4    4    0    0  0.63631842374E-02  0.23261504662E-01  0.30566070691E-01  0.38937559133E-01  0.51100000000E-03 0. -1.
         11    1    4    4    0    0  0.38993403176E-01  0.57697278970E-01  0.58571068036E-01  0.90996113234E-01  0.51100000000E-03 0.  1.
</event>
<event>
 8    1  0.1275011E+005  0.1043930E+01  0.7957747E-01            NaN
         13   -1    0    0    0    0  0.00000000000E+00  0.00000000000E+00  0.74505805969E-08  0.10566000000E+00  0.10566000000E+00 0. -1.
     999900   -1    0    0    0    0 -0.00000000000E+00 -0.00000000000E+00 -0.74505805969E-08  0.93827000000E+00  0.93827000000E+00 0. -1.
     999902    2    1    2    0    0 -0.15685071845E-01 -0.14896255112E-01  0.11863664380E-01  0.10192588341E+01  0.10189602075E+01 0.  0.
     999903    2    3    3    0    0  0.58806143249E-01  0.21628353459E-02  0.11410900103E+00  0.13004903738E+00  0.20713465823E-01 0.  0.
         14    1    1    2    0    0  0.15685071845E-01  0.14896255112E-01 -0.11863664380E-01  0.24671165917E-01  0.00000000000E+00 0. -1.
     999901    1    3    3    0    0 -0.74491215094E-01 -0.17059090458E-01 -0.10224533665E+00  0.88920979671E+00  0.88000000000E+00 0. -1.
        -11    1    4    4    0    0  0.30234747502E-01  0.10407966675E-01  0.49629698633E-01  0.59040950485E-01  0.51100000000E-03 0. -1.
         11    1    4    4    0    0  0.28571395747E-01 -0.82451313296E-02  0.64479302395E-01  0.71008086891E-01  0.51100000000E-03 0.  1.
</event>
<event>
 8    1  0.1170483E+005  0.1043930E+01  0.7957747E-01            NaN
         13   -1    0    0    0    0  0.00000000000E+00  0.00000000000E+00  0.74505805969E-08  0.10566000000E+00  0.10566000000E+00 0.  1.
     999900   -1    0    0    0    0 -0.00000000000E+00 -0.00000000000E+00 -0.74505805969E-08  0.93827000000E+00  0.93827000000E+00 0. -1.
     999902    2    1    2    0    0 -0.17577168399E-01  0.66898697716E-02 -0.13404946679E-01  0.10208344636E+01  0.10205731714E+01 0.  0.
     999903    2    3    3    0    0 -0.10530827564E+00 -0.75747810095E-01 -0.13789277976E-02  0.13255672360E+00  0.27236370477E-01 0.  0.
         14    1    1    2    0    0  0.17577168399E-01 -0.66898697716E-02  0.13404946679E-01  0.23095536408E-01  0.00000000000E+00 0.  1.
     999901    1    3    3    0    0  0.87731107240E-01  0.82437679866E-01 -0.12026018881E-01  0.88827773999E+00  0.88000000000E+00 0.  1.
        -11    1    4    4    0    0 -0.12605052702E-01 -0.37701039548E-02  0.69620292684E-02  0.14894025983E-01  0.51100000000E-03 0.  1.
         11    1    4    4    0    0 -0.92703222938E-01 -0.71977706140E-01 -0.83409570660E-02  0.11766269761E+00  0.51100000000E-03 0. -1.
</event>
<event>
 8    1  0.1170483E+005  0.1043930E+01  0.7957747E-01            NaN
         13   -1    0    0    0    0  0.00000000000E+00  0.00000000000E+00  0.74505805969E-08  0.10566000000E+00  0.10566000000E+00 0. -1.
     999900   -1    0    0    0    0 -0.00000000000E+00 -0.00000000000E+00 -0.74505805969E-08  0.93827000000E+00  0.93827000000E+00 0. -1.
     999902    2    1    2    0    0 -0.10939950526E-01 -0.20396666750E-01 -0.78031751295E-02  0.10195046837E+01  0.10192120506E+01 0.  0.
     999903    2    3    3    0    0 -0.19575731610E-01 -0.27329576907E-01  0.12359939513E+00  0.12967926411E+00  0.20243172245E-01 0.  0.
         14    1    1    2    0    0  0.10939950526E-01  0.20396666750E-01  0.78031751295E-02  0.24425316254E-01  0.00000000000E+00 0. -1.
     999901    1    3    3    0    0  0.86357810840E-02  0.69329101571E-02 -0.13140257026E+00  0.88982541963E+00  0.88000000000E+00 0. -1.
        -11    1    4    4    0    0 -0.21884043168E-01 -0.27539108424E-01  0.10091435787E+00  0.10687040088E+00  0.51100000000E-03 0. -1.
         11    1    4    4    0    0  0.23083115578E-02  0.20953151676E-03  0.22685037253E-01  0.22808863230E-01  0.51100000000E-03 0.  1.
</event>
<event>
 8    1  0.1170483E+005  0.1043930E+01  0.7957747E-01            NaN
         13   -1    0    0    0    0  0.00000000000E+00  0.00000000000E+00  0.74505805969E-08  0.10566000000E+00  0.10566000000E+00 0.  1.
     999900   -1    0    0    0    0 -0.00000000000E+00 -0.00000000000E+00 -0.74505805969E-08  0.93827000000E+00  0.93827000000E+00 0.  1.
     999902    2    1    2    0    0  0.74442616182E-02 -0.32938544291E-02 -0.22383806140E-01  0.10201119126E+01  0.10198338164E+01 0.  0.
     999903    2    3    3    0    0  0.52144138470E-01 -0.90811580334E-01  0.73873853531E-01  0.12942511675E+00  0.18104151728E-01 0.  0.
         14    1    1    2    0    0 -0.74442616182E-02  0.32938544291E-02  0.22383806140E-01  0.23818087357E-01  0.00000000000E+00 0.  1.
     999901    1    3    3    0    0 -0.44699876851E-01  0.87517725905E-01 -0.96257659671E-01  0.89068679590E+00  0.88000000000E+00 0.  1.
        -11    1    4    4    0    0  0.10970418960E-01 -0.73903396014E-02  0.88696750980E-02  0.15934223198E-01  0.51100000000E-03 0. -1.
         11    1    4    4    0    0  0.41173719510E-01 -0.83421240733E-01  0.65004178433E-01  0.11349089355E+00  0.51100000000E-03 0.  1.
</event>
<event>
 8    1  0.1170483E+005  0.1043930E+01  0.7957747E-01            NaN
         13   -1    0    0    0    0  0.00000000000E+00  0.00000000000E+00  0.74505805969E-08  0.10566000000E+00  0.10566000000E+00 0.  1.
     999900   -1    0    0    0    0 -0.00000000000E+00 -0.00000000000E+00 -0.74505805969E-08  0.93827000000E+00  0.93827000000E+00 0. -1.
     999902    2    1    2    0    0  0.18590084937E-01  0.11071457742E-01 -0.10318749718E-01  0.10199582452E+01  0.10196765060E+01 0.  0.
     999903    2    3    3    0    0  0.21412315870E-03  0.12616405073E+00  0.30687544771E-01  0.13132699592E+00  0.19688598445E-01 0.  0.
         14    1    1    2    0    0 -0.18590084937E-01 -0.11071457742E-01  0.10318749718E-01  0.23971754843E-01  0.00000000000E+00 0.  1.
     999901    1    3    3    0    0  0.18375961779E-01 -0.11509259299E+00 -0.41006294489E-01  0.88863124924E+00  0.88000000000E+00 0. -1.
        -11    1    4    4    0    0  0.36319268219E-02  0.45673347622E-01  0.20225447745E-01  0.50085680917E-01  0.51100000000E-03 0. -1.
         11    1    4    4    0    0 -0.34178036632E-02  0.80490703105E-01  0.10462097026E-01  0.81241315003E-01  0.51100000000E-03 0.  1.
</event>
<event>
 8    1  0.1170483E+005  0.1043930E+01  0.7957747E-01            NaN
         13   -1    0    0    0    0  0.00000000000E+00  0.00000000000E+00  0.74505805969E-08  0.10566000000E+00  0.10566000000E+00 0. -1.
     999900   -1    0    0    0    0 -0.00000000000E+00 -0.00000000000E+00 -0.74505805969E-08  0.93827000000E+00  0.93827000000E+00 0. -1.
     999902    2    1    2    0    0  0.49464169878E-02 -0.18171547039E-01  0.13684544278E-01  0.10206504185E+01  0.10203848969E+01 0.  0.
     999903    2    3    3    0    0 -0.35613180747E-01 -0.77297541148E-02 -0.12248285966E+00  0.12919336743E+00  0.18995460888E-01 0.  0.
         14    1    1    2    0    0 -0.49464169878E-02  0.18171547039E-01 -0.13684544278E-01  0.23279581502E-01  0.00000000000E+00 0. -1.
     999901    1    3    3    0    0  0.40559597735E-01 -0.10441792925E-01  0.13616740394E+00  0.89145705107E+00  0.88000000000E+00 0.  1.
        -11    1    4    4    0    0 -0.79589556961E-02 -0.33902771369E-02 -0.97890684109E-02  0.13073864623E-01  0.51100000000E-03 0. -1.
         11    1    4    4    0    0 -0.27654225051E-01 -0.43394769779E-02 -0.11269379125E+00  0.11611950280E+00  0.51100000000E-03 0.  1.
</event>
<event>
 8    1  0.1170483E+005  0.1043930E+01  0.7957747E-01            NaN
         13   -1    0    0    0    0  0.00000000000E+00  0.00000000000E+00  0.74505805969E-08  0.10566000000E+00  0.10566000000E+00 0.  1.
     999900   -1    0    0    0    0 -0.00000000000E+00 -0.00000000000E+00 -0.74505805969E-08  0.93827000000E+00  0.93827000000E+00 0.  1.
     999902    2    1    2    0    0  0.72608363427E-02 -0.20200575551E-01 -0.87168403157E-02  0.10207617825E+01  0.10204988243E+01 0.  0.
     999903    2    3    3    0    0 -0.10098681286E+00 -0.74441506346E-01  0.33934170818E-01  0.13144814779E+00  0.19677737915E-01 0.  0.
         14    1    1    2    0    0 -0.72608363427E-02  0.20200575551E-01  0.87168403157E-02  0.23168217499E-01  0.00000000000E+00 0.  1.
     999901    1    3    3    0    0  0.10824764920E+00  0.54240930795E-01 -0.42651011134E-01  0.88931363471E+00  0.88000000000E+00 0.  1.
        -11    1    4    4    0    0 -0.72525077805E-01 -0.50402365410E-01  0.14761313548E-01  0.89545758405E-01  0.51100000000E-03 0. -1.
         11    1    4    4    0    0 -0.28461735056E-01 -0.24039140936E-01  0.19172857270E-01  0.41902389386E-01  0.51100000000E-03 0.  1.
</event>
<event>
 8    1  0.1170483E+005  0.1043930E+01  0.7957747E-01            NaN
         13   -1    0    0    0    0  0.00000000000E+00  0.00000000000E+00  0.74505805969E-08  0.10566000000E+00  0.10566000000E+00 0.  1.
     999900   -1    0    0    0    0 -0.00000000000E+00 -0.00000000000E+00 -0.74505805969E-08  0.93827000000E+00  0.93827000000E+00 0.  1.
     999902    2    1    2    0    0 -0.60986835076E-02 -0.41220078222E-02  0.22705950985E-01  0.10200606661E+01  0.10197813577E+01 0.  0.
     999903    2    3    3    0    0 -0.18275417962E-01  0.21644264280E-01  0.12913857960E+00  0.13318971832E+00  0.16132676357E-01 0.  0.
         14    1    1    2    0    0  0.60986835076E-02  0.41220078222E-02 -0.22705950985E-01  0.23869333865E-01  0.00000000000E+00 0. -1.
     999901    1    3    3    0    0  0.12176734454E-01 -0.25766272102E-01 -0.10643262862E+00  0.88687094781E+00  0.88000000000E+00 0.  1.
        -11    1    4    4    0    0 -0.58692983044E-02  0.94407268710E-02  0.85265058499E-01  0.85988181213E-01  0.51100000000E-03 0.  1.
         11    1    4    4    0    0 -0.12406119658E-01  0.12203537409E-01  0.43873521106E-01  0.47201537109E-01  0.51100000000E-03 0. -1.
</event>
<event>
 8    1  0.1170483E+005  0.1043930E+01  0.7957747E-01            NaN
         13   -1    0    0    0    0  0.00000000000E+00  0.00000000000E+00  0.74505805969E-08  0.10566000000E+00  0.10566000000E+00 0. -1.
     999900   -1    0    0    0    0 -0.00000000000E+00 -0.00000000000E+00 -0.74505805969E-08  0.93827000000E+00  0.93827000000E+00 0.  1.
     999902    2    1    2    0    0  0.14532571697E-01 -0.68540096780E-03 -0.18482486995E-01  0.10204083559E+01  0.10201372188E+01 0.  0.
     999903    2    3    3    0    0 -0.39449975061E-01  0.47256702028E-01 -0.11513614677E+00  0.13217725393E+00  0.20615473419E-01 0.  0.
         14    1    1    2    0    0 -0.14532571697E-01  0.68540096780E-03  0.18482486995E-01  0.23521644078E-01  0.00000000000E+00 0. -1.
     999901    1    3    3    0    0  0.53982546759E-01 -0.47942102995E-01  0.96653659778E-01  0.88823110199E+00  0.88000000000E+00 0. -1.
        -11    1    4    4    0    0 -0.12466996924E-01  0.44496498327E-02 -0.34748812871E-01  0.37188257729E-01  0.51100000000E-03 0.  1.
         11    1    4    4    0    0 -0.26982978137E-01  0.42807052195E-01 -0.80387333902E-01  0.94988996203E-01  0.51100000000E-03 0. -1.
</event>
<event>
 8    1  0.1170483E+005  0.1043930E+01  0.7957747E-01            NaN
         13   -1    0    0    0    0  0.00000000000E+00  0.00000000000E+00  0.74505805969E-08  0.10566000000E+00  0.10566000000E+00 0. -1.
     999900   -1    0    0    0    0 -0.00000000000E+00 -0.00000000000E+00 -0.74505805969E-08  0.93827000000E+00  0.93827000000E+00 0. -1.
     999902    2    1    2    0    0 -0.91754283880E-02  0.91538798512E-02  0.15479382097E-01  0.10237410606E+01  0.10235419708E+01 0.  0.
     999903    2    3    3    0    0 -0.51698753660E-02 -0.67526912495E-01 -0.11078011833E+00  0.13141967805E+00  0.20304818138E-01 0.  0.
         14    1    1    2    0    0  0.91754283880E-02 -0.91538798512E-02 -0.15479382097E-01  0.20188939361E-01  0.00000000000E+00 0.  1.
     999901    1    3    3    0    0 -0.40055530220E-02  0.76680792346E-01  0.12625950043E+00  0.89232138259E+00  0.88000000000E+00 0.  1.
        -11    1    4    4    0    0 -0.11266371894E-01 -0.22654488787E-01 -0.43256627949E-01  0.50115406616E-01  0.51100000000E-03 0. -1.
         11    1    4    4    0    0  0.60964965277E-02 -0.44872423708E-01 -0.67523490384E-01  0.81304271437E-01  0.51100000000E-03 0.  1.
</event>
<event>
 8    1  0.1170483E+005  0.1043930E+01  0.7957747E-01            NaN
         13   -1    0    0    0    0  0.00000000000E+00  0.00000000000E+00  0.74505805969E-08  0.10566000000E+00  0.10566000000E+00 0.  1.
     999900   -1    0    0    0    0 -0.00000000000E+00 -0.00000000000E+00 -0.74505805969E-08  0.93827000000E+00  0.93827000000E+00 0. -1.
     999902    2    1    2    0    0 -0.11231455230E-01 -0.76858911207E-02 -0.27648151715E-01  0.10131137899E+01  0.10126450082E+01 0.  0.
     999903    2    3    3    0    0  0.43468575041E-01 -0.10938458564E+00 -0.38562349323E-01  0.12550248003E+00  0.20231488231E-01 0.  0.
         14    1    1    2    0    0  0.11231455230E-01  0.76858911207E-02  0.27648151715E-01  0.30816210056E-01  0.00000000000E+00 0. -1.
     999901    1    3    3    0    0 -0.54700030272E-01  0.10169869452E+00  0.10914197608E-01  0.88761130991E+00  0.88000000000E+00 0. -1.
        -11    1    4    4    0    0  0.32514527056E-01 -0.56072159170E-01 -0.24418867684E-01  0.69266324600E-01  0.51100000000E-03 0. -1.
         11    1    4    4    0    0  0.10954047986E-01 -0.53312426472E-01 -0.14143481639E-01  0.56236155430E-01  0.51100000000E-03 0.  1.
</event>
<event>
 8    1  0.1170483E+005  0.1043930E+01  0.7957747E-01            NaN
         13   -1    0    0    0    0  0.00000000000E+00  0.00000000000E+00  0.74505805969E-08  0.10566000000E+00  0.10566000000E+00 0.  1.
     999900   -1    0    0    0    0 -0.00000000000E+00 -0.00000000000E+00 -0.74505805969E-08  0.93827000000E+00  0.93827000000E+00 0.  1.
     999902    2    1    2    0    0 -0.79592135220E-02  0.82639434058E-02  0.21011658939E-01  0.10199898318E+01  0.10197088434E+01 0.  0.
     999903    2    3    3    0    0  0.97644839905E-01  0.30859885363E-01 -0.74459753674E-01  0.12826252861E+00  0.20498147299E-01 0.  0.
         14    1    1    2    0    0  0.79592135220E-02 -0.82639434058E-02 -0.21011658939E-01  0.23940168167E-01  0.00000000000E+00 0. -1.
     999901    1    3    3    0    0 -0.10560405343E+00 -0.22595941957E-01  0.95471412612E-01  0.89172730323E+00  0.88000000000E+00 0. -1.
        -11    1    4    4    0    0  0.61934745874E-01  0.27183440324E-01 -0.40466648213E-01  0.78820447302E-01  0.51100000000E-03 0.  1.
         11    1    4    4    0    0  0.35710094032E-01  0.36764450391E-02 -0.33993105461E-01  0.49442081305E-01  0.51100000000E-03 0. -1.
</event>
<event>
 8    1  0.1170483E+005  0.1043930E+01  0.7957747E-01            NaN
         13   -1    0    0    0    0  0.00000000000E+00  0.00000000000E+00  0.74505805969E-08  0.10566000000E+00  0.10566000000E+00 0.  1.
     999900   -1    0    0    0    0 -0.00000000000E+00 -0.00000000000E+00 -0.74505805969E-08  0.93827000000E+00  0.93827000000E+00 0.  1.
     999902    2    1    2    0    0 -0.20345683012E-01  0.56513235968E-02 -0.11412463562E-01  0.10199273210E+01  0.10196448458E+01 0.  0.
     999903    2    3    3    0    0  0.74816839174E-01  0.21944393097E-01 -0.10226423928E+00  0.12999731536E+00  0.19031856267E-01 0.  0.
         14    1    1    2    0    0  0.20345683012E-01 -0.56513235968E-02  0.11412463562E-01  0.24002679021E-01  0.00000000000E+00 0.  1.
     999901    1    3    3    0    0 -0.95162522186E-01 -0.16293069500E-01  0.90851775723E-01  0.88993000562E+00  0.88000000000E+00 0. -1.
        -11    1    4    4    0    0  0.68589903116E-01  0.17074574101E-01 -0.82120643359E-01  0.10835209770E+00  0.51100000000E-03 0.  1.
         11    1    4    4    0    0  0.62269360582E-02  0.48698189953E-02 -0.20143595926E-01  0.21645217660E-01  0.51100000000E-03 0. -1.
</event>
<event>
 8    1  0.1170483E+005  0.1043930E+01  0.7957747E-01            NaN
         13   -1    0    0    0    0  0.00000000000E+00  0.00000000000E+00  0.74505805969E-08  0.10566000000E+00  0.10566000000E+00 0. -1.
     999900   -1    0    0    0    0 -0.00000000000E+00 -0.00000000000E+00 -0.74505805969E-08  0.93827000000E+00  0.93827000000E+00 0.  1.
     999902    2    1    2    0    0 -0.56542845636E-02 -0.25124172020E-01 -0.98443557065E-02  0.10163599747E+01  0.10159859704E+01 0.  0.
     999903    2    3    3    0    0 -0.91230230293E-01 -0.60248214357E-01  0.64301689613E-01  0.12841032703E+00  0.20042518485E-01 0.  0.
         14    1    1    2    0    0  0.56542845636E-02  0.25124172020E-01  0.98443557065E-02  0.27570025261E-01  0.00000000000E+00 0. -1.
     999901    1    3    3    0    0  0.85575945729E-01  0.35124042337E-01 -0.74146045320E-01  0.88794964771E+00  0.88000000000E+00 0.  1.
        -11    1    4    4    0    0 -0.50128264829E-01 -0.42824976713E-01  0.44667600773E-01  0.79638415636E-01  0.51100000000E-03 0.  1.
         11    1    4    4    0    0 -0.41101965464E-01 -0.17423237644E-01  0.19634088840E-01  0.48771911389E-01  0.51100000000E-03 0. -1.
</event>
<event>
 8    1  0.1170483E+005  0.1043930E+01  0.7957747E-01            NaN
         13   -1    0    0    0    0  0.00000000000E+00  0.00000000000E+00  0.74505805969E-08  0.10566000000E+00  0.10566000000E+00 0. -1.
     999900   -1    0    0    0    0 -0.00000000000E+00 -0.00000000000E+00 -0.74505805969E-08  0.93827000000E+00  0.93827000000E+00 0. -1.
     999902    2    1    2    0    0  0.22070679734E-01 -0.77756177267E-03  0.44667655415E-02  0.10213984332E+01  0.10211498851E+01 0.  0.
     999903    2    3    3    0    0 -0.21814837638E-01  0.90326572921E-01 -0.89701230811E-01  0.13061590449E+00  0.19478880343E-01 0.  0.
         14    1    1    2    0    0 -0.22070679734E-01  0.77756177267E-03 -0.44667655415E-02  0.22531566759E-01  0.00000000000E+00 0.  1.
     999901    1    3    3    0    0  0.43885517372E-01 -0.91104134694E-01  0.94167996353E-01  0.89078252875E+00  0.88000000000E+00 0.  1.
        -11    1    4    4    0    0 -0.10064462416E-02  0.67904465628E-02 -0.91383186399E-03  0.69440124018E-02  0.51100000000E-03 0.  1.
         11    1    4    4    0    0 -0.20808391396E-01  0.83536126358E-01 -0.88787398947E-01  0.12367189209E+00  0.51100000000E-03 0. -1.
</event>
<event>
 8    1  0.1170483E+005  0.1043930E+01  0.7957747E-01            NaN
         13   -1    0    0    0    0  0.00000000000E+00  0.00000000000E+00  0.74505805969E-08  0.10566000000E+00  0.10566000000E+00 0. -1.
     999900   -1    0    0    0    0 -0.00000000000E+00 -0.00000000000E+00 -0.74505805969E-08  0.93827000000E+00  0.93827000000E+00 0.  1.
     999902    2    1    2    0    0  0.26504673713E-02 -0.92402979067E-04  0.22830274125E-01  0.10209462028E+01  0.10206874615E+01 0.  0.
     999903    2    3    3    0    0 -0.10894830227E+00  0.58146461718E-01 -0.35438547892E-01  0.13008072120E+00  0.20355828970E-01 0.  0.
         14    1    1    2    0    0 -0.26504673713E-02  0.92402979067E-04 -0.22830274125E-01  0.22983797167E-01  0.00000000000E+00 0.  1.
     999901    1    3    3    0    0  0.11159876964E+00 -0.58238864697E-01  0.58268822017E-01  0.89086548163E+00  0.88000000000E+00 0. -1.
        -11    1    4    4    0    0 -0.41994558925E-01  0.31881815923E-01 -0.20805293165E-01  0.56684340964E-01  0.51100000000E-03 0.  1.
         11    1    4    4    0    0 -0.66953743345E-01  0.26264645795E-01 -0.14633254726E-01  0.73396380235E-01  0.51100000000E-03 0. -1.
</event>
<event>
 8    1  0.1170483E+005  0.1043930E+01  0.7957747E-01            NaN
         13   -1    0    0    0    0  0.00000000000E+00  0.00000000000E+00  0.74505805969E-08  0.10566000000E+00  0.10566000000E+00 0. -1.
     999900   -1    0    0    0    0 -0.00000000000E+00 -0.00000000000E+00 -0.74505805969E-08  0.93827000000E+00  0.93827000000E+00 0. -1.
     999902    2    1    2    0    0 -0.15694591646E-01 -0.16190125173E-01  0.77013648834E-02  0.10201024659E+01  0.10198241464E+01 0.  0.
     999903    2    3    3    0    0  0.31956083901E-01  0.71859737942E-01  0.10111606111E+00  0.12951295847E+00  0.19082331155E-01 0.  0.
         14    1    1    2    0    0  0.15694591646E-01  0.16190125173E-01 -0.77013648834E-02  0.23827534097E-01  0.00000000000E+00 0.  1.
     999901    1    3    3    0    0 -0.47650675547E-01 -0.88049863115E-01 -0.93414696228E-01  0.89058950743E+00  0.88000000000E+00 0. -1.
        -11    1    4    4    0    0  0.25588129015E-01  0.45039358968E-01  0.77452539625E-01  0.93179682431E-01  0.51100000000E-03 0.  1.
         11    1    4    4    0    0  0.63679548864E-02  0.26820378974E-01  0.23663521487E-01  0.36333276041E-01  0.51100000000E-03 0. -1.
</event>
<event>
 8    1  0.1170483E+005  0.1043930E+01  0.7957747E-01            NaN
         13   -1    0    0    0    0  0.00000000000E+00  0.00000000000E+00  0.74505805969E-08  0.10566000000E+00  0.10566000000E+00 0.  1.
     999900   -1    0    0    0    0 -0.00000000000E+00 -0.00000000000E+00 -0.74505805969E-08  0.93827000000E+00  0.93827000000E+00 0. -1.
     999902    2    1    2    0    0  0.14602003438E-01 -0.19187640583E-02 -0.18444302443E-01  0.10203271940E+01  0.10200541605E+01 0.  0.
     999903    2    3    3    0    0 -0.90744302231E-01 -0.77913067301E-01 -0.47355416833E-01  0.13032223287E+00  0.20889577155E-01 0.  0.
         14    1    1    2    0    0 -0.14602003438E-01  0.19187640583E-02  0.18444302443E-01  0.23602806031E-01  0.00000000000E+00 0. -1.
     999901    1    3    3    0    0  0.10534630567E+00  0.75994303242E-01  0.28911114391E-01  0.89000496110E+00  0.88000000000E+00 0.  1.
        -11    1    4    4    0    0 -0.64971556743E-01 -0.67068862285E-01 -0.34587738963E-01  0.99579657970E-01  0.51100000000E-03 0. -1.
         11    1    4    4    0    0 -0.25772745488E-01 -0.10844205015E-01 -0.12767677870E-01  0.30742574902E-01  0.51100000000E-03 0.  1.
</event>
<event>
 8    1  0.1170483E+005  0.1043930E+01  0.7957747E-01            NaN
         13   -1    0    0    0    0  0.00000000000E+00  0.00000000000E+00  0.74505805969E-08  0.10566000000E+00  0.10566000000E+00 0. -1.
     999900   -1    0    0    0    0 -0.00000000000E+00 -0.00000000000E+00 -0.74505805969E-08  0.93827000000E+00  0.93827000000E+00 0. -1.
     999902    2    1    2    0    0 -0.14178205719E-01 -0.19778337284E-01  0.39163812294E-02  0.10192816292E+01  0.10189835609E+01 0.  0.
     999903    2    3    3    0    0  0.40068083144E-01 -0.10698629695E+00 -0.60782242272E-01  0.13094959666E+00  0.20044871349E-01 0.  0.
         14    1    1    2    0    0  0.14178205719E-01  0.19778337284E-01 -0.39163812294E-02  0.24648370841E-01  0.00000000000E+00 0.  1.
     999901    1    3    3    0    0 -0.54246288863E-01  0.87207959666E-01  0.64698623501E-01  0.88833203250E+00  0.88000000000E+00 0.  1.
        -11    1    4    4    0    0  0.30466510575E-01 -0.83531616539E-01 -0.56205875914E-01  0.10519078304E+00  0.51100000000E-03 0. -1.
         11    1    4    4    0    0  0.96015725687E-02 -0.23454680412E-01 -0.45763663580E-02  0.25758813619E-01  0.51100000000E-03 0.  1.
</event>
<event>
 8    1  0.1170483E+005  0.1043930E+01  0.7957747E-01            NaN
         13   -1    0    0    0    0  0.00000000000E+00  0.00000000000E+00  0.74505805969E-08  0.10566000000E+00  0.10566000000E+00 0.  1.
     999900   -1    0    0    0    0 -0.00000000000E+00 -0.00000000000E+00 -0.74505805969E-08  0.93827000000E+00  0.93827000000E+00 0. -1.
     999902    2    1    2    0    0 -0.10989799705E-01 -0.27453411634E-01 -0.27942531959E-02  0.10142269133E+01  0.10137918713E+01 0.  0.
     999903    2    3    3    0    0 -0.69925328529E-01 -0.45969922921E-01  0.93206567725E-01  0.12685302629E+00  0.20035983351E-01 0.  0.
         14    1    1    2    0    0  0.10989799705E-01  0.27453411634E-01  0.27942531959E-02  0.29703086688E-01  0.00000000000E+00 0. -1.
     999901    1    3    3    0    0  0.58935528825E-01  0.18516511288E-01 -0.96000820921E-01  0.88737388702E+00  0.88000000000E+00 0. -1.
        -11    1    4    4    0    0 -0.58305885825E-01 -0.29924235419E-01  0.64367227303E-01  0.91860967004E-01  0.51100000000E-03 0.  1.
         11    1    4    4    0    0 -0.11619442705E-01 -0.16045687502E-01  0.28839340422E-01  0.34992059288E-01  0.51100000000E-03 0. -1.
</event>
<event>
 8    1  0.1170483E+005  0.1043930E+01  0.7957747E-01            NaN
         13   -1    0    0    0    0  0.00000000000E+00  0.00000000000E+00  0.74505805969E-08  0.10566000000E+00  0.10566000000E+00 0.  1.
     999900   -1    0    0    0    0 -0.00000000000E+00 -0.00000000000E+00 -0.74505805969E-08  0.93827000000E+00  0.93827000000E+00 0.  1.
     999902    2    1    2    0    0  0.13814152255E-01 -0.12952516545E-01 -0.13759492408E-01  0.10205222637E+01  0.10202537766E+01 0.  0.
     999903    2    3    3    0    0 -0.36355397157E-02 -0.12154961434E+00  0.45425174060E-01  0.13170245848E+00  0.22238822766E-01 0.  0.
         14    1    1    2    0    0 -0.13814152255E-01  0.12952516545E-01  0.13759492408E-01  0.23407736301E-01  0.00000000000E+00 0.  1.
     999901    1    3    3    0    0  0.17449691971E-01  0.10859709779E+00 -0.59184666468E-01  0.88881980522E+00  0.88000000000E+00 0.  1.
        -11    1    4    4    0    0  0.67910168744E-02 -0.39026212627E-01  0.76593041044E-02  0.40349587886E-01  0.51100000000E-03 0.  1.
         11    1    4    4    0    0 -0.10426556590E-01 -0.82523401709E-01  0.37765869955E-01  0.91352870598E-01  0.51100000000E-03 0. -1.
</event>
<event>
 8    1  0.1170483E+005  0.1043930E+01  0.7957747E-01            NaN
         13   -1    0    0    0    0  0.00000000000E+00  0.00000000000E+00  0.74505805969E-08  0.10566000000E+00  0.10566000000E+00 0.  1.
     999900   -1    0    0    0    0 -0.00000000000E+00 -0.00000000000E+00 -0.74505805969E-08  0.93827000000E+00  0.93827000000E+00 0. -1.
     999902    2    1    2    0    0  0.81107267324E-02  0.39388717725E-02 -0.23124753980E-01  0.10191095881E+01  0.10188072928E+01 0.  0.
     999903    2    3    3    0    0  0.25626034210E-01 -0.98487912601E-01  0.74398250447E-01  0.12764519257E+00  0.20040782385E-01 0.  0.
         14    1    1    2    0    0 -0.81107267324E-02 -0.39388717725E-02  0.23124753980E-01  0.24820411875E-01  0.00000000000E+00 0.  1.
     999901    1    3    3    0    0 -0.17515307478E-01  0.10242678437E+00 -0.97523004427E-01  0.89146439556E+00  0.88000000000E+00 0. -1.
        -11    1    4    4    0    0  0.10438204677E-01 -0.74673102117E-01  0.52000557376E-01  0.91593380683E-01  0.51100000000E-03 0. -1.
         11    1    4    4    0    0  0.15187829533E-01 -0.23814810484E-01  0.22397693071E-01  0.36051811885E-01  0.51100000000E-03 0.  1.
</event>
<event>
 8    1  0.1170483E+005  0.1043930E+01  0.7957747E-01            NaN
         13   -1    0    0    0    0  0.00000000000E+00  0.00000000000E+00  0.74505805969E-08  0.10566000000E+00  0.10566000000E+00 0. -1.
     999900   -1    0    0    0    0 -0.00000000000E+00 -0.00000000000E+00 -0.74505805969E-08  0.93827000000E+00  0.93827000000E+00 0.  1.
     999902    2    1    2    0    0  0.13158257908E-01  0.17499404415E-01 -0.85664190470E-02  0.10204193122E+01  0.10201484305E+01 0.  0.
     999903    2    3    3    0    0  0.88451938587E-01 -0.58163912418E-01 -0.75235096559E-01  0.13146555162E+00  0.20398170547E-01 0.  0.
         14    1    1    2    0    0 -0.13158257908E-01 -0.17499404415E-01  0.85664190470E-02  0.23510687811E-01  0.00000000000E+00 0. -1.
     999901    1    3    3    0    0 -0.75293680679E-01  0.75663316833E-01  0.66668677512E-01  0.88895376057E+00  0.88000000000E+00 0. -1.
        -11    1    4    4    0    0  0.27709083217E-01 -0.12697703814E-01 -0.12248203249E-01  0.32852771248E-01  0.51100000000E-03 0.  1.
         11    1    4    4    0    0  0.60742855370E-01 -0.45466208604E-01 -0.62986893309E-01  0.98612780374E-01  0.51100000000E-03 0. -1.
</event>
<event>
 8    1  0.1170483E+005  0.1043930E+01  0.7957747E-01            NaN
         13   -1    0    0    0    0  0.00000000000E+00  0.00000000000E+00  0.74505805969E-08  0.10566000000E+00  0.10566000000E+00 0.  1.
     999900   -1    0    0    0    0 -0.00000000000E+00 -0.00000000000E+00 -0.74505805969E-08  0.93827000000E+00  0.93827000000E+00 0.  1.
     999902    2    1    2    0    0  0.18615285424E-01 -0.11513510966E-01  0.42348782030E-02  0.10216359654E+01  0.10213926874E+01 0.  0.
     999903    2    3    3    0    0  0.26800006968E-01  0.12538482922E+00  0.17534884290E-01  0.13091432796E+00  0.19786190281E-01 0.  0.
         14    1    1    2    0    0 -0.18615285424E-01  0.11513510966E-01 -0.42348782030E-02  0.22294034618E-01  0.00000000000E+00 0. -1.
     999901    1    3    3    0    0 -0.81847215446E-02 -0.13689834019E+00 -0.13300006087E-01  0.89072163742E+00  0.88000000000E+00 0.  1.
        -11    1    4    4    0    0  0.26545615731E-01  0.95445536744E-01  0.19242140093E-01  0.10092096549E+00  0.51100000000E-03 0. -1.
         11    1    4    4    0    0  0.25439123712E-03  0.29939292475E-01 -0.17072558031E-02  0.29993362469E-01  0.51100000000E-03 0.  1.
</event>
<event>
 8    1  0.1170483E+005  0.1043930E+01  0.7957747E-01            NaN
         13   -1    0    0    0    0  0.00000000000E+00  0.00000000000E+00  0.74505805969E-08  0.10566000000E+00  0.10566000000E+00 0.  1.
     999900   -1    0    0    0    0 -0.00000000000E+00 -0.00000000000E+00 -0.74505805969E-08  0.93827000000E+00  0.93827000000E+00 0. -1.
     999902    2    1    2    0    0  0.55180644781E-02  0.17013786562E-01  0.16114314191E-01  0.10198553434E+01  0.10195711512E+01 0.  0.
     999903    2    3    3    0    0  0.47511034219E-01  0.47003936466E-01 -0.10932554227E+00  0.12946330829E+00  0.18493392961E-01 0.  0.
         14    1    1    2    0    0 -0.55180644781E-02 -0.17013786562E-01 -0.16114314191E-01  0.24074656604E-01  0.00000000000E+00 0. -1.
     999901    1    3    3    0    0 -0.41992969741E-01 -0.29990149904E-01  0.12543985646E+00  0.89039203511E+00  0.88000000000E+00 0.  1.
        -11    1    4    4    0    0  0.15407992990E-01  0.78801877237E-02 -0.40381094451E-01  0.43936289290E-01  0.51100000000E-03 0.  1.
         11    1    4    4    0    0  0.32103041229E-01  0.39123748742E-01 -0.68944447821E-01  0.85527018995E-01  0.51100000000E-03 0. -1.
</event>
<event>
 8    1  0.1170483E+005  0.1043930E+01  0.7957747E-01            NaN
         13   -1    0    0    0    0  0.00000000000E+00  0.00000000000E+00  0.74505805969E-08  0.10566000000E+00  0.10566000000E+00 0. -1.
     999900   -1    0    0    0    0 -0.00000000000E+00 -0.00000000000E+00 -0.74505805969E-08  0.93827000000E+00  0.93827000000E+00 0.  1.
     999902    2    1    2    0    0 -0.16154305932E-01  0.95651890743E-03 -0.17389871137E-01  0.10201753342E+01  0.10198987344E+01 0.  0.
     999903    2    3    3    0    0  0.84619637243E-01  0.38932139094E-01  0.85167850913E-01  0.12769809545E+00  0.19417679869E-01 0.  0.
         14    1    1    2    0    0  0.16154305932E-01 -0.95651890743E-03  0.17389871137E-01  0.23754665788E-01  0.00000000000E+00 0. -1.
     999901    1    3    3    0    0 -0.10077394317E+00 -0.37975620187E-01 -0.10255772205E+00  0.89247723876E+00  0.88000000000E+00 0.  1.
        -11    1    4    4    0    0  0.64918889029E-01  0.23399756449E-01  0.53644079937E-01  0.87406860073E-01  0.51100000000E-03 0.  1.
         11    1    4    4    0    0  0.19700748215E-01  0.15532382646E-01  0.31523770976E-01  0.40291235380E-01  0.51100000000E-03 0. -1.
</event>
<event>
 8    1  0.1170483E+005  0.1043930E+01  0.7957747E-01            NaN
         13   -1    0    0    0    0  0.00000000000E+00  0.00000000000E+00  0.74505805969E-08  0.10566000000E+00  0.10566000000E+00 0. -1.
     999900   -1    0    0    0    0 -0.00000000000E+00 -0.00000000000E+00 -0.74505805969E-08  0.93827000000E+00  0.93827000000E+00 0. -1.
     999902    2    1    2    0    0  0.32960509366E-02  0.15686663018E-01 -0.21678077615E-01  0.10169693917E+01  0.10166119561E+01 0.  0.
     999903    2    3    3    0    0 -0.40616831805E-01 -0.44106344057E-01 -0.11267321985E+00  0.12917230858E+00  0.19877983341E-01 0.  0.
         14    1    1    2    0    0 -0.32960509366E-02 -0.15686663018E-01  0.21678077615E-01  0.26960608255E-01  0.00000000000E+00 0. -1.
     999901    1    3    3    0    0  0.43912882742E-01  0.59793007075E-01  0.90995142231E-01  0.88779708316E+00  0.88000000000E+00 0.  1.
        -11    1    4    4    0    0 -0.37023262509E-01 -0.32960839077E-01 -0.76588981356E-01  0.91231968441E-01  0.51100000000E-03 0.  1.
         11    1    4    4    0    0 -0.35935692964E-02 -0.11145504980E-01 -0.36084238490E-01  0.37940340140E-01  0.51100000000E-03 0. -1.
</event>
<event>
 8    1  0.1170483E+005  0.1043930E+01  0.7957747E-01            NaN
         13   -1    0    0    0    0  0.00000000000E+00  0.00000000000E+00  0.74505805969E-08  0.10566000000E+00  0.10566000000E+00 0.  1.
     999900   -1    0    0    0    0 -0.00000000000E+00 -0.00000000000E+00 -0.74505805969E-08  0.93827000000E+00  0.93827000000E+00 0. -1.
     999902    2    1    2    0    0 -0.23733610065E-01  0.90443209687E-03 -0.63628335882E-03  0.10201706418E+01  0.10198939314E+01 0.  0.
     999903    2    3    3    0    0 -0.10521002262E+00  0.74100921795E-01 -0.27309884877E-01  0.13297978698E+00  0.19434465835E-01 0.  0.
         14    1    1    2    0    0  0.23733610065E-01 -0.90443209687E-03  0.63628335882E-03  0.23759358170E-01  0.00000000000E+00 0.  1.
     999901    1    3    3    0    0  0.81476412559E-01 -0.73196489698E-01  0.26673601518E-01  0.88719085485E+00  0.88000000000E+00 0.  1.
        -11    1    4    4    0    0 -0.64244878227E-01  0.49931991302E-01 -0.25905069041E-01  0.85392867716E-01  0.51100000000E-03 0.  1.
         11    1    4    4    0    0 -0.40965144397E-01  0.24168930494E-01 -0.14048158356E-02  0.47586919266E-01  0.51100000000E-03 0. -1.
</event>
<event>
 8    1  0.1170483E+005  0.1043930E+01  0.7957747E-01            NaN
         13   -1    0    0    0    0  0.00000000000E+00  0.00000000000E+00  0.74505805969E-08  0.10566000000E+00  0.10566000000E+00 0.  1.
     999900   -1    0    0    0    0 -0.00000000000E+00 -0.00000000000E+00 -0.74505805969E-08  0.93827000000E+00  0.93827000000E+00 0. -1.
     999902    2    1    2    0    0  0.23402975925E-01  0.24458983859E-02 -0.95895335996E-02  0.10185205361E+01  0.10182035364E+01 0.  0.
     999903    2    3    3    0    0 -0.93356401423E-01  0.83540536805E-01 -0.65166250351E-02  0.12710675152E+00  0.20474884680E-01 0.  0.
         14    1    1    2    0    0 -0.23402975925E-01 -0.24458983859E-02  0.95895335996E-02  0.25409463901E-01  0.00000000000E+00 0.  1.
     999901    1    3    3    0    0  0.11675937735E+00 -0.81094638419E-01 -0.30729085646E-02  0.89141378458E+00  0.88000000000E+00 0.  1.
        -11    1    4    4    0    0 -0.62032403747E-01  0.54196043164E-01  0.54223783693E-02  0.82552368334E-01  0.51100000000E-03 0. -1.
         11    1    4    4    0    0 -0.31323997675E-01  0.29344493640E-01 -0.11939003404E-01  0.44554383181E-01  0.51100000000E-03 0.  1.
</event>
<event>
 8    1  0.1170483E+005  0.1043930E+01  0.7957747E-01            NaN
         13   -1    0    0    0    0  0.00000000000E+00  0.00000000000E+00  0.74505805969E-08  0.10566000000E+00  0.10566000000E+00 0.  1.
     999900   -1    0    0    0    0 -0.00000000000E+00 -0.00000000000E+00 -0.74505805969E-08  0.93827000000E+00  0.93827000000E+00 0.  1.
     999902    2    1    2    0    0  0.84666890880E-02 -0.16371590785E-02 -0.22110039369E-01  0.10201977655E+01  0.10199216939E+01 0.  0.
     999903    2    3    3    0    0  0.11922487719E+00  0.50126964132E-01 -0.14713489497E-01  0.13171500841E+00  0.20126420258E-01 0.  0.
         14    1    1    2    0    0 -0.84666890880E-02  0.16371590785E-02  0.22110039369E-01  0.23732234510E-01  0.00000000000E+00 0.  1.
     999901    1    3    3    0    0 -0.11075818810E+00 -0.51764123210E-01 -0.73965498718E-02  0.88848275708E+00  0.88000000000E+00 0. -1.
        -11    1    4    4    0    0  0.36343258647E-01  0.11137895273E-01 -0.12756832245E-01  0.40098417053E-01  0.51100000000E-03 0. -1.
         11    1    4    4    0    0  0.82881618543E-01  0.38989068859E-01 -0.19566572521E-02  0.91616591354E-01  0.51100000000E-03 0.  1.
</event>
<event>
 8    1  0.1170483E+005  0.1043930E+01  0.7957747E-01            NaN
         13   -1    0    0    0    0  0.00000000000E+00  0.00000000000E+00  0.74505805969E-08  0.10566000000E+00  0.10566000000E+00 0.  1.
     999900   -1    0    0    0    0 -0.00000000000E+00 -0.00000000000E+00 -0.74505805969E-08  0.93827000000E+00  0.93827000000E+00 0.  1.
     999902    2    1    2    0    0  0.77210734024E-02 -0.21317493517E-02 -0.22330952675E-01  0.10202059452E+01  0.10199300661E+01 0.  0.
     999903    2    3    3    0    0  0.32068341825E-02 -0.88447110090E-01 -0.97124260647E-01  0.13281383412E+00  0.19318836873E-01 0.  0.
         14    1    1    2    0    0 -0.77210734024E-02  0.21317493517E-02  0.22330952675E-01  0.23724054821E-01  0.00000000000E+00 0.  1.
     999901    1    3    3    0    0  0.45142392199E-02  0.86315360739E-01  0.74793307972E-01  0.88739211106E+00  0.88000000000E+00 0. -1.
        -11    1    4    4    0    0 -0.75615223349E-02 -0.44881292922E-01 -0.53231054738E-01  0.70037942459E-01  0.51100000000E-03 0.  1.
         11    1    4    4    0    0  0.10768356517E-01 -0.43565817169E-01 -0.43893205909E-01  0.62775891659E-01  0.51100000000E-03 0. -1.
</event>
<event>
 8    1  0.1170483E+005  0.1043930E+01  0.7957747E-01            NaN
         13   -1    0    0    0    0  0.00000000000E+00  0.00000000000E+00  0.74505805969E-08  0.10566000000E+00  0.10566000000E+00 0. -1.
     999900   -1    0    0    0    0 -0.00000000000E+00 -0.00000000000E+00 -0.74505805969E-08  0.93827000000E+00  0.93827000000E+00 0. -1.
     999902    2    1    2    0    0 -0.71875856975E-02  0.22628835007E-01 -0.53983399120E-03  0.10201809583E+01  0.10199044909E+01 0.  0.
     999903    2    3    3    0    0 -0.11503856278E+00  0.26787517835E-01  0.55165258680E-01  0.13183857763E+00  0.19666284564E-01 0.  0.
         14    1    1    2    0    0  0.71875856975E-02 -0.22628835007E-01  0.53983399120E-03  0.23749041721E-01  0.00000000000E+00 0.  1.
     999901    1    3    3    0    0  0.10785097708E+00 -0.41586828285E-02 -0.55705092671E-01  0.88834238065E+00  0.88000000000E+00 0. -1.
        -11    1    4    4    0    0 -0.95087700227E-01  0.24698394571E-01  0.37678027721E-01  0.10522155826E+00  0.51100000000E-03 0. -1.
         11    1    4    4    0    0 -0.19950862556E-01  0.20891232636E-02  0.17487230959E-01  0.26617019374E-01  0.51100000000E-03 0.  1.
</event>
<event>
 8    1  0.1170483E+005  0.1043930E+01  0.7957747E-01            NaN
         13   -1    0    0    0    0  0.00000000000E+00  0.00000000000E+00  0.74505805969E-08  0.10566000000E+00  0.10566000000E+00 0.  1.
     999900   -1    0    0    0    0 -0.00000000000E+00 -0.00000000000E+00 -0.74505805969E-08  0.93827000000E+00  0.93827000000E+00 0. -1.
     999902    2    1    2    0    0 -0.10969200805E-01  0.12664790707E-01 -0.16925600329E-01  0.10201141180E+01  0.10198360738E+01 0.  0.
     999903    2    3    3    0    0  0.21817637759E-01  0.12438986130E+00  0.29410574840E-01  0.13123588711E+00  0.20224471332E-01 0.  0.
         14    1    1    2    0    0  0.10969200805E-01 -0.12664790707E-01  0.16925600329E-01  0.23815882021E-01  0.00000000000E+00 0.  1.
     999901    1    3    3    0    0 -0.32786838564E-01 -0.11172507060E+00 -0.46336175170E-01  0.88887823087E+00  0.88000000000E+00 0. -1.
        -11    1    4    4    0    0  0.22324018670E-01  0.10720384866E+00  0.31406233028E-01  0.11391944334E+00  0.51100000000E-03 0.  1.
         11    1    4    4    0    0 -0.50638091085E-03  0.17186012641E-01 -0.19956581882E-02  0.17316443767E-01  0.51100000000E-03 0. -1.
</event>
<event>
 8    1  0.1170483E+005  0.1043930E+01  0.7957747E-01            NaN
         13   -1    0    0    0    0  0.00000000000E+00  0.00000000000E+00  0.74505805969E-08  0.10566000000E+00  0.10566000000E+00 0.  1.
     999900   -1    0    0    0    0 -0.00000000000E+00 -0.00000000000E+00 -0.74505805969E-08  0.93827000000E+00  0.93827000000E+00 0.  1.
     999902    2    1    2    0    0  0.31194701049E-02  0.49751409702E-02  0.22427940563E-01  0.10207460478E+01  0.10204827282E+01 0.  0.
     999903    2    3    3    0    0  0.82997441179E-01 -0.68569839415E-01  0.74629901392E-01  0.13253751423E+00  0.20153718690E-01 0.  0.
         14    1    1    2    0    0 -0.31194701049E-02 -0.49751409702E-02 -0.22427940563E-01  0.23183952193E-01  0.00000000000E+00 0. -1.
     999901    1    3    3    0    0 -0.79877971075E-01  0.73544980385E-01 -0.52201960829E-01  0.88820853358E+00  0.88000000000E+00 0.  1.
        -11    1    4    4    0    0  0.59159413124E-01 -0.48389379437E-01  0.63530676285E-01  0.99387001935E-01  0.51100000000E-03 0.  1.
         11    1    4    4    0    0  0.23838028056E-01 -0.20180459977E-01  0.11099225107E-01  0.33150512295E-01  0.51100000000E-03 0. -1.
</event>
<event>
 8    1  0.1170483E+005  0.1043930E+01  0.7957747E-01            NaN
         13   -1    0    0    0    0  0.00000000000E+00  0.00000000000E+00  0.74505805969E-08  0.10566000000E+00  0.10566000000E+00 0. -1.
     999900   -1    0    0    0    0 -0.00000000000E+00 -0.00000000000E+00 -0.74505805969E-08  0.93827000000E+00  0.93827000000E+00 0. -1.
     999902    2    1    2    0    0 -0.17779815210E-01 -0.10286674923E-01 -0.10455779504E-01  0.10208809038E+01  0.10206206734E+01 0.  0.
     999903    2    3    3    0    0 -0.87937031634E-01  0.94915423884E-01  0.12515830425E-01  0.13154564000E+00  0.20143241223E-01 0.  0.
         14    1    1    2    0    0  0.17779815210E-01  0.10286674923E-01  0.10455779504E-01  0.23049096185E-01  0.00000000000E+00 0.  1.
     999901    1    3    3    0    0  0.70157216424E-01 -0.10520209881E+00 -0.22971609929E-01  0.88933526382E+00  0.88000000000E+00 0. -1.
        -11    1    4    4    0    0 -0.20297447376E-01  0.23062633887E-01 -0.55481791312E-02  0.31223626702E-01  0.51100000000E-03 0.  1.
         11    1    4    4    0    0 -0.67639584258E-01  0.71852789998E-01  0.18064009556E-01  0.10032201329E+00  0.51100000000E-03 0. -1.
</event>
<event>
 8    1  0.1170483E+005  0.1043930E+01  0.7957747E-01            NaN
         13   -1    0    0    0    0  0.00000000000E+00  0.00000000000E+00  0.74505805969E-08  0.10566000000E+00  0.10566000000E+00 0.  1.
     999900   -1    0    0    0    0 -0.00000000000E+00 -0.00000000000E+00 -0.74505805969E-08  0.93827000000E+00  0.93827000000E+00 0. -1.
     999902    2    1    2    0    0 -0.17007584951E-01  0.13037669137E-01 -0.12784901989E-01  0.10189761931E+01  0.10186705991E+01 0.  0.
     999903    2    3    3    0    0  0.36493608849E-01  0.83733393061E-01  0.88989216157E-01  0.12868509782E+00  0.17254251905E-01 0.  0.
         14    1    1    2    0    0  0.17007584951E-01 -0.13037669137E-01  0.12784901989E-01  0.24953806949E-01  0.00000000000E+00 0.  1.
     999901    1    3    3    0    0 -0.53501193800E-01 -0.70695723924E-01 -0.10177411815E+00  0.89029109523E+00  0.88000000000E+00 0. -1.
        -11    1    4    4    0    0  0.11908749091E-01  0.31960788007E-01  0.44824317767E-01  0.56327531982E-01  0.51100000000E-03 0.  1.
         11    1    4    4    0    0  0.24584859758E-01  0.51772605054E-01  0.44164898390E-01  0.72357565840E-01  0.51100000000E-03 0. -1.
</event>
<event>
 8    1  0.1170483E+005  0.1043930E+01  0.7957747E-01            NaN
         13   -1    0    0    0    0  0.00000000000E+00  0.00000000000E+00  0.74505805969E-08  0.10566000000E+00  0.10566000000E+00 0.  1.
     999900   -1    0    0    0    0 -0.00000000000E+00 -0.00000000000E+00 -0.74505805969E-08  0.93827000000E+00  0.93827000000E+00 0.  1.
     999902    2    1    2    0    0 -0.21975829845E-01  0.95000193607E-02 -0.62493846224E-02  0.10191864701E+01  0.10188860675E+01 0.  0.
     999903    2    3    3    0    0  0.36191092079E-01 -0.12019166575E+00 -0.11885058692E-01  0.12776340283E+00  0.20649475036E-01 0.  0.
         14    1    1    2    0    0  0.21975829845E-01 -0.95000193607E-02  0.62493846224E-02  0.24743529930E-01  0.00000000000E+00 0. -1.
     999901    1    3    3    0    0 -0.58166921924E-01  0.12969168511E+00  0.56356740693E-02  0.89142306724E+00  0.88000000000E+00 0. -1.
        -11    1    4    4    0    0  0.12231205860E-02 -0.18106239266E-01  0.42733312354E-02  0.18650855347E-01  0.51100000000E-03 0. -1.
         11    1    4    4    0    0  0.34967971493E-01 -0.10208542649E+00 -0.16158389927E-01  0.10911254748E+00  0.51100000000E-03 0.  1.
</event>
<event>
 8    1  0.1170483E+005  0.1043930E+01  0.7957747E-01            NaN
         13   -1    0    0    0    0  0.00000000000E+00  0.00000000000E+00  0.74505805969E-08  0.10566000000E+00  0.10566000000E+00 0.  1.
     999900   -1    0    0    0    0 -0.00000000000E+00 -0.00000000000E+00 -0.74505805969E-08  0.93827000000E+00  0.93827000000E+00 0. -1.
     999902    2    1    2    0    0 -0.11564747802E-02  0.16290039721E-01  0.19216476937E-01  0.10187114391E+01  0.10183992441E+01 0.  0.
     999903    2    3    3    0    0  0.70420262563E-01 -0.61669399035E-01  0.87615350289E-01  0.12973488750E+00  0.19813209508E-01 0.  0.
         14    1    1    2    0    0  0.11564747802E-02 -0.16290039721E-01 -0.19216476937E-01  0.25218560901E-01  0.00000000000E+00 0. -1.
     999901    1    3    3    0    0 -0.71576737343E-01  0.77959438757E-01 -0.68398873352E-01  0.88897655160E+00  0.88000000000E+00 0. -1.
        -11    1    4    4    0    0  0.39518038329E-01 -0.47164699715E-01  0.55698525941E-01  0.82998621468E-01  0.51100000000E-03 0.  1.
         11    1    4    4    0    0  0.30902224234E-01 -0.14504699321E-01  0.31916824348E-01  0.46736266030E-01  0.51100000000E-03 0. -1.
</event>
<event>
 8    1  0.1170483E+005  0.1043930E+01  0.7957747E-01            NaN
         13   -1    0    0    0    0  0.00000000000E+00  0.00000000000E+00  0.74505805969E-08  0.10566000000E+00  0.10566000000E+00 0.  1.
     999900   -1    0    0    0    0 -0.00000000000E+00 -0.00000000000E+00 -0.74505805969E-08  0.93827000000E+00  0.93827000000E+00 0. -1.
     999902    2    1    2    0    0 -0.79123057503E-02  0.19096252419E-01 -0.10072358498E-01  0.10209360042E+01  0.10206770306E+01 0.  0.
     999903    2    3    3    0    0 -0.99114484006E-01  0.57426113059E-01 -0.66362186626E-01  0.13360542299E+00  0.18028583917E-01 0.  0.
         14    1    1    2    0    0  0.79123057503E-02 -0.19096252419E-01  0.10072358498E-01  0.22993995835E-01  0.00000000000E+00 0. -1.
     999901    1    3    3    0    0  0.91202178256E-01 -0.38329860640E-01  0.56289828127E-01  0.88733058117E+00  0.88000000000E+00 0.  1.
        -11    1    4    4    0    0 -0.63939286372E-01  0.29753690167E-01 -0.47531002290E-01  0.85046879543E-01  0.51100000000E-03 0. -1.
         11    1    4    4    0    0 -0.35175197634E-01  0.27672422892E-01 -0.18831184335E-01  0.48558543448E-01  0.51100000000E-03 0.  1.
</event>
<event>
 8    1  0.1170483E+005  0.1043930E+01  0.7957747E-01            NaN
         13   -1    0    0    0    0  0.00000000000E+00  0.00000000000E+00  0.74505805969E-08  0.10566000000E+00  0.10566000000E+00 0. -1.
     999900   -1    0    0    0    0 -0.00000000000E+00 -0.00000000000E+00 -0.74505805969E-08  0.93827000000E+00  0.93827000000E+00 0. -1.
     999902    2    1    2    0    0 -0.53660418363E-02  0.18055255027E-01  0.20017848794E-01  0.10164436232E+01  0.10160719159E+01 0.  0.
     999903    2    3    3    0    0 -0.83147853450E-01 -0.52150353659E-01 -0.74967674752E-01  0.12515181499E+00  0.20238567558E-01 0.  0.
         14    1    1    2    0    0  0.53660418363E-02 -0.18055255027E-01 -0.20017848794E-01  0.27486376797E-01  0.00000000000E+00 0.  1.
     999901    1    3    3    0    0  0.77781811613E-01  0.70205608686E-01  0.94985523547E-01  0.89129180822E+00  0.88000000000E+00 0. -1.
        -11    1    4    4    0    0 -0.73860510142E-01 -0.48470749145E-01 -0.73734857997E-01  0.11507336306E+00  0.51100000000E-03 0. -1.
         11    1    4    4    0    0 -0.92873433081E-02 -0.36796045139E-02 -0.12328167553E-02  0.10078451927E-01  0.51100000000E-03 0.  1.
</event>
<event>
 8    1  0.1170483E+005  0.1043930E+01  0.7957747E-01            NaN
         13   -1    0    0    0    0  0.00000000000E+00  0.00000000000E+00  0.74505805969E-08  0.10566000000E+00  0.10566000000E+00 0. -1.
     999900   -1    0    0    0    0 -0.00000000000E+00 -0.00000000000E+00 -0.74505805969E-08  0.93827000000E+00  0.93827000000E+00 0. -1.
     999902    2    1    2    0    0  0.22514282216E-01 -0.30057240631E-02  0.21660977905E-02  0.10211129174E+01  0.10208579582E+01 0.  0.
     999903    2    3    3    0    0  0.35284212400E-01  0.88865960229E-01  0.88741368364E-01  0.13201294830E+00  0.20254716202E-01 0.  0.
         14    1    1    2    0    0 -0.22514282216E-01  0.30057240631E-02 -0.21660977905E-02  0.22817082646E-01  0.00000000000E+00 0. -1.
     999901    1    3    3    0    0 -0.12769930184E-01 -0.91871684292E-01 -0.86575270573E-01  0.88909996905E+00  0.88000000000E+00 0. -1.
        -11    1    4    4    0    0  0.12684878815E-01  0.14005392991E-01  0.11657299892E-01  0.22208353049E-01  0.51100000000E-03 0. -1.
         11    1    4    4    0    0  0.22599333585E-01  0.74860567238E-01  0.77084068471E-01  0.10980459525E+00  0.51100000000E-03 0.  1.
</event>
<event>
 8    1  0.1170483E+005  0.1043930E+01  0.7957747E-01            NaN
         13   -1    0    0    0    0  0.00000000000E+00  0.00000000000E+00  0.74505805969E-08  0.10566000000E+00  0.10566000000E+00 0. -1.
     999900   -1    0    0    0    0 -0.00000000000E+00 -0.00000000000E+00 -0.74505805969E-08  0.93827000000E+00  0.93827000000E+00 0. -1.
     999902    2    1    2    0    0 -0.20629760226E-01 -0.40442169001E-02 -0.90778965248E-02  0.10210312904E+01  0.10207744829E+01 0.  0.
     999903    2    3    3    0    0  0.47549434418E-01  0.54838201320E-01 -0.10714225483E+00  0.13101322307E+00  0.20416287915E-01 0.  0.
         14    1    1    2    0    0  0.20629760226E-01  0.40442169001E-02  0.90778965248E-02  0.22898709628E-01  0.00000000000E+00 0. -1.
     999901    1    3    3    0    0 -0.68179194644E-01 -0.58882418220E-01  0.98064358301E-01  0.89001806730E+00  0.88000000000E+00 0. -1.
        -11    1    4    4    0    0  0.20337241529E-01  0.19306739054E-01 -0.58719504648E-01  0.65073765167E-01  0.51100000000E-03 0.  1.
         11    1    4    4    0    0  0.27212192889E-01  0.35531462266E-01 -0.48422750177E-01  0.65939457901E-01  0.51100000000E-03 0. -1.
</event>
<event>
 8    1  0.1170483E+005  0.1043930E+01  0.7957747E-01            NaN
         13   -1    0    0    0    0  0.00000000000E+00  0.00000000000E+00  0.74505805969E-08  0.10566000000E+00  0.10566000000E+00 0.  1.
     999900   -1    0    0    0    0 -0.00000000000E+00 -0.00000000000E+00 -0.74505805969E-08  0.93827000000E+00  0.93827000000E+00 0. -1.
     999902    2    1    2    0    0  0.14533356368E-03 -0.15221550046E-01 -0.17610710159E-01  0.10206522462E+01  0.10203867668E+01 0.  0.
     999903    2    3    3    0    0 -0.80589489571E-01  0.92579969356E-01 -0.38099131309E-01  0.13016976205E+00  0.20661717998E-01 0.  0.
         14    1    1    2    0    0 -0.14533356368E-03  0.15221550046E-01  0.17610710159E-01  0.23277753757E-01  0.00000000000E+00 0. -1.
     999901    1    3    3    0    0  0.80734823134E-01 -0.10780151940E+00  0.20488421150E-01  0.89048248419E+00  0.88000000000E+00 0. -1.
        -11    1    4    4    0    0 -0.56117238635E-01  0.63938161377E-01 -0.36172312049E-01  0.92444200642E-01  0.51100000000E-03 0. -1.
         11    1    4    4    0    0 -0.24472250936E-01  0.28641807979E-01 -0.19268192598E-02  0.37725561409E-01  0.51100000000E-03 0.  1.
</event>
<event>
 8    1  0.1170483E+005  0.1043930E+01  0.7957747E-01            NaN
         13   -1    0    0    0    0  0.00000000000E+00  0.00000000000E+00  0.74505805969E-08  0.10566000000E+00  0.10566000000E+00 0.  1.
     999900   -1    0    0    0    0 -0.00000000000E+00 -0.00000000000E+00 -0.74505805969E-08  0.93827000000E+00  0.93827000000E+00 0. -1.
     999902    2    1    2    0    0  0.17049034252E-01  0.37680730239E-02 -0.16445520341E-01  0.10199441066E+01  0.10196620310E+01 0.  0.
     999903    2    3    3    0    0  0.88286095880E-01  0.44792024656E-01  0.82452754675E-01  0.13059684463E+00  0.21361621569E-01 0.  0.
         14    1    1    2    0    0 -0.17049034252E-01 -0.37680730239E-02  0.16445520341E-01  0.23985893406E-01  0.00000000000E+00 0.  1.
     999901    1    3    3    0    0 -0.71237061628E-01 -0.41023951632E-01 -0.98898275015E-01  0.88934726196E+00  0.88000000000E+00 0. -1.
        -11    1    4    4    0    0  0.26381063524E-01  0.67534253030E-02  0.32593498938E-01  0.42475481869E-01  0.51100000000E-03 0. -1.
         11    1    4    4    0    0  0.61905032356E-01  0.38038599353E-01  0.49859255737E-01  0.88121362764E-01  0.51100000000E-03 0.  1.
</event>
<event>
 8    1  0.1170483E+005  0.1043930E+01  0.7957747E-01            NaN
         13   -1    0    0    0    0  0.00000000000E+00  0.00000000000E+00  0.74505805969E-08  0.10566000000E+00  0.10566000000E+00 0.  1.
     999900   -1    0    0    0    0 -0.00000000000E+00 -0.00000000000E+00 -0.74505805969E-08  0.93827000000E+00  0.93827000000E+00 0. -1.
     999902    2    1    2    0    0  0.80616279465E-02 -0.13782600624E-01  0.17039830451E-01  0.10205782175E+01  0.10203110272E+01 0.  0.
     999903    2    3    3    0    0  0.10092035479E-01  0.75381123247E-01  0.10553666283E+00  0.13165415911E+00  0.20264932475E-01 0.  0.
         14    1    1    2    0    0 -0.80616279465E-02  0.13782600624E-01 -0.17039830451E-01  0.23351782521E-01  0.00000000000E+00 0. -1.
     999901    1    3    3    0    0 -0.20304075328E-02 -0.89163723871E-01 -0.88496832374E-01  0.88892405837E+00  0.88000000000E+00 0. -1.
        -11    1    4    4    0    0 -0.53349466033E-02  0.10405914123E-01  0.19448390828E-01  0.22699024886E-01  0.51100000000E-03 0.  1.
         11    1    4    4    0    0  0.15426982083E-01  0.64975209124E-01  0.86088271997E-01  0.10895513422E+00  0.51100000000E-03 0. -1.
</event>
<event>
 8    1  0.1170483E+005  0.1043930E+01  0.7957747E-01            NaN
         13   -1    0    0    0    0  0.00000000000E+00  0.00000000000E+00  0.74505805969E-08  0.10566000000E+00  0.10566000000E+00 0. -1.
     999900   -1    0    0    0    0 -0.00000000000E+00 -0.00000000000E+00 -0.74505805969E-08  0.93827000000E+00  0.93827000000E+00 0.  1.
     999902    2    1    2    0    0  0.20332503583E-02 -0.19118624877E-01  0.12984205972E-01  0.10207298808E+01  0.10204661896E+01 0.  0.
     999903    2    3    3    0    0  0.76683163800E-02 -0.11877698194E+00  0.58144192498E-01  0.13393623715E+00  0.19783679788E-01 0.  0.
         14    1    1    2    0    0 -0.20332503583E-02  0.19118624877E-01 -0.12984205972E-01  0.23200119158E-01  0.00000000000E+00 0.  1.
     999901    1    3    3    0    0 -0.56350660217E-02  0.99658357067E-01 -0.45159986526E-01  0.88679364369E+00  0.88000000000E+00 0.  1.
        -11    1    4    4    0    0  0.14257430161E-01 -0.90065137861E-01  0.44541954102E-01  0.10148522143E+00  0.51100000000E-03 0.  1.
         11    1    4    4    0    0 -0.65891137815E-02 -0.28711844083E-01  0.13602238396E-01  0.32451015723E-01  0.51100000000E-03 0. -1.
</event>
<event>
 8    1  0.1170483E+005  0.1043930E+01  0.7957747E-01            NaN
         13   -1    0    0    0    0  0.00000000000E+00  0.00000000000E+00  0.74505805969E-08  0.10566000000E+00  0.10566000000E+00 0.  1.
     999900   -1    0    0    0    0 -0.00000000000E+00 -0.00000000000E+00 -0.74505805969E-08  0.93827000000E+00  0.93827000000E+00 0.  1.
     999902    2    1    2    0    0  0.90823596848E-02 -0.37985173040E-02  0.21568132416E-01  0.10202213027E+01  0.10199457849E+01 0.  0.
     999903    2    3    3    0    0 -0.57639844309E-01 -0.63290806171E-01 -0.94402554090E-01  0.12812243764E+00  0.13245339166E-01 0.  0.
         14    1    1    2    0    0 -0.90823596848E-02  0.37985173040E-02 -0.21568132416E-01  0.23708697287E-01  0.00000000000E+00 0. -1.
     999901    1    3    3    0    0  0.66722203994E-01  0.59492288867E-01  0.11597068651E+00  0.89209886508E+00  0.88000000000E+00 0. -1.
        -11    1    4    4    0    0 -0.54501219517E-01 -0.61458171316E-01 -0.85867612483E-01  0.11883180443E+00  0.51100000000E-03 0.  1.
         11    1    4    4    0    0 -0.31386247917E-02 -0.18326348558E-02 -0.85349416070E-02  0.92906332040E-02  0.51100000000E-03 0. -1.
</event>
<event>
 8    1  0.1170483E+005  0.1043930E+01  0.7957747E-01            NaN
         13   -1    0    0    0    0  0.00000000000E+00  0.00000000000E+00  0.74505805969E-08  0.10566000000E+00  0.10566000000E+00 0. -1.
     999900   -1    0    0    0    0 -0.00000000000E+00 -0.00000000000E+00 -0.74505805969E-08  0.93827000000E+00  0.93827000000E+00 0.  1.
     999902    2    1    2    0    0  0.12730397803E-01  0.11339634081E-01 -0.16102192831E-01  0.10204793935E+01  0.10202099106E+01 0.  0.
     999903    2    3    3    0    0  0.12475810469E+00  0.33047521471E-01 -0.25313877214E-01  0.13306387947E+00  0.20210895069E-01 0.  0.
         14    1    1    2    0    0 -0.12730397803E-01 -0.11339634081E-01  0.16102192831E-01  0.23450606459E-01  0.00000000000E+00 0. -1.
     999901    1    3    3    0    0 -0.11202770688E+00 -0.21707887391E-01  0.92116843823E-02  0.88741551407E+00  0.88000000000E+00 0. -1.
        -11    1    4    4    0    0  0.11586689660E+00  0.35516704669E-01 -0.21576781139E-01  0.12309505532E+00  0.51100000000E-03 0.  1.
         11    1    4    4    0    0  0.88912080854E-02 -0.24691831978E-02 -0.37370960749E-02  0.99688241511E-02  0.51100000000E-03 0. -1.
</event>
<event>
 8    1  0.1170483E+005  0.1043930E+01  0.7957747E-01            NaN
         13   -1    0    0    0    0  0.00000000000E+00  0.00000000000E+00  0.74505805969E-08  0.10566000000E+00  0.10566000000E+00 0.  1.
     999900   -1    0    0    0    0 -0.00000000000E+00 -0.00000000000E+00 -0.74505805969E-08  0.93827000000E+00  0.93827000000E+00 0. -1.
     999902    2    1    2    0    0  0.11528475996E-01 -0.65862182893E-03  0.18642994450E-01  0.10220005499E+01  0.10217652485E+01 0.  0.
     999903    2    3    3    0    0 -0.97916826064E-01  0.59161772308E-01  0.64572963354E-01  0.13201947380E+00  0.13101669238E-01 0.  0.
         14    1    1    2    0    0 -0.11528475996E-01  0.65862182893E-03 -0.18642994450E-01  0.21929450143E-01  0.00000000000E+00 0. -1.
     999901    1    3    3    0    0  0.10944530206E+00 -0.59820394136E-01 -0.45929968904E-01  0.88998107606E+00  0.88000000000E+00 0.  1.
        -11    1    4    4    0    0 -0.44955780775E-01  0.29501960266E-01  0.37467768726E-01  0.65539932094E-01  0.51100000000E-03 0.  1.
         11    1    4    4    0    0 -0.52961045289E-01  0.29659812042E-01  0.27105194629E-01  0.66479541705E-01  0.51100000000E-03 0. -1.
</event>
<event>
 8    1  0.1170483E+005  0.1043930E+01  0.7957747E-01            NaN
         13   -1    0    0    0    0  0.00000000000E+00  0.00000000000E+00  0.74505805969E-08  0.10566000000E+00  0.10566000000E+00 0.  1.
     999900   -1    0    0    0    0 -0.00000000000E+00 -0.00000000000E+00 -0.74505805969E-08  0.93827000000E+00  0.93827000000E+00 0.  1.
     999902    2    1    2    0    0 -0.59403860763E-03  0.10082703721E-01  0.21695175461E-01  0.10199989650E+01  0.10197181935E+01 0.  0.
     999903    2    3    3    0    0 -0.12585772450E+00 -0.25882859609E-01  0.36490862555E-02  0.13021799531E+00  0.20816369353E-01 0.  0.
         14    1    1    2    0    0  0.59403860763E-03 -0.10082703721E-01 -0.21695175461E-01  0.23931034965E-01  0.00000000000E+00 0. -1.
     999901    1    3    3    0    0  0.12526368590E+00  0.35965563330E-01  0.18046089205E-01  0.88978096973E+00  0.88000000000E+00 0. -1.
        -11    1    4    4    0    0 -0.45799667265E-01 -0.12235029122E-01 -0.82982789856E-02  0.48129284373E-01  0.51100000000E-03 0. -1.
         11    1    4    4    0    0 -0.80058057240E-01 -0.13647830487E-01  0.11947365241E-01  0.82088710937E-01  0.51100000000E-03 0.  1.
</event>
<event>
 8    1  0.1170483E+005  0.1043930E+01  0.7957747E-01            NaN
         13   -1    0    0    0    0  0.00000000000E+00  0.00000000000E+00  0.74505805969E-08  0.10566000000E+00  0.10566000000E+00 0.  1.
     999900   -1    0    0    0    0 -0.00000000000E+00 -0.00000000000E+00 -0.74505805969E-08  0.93827000000E+00  0.93827000000E+00 0.  1.
     999902    2    1    2    0    0 -0.13948116308E-01 -0.14409645688E-01 -0.11864857374E-01  0.10206284404E+01  0.10203624115E+01 0.  0.
     999903    2    3    3    0    0 -0.77007459552E-01 -0.10709264751E+00 -0.64124959408E-02  0.13350029421E+00  0.19550561911E-01 0.  0.
         14    1    1    2    0    0  0.13948116308E-01  0.14409645688E-01  0.11864857374E-01  0.23301559559E-01  0.00000000000E+00 0.  1.
     999901    1    3    3    0    0  0.63059343245E-01  0.92683001825E-01 -0.54523614327E-02  0.88712814624E+00  0.88000000000E+00 0.  1.
        -11    1    4    4    0    0 -0.31697941239E-01 -0.38418183477E-01  0.64475941588E-02  0.50224982747E-01  0.51100000000E-03 0. -1.
         11    1    4    4    0    0 -0.45309518314E-01 -0.68674464035E-01 -0.12860090100E-01  0.83275311460E-01  0.51100000000E-03 0.  1.
</event>
<event>
 8    1  0.1170483E+005  0.1043930E+01  0.7957747E-01            NaN
         13   -1    0    0    0    0  0.00000000000E+00  0.00000000000E+00  0.74505805969E-08  0.10566000000E+00  0.10566000000E+00 0. -1.
     999900   -1    0    0    0    0 -0.00000000000E+00 -0.00000000000E+00 -0.74505805969E-08  0.93827000000E+00  0.93827000000E+00 0. -1.
     999902    2    1    2    0    0  0.29530367313E-02  0.22386989164E-01 -0.69550736438E-02  0.10203022460E+01  0.10200286282E+01 0.  0.
     999903    2    3    3    0    0 -0.66815476793E-02 -0.90816384552E-03 -0.12970293510E+00  0.13142513027E+00  0.20105861160E-01 0.  0.
         14    1    1    2    0    0 -0.29530367313E-02 -0.22386989164E-01  0.69550736438E-02  0.23627754002E-01  0.00000000000E+00 0. -1.
     999901    1    3    3    0    0  0.96345844106E-02  0.23295153010E-01  0.12274786145E+00  0.88887711573E+00  0.88000000000E+00 0.  1.
        -11    1    4    4    0    0 -0.49934635729E-02 -0.93753435207E-02 -0.97595772088E-01  0.98173456673E-01  0.51100000000E-03 0. -1.
         11    1    4    4    0    0 -0.16880841064E-02  0.84671796751E-02 -0.32107163010E-01  0.33251673599E-01  0.51100000000E-03 0.  1.
</event>
<event>
 8    1  0.1170483E+005  0.1043930E+01  0.7957747E-01            NaN
         13   -1    0    0    0    0  0.00000000000E+00  0.00000000000E+00  0.74505805969E-08  0.10566000000E+00  0.10566000000E+00 0. -1.
     999900   -1    0    0    0    0 -0.00000000000E+00 -0.00000000000E+00 -0.74505805969E-08  0.93827000000E+00  0.93827000000E+00 0. -1.
     999902    2    1    2    0    0 -0.20583141690E-01 -0.58133125449E-02  0.11475515613E-01  0.10196576333E+01  0.10193686975E+01 0.  0.
     999903    2    3    3    0    0 -0.12962906521E+00  0.10154822646E-01  0.14668077591E-01  0.13277760356E+00  0.22537181227E-01 0.  0.
         14    1    1    2    0    0  0.20583141690E-01  0.58133125449E-02 -0.11475515613E-01  0.24272366658E-01  0.00000000000E+00 0.  1.
     999901    1    3    3    0    0  0.10904592352E+00 -0.15968135191E-01 -0.31925619782E-02  0.88688002978E+00  0.88000000000E+00 0. -1.
        -11    1    4    4    0    0 -0.23203956088E-01 -0.67804500855E-02  0.35804583021E-02  0.24443381193E-01  0.51100000000E-03 0.  1.
         11    1    4    4    0    0 -0.10642510912E+00  0.16935272731E-01  0.11087619289E-01  0.10833422237E+00  0.51100000000E-03 0. -1.
</event>
<event>
 8    1  0.1170483E+005  0.1043930E+01  0.7957747E-01            NaN
         13   -1    0    0    0    0  0.00000000000E+00  0.00000000000E+00  0.74505805969E-08  0.10566000000E+00  0.10566000000E+00 0. -1.
     999900   -1    0    0    0    0 -0.00000000000E+00 -0.00000000000E+00 -0.74505805969E-08  0.93827000000E+00  0.93827000000E+00 0.  1.
     999902    2    1    2    0    0 -0.12509586191E-01 -0.10577274288E-01  0.14619309284E-01  0.10219733909E+01  0.10217375001E+01 0.  0.
     999903    2    3    3    0    0 -0.53503230615E-01 -0.91188267047E-01  0.81428758333E-01  0.13481945078E+00  0.19176701794E-01 0.  0.
         14    1    1    2    0    0  0.12509586191E-01  0.10577274288E-01 -0.14619309284E-01  0.21956609073E-01  0.00000000000E+00 0. -1.
     999901    1    3    3    0    0  0.40993644424E-01  0.80610992760E-01 -0.66809449049E-01  0.88715394015E+00  0.88000000000E+00 0.  1.
        -11    1    4    4    0    0 -0.16360812170E-01 -0.31914404364E-01  0.39094615952E-01  0.53055211791E-01  0.51100000000E-03 0.  1.
         11    1    4    4    0    0 -0.37142418445E-01 -0.59273862683E-01  0.42334142381E-01  0.81764238989E-01  0.51100000000E-03 0. -1.
</event>
<event>
 8    1  0.1170483E+005  0.1043930E+01  0.7957747E-01            NaN
         13   -1    0    0    0    0  0.00000000000E+00  0.00000000000E+00  0.74505805969E-08  0.10566000000E+00  0.10566000000E+00 0. -1.
     999900   -1    0    0    0    0 -0.00000000000E+00 -0.00000000000E+00 -0.74505805969E-08  0.93827000000E+00  0.93827000000E+00 0.  1.
     999902    2    1    2    0    0  0.13505476656E-01  0.18971752913E-01 -0.51693151351E-02  0.10200752913E+01  0.10197963291E+01 0.  0.
     999903    2    3    3    0    0 -0.57974826828E-01 -0.20132830468E-01  0.11148615587E+00  0.12864548411E+00  0.18817178931E-01 0.  0.
         14    1    1    2    0    0 -0.13505476656E-01 -0.18971752913E-01  0.51693151351E-02  0.23854708702E-01  0.00000000000E+00 0.  1.
     999901    1    3    3    0    0  0.71480303484E-01  0.39104583380E-01 -0.11665547101E+00  0.89142980719E+00  0.88000000000E+00 0.  1.
        -11    1    4    4    0    0 -0.17040150781E-01 -0.64571713638E-02  0.52350676274E-01  0.55433890609E-01  0.51100000000E-03 0.  1.
         11    1    4    4    0    0 -0.40934676047E-01 -0.13675659104E-01  0.59135479596E-01  0.73211593501E-01  0.51100000000E-03 0. -1.
</event>
<event>
 8    1  0.1170483E+005  0.1043930E+01  0.7957747E-01            NaN
         13   -1    0    0    0    0  0.00000000000E+00  0.00000000000E+00  0.74505805969E-08  0.10566000000E+00  0.10566000000E+00 0.  1.
     999900   -1    0    0    0    0 -0.00000000000E+00 -0.00000000000E+00 -0.74505805969E-08  0.93827000000E+00  0.93827000000E+00 0.  1.
     999902    2    1    2    0    0  0.19887193262E-01  0.11157660565E-02 -0.12589443921E-01  0.10203664797E+01  0.10200943650E+01 0.  0.
     999903    2    3    3    0    0  0.12626038362E+00 -0.11879033519E-01 -0.36461477627E-01  0.13354406546E+00  0.20537335757E-01 0.  0.
         14    1    1    2    0    0 -0.19887193262E-01 -0.11157660565E-02  0.12589443921E-01  0.23563520280E-01  0.00000000000E+00 0. -1.
     999901    1    3    3    0    0 -0.10637319036E+00  0.12994799576E-01  0.23872033706E-01  0.88682241426E+00  0.88000000000E+00 0. -1.
        -11    1    4    4    0    0  0.31243004643E-01 -0.75092698676E-02 -0.13954038809E-02  0.32167106585E-01  0.51100000000E-03 0.  1.
         11    1    4    4    0    0  0.95017378975E-01 -0.43697636516E-02 -0.35066073746E-01  0.10137695887E+00  0.51100000000E-03 0. -1.
</event>
<event>
 8    1  0.1170483E+005  0.1043930E+01  0.7957747E-01            NaN
         13   -1    0    0    0    0  0.00000000000E+00  0.00000000000E+00  0.74505805969E-08  0.10566000000E+00  0.10566000000E+00 0.  1.
     999900   -1    0    0    0    0 -0.00000000000E+00 -0.00000000000E+00 -0.74505805969E-08  0.93827000000E+00  0.93827000000E+00 0.  1.
     999902    2    1    2    0    0  0.10748921157E-01  0.20480189586E-01 -0.58514485646E-02  0.10200717326E+01  0.10197926862E+01 0.  0.
     999903    2    3    3    0    0  0.86793357105E-01  0.95285338333E-01  0.21532238481E-01  0.13320735019E+00  0.25849145309E-01 0.  0.
         14    1    1    2    0    0 -0.10748921157E-01 -0.20480189586E-01  0.58514485646E-02  0.23858267369E-01  0.00000000000E+00 0. -1.
     999901    1    3    3    0    0 -0.76044435947E-01 -0.74805148747E-01 -0.27383687045E-01  0.88686438244E+00  0.88000000000E+00 0.  1.
        -11    1    4    4    0    0  0.82189613546E-01  0.82474617946E-01  0.13063318501E-01  0.11716700300E+00  0.51100000000E-03 0.  1.
         11    1    4    4    0    0  0.46037435590E-02  0.12810720388E-01  0.84689199796E-02  0.16040347198E-01  0.51100000000E-03 0. -1.
</event>
<event>
 8    1  0.1170483E+005  0.1043930E+01  0.7957747E-01            NaN
         13   -1    0    0    0    0  0.00000000000E+00  0.00000000000E+00  0.74505805969E-08  0.10566000000E+00  0.10566000000E+00 0. -1.
     999900   -1    0    0    0    0 -0.00000000000E+00 -0.00000000000E+00 -0.74505805969E-08  0.93827000000E+00  0.93827000000E+00 0. -1.
     999902    2    1    2    0    0  0.11120525658E-01 -0.96349452856E-03 -0.20792073177E-01  0.10203311712E+01  0.10200582308E+01 0.  0.
     999903    2    3    3    0    0  0.96027561360E-01  0.86613339002E-01 -0.11729502835E-01  0.13187124716E+00  0.23006120000E-01 0.  0.
         14    1    1    2    0    0 -0.11120525658E-01  0.96349452856E-03  0.20792073177E-01  0.23598828777E-01  0.00000000000E+00 0. -1.
     999901    1    3    3    0    0 -0.84907035702E-01 -0.87576833530E-01 -0.90625703417E-02  0.88845992406E+00  0.88000000000E+00 0. -1.
        -11    1    4    4    0    0  0.44329160779E-01  0.54547318659E-01 -0.10095242957E-01  0.71011685796E-01  0.51100000000E-03 0. -1.
         11    1    4    4    0    0  0.51698400581E-01  0.32066020343E-01 -0.16342598780E-02  0.60859561365E-01  0.51100000000E-03 0.  1.
</event>
<event>
 8    1  0.1170483E+005  0.1043930E+01  0.7957747E-01            NaN
         13   -1    0    0    0    0  0.00000000000E+00  0.00000000000E+00  0.74505805969E-08  0.10566000000E+00  0.10566000000E+00 0. -1.
     999900   -1    0    0    0    0 -0.00000000000E+00 -0.00000000000E+00 -0.74505805969E-08  0.93827000000E+00  0.93827000000E+00 0. -1.
     999902    2    1    2    0    0 -0.17451335650E-01  0.20343717872E-02  0.17502062937E-01  0.10191306050E+01  0.10188288277E+01 0.  0.
     999903    2    3    3    0    0 -0.11239546332E+00  0.41701599558E-01  0.52794774759E-01  0.13243254375E+00  0.19476314416E-01 0.  0.
         14    1    1    2    0    0  0.17451335650E-01 -0.20343717872E-02 -0.17502062937E-01  0.24799394985E-01  0.00000000000E+00 0.  1.
     999901    1    3    3    0    0  0.94944127667E-01 -0.39667227771E-01 -0.35292711822E-01  0.88669806126E+00  0.88000000000E+00 0.  1.
        -11    1    4    4    0    0 -0.47362207315E-01  0.26930587972E-01  0.19305767400E-01  0.57804922162E-01  0.51100000000E-03 0. -1.
         11    1    4    4    0    0 -0.65033256002E-01  0.14771011586E-01  0.33489007359E-01  0.74627621591E-01  0.51100000000E-03 0.  1.
</event>
<event>
 8    1  0.1170483E+005  0.1043930E+01  0.7957747E-01            NaN
         13   -1    0    0    0    0  0.00000000000E+00  0.00000000000E+00  0.74505805969E-08  0.10566000000E+00  0.10566000000E+00 0.  1.
     999900   -1    0    0    0    0 -0.00000000000E+00 -0.00000000000E+00 -0.74505805969E-08  0.93827000000E+00  0.93827000000E+00 0. -1.
     999902    2    1    2    0    0 -0.10781577403E-01 -0.87069852541E-02 -0.20420449359E-01  0.10192510868E+01  0.10189522703E+01 0.  0.
     999903    2    3    3    0    0 -0.12443835053E+00 -0.29976176788E-01  0.20426004483E-01  0.13074747210E+00  0.17152420933E-01 0.  0.
         14    1    1    2    0    0  0.10781577403E-01  0.87069852541E-02  0.20420449359E-01  0.24678913176E-01  0.00000000000E+00 0.  1.
     999901    1    3    3    0    0  0.11365677313E+00  0.21269191534E-01 -0.40846453843E-01  0.88850361472E+00  0.88000000000E+00 0.  1.
        -11    1    4    4    0    0 -0.95634078105E-01 -0.29265416290E-01  0.19615836340E-01  0.10191851472E+00  0.51100000000E-03 0. -1.
         11    1    4    4    0    0 -0.28804272425E-01 -0.71076049833E-03  0.81016814370E-03  0.28828957384E-01  0.51100000000E-03 0.  1.
</event>
<event>
 8    1  0.1170483E+005  0.1043930E+01  0.7957747E-01            NaN
         13   -1    0    0    0    0  0.00000000000E+00  0.00000000000E+00  0.74505805969E-08  0.10566000000E+00  0.10566000000E+00 0. -1.
     999900   -1    0    0    0    0 -0.00000000000E+00 -0.00000000000E+00 -0.74505805969E-08  0.93827000000E+00  0.93827000000E+00 0.  1.
     999902    2    1    2    0    0  0.39298211367E-02 -0.17432867599E-01  0.16728746126E-01  0.10194514520E+01  0.10191575264E+01 0.  0.
     999903    2    3    3    0    0  0.68291793434E-01 -0.68260045409E-01 -0.84429796808E-01  0.12986788856E+00  0.20348833856E-01 0.  0.
         14    1    1    2    0    0 -0.39298211367E-02  0.17432867599E-01 -0.16728746126E-01  0.24478548033E-01  0.00000000000E+00 0.  1.
     999901    1    3    3    0    0 -0.64361972298E-01  0.50827177810E-01  0.10115854293E+00  0.88958356341E+00  0.88000000000E+00 0. -1.
        -11    1    4    4    0    0  0.47056301871E-01 -0.48501458944E-01 -0.46135626314E-01  0.81825694019E-01  0.51100000000E-03 0. -1.
         11    1    4    4    0    0  0.21235491564E-01 -0.19758586465E-01 -0.38294170494E-01  0.48042194537E-01  0.51100000000E-03 0.  1.
</event>
<event>
 8    1  0.1170483E+005  0.1043930E+01  0.7957747E-01            NaN
         13   -1    0    0    0    0  0.00000000000E+00  0.00000000000E+00  0.74505805969E-08  0.10566000000E+00  0.10566000000E+00 0.  1.
     999900   -1    0    0    0    0 -0.00000000000E+00 -0.00000000000E+00 -0.74505805969E-08  0.93827000000E+00  0.93827000000E+00 0. -1.
     999902    2    1    2    0    0 -0.95086605093E-02 -0.20780103130E-01 -0.43753416615E-02  0.10206626210E+01  0.10203973809E+01 0.  0.
     999903    2    3    3    0    0  0.12576367234E+00 -0.15345590500E-02  0.24471180228E-01  0.12965133217E+00  0.19793259452E-01 0.  0.
         14    1    1    2    0    0  0.95086605093E-02  0.20780103130E-01  0.43753416615E-02  0.23267378998E-01  0.00000000000E+00 0.  1.
     999901    1    3    3    0    0 -0.13527233285E+00 -0.19245544080E-01 -0.28846521889E-01  0.89101128883E+00  0.88000000000E+00 0. -1.
        -11    1    4    4    0    0  0.71398948980E-01 -0.72005766594E-02  0.62579530919E-02  0.72035278285E-01  0.51100000000E-03 0. -1.
         11    1    4    4    0    0  0.54364723360E-01  0.56660176094E-02  0.18213227136E-01  0.57616053885E-01  0.51100000000E-03 0.  1.
</event>
<event>
 8    1  0.1170483E+005  0.1043930E+01  0.7957747E-01            NaN
         13   -1    0    0    0    0  0.00000000000E+00  0.00000000000E+00  0.74505805969E-08  0.10566000000E+00  0.10566000000E+00 0. -1.
     999900   -1    0    0    0    0 -0.00000000000E+00 -0.00000000000E+00 -0.74505805969E-08  0.93827000000E+00  0.93827000000E+00 0.  1.
     999902    2    1    2    0    0 -0.14224464118E-01  0.12596617202E-01 -0.13072000367E-01  0.10208673172E+01  0.10206067764E+01 0.  0.
     999903    2    3    3    0    0  0.11646602635E+00 -0.33225696211E-01 -0.41220657229E-01  0.12959180672E+00  0.20654578267E-01 0.  0.
         14    1    1    2    0    0  0.14224464118E-01 -0.12596617202E-01  0.13072000367E-01  0.23062682801E-01  0.00000000000E+00 0. -1.
     999901    1    3    3    0    0 -0.13069049047E+00  0.45822313413E-01  0.28148656862E-01  0.89127551048E+00  0.88000000000E+00 0.  1.
        -11    1    4    4    0    0  0.53319791307E-01 -0.61554208452E-02 -0.23771920956E-01  0.58704809835E-01  0.51100000000E-03 0. -1.
         11    1    4    4    0    0  0.63146235042E-01 -0.27070275365E-01 -0.17448736273E-01  0.70886996881E-01  0.51100000000E-03 0.  1.
</event>
<event>
 8    1  0.1170483E+005  0.1043930E+01  0.7957747E-01            NaN
         13   -1    0    0    0    0  0.00000000000E+00  0.00000000000E+00  0.74505805969E-08  0.10566000000E+00  0.10566000000E+00 0.  1.
     999900   -1    0    0    0    0 -0.00000000000E+00 -0.00000000000E+00 -0.74505805969E-08  0.93827000000E+00  0.93827000000E+00 0.  1.
     999902    2    1    2    0    0  0.16214555602E-01 -0.17678598511E-01  0.42124828035E-02  0.10195745146E+01  0.10192835725E+01 0.  0.
     999903    2    3    3    0    0 -0.16575408539E-01  0.10069704706E+00 -0.74035186346E-01  0.12760440693E+00  0.19673240615E-01 0.  0.
         14    1    1    2    0    0 -0.16214555602E-01  0.17678598511E-01 -0.42124828035E-02  0.24355485420E-01  0.00000000000E+00 0. -1.
     999901    1    3    3    0    0  0.32789964141E-01 -0.11837564557E+00  0.78247669150E-01  0.89197010765E+00  0.88000000000E+00 0. -1.
        -11    1    4    4    0    0 -0.10347004102E-01  0.21857126376E-01 -0.11510200881E-01  0.26786942951E-01  0.51100000000E-03 0.  1.
         11    1    4    4    0    0 -0.62284044375E-02  0.78839920682E-01 -0.62524985465E-01  0.10081746398E+00  0.51100000000E-03 0. -1.
</event>
<event>
 8    1  0.1170483E+005  0.1043930E+01  0.7957747E-01            NaN
         13   -1    0    0    0    0  0.00000000000E+00  0.00000000000E+00  0.74505805969E-08  0.10566000000E+00  0.10566000000E+00 0. -1.
     999900   -1    0    0    0    0 -0.00000000000E+00 -0.00000000000E+00 -0.74505805969E-08  0.93827000000E+00  0.93827000000E+00 0.  1.
     999902    2    1    2    0    0  0.11547362836E-01 -0.20772435711E-01  0.13278394565E-02  0.10201266634E+01  0.10198489156E+01 0.  0.
     999903    2    3    3    0    0 -0.17857287751E-01 -0.68410984650E-01  0.10915086329E+00  0.13177995787E+00  0.21286164376E-01 0.  0.
         14    1    1    2    0    0 -0.11547362836E-01  0.20772435711E-01 -0.13278394565E-02  0.23803336562E-01  0.00000000000E+00 0. -1.
     999901    1    3    3    0    0  0.29404650587E-01  0.47638548938E-01 -0.10782302383E+00  0.88834670557E+00  0.88000000000E+00 0.  1.
        -11    1    4    4    0    0 -0.20705041519E-01 -0.62699574104E-01  0.90269642910E-01  0.11184276860E+00  0.51100000000E-03 0.  1.
         11    1    4    4    0    0  0.28477537672E-02 -0.57114105461E-02  0.18881220378E-01  0.19937189268E-01  0.51100000000E-03 0. -1.
</event>
<event>
 8    1  0.1170483E+005  0.1043930E+01  0.7957747E-01            NaN
         13   -1    0    0    0    0  0.00000000000E+00  0.00000000000E+00  0.74505805969E-08  0.10566000000E+00  0.10566000000E+00 0.  1.
     999900   -1    0    0    0    0 -0.00000000000E+00 -0.00000000000E+00 -0.74505805969E-08  0.93827000000E+00  0.93827000000E+00 0.  1.
     999902    2    1    2    0    0 -0.21493886878E-01 -0.76907295322E-02  0.92556365429E-02  0.10192966628E+01  0.10189989625E+01 0.  0.
     999903    2    3    3    0    0 -0.51272828631E-01  0.11582149915E+00 -0.19467088803E-01  0.12970852722E+00  0.20045245461E-01 0.  0.
         14    1    1    2    0    0  0.21493886878E-01  0.76907295322E-02 -0.92556365429E-02  0.24633337202E-01  0.00000000000E+00 0.  1.
     999901    1    3    3    0    0  0.29778941753E-01 -0.12351222869E+00  0.28722725346E-01  0.88958813558E+00  0.88000000000E+00 0. -1.
        -11    1    4    4    0    0 -0.25863983515E-01  0.75077264709E-01 -0.19156625927E-01  0.81687078276E-01  0.51100000000E-03 0. -1.
         11    1    4    4    0    0 -0.25408845116E-01  0.40744234445E-01 -0.31046287579E-03  0.48021448946E-01  0.51100000000E-03 0.  1.
</event>
<event>
 8    1  0.1170483E+005  0.1043930E+01  0.7957747E-01            NaN
         13   -1    0    0    0    0  0.00000000000E+00  0.00000000000E+00  0.74505805969E-08  0.10566000000E+00  0.10566000000E+00 0. -1.
     999900   -1    0    0    0    0 -0.00000000000E+00 -0.00000000000E+00 -0.74505805969E-08  0.93827000000E+00  0.93827000000E+00 0. -1.
     999902    2    1    2    0    0  0.19810865144E-01 -0.59952040842E-02 -0.11849827142E-01  0.10200798165E+01  0.10198009614E+01 0.  0.
     999903    2    3    3    0    0 -0.23191367567E-01  0.77077998769E-01  0.97913792687E-01  0.12834084051E+00  0.20134624947E-01 0.  0.
         14    1    1    2    0    0 -0.19810865144E-01  0.59952040842E-02  0.11849827142E-01  0.23850183502E-01  0.00000000000E+00 0. -1.
     999901    1    3    3    0    0  0.43002232711E-01 -0.83073202853E-01 -0.10976361983E+00  0.89173897598E+00  0.88000000000E+00 0. -1.
        -11    1    4    4    0    0 -0.13342467028E-01  0.68403001524E-01  0.85025966389E-01  0.10993938387E+00  0.51100000000E-03 0. -1.
         11    1    4    4    0    0 -0.98489005390E-02  0.86749972450E-02  0.12887826298E-01  0.18401456646E-01  0.51100000000E-03 0.  1.
</event>
<event>
 8    1  0.1170483E+005  0.1043930E+01  0.7957747E-01            NaN
         13   -1    0    0    0    0  0.00000000000E+00  0.00000000000E+00  0.74505805969E-08  0.10566000000E+00  0.10566000000E+00 0. -1.
     999900   -1    0    0    0    0 -0.00000000000E+00 -0.00000000000E+00 -0.74505805969E-08  0.93827000000E+00  0.93827000000E+00 0. -1.
     999902    2    1    2    0    0  0.18935097753E-01  0.30462219634E-02  0.13639332698E-01  0.10203960077E+01  0.10201245825E+01 0.  0.
     999903    2    3    3    0    0 -0.10940977715E+00 -0.59679481218E-01  0.20721057460E-01  0.12884843662E+00  0.25306473135E-01 0.  0.
         14    1    1    2    0    0 -0.18935097753E-01 -0.30462219634E-02 -0.13639332698E-01  0.23533992259E-01  0.00000000000E+00 0. -1.
     999901    1    3    3    0    0  0.12834487490E+00  0.62725703181E-01 -0.70817247622E-02  0.89154757112E+00  0.88000000000E+00 0. -1.
        -11    1    4    4    0    0 -0.60387193916E-01 -0.38628286041E-01  0.20829664077E-03  0.71687252563E-01  0.51100000000E-03 0. -1.
         11    1    4    4    0    0 -0.49022583231E-01 -0.21051195177E-01  0.20512760820E-01  0.57161184054E-01  0.51100000000E-03 0.  1.
</event>
<event>
 8    1  0.1170483E+005  0.1043930E+01  0.7957747E-01            NaN
         13   -1    0    0    0    0  0.00000000000E+00  0.00000000000E+00  0.74505805969E-08  0.10566000000E+00  0.10566000000E+00 0.  1.
     999900   -1    0    0    0    0 -0.00000000000E+00 -0.00000000000E+00 -0.74505805969E-08  0.93827000000E+00  0.93827000000E+00 0.  1.
     999902    2    1    2    0    0  0.98356255167E-02  0.14600954746E-01 -0.15486993182E-01  0.10204827322E+01  0.10202133269E+01 0.  0.
     999903    2    3    3    0    0  0.22642750735E-01 -0.11826726367E+00  0.40843215070E-01  0.12863572836E+00  0.19471583792E-01 0.  0.
         14    1    1    2    0    0 -0.98356255167E-02 -0.14600954746E-01  0.15486993182E-01  0.23447267786E-01  0.00000000000E+00 0.  1.
     999901    1    3    3    0    0 -0.12807125219E-01  0.13286821842E+00 -0.56330208252E-01  0.89184700385E+00  0.88000000000E+00 0.  1.
        -11    1    4    4    0    0  0.13077872725E-01 -0.68869956527E-01  0.33807790129E-01  0.77828847232E-01  0.51100000000E-03 0. -1.
         11    1    4    4    0    0  0.95648780104E-02 -0.49397307148E-01  0.70354249407E-02  0.50806881128E-01  0.51100000000E-03 0.  1.
</event>
<event>
 8    1  0.1170483E+005  0.1043930E+01  0.7957747E-01            NaN
         13   -1    0    0    0    0  0.00000000000E+00  0.00000000000E+00  0.74505805969E-08  0.10566000000E+00  0.10566000000E+00 0. -1.
     999900   -1    0    0    0    0 -0.00000000000E+00 -0.00000000000E+00 -0.74505805969E-08  0.93827000000E+00  0.93827000000E+00 0. -1.
     999902    2    1    2    0    0 -0.44810408138E-02  0.14518311791E-01  0.17956613582E-01  0.10204076473E+01  0.10201364936E+01 0.  0.
     999903    2    3    3    0    0 -0.39951554733E-01 -0.63520808520E-01  0.10647526841E+00  0.13182235940E+00  0.20227007072E-01 0.  0.
         14    1    1    2    0    0  0.44810408138E-02 -0.14518311791E-01 -0.17956613582E-01  0.23522352675E-01  0.00000000000E+00 0.  1.
     999901    1    3    3    0    0  0.35470513919E-01  0.78039120311E-01 -0.88518654829E-01  0.88858528792E+00  0.88000000000E+00 0. -1.
        -11    1    4    4    0    0 -0.15023491548E-01 -0.18566109372E-01  0.19702043742E-01  0.30965099130E-01  0.51100000000E-03 0.  1.
         11    1    4    4    0    0 -0.24928063185E-01 -0.44954699148E-01  0.86773224669E-01  0.10085726027E+00  0.51100000000E-03 0. -1.
</event>
<event>
 8    1  0.1170483E+005  0.1043930E+01  0.7957747E-01            NaN
         13   -1    0    0    0    0  0.00000000000E+00  0.00000000000E+00  0.74505805969E-08  0.10566000000E+00  0.10566000000E+00 0.  1.
     999900   -1    0    0    0    0 -0.00000000000E+00 -0.00000000000E+00 -0.74505805969E-08  0.93827000000E+00  0.93827000000E+00 0. -1.
     999902    2    1    2    0    0  0.90137119304E-02  0.42373473146E-02  0.21677237223E-01  0.10200740840E+01  0.10197950932E+01 0.  0.
     999903    2    3    3    0    0  0.82958181628E-01 -0.57924433235E-02  0.10266456204E+00  0.13321032440E+00  0.17010759176E-01 0.  0.
         14    1    1    2    0    0 -0.90137119304E-02 -0.42373473146E-02 -0.21677237223E-01  0.23855916010E-01  0.00000000000E+00 0. -1.
     999901    1    3    3    0    0 -0.73944469698E-01  0.10029790638E-01 -0.80987324819E-01  0.88686375959E+00  0.88000000000E+00 0. -1.
        -11    1    4    4    0    0  0.63494605820E-01 -0.79922324260E-02  0.67916988493E-01  0.93318911236E-01  0.51100000000E-03 0. -1.
         11    1    4    4    0    0  0.19463575808E-01  0.21997891025E-02  0.34747573549E-01  0.39891413160E-01  0.51100000000E-03 0.  1.
</event>
<event>
 8    1  0.1170483E+005  0.1043930E+01  0.7957747E-01            NaN
         13   -1    0    0    0    0  0.00000000000E+00  0.00000000000E+00  0.74505805969E-08  0.10566000000E+00  0.10566000000E+00 0. -1.
     999900   -1    0    0    0    0 -0.00000000000E+00 -0.00000000000E+00 -0.74505805969E-08  0.93827000000E+00  0.93827000000E+00 0.  1.
     999902    2    1    2    0    0 -0.78981685285E-02 -0.17657140799E-01  0.14377379894E-01  0.10198288643E+01  0.10195440392E+01 0.  0.
     999903    2    3    3    0    0  0.35391350237E-01 -0.93107096611E-01 -0.81655775455E-01  0.13034078393E+00  0.19989376682E-01 0.  0.
         14    1    1    2    0    0  0.78981685285E-02  0.17657140799E-01 -0.14377379894E-01  0.24101135656E-01  0.00000000000E+00 0. -1.
     999901    1    3    3    0    0 -0.43289518766E-01  0.75449955812E-01  0.96033155349E-01  0.88948808041E+00  0.88000000000E+00 0. -1.
        -11    1    4    4    0    0  0.52605477115E-02 -0.29988447754E-01 -0.34339548249E-01  0.45896035295E-01  0.51100000000E-03 0. -1.
         11    1    4    4    0    0  0.30130802526E-01 -0.63118648857E-01 -0.47316227206E-01  0.84444748637E-01  0.51100000000E-03 0.  1.
</event>
<event>
 8    1  0.1170483E+005  0.1043930E+01  0.7957747E-01            NaN
         13   -1    0    0    0    0  0.00000000000E+00  0.00000000000E+00  0.74505805969E-08  0.10566000000E+00  0.10566000000E+00 0.  1.
     999900   -1    0    0    0    0 -0.00000000000E+00 -0.00000000000E+00 -0.74505805969E-08  0.93827000000E+00  0.93827000000E+00 0.  1.
     999902    2    1    2    0    0 -0.21649656735E-01  0.13115991415E-01  0.65170990990E-02  0.10177917245E+01  0.10174560359E+01 0.  0.
     999903    2    3    3    0    0  0.35581587105E-01  0.10684242354E+00 -0.58931426643E-01  0.12855409094E+00  0.19284409269E-01 0.  0.
         14    1    1    2    0    0  0.21649656735E-01 -0.13115991415E-01 -0.65170990990E-02  0.26138275540E-01  0.00000000000E+00 0. -1.
     999901    1    3    3    0    0 -0.57231243840E-01 -0.93726432129E-01  0.65448525741E-01  0.88923763352E+00  0.88000000000E+00 0. -1.
        -11    1    4    4    0    0  0.34995201289E-01  0.79122970017E-01 -0.44270620211E-01  0.97186714279E-01  0.51100000000E-03 0.  1.
         11    1    4    4    0    0  0.58638581635E-03  0.27719453528E-01 -0.14660806432E-01  0.31367376658E-01  0.51100000000E-03 0. -1.
</event>
<event>
 8    1  0.1170483E+005  0.1043930E+01  0.7957747E-01            NaN
         13   -1    0    0    0    0  0.00000000000E+00  0.00000000000E+00  0.74505805969E-08  0.10566000000E+00  0.10566000000E+00 0.  1.
     999900   -1    0    0    0    0 -0.00000000000E+00 -0.00000000000E+00 -0.74505805969E-08  0.93827000000E+00  0.93827000000E+00 0.  1.
     999902    2    1    2    0    0  0.78083013099E-02 -0.13322179938E-01  0.17516821263E-01  0.10205785745E+01  0.10203113925E+01 0.  0.
     999903    2    3    3    0    0 -0.41160946146E-01 -0.15853365534E-01  0.12383086382E+00  0.13282462784E+00  0.19045898241E-01 0.  0.
         14    1    1    2    0    0 -0.78083013099E-02  0.13322179938E-01 -0.17516821263E-01  0.23351425541E-01  0.00000000000E+00 0. -1.
     999901    1    3    3    0    0  0.48969247456E-01  0.25311855964E-02 -0.10631404256E+00  0.88775394662E+00  0.88000000000E+00 0. -1.
        -11    1    4    4    0    0 -0.36113224794E-01 -0.18649018305E-01  0.93618257271E-01  0.10206169754E+00  0.51100000000E-03 0. -1.
         11    1    4    4    0    0 -0.50477213519E-02  0.27956527712E-02  0.30212606548E-01  0.30762930300E-01  0.51100000000E-03 0.  1.
</event>
<event>
 8    1  0.1170483E+005  0.1043930E+01  0.7957747E-01            NaN
         13   -1    0    0    0    0  0.00000000000E+00  0.00000000000E+00  0.74505805969E-08  0.10566000000E+00  0.10566000000E+00 0.  1.
     999900   -1    0    0    0    0 -0.00000000000E+00 -0.00000000000E+00 -0.74505805969E-08  0.93827000000E+00  0.93827000000E+00 0.  1.
     999902    2    1    2    0    0  0.46621471340E-04  0.18528275086E-02 -0.23401234006E-01  0.10204554841E+01  0.10201854450E+01 0.  0.
     999903    2    3    3    0    0  0.81795881742E-01 -0.11927790650E-01 -0.10251124410E+00  0.13302591468E+00  0.18828179716E-01 0.  0.
         14    1    1    2    0    0 -0.46621471340E-04 -0.18528275086E-02  0.23401234006E-01  0.23474515891E-01  0.00000000000E+00 0.  1.
     999901    1    3    3    0    0 -0.81749260270E-01  0.13780618159E-01  0.79110010092E-01  0.88742956942E+00  0.88000000000E+00 0. -1.
        -11    1    4    4    0    0  0.17295385125E-01 -0.54066641700E-02 -0.12188423392E-01  0.21844476415E-01  0.51100000000E-03 0. -1.
         11    1    4    4    0    0  0.64500496617E-01 -0.65211264802E-02 -0.90322820706E-01  0.11118143827E+00  0.51100000000E-03 0.  1.
</event>
<event>
 8    1  0.1170483E+005  0.1043930E+01  0.7957747E-01            NaN
         13   -1    0    0    0    0  0.00000000000E+00  0.00000000000E+00  0.74505805969E-08  0.10566000000E+00  0.10566000000E+00 0. -1.
     999900   -1    0    0    0    0 -0.00000000000E+00 -0.00000000000E+00 -0.74505805969E-08  0.93827000000E+00  0.93827000000E+00 0.  1.
     999902    2    1    2    0    0 -0.15401225963E-01 -0.12668222713E-01 -0.11136436932E-01  0.10210892063E+01  0.10208337110E+01 0.  0.
     999903    2    3    3    0    0  0.38672575651E-01  0.10619286660E+00 -0.60820220015E-01  0.13006708939E+00  0.21115291971E-01 0.  0.
         14    1    1    2    0    0  0.15401225963E-01  0.12668222713E-01  0.11136436932E-01  0.22840793669E-01  0.00000000000E+00 0. -1.
     999901    1    3    3    0    0 -0.54073801615E-01 -0.11886108932E+00  0.49683783083E-01  0.89102211694E+00  0.88000000000E+00 0.  1.
        -11    1    4    4    0    0 -0.12378901946E-02  0.95929305968E-02 -0.97242858272E-02  0.13725142820E-01  0.51100000000E-03 0. -1.
         11    1    4    4    0    0  0.39910465846E-01  0.96599936007E-01 -0.51095934188E-01  0.11634194657E+00  0.51100000000E-03 0.  1.
</event>
<event>
 8    1  0.1170483E+005  0.1043930E+01  0.7957747E-01            NaN
         13   -1    0    0    0    0  0.00000000000E+00  0.00000000000E+00  0.74505805969E-08  0.10566000000E+00  0.10566000000E+00 0. -1.
     999900   -1    0    0    0    0 -0.00000000000E+00 -0.00000000000E+00 -0.74505805969E-08  0.93827000000E+00  0.93827000000E+00 0. -1.
     999902    2    1    2    0    0 -0.25138615871E-01  0.69749250457E-02 -0.20999320288E-02  0.10177573176E+01  0.10174207332E+01 0.  0.
     999903    2    3    3    0    0 -0.96930586134E-01 -0.48485945626E-01 -0.69842764660E-01  0.13050364110E+00  0.20168369112E-01 0.  0.
         14    1    1    2    0    0  0.25138615871E-01 -0.69749250457E-02  0.20999320288E-02  0.26172682358E-01  0.00000000000E+00 0.  1.
     999901    1    3    3    0    0  0.71791970263E-01  0.55460870671E-01  0.67742832631E-01  0.88725367655E+00  0.88000000000E+00 0.  1.
        -11    1    4    4    0    0 -0.69697928246E-01 -0.38711868707E-01 -0.60534289993E-01  0.10010530139E+00  0.51100000000E-03 0.  1.
         11    1    4    4    0    0 -0.27232657888E-01 -0.97740769185E-02 -0.93084746672E-02  0.30398339706E-01  0.51100000000E-03 0. -1.
</event>
<event>
 8    1  0.1170483E+005  0.1043930E+01  0.7957747E-01            NaN
         13   -1    0    0    0    0  0.00000000000E+00  0.00000000000E+00  0.74505805969E-08  0.10566000000E+00  0.10566000000E+00 0.  1.
     999900   -1    0    0    0    0 -0.00000000000E+00 -0.00000000000E+00 -0.74505805969E-08  0.93827000000E+00  0.93827000000E+00 0.  1.
     999902    2    1    2    0    0 -0.96219274698E-02  0.17930639925E-01  0.12768256764E-01  0.10199067255E+01  0.10196237595E+01 0.  0.
     999903    2    3    3    0    0 -0.91421784025E-01 -0.89297579973E-01  0.77468772731E-02  0.12961782750E+00  0.20217979983E-01 0.  0.
         14    1    1    2    0    0  0.96219274698E-02 -0.17930639925E-01 -0.12768256764E-01  0.24023274488E-01  0.00000000000E+00 0. -1.
     999901    1    3    3    0    0  0.81799856555E-01  0.10722821990E+00  0.50213794907E-02  0.89028889801E+00  0.88000000000E+00 0. -1.
        -11    1    4    4    0    0 -0.38665521536E-01 -0.32785946498E-01  0.12315505377E-01  0.52171578825E-01  0.51100000000E-03 0.  1.
         11    1    4    4    0    0 -0.52756262489E-01 -0.56511633475E-01 -0.45686281039E-02  0.77446248673E-01  0.51100000000E-03 0. -1.
</event>
<event>
 8    1  0.1170483E+005  0.1043930E+01  0.7957747E-01            NaN
         13   -1    0    0    0    0  0.00000000000E+00  0.00000000000E+00  0.74505805969E-08  0.10566000000E+00  0.10566000000E+00 0. -1.
     999900   -1    0    0    0    0 -0.00000000000E+00 -0.00000000000E+00 -0.74505805969E-08  0.93827000000E+00  0.93827000000E+00 0. -1.
     999902    2    1    2    0    0 -0.23159469491E-02  0.18855230022E-01 -0.13792131968E-01  0.10204543485E+01  0.10201842829E+01 0.  0.
     999903    2    3    3    0    0  0.55379955028E-01 -0.11393277014E+00 -0.11898779198E-01  0.12862193437E+00  0.18825661325E-01 0.  0.
         14    1    1    2    0    0  0.23159469491E-02 -0.18855230022E-01  0.13792131968E-01  0.23475651507E-01  0.00000000000E+00 0.  1.
     999901    1    3    3    0    0 -0.57695901977E-01  0.13278800016E+00 -0.18933527706E-02  0.89183241412E+00  0.88000000000E+00 0. -1.
        -11    1    4    4    0    0  0.91041431372E-02 -0.24842831690E-01  0.46660575218E-02  0.26871637882E-01  0.51100000000E-03 0. -1.
         11    1    4    4    0    0  0.46275811891E-01 -0.89089938450E-01 -0.16564836720E-01  0.10175029649E+00  0.51100000000E-03 0.  1.
</event>
<event>
 8    1  0.1170483E+005  0.1043930E+01  0.7957747E-01            NaN
         13   -1    0    0    0    0  0.00000000000E+00  0.00000000000E+00  0.74505805969E-08  0.10566000000E+00  0.10566000000E+00 0.  1.
     999900   -1    0    0    0    0 -0.00000000000E+00 -0.00000000000E+00 -0.74505805969E-08  0.93827000000E+00  0.93827000000E+00 0. -1.
     999902    2    1    2    0    0  0.37666739908E-02  0.22171449986E-01 -0.78943836379E-02  0.10200955224E+01  0.10198170388E+01 0.  0.
     999903    2    3    3    0    0  0.60752971939E-01  0.82869544760E-01  0.79020800746E-01  0.13190300607E+00  0.24409649968E-01 0.  0.
         14    1    1    2    0    0 -0.37666739908E-02 -0.22171449986E-01  0.78943836379E-02  0.23834477558E-01  0.00000000000E+00 0.  1.
     999901    1    3    3    0    0 -0.56986297948E-01 -0.60698094774E-01 -0.86915184384E-01  0.88819251637E+00  0.88000000000E+00 0. -1.
        -11    1    4    4    0    0  0.81650131324E-02  0.29387433266E-01  0.20264388588E-01  0.36622332520E-01  0.51100000000E-03 0.  1.
         11    1    4    4    0    0  0.52587958807E-01  0.53482111495E-01  0.58756412158E-01  0.95280673549E-01  0.51100000000E-03 0. -1.
</event>
<event>
 8    1  0.1170483E+005  0.1043930E+01  0.7957747E-01            NaN
         13   -1    0    0    0    0  0.00000000000E+00  0.00000000000E+00  0.74505805969E-08  0.10566000000E+00  0.10566000000E+00 0.  1.
     999900   -1    0    0    0    0 -0.00000000000E+00 -0.00000000000E+00 -0.74505805969E-08  0.93827000000E+00  0.93827000000E+00 0.  1.
     999902    2    1    2    0    0  0.16984415272E-01 -0.23073231925E-02  0.10354983060E-01  0.10239045218E+01  0.10237086744E+01 0.  0.
     999903    2    3    3    0    0  0.72700286911E-01 -0.31439921003E-01  0.10907884930E+00  0.13615491276E+00  0.19135426690E-01 0.  0.
         14    1    1    2    0    0 -0.16984415272E-01  0.23073231925E-02 -0.10354983060E-01  0.20025478187E-01  0.00000000000E+00 0. -1.
     999901    1    3    3    0    0 -0.55715871640E-01  0.29132597810E-01 -0.98723866240E-01  0.88774960905E+00  0.88000000000E+00 0.  1.
        -11    1    4    4    0    0  0.20369379480E-01 -0.97255552732E-02  0.17931112883E-01  0.28831995699E-01  0.51100000000E-03 0.  1.
         11    1    4    4    0    0  0.52330907431E-01 -0.21714365730E-01  0.91147736417E-01  0.10732291706E+00  0.51100000000E-03 0. -1.
</event>
<event>
 8    1  0.1170483E+005  0.1043930E+01  0.7957747E-01            NaN
         13   -1    0    0    0    0  0.00000000000E+00  0.00000000000E+00  0.74505805969E-08  0.10566000000E+00  0.10566000000E+00 0. -1.
     999900   -1    0    0    0    0 -0.00000000000E+00 -0.00000000000E+00 -0.74505805969E-08  0.93827000000E+00  0.93827000000E+00 0. -1.
     999902    2    1    2    0    0 -0.73711295253E-02 -0.15606131265E-01 -0.17445727801E-01  0.10193894560E+01  0.10190940215E+01 0.  0.
     999903    2    3    3    0    0 -0.12310186596E+00 -0.22461876956E-01  0.30786881813E-01  0.13047608040E+00  0.20434533175E-01 0.  0.
         14    1    1    2    0    0  0.73711295253E-02  0.15606131265E-01  0.17445727801E-01  0.24540544046E-01  0.00000000000E+00 0. -1.
     999901    1    3    3    0    0  0.11573073644E+00  0.68557456901E-02 -0.48232609614E-01  0.88891337555E+00  0.88000000000E+00 0.  1.
        -11    1    4    4    0    0 -0.81024456943E-01 -0.12665757943E-01  0.10283636474E-01  0.82652273697E-01  0.51100000000E-03 0.  1.
         11    1    4    4    0    0 -0.42077409018E-01 -0.97961190127E-02  0.20503245340E-01  0.47823806706E-01  0.51100000000E-03 0. -1.
</event>
<event>
 8    1  0.1170483E+005  0.1043930E+01  0.7957747E-01            NaN
         13   -1    0    0    0    0  0.00000000000E+00  0.00000000000E+00  0.74505805969E-08  0.10566000000E+00  0.10566000000E+00 0. -1.
     999900   -1    0    0    0    0 -0.00000000000E+00 -0.00000000000E+00 -0.74505805969E-08  0.93827000000E+00  0.93827000000E+00 0.  1.
     999902    2    1    2    0    0  0.75372901195E-03 -0.64771531210E-03  0.38021701889E-01  0.10058953124E+01  0.10051759757E+01 0.  0.
     999903    2    3    3    0    0 -0.11501421345E+00 -0.33125273524E-02  0.18008404401E-01  0.11808348002E+00  0.19497781711E-01 0.  0.
         14    1    1    2    0    0 -0.75372901195E-03  0.64771531210E-03 -0.38021701889E-01  0.38034687550E-01  0.00000000000E+00 0.  1.
     999901    1    3    3    0    0  0.11576794246E+00  0.26648120403E-02  0.20013297488E-01  0.88781183243E+00  0.88000000000E+00 0. -1.
        -11    1    4    4    0    0 -0.52153278868E-01  0.66964499028E-02  0.13386363964E-01  0.54261061538E-01  0.51100000000E-03 0. -1.
         11    1    4    4    0    0 -0.62860934582E-01 -0.10008977255E-01  0.46220404371E-02  0.63822418483E-01  0.51100000000E-03 0.  1.
</event>
<event>
 8    1  0.1170483E+005  0.1043930E+01  0.7957747E-01            NaN
         13   -1    0    0    0    0  0.00000000000E+00  0.00000000000E+00  0.74505805969E-08  0.10566000000E+00  0.10566000000E+00 0. -1.
     999900   -1    0    0    0    0 -0.00000000000E+00 -0.00000000000E+00 -0.74505805969E-08  0.93827000000E+00  0.93827000000E+00 0.  1.
     999902    2    1    2    0    0  0.11178621211E-02 -0.81549866028E-02  0.21937007227E-01  0.10204995560E+01  0.10202305416E+01 0.  0.
     999903    2    3    3    0    0 -0.54627095736E-01  0.19855999564E-01  0.11809218425E+00  0.13306621550E+00  0.19556927651E-01 0.  0.
         14    1    1    2    0    0 -0.11178621211E-02  0.81549866028E-02 -0.21937007227E-01  0.23430444048E-01  0.00000000000E+00 0. -1.
     999901    1    3    3    0    0  0.55744957857E-01 -0.28010986167E-01 -0.96155177026E-01  0.88743334045E+00  0.88000000000E+00 0.  1.
        -11    1    4    4    0    0 -0.39561945517E-01  0.22654735670E-01  0.94607642785E-01  0.10502024460E+00  0.51100000000E-03 0. -1.
         11    1    4    4    0    0 -0.15065150219E-01 -0.27987361058E-02  0.23484541469E-01  0.28045970903E-01  0.51100000000E-03 0.  1.
</event>
<event>
 8    1  0.1170483E+005  0.1043930E+01  0.7957747E-01            NaN
         13   -1    0    0    0    0  0.00000000000E+00  0.00000000000E+00  0.74505805969E-08  0.10566000000E+00  0.10566000000E+00 0.  1.
     999900   -1    0    0    0    0 -0.00000000000E+00 -0.00000000000E+00 -0.74505805969E-08  0.93827000000E+00  0.93827000000E+00 0. -1.
     999902    2    1    2    0    0 -0.15754406414E-01  0.17959223937E-01 -0.47584903153E-02  0.10195706429E+01  0.10192796072E+01 0.  0.
     999903    2    3    3    0    0 -0.97648646465E-01 -0.23158552060E-01  0.81163869919E-01  0.13064995467E+00  0.20254880540E-01 0.  0.
         14    1    1    2    0    0  0.15754406414E-01 -0.17959223937E-01  0.47584903153E-02  0.24359357052E-01  0.00000000000E+00 0.  1.
     999901    1    3    3    0    0  0.81894240051E-01  0.41117775998E-01 -0.85922360234E-01  0.88892068828E+00  0.88000000000E+00 0. -1.
        -11    1    4    4    0    0 -0.24430063136E-01 -0.15073558121E-01  0.23332336675E-01  0.36995934844E-01  0.51100000000E-03 0.  1.
         11    1    4    4    0    0 -0.73218583329E-01 -0.80849939395E-02  0.57831533244E-01  0.93654019828E-01  0.51100000000E-03 0. -1.
</event>
<event>
 8    1  0.1170483E+005  0.1043930E+01  0.7957747E-01            NaN
         13   -1    0    0    0    0  0.00000000000E+00  0.00000000000E+00  0.74505805969E-08  0.10566000000E+00  0.10566000000E+00 0. -1.
     999900   -1    0    0    0    0 -0.00000000000E+00 -0.00000000000E+00 -0.74505805969E-08  0.93827000000E+00  0.93827000000E+00 0. -1.
     999902    2    1    2    0    0 -0.15899568626E-01  0.55399479325E-02  0.19556209811E-01  0.10181243292E+01  0.10177972377E+01 0.  0.
     999903    2    3    3    0    0  0.27561874753E-01 -0.53267994743E-01 -0.10870010257E+00  0.12582563878E+00  0.20475421131E-01 0.  0.
         14    1    1    2    0    0  0.15899568626E-01 -0.55399479325E-02 -0.19556209811E-01  0.25805670845E-01  0.00000000000E+00 0.  1.
     999901    1    3    3    0    0 -0.43461443378E-01  0.58807942675E-01  0.12825631238E+00  0.89229869038E+00  0.88000000000E+00 0. -1.
        -11    1    4    4    0    0  0.16824249783E-01 -0.37805320296E-01 -0.91058412651E-01  0.10002096410E+00  0.51100000000E-03 0. -1.
         11    1    4    4    0    0  0.10737624969E-01 -0.15462674447E-01 -0.17641689922E-01  0.25804674680E-01  0.51100000000E-03 0.  1.
</event>
<event>
 8    1  0.1170483E+005  0.1043930E+01  0.7957747E-01            NaN
         13   -1    0    0    0    0  0.00000000000E+00  0.00000000000E+00  0.74505805969E-08  0.10566000000E+00  0.10566000000E+00 0. -1.
     999900   -1    0    0    0    0 -0.00000000000E+00 -0.00000000000E+00 -0.74505805969E-08  0.93827000000E+00  0.93827000000E+00 0.  1.
     999902    2    1    2    0    0  0.70102775038E-02  0.23315610933E-01 -0.59026701596E-02  0.10188779897E+01  0.10185699557E+01 0.  0.
     999903    2    3    3    0    0 -0.11925748772E+00 -0.33183033960E-01 -0.23659756086E-01  0.12789484762E+00  0.21768001068E-01 0.  0.
         14    1    1    2    0    0 -0.70102775038E-02 -0.23315610933E-01  0.59026701596E-02  0.25052010276E-01  0.00000000000E+00 0. -1.
     999901    1    3    3    0    0  0.12626776522E+00  0.56498644893E-01  0.17757085926E-01  0.89098314210E+00  0.88000000000E+00 0. -1.
        -11    1    4    4    0    0 -0.77621079508E-01 -0.11276227980E-01 -0.18264232773E-01  0.80535884059E-01  0.51100000000E-03 0.  1.
         11    1    4    4    0    0 -0.41636408211E-01 -0.21906805979E-01 -0.53955233126E-02  0.47358963563E-01  0.51100000000E-03 0. -1.
</event>
<event>
 8    1  0.1170483E+005  0.1043930E+01  0.7957747E-01            NaN
         13   -1    0    0    0    0  0.00000000000E+00  0.00000000000E+00  0.74505805969E-08  0.10566000000E+00  0.10566000000E+00 0.  1.
     999900   -1    0    0    0    0 -0.00000000000E+00 -0.00000000000E+00 -0.74505805969E-08  0.93827000000E+00  0.93827000000E+00 0. -1.
     999902    2    1    2    0    0 -0.15909117814E-01 -0.80991215106E-02 -0.15759843292E-01  0.10201168007E+01  0.10198388199E+01 0.  0.
     999903    2    3    3    0    0 -0.40014801996E-03 -0.81373767177E-01  0.99353923347E-01  0.12946485911E+00  0.16373684896E-01 0.  0.
         14    1    1    2    0    0  0.15909117814E-01  0.80991215106E-02  0.15759843292E-01  0.23813199269E-01  0.00000000000E+00 0. -1.
     999901    1    3    3    0    0 -0.15508969794E-01  0.73274645667E-01 -0.11511376664E+00  0.89065194162E+00  0.88000000000E+00 0. -1.
        -11    1    4    4    0    0  0.52495143847E-02 -0.70643553965E-01  0.83606496049E-01  0.10958273779E+00  0.51100000000E-03 0. -1.
         11    1    4    4    0    0 -0.56496624047E-02 -0.10730213212E-01  0.15747427298E-01  0.19882121325E-01  0.51100000000E-03 0.  1.
</event>
<event>
 8    1  0.1170483E+005  0.1043930E+01  0.7957747E-01            NaN
         13   -1    0    0    0    0  0.00000000000E+00  0.00000000000E+00  0.74505805969E-08  0.10566000000E+00  0.10566000000E+00 0. -1.
     999900   -1    0    0    0    0 -0.00000000000E+00 -0.00000000000E+00 -0.74505805969E-08  0.93827000000E+00  0.93827000000E+00 0. -1.
     999902    2    1    2    0    0  0.29199006898E-02  0.20131246764E-01  0.12416207216E-01  0.10200981910E+01  0.10198197705E+01 0.  0.
     999903    2    3    3    0    0 -0.85218965334E-02  0.11726869194E+00 -0.56796516029E-01  0.13197826726E+00  0.19179415157E-01 0.  0.
         14    1    1    2    0    0 -0.29199006898E-02 -0.20131246764E-01 -0.12416207216E-01  0.23831808952E-01  0.00000000000E+00 0.  1.
     999901    1    3    3    0    0  0.11441797223E-01 -0.97137445173E-01  0.69212723245E-01  0.88811992379E+00  0.88000000000E+00 0.  1.
        -11    1    4    4    0    0 -0.33927568945E-02  0.15444197683E-01 -0.14959141432E-01  0.21773173283E-01  0.51100000000E-03 0. -1.
         11    1    4    4    0    0 -0.51291396389E-02  0.10182449425E+00 -0.41837374597E-01  0.11020509397E+00  0.51100000000E-03 0.  1.
</event>
<event>
 8    1  0.1170483E+005  0.1043930E+01  0.7957747E-01            NaN
         13   -1    0    0    0    0  0.00000000000E+00  0.00000000000E+00  0.74505805969E-08  0.10566000000E+00  0.10566000000E+00 0. -1.
     999900   -1    0    0    0    0 -0.00000000000E+00 -0.00000000000E+00 -0.74505805969E-08  0.93827000000E+00  0.93827000000E+00 0.  1.
     999902    2    1    2    0    0  0.19230666890E-01  0.43638929747E-02 -0.12343286588E-01  0.10206658896E+01  0.10204007248E+01 0.  0.
     999903    2    3    3    0    0  0.85738704521E-01 -0.95747714721E-01  0.22251707149E-01  0.13182255878E+00  0.19060383165E-01 0.  0.
         14    1    1    2    0    0 -0.19230666890E-01 -0.43638929747E-02  0.12343286588E-01  0.23264110444E-01  0.00000000000E+00 0. -1.
     999901    1    3    3    0    0 -0.66508037631E-01  0.10011160770E+00 -0.34594993737E-01  0.88884333077E+00  0.88000000000E+00 0.  1.
        -11    1    4    4    0    0  0.31375497134E-01 -0.42208366965E-01  0.95477915627E-03  0.52603619519E-01  0.51100000000E-03 0.  1.
         11    1    4    4    0    0  0.54363207387E-01 -0.53539347756E-01  0.21296927992E-01  0.79218939266E-01  0.51100000000E-03 0. -1.
</event>
<event>
 8    1  0.1170483E+005  0.1043930E+01  0.7957747E-01            NaN
         13   -1    0    0    0    0  0.00000000000E+00  0.00000000000E+00  0.74505805969E-08  0.10566000000E+00  0.10566000000E+00 0. -1.
     999900   -1    0    0    0    0 -0.00000000000E+00 -0.00000000000E+00 -0.74505805969E-08  0.93827000000E+00  0.93827000000E+00 0. -1.
     999902    2    1    2    0    0  0.42771073751E-02 -0.94997890401E-02 -0.21075186481E-01  0.10204203610E+01  0.10201495038E+01 0.  0.
     999903    2    3    3    0    0 -0.13430902592E-01  0.91958172088E-02 -0.13059660654E+00  0.13325744433E+00  0.20907430060E-01 0.  0.
         14    1    1    2    0    0 -0.42771073751E-02  0.94997890401E-02  0.21075186481E-01  0.23509638970E-01  0.00000000000E+00 0. -1.
     999901    1    3    3    0    0  0.17708009968E-01 -0.18695606249E-01  0.10952142006E+00  0.88716291670E+00  0.88000000000E+00 0.  1.
        -11    1    4    4    0    0 -0.18285609879E-01  0.43419717983E-02 -0.10838360662E+00  0.11000219794E+00  0.51100000000E-03 0.  1.
         11    1    4    4    0    0  0.48547072868E-02  0.48538454105E-02 -0.22212999921E-01  0.23255246388E-01  0.51100000000E-03 0. -1.
</event>
<event>
 8    1  0.1170483E+005  0.1043930E+01  0.7957747E-01            NaN
         13   -1    0    0    0    0  0.00000000000E+00  0.00000000000E+00  0.74505805969E-08  0.10566000000E+00  0.10566000000E+00 0. -1.
     999900   -1    0    0    0    0 -0.00000000000E+00 -0.00000000000E+00 -0.74505805969E-08  0.93827000000E+00  0.93827000000E+00 0.  1.
     999902    2    1    2    0    0  0.18889944517E-01  0.12764097587E-01  0.57452110722E-02  0.10204191591E+01  0.10201482738E+01 0.  0.
     999903    2    3    3    0    0  0.12228598380E+00  0.44182232529E-01 -0.21835064887E-01  0.13337997630E+00  0.20187038288E-01 0.  0.
         14    1    1    2    0    0 -0.18889944517E-01 -0.12764097587E-01 -0.57452110722E-02  0.23510840932E-01  0.00000000000E+00 0. -1.
     999901    1    3    3    0    0 -0.10339603928E+00 -0.31418134942E-01  0.27580275959E-01  0.88703918277E+00  0.88000000000E+00 0. -1.
        -11    1    4    4    0    0  0.25362470268E-01  0.18237859929E-01 -0.50673748606E-02  0.31651442966E-01  0.51100000000E-03 0. -1.
         11    1    4    4    0    0  0.96923513530E-01  0.25944372599E-01 -0.16767690026E-01  0.10172853333E+00  0.51100000000E-03 0.  1.
</event>
<event>
 8    1  0.1170483E+005  0.1043930E+01  0.7957747E-01            NaN
         13   -1    0    0    0    0  0.00000000000E+00  0.00000000000E+00  0.74505805969E-08  0.10566000000E+00  0.10566000000E+00 0. -1.
     999900   -1    0    0    0    0 -0.00000000000E+00 -0.00000000000E+00 -0.74505805969E-08  0.93827000000E+00  0.93827000000E+00 0.  1.
     999902    2    1    2    0    0 -0.37637016101E-02  0.14743238212E-01  0.18509901799E-01  0.10199686773E+01  0.10196871862E+01 0.  0.
     999903    2    3    3    0    0  0.22979679739E-01  0.12398469034E+00 -0.30771502281E-01  0.13144317954E+00  0.20740177806E-01 0.  0.
         14    1    1    2    0    0  0.37637016101E-02 -0.14743238212E-01 -0.18509901799E-01  0.23961322739E-01  0.00000000000E+00 0.  1.
     999901    1    3    3    0    0 -0.26743381349E-01 -0.10924145213E+00  0.49281404080E-01  0.88852549772E+00  0.88000000000E+00 0. -1.
        -11    1    4    4    0    0  0.28600171473E-02  0.66214385136E-01 -0.11234383682E-01  0.67223485440E-01  0.51100000000E-03 0. -1.
         11    1    4    4    0    0  0.20119662592E-01  0.57770305206E-01 -0.19537118599E-01  0.64219694102E-01  0.51100000000E-03 0.  1.
</event>
<event>
 8    1  0.1170483E+005  0.1043930E+01  0.7957747E-01            NaN
         13   -1    0    0    0    0  0.00000000000E+00  0.00000000000E+00  0.74505805969E-08  0.10566000000E+00  0.10566000000E+00 0.  1.
     999900   -1    0    0    0    0 -0.00000000000E+00 -0.00000000000E+00 -0.74505805969E-08  0.93827000000E+00  0.93827000000E+00 0. -1.
     999902    2    1    2    0    0  0.11726385774E-01  0.68930153958E-02 -0.19015391017E-01  0.10205503747E+01  0.10202825395E+01 0.  0.
     999903    2    3    3    0    0  0.91933946023E-01  0.52654256493E-01 -0.79027263336E-01  0.13368580287E+00  0.20056529644E-01 0.  0.
         14    1    1    2    0    0 -0.11726385774E-01 -0.68930153958E-02  0.19015391017E-01  0.23379625320E-01  0.00000000000E+00 0.  1.
     999901    1    3    3    0    0 -0.80207560249E-01 -0.45761241097E-01  0.60011872319E-01  0.88686457181E+00  0.88000000000E+00 0.  1.
        -11    1    4    4    0    0  0.30747251474E-01  0.10173857293E-01 -0.16085764543E-01  0.36165090728E-01  0.51100000000E-03 0. -1.
         11    1    4    4    0    0  0.61186694548E-01  0.42480399201E-01 -0.62941498793E-01  0.97520712145E-01  0.51100000000E-03 0.  1.
</event>
<event>
 8    1  0.1170483E+005  0.1043930E+01  0.7957747E-01            NaN
         13   -1    0    0    0    0  0.00000000000E+00  0.00000000000E+00  0.74505805969E-08  0.10566000000E+00  0.10566000000E+00 0.  1.
     999900   -1    0    0    0    0 -0.00000000000E+00 -0.00000000000E+00 -0.74505805969E-08  0.93827000000E+00  0.93827000000E+00 0. -1.
     999902    2    1    2    0    0  0.18730049918E-02  0.82623903833E-02  0.22984942147E-01  0.10194334123E+01  0.10191390481E+01 0.  0.
     999903    2    3    3    0    0  0.66020653689E-01 -0.10592511945E+00  0.29445362689E-01  0.12971691519E+00  0.19508743115E-01 0.  0.
         14    1    1    2    0    0 -0.18730049918E-02 -0.82623903833E-02 -0.22984942147E-01  0.24496587682E-01  0.00000000000E+00 0. -1.
     999901    1    3    3    0    0 -0.64147648698E-01  0.11418750983E+00 -0.64604205421E-02  0.88971649713E+00  0.88000000000E+00 0. -1.
        -11    1    4    4    0    0  0.33876830792E-01 -0.42574705934E-01  0.20372010755E-01  0.58099270160E-01  0.51100000000E-03 0.  1.
         11    1    4    4    0    0  0.32143822897E-01 -0.63350413514E-01  0.90733519343E-02  0.71617645027E-01  0.51100000000E-03 0. -1.
</event>
<event>
 8    1  0.1170483E+005  0.1043930E+01  0.7957747E-01            NaN
         13   -1    0    0    0    0  0.00000000000E+00  0.00000000000E+00  0.74505805969E-08  0.10566000000E+00  0.10566000000E+00 0. -1.
     999900   -1    0    0    0    0 -0.00000000000E+00 -0.00000000000E+00 -0.74505805969E-08  0.93827000000E+00  0.93827000000E+00 0. -1.
     999902    2    1    2    0    0 -0.14454036831E-02  0.18881823361E-02  0.24376633351E-01  0.10194376608E+01  0.10191433999E+01 0.  0.
     999903    2    3    3    0    0 -0.49466753596E-02 -0.12231006464E+00 -0.34566800304E-01  0.12875713908E+00  0.19982884501E-01 0.  0.
         14    1    1    2    0    0  0.14454036831E-02 -0.18881823361E-02 -0.24376633351E-01  0.24492339167E-01  0.00000000000E+00 0.  1.
     999901    1    3    3    0    0  0.35012716765E-02  0.12419824697E+00  0.58943433654E-01  0.89068052175E+00  0.88000000000E+00 0.  1.
        -11    1    4    4    0    0 -0.20689979023E-02 -0.68902216180E-01 -0.91573075700E-02  0.69540733026E-01  0.51100000000E-03 0.  1.
         11    1    4    4    0    0 -0.28776774573E-02 -0.53407848457E-01 -0.25409492733E-01  0.59216406057E-01  0.51100000000E-03 0. -1.
</event>
<event>
 8    1  0.1170483E+005  0.1043930E+01  0.7957747E-01            NaN
         13   -1    0    0    0    0  0.00000000000E+00  0.00000000000E+00  0.74505805969E-08  0.10566000000E+00  0.10566000000E+00 0. -1.
     999900   -1    0    0    0    0 -0.00000000000E+00 -0.00000000000E+00 -0.74505805969E-08  0.93827000000E+00  0.93827000000E+00 0.  1.
     999902    2    1    2    0    0  0.23125076891E-01 -0.16281086850E-02 -0.46133361609E-02  0.10202931053E+01  0.10200192733E+01 0.  0.
     999903    2    3    3    0    0  0.77888491952E-01 -0.95820843993E-01 -0.44173871319E-01  0.13269165256E+00  0.20186441741E-01 0.  0.
         14    1    1    2    0    0 -0.23125076891E-01  0.16281086850E-02  0.46133361609E-02  0.23636894670E-01  0.00000000000E+00 0. -1.
     999901    1    3    3    0    0 -0.54763415060E-01  0.94192735308E-01  0.39560535159E-01  0.88760145277E+00  0.88000000000E+00 0. -1.
        -11    1    4    4    0    0  0.20237647783E-01 -0.39269701434E-01 -0.19078066689E-01  0.48123856745E-01  0.51100000000E-03 0. -1.
         11    1    4    4    0    0  0.57650844169E-01 -0.56551142559E-01 -0.25095804630E-01  0.84567795816E-01  0.51100000000E-03 0.  1.
</event>
<event>
 8    1  0.1170483E+005  0.1043930E+01  0.7957747E-01            NaN
         13   -1    0    0    0    0  0.00000000000E+00  0.00000000000E+00  0.74505805969E-08  0.10566000000E+00  0.10566000000E+00 0.  1.
     999900   -1    0    0    0    0 -0.00000000000E+00 -0.00000000000E+00 -0.74505805969E-08  0.93827000000E+00  0.93827000000E+00 0. -1.
     999902    2    1    2    0    0  0.34510739672E-02 -0.23710123979E-01 -0.11968017224E-02  0.10199401641E+01  0.10196579947E+01 0.  0.
     999903    2    3    3    0    0  0.93075665302E-01 -0.91722609303E-01 -0.10782387103E-01  0.13272533728E+00  0.20582486649E-01 0.  0.
         14    1    1    2    0    0 -0.34510739672E-02  0.23710123979E-01  0.11968017224E-02  0.23989835868E-01  0.00000000000E+00 0.  1.
     999901    1    3    3    0    0 -0.89624591335E-01  0.68012485324E-01  0.95855853803E-02  0.88721482685E+00  0.88000000000E+00 0.  1.
        -11    1    4    4    0    0  0.65356940859E-01 -0.52190978949E-01 -0.11558835442E-01  0.84435157369E-01  0.51100000000E-03 0.  1.
         11    1    4    4    0    0  0.27718724443E-01 -0.39531630354E-01  0.77644833900E-03  0.48290179915E-01  0.51100000000E-03 0. -1.
</event>
<event>
 8    1  0.1170483E+005  0.1043930E+01  0.7957747E-01            NaN
         13   -1    0    0    0    0  0.00000000000E+00  0.00000000000E+00  0.74505805969E-08  0.10566000000E+00  0.10566000000E+00 0. -1.
     999900   -1    0    0    0    0 -0.00000000000E+00 -0.00000000000E+00 -0.74505805969E-08  0.93827000000E+00  0.93827000000E+00 0. -1.
     999902    2    1    2    0    0  0.19599234757E-01  0.67889719535E-03  0.12371106310E-01  0.10207430387E+01  0.10204796499E+01 0.  0.
     999903    2    3    3    0    0  0.13099893515E+00 -0.10429634392E-01 -0.81926030572E-02  0.13341212020E+00  0.21498297301E-01 0.  0.
         14    1    1    2    0    0 -0.19599234757E-01 -0.67889719535E-03 -0.12371106310E-01  0.23186961332E-01  0.00000000000E+00 0. -1.
     999901    1    3    3    0    0 -0.11139970040E+00  0.11108531587E-01  0.20563709367E-01  0.88733091847E+00  0.88000000000E+00 0.  1.
        -11    1    4    4    0    0  0.11093042017E-01  0.22574150076E-02  0.44509892906E-02  0.12174725063E-01  0.51100000000E-03 0. -1.
         11    1    4    4    0    0  0.11990589314E+00 -0.12687049399E-01 -0.12643592348E-01  0.12123739514E+00  0.51100000000E-03 0.  1.
</event>
<event>
 8    1  0.1170483E+005  0.1043930E+01  0.7957747E-01            NaN
         13   -1    0    0    0    0  0.00000000000E+00  0.00000000000E+00  0.74505805969E-08  0.10566000000E+00  0.10566000000E+00 0.  1.
     999900   -1    0    0    0    0 -0.00000000000E+00 -0.00000000000E+00 -0.74505805969E-08  0.93827000000E+00  0.93827000000E+00 0.  1.
     999902    2    1    2    0    0  0.39510251507E-02  0.16282436781E-01  0.20669707068E-01  0.10173223857E+01  0.10169743710E+01 0.  0.
     999903    2    3    3    0    0 -0.71322431847E-01 -0.99489562138E-01 -0.20530371589E-01  0.12560118740E+00  0.19211971764E-01 0.  0.
         14    1    1    2    0    0 -0.39510251507E-02 -0.16282436781E-01 -0.20669707068E-01  0.26607614277E-01  0.00000000000E+00 0. -1.
     999901    1    3    3    0    0  0.75273456997E-01  0.11577199892E+00  0.41200078657E-01  0.89172119833E+00  0.88000000000E+00 0. -1.
        -11    1    4    4    0    0 -0.22782665715E-01 -0.21885701392E-01  0.82932890804E-03  0.31606687424E-01  0.51100000000E-03 0. -1.
         11    1    4    4    0    0 -0.48539766132E-01 -0.77603860746E-01 -0.21359700497E-01  0.93994499973E-01  0.51100000000E-03 0.  1.
</event>
<event>
 8    1  0.1170483E+005  0.1043930E+01  0.7957747E-01            NaN
         13   -1    0    0    0    0  0.00000000000E+00  0.00000000000E+00  0.74505805969E-08  0.10566000000E+00  0.10566000000E+00 0. -1.
     999900   -1    0    0    0    0 -0.00000000000E+00 -0.00000000000E+00 -0.74505805969E-08  0.93827000000E+00  0.93827000000E+00 0.  1.
     999902    2    1    2    0    0  0.17793450235E-01 -0.33644381335E-02  0.13078033920E-01  0.10215925586E+01  0.10213483219E+01 0.  0.
     999903    2    3    3    0    0  0.12422154191E+00 -0.43269403546E-01 -0.11628473477E-01  0.13393848386E+00  0.22384443420E-01 0.  0.
         14    1    1    2    0    0 -0.17793450235E-01  0.33644381335E-02 -0.13078033920E-01  0.22337441359E-01  0.00000000000E+00 0.  1.
     999901    1    3    3    0    0 -0.10642809167E+00  0.39904965413E-01  0.24706507397E-01  0.88765407478E+00  0.88000000000E+00 0. -1.
        -11    1    4    4    0    0  0.11339470536E+00 -0.33904329089E-01 -0.58742525661E-02  0.11850160631E+00  0.51100000000E-03 0.  1.
         11    1    4    4    0    0  0.10826836547E-01 -0.93650744571E-02 -0.57542209106E-02  0.15436877550E-01  0.51100000000E-03 0. -1.
</event>
<event>
 8    1  0.1170483E+005  0.1043930E+01  0.7957747E-01            NaN
         13   -1    0    0    0    0  0.00000000000E+00  0.00000000000E+00  0.74505805969E-08  0.10566000000E+00  0.10566000000E+00 0. -1.
     999900   -1    0    0    0    0 -0.00000000000E+00 -0.00000000000E+00 -0.74505805969E-08  0.93827000000E+00  0.93827000000E+00 0. -1.
     999902    2    1    2    0    0 -0.12217253615E-01  0.17329024060E-01  0.93031608174E-02  0.10207760552E+01  0.10205134245E+01 0.  0.
     999903    2    3    3    0    0  0.12447349942E+00 -0.11677397176E-01 -0.25012211537E-01  0.12909041592E+00  0.20216604377E-01 0.  0.
         14    1    1    2    0    0  0.12217253615E-01 -0.17329024060E-01 -0.93031608174E-02  0.23153944847E-01  0.00000000000E+00 0.  1.
     999901    1    3    3    0    0 -0.13669075304E+00  0.29006421236E-01  0.34315372355E-01  0.89168563924E+00  0.88000000000E+00 0.  1.
        -11    1    4    4    0    0  0.51741802365E-01  0.51164952143E-02 -0.10401726775E-01  0.53026876923E-01  0.51100000000E-03 0.  1.
         11    1    4    4    0    0  0.72731697058E-01 -0.16793892390E-01 -0.14610484762E-01  0.76063538995E-01  0.51100000000E-03 0. -1.
</event>
<event>
 8    1  0.1170483E+005  0.1043930E+01  0.7957747E-01            NaN
         13   -1    0    0    0    0  0.00000000000E+00  0.00000000000E+00  0.74505805969E-08  0.10566000000E+00  0.10566000000E+00 0.  1.
     999900   -1    0    0    0    0 -0.00000000000E+00 -0.00000000000E+00 -0.74505805969E-08  0.93827000000E+00  0.93827000000E+00 0. -1.
     999902    2    1    2    0    0  0.63831280194E-02 -0.87994566080E-02 -0.20613445044E-01  0.10206257327E+01  0.10203596411E+01 0.  0.
     999903    2    3    3    0    0 -0.11535093211E-01  0.34049727206E-01  0.12143670605E+00  0.12802539620E+00  0.18739962613E-01 0.  0.
         14    1    1    2    0    0 -0.63831280194E-02  0.87994566080E-02  0.20613445044E-01  0.23304267345E-01  0.00000000000E+00 0.  1.
     999901    1    3    3    0    0  0.17918221230E-01 -0.42849183814E-01 -0.14205015109E+00  0.89260033645E+00  0.88000000000E+00 0. -1.
        -11    1    4    4    0    0 -0.30708693472E-02 -0.16089424402E-02  0.16605616729E-01  0.16971345329E-01  0.51100000000E-03 0. -1.
         11    1    4    4    0    0 -0.84642238636E-02  0.35658669647E-01  0.10483108932E+00  0.11105405088E+00  0.51100000000E-03 0.  1.
</event>
<event>
 8    1  0.1170483E+005  0.1043930E+01  0.7957747E-01            NaN
         13   -1    0    0    0    0  0.00000000000E+00  0.00000000000E+00  0.74505805969E-08  0.10566000000E+00  0.10566000000E+00 0.  1.
     999900   -1    0    0    0    0 -0.00000000000E+00 -0.00000000000E+00 -0.74505805969E-08  0.93827000000E+00  0.93827000000E+00 0. -1.
     999902    2    1    2    0    0 -0.12793594820E-01 -0.16656126378E-01  0.10748101553E-01  0.10203371133E+01  0.10200643120E+01 0.  0.
     999903    2    3    3    0    0  0.28858589504E-02  0.57903368079E-01 -0.11259881311E+00  0.12847421757E+00  0.21587117659E-01 0.  0.
         14    1    1    2    0    0  0.12793594820E-01  0.16656126378E-01 -0.10748101553E-01  0.23592886669E-01  0.00000000000E+00 0.  1.
     999901    1    3    3    0    0 -0.15679453771E-01 -0.74559494458E-01  0.12334691466E+00  0.89186289576E+00  0.88000000000E+00 0.  1.
        -11    1    4    4    0    0 -0.38907959232E-02  0.23823275596E-01 -0.66478269187E-01  0.70726997308E-01  0.51100000000E-03 0.  1.
         11    1    4    4    0    0  0.67766548736E-02  0.34080092483E-01 -0.46120543923E-01  0.57747220259E-01  0.51100000000E-03 0. -1.
</event>
<event>
 8    1  0.1170483E+005  0.1043930E+01  0.7957747E-01            NaN
         13   -1    0    0    0    0  0.00000000000E+00  0.00000000000E+00  0.74505805969E-08  0.10566000000E+00  0.10566000000E+00 0. -1.
     999900   -1    0    0    0    0 -0.00000000000E+00 -0.00000000000E+00 -0.74505805969E-08  0.93827000000E+00  0.93827000000E+00 0. -1.
     999902    2    1    2    0    0 -0.14087396337E-01 -0.15321274837E-01 -0.50648617515E-02  0.10225092385E+01  0.10222848399E+01 0.  0.
     999903    2    3    3    0    0  0.46355202889E-01  0.11816775650E+00 -0.21445194226E-01  0.13024193295E+00  0.19764645968E-01 0.  0.
         14    1    1    2    0    0  0.14087396337E-01  0.15321274837E-01  0.50648617515E-02  0.21420761489E-01  0.00000000000E+00 0. -1.
     999901    1    3    3    0    0 -0.60442599226E-01 -0.13348903134E+00  0.16380332475E-01  0.89226730557E+00  0.88000000000E+00 0.  1.
        -11    1    4    4    0    0  0.28014532320E-01  0.76138170479E-01 -0.41732981007E-02  0.81237384024E-01  0.51100000000E-03 0. -1.
         11    1    4    4    0    0  0.18340670569E-01  0.42029586023E-01 -0.17271896126E-01  0.49004548921E-01  0.51100000000E-03 0.  1.
</event>
<event>
 8    1  0.1170483E+005  0.1043930E+01  0.7957747E-01            NaN
         13   -1    0    0    0    0  0.00000000000E+00  0.00000000000E+00  0.74505805969E-08  0.10566000000E+00  0.10566000000E+00 0.  1.
     999900   -1    0    0    0    0 -0.00000000000E+00 -0.00000000000E+00 -0.74505805969E-08  0.93827000000E+00  0.93827000000E+00 0. -1.
     999902    2    1    2    0    0 -0.31286541247E-02 -0.23025920567E-01  0.22147300085E-02  0.10205871955E+01  0.10203202130E+01 0.  0.
     999903    2    3    3    0    0  0.11213858505E+00 -0.63359339280E-01 -0.20851467862E-01  0.13185474384E+00  0.19011092249E-01 0.  0.
         14    1    1    2    0    0  0.31286541247E-02  0.23025920567E-01 -0.22147300085E-02  0.23342804536E-01  0.00000000000E+00 0. -1.
     999901    1    3    3    0    0 -0.11526723918E+00  0.40333418713E-01  0.23066197870E-01  0.88873245163E+00  0.88000000000E+00 0.  1.
        -11    1    4    4    0    0  0.53942107314E-01 -0.40699532463E-01 -0.75145881182E-02  0.67992154252E-01  0.51100000000E-03 0. -1.
         11    1    4    4    0    0  0.58196477738E-01 -0.22659806817E-01 -0.13336879744E-01  0.63862589584E-01  0.51100000000E-03 0.  1.
</event>
<event>
 8    1  0.1170483E+005  0.1043930E+01  0.7957747E-01            NaN
         13   -1    0    0    0    0  0.00000000000E+00  0.00000000000E+00  0.74505805969E-08  0.10566000000E+00  0.10566000000E+00 0. -1.
     999900   -1    0    0    0    0 -0.00000000000E+00 -0.00000000000E+00 -0.74505805969E-08  0.93827000000E+00  0.93827000000E+00 0.  1.
     999902    2    1    2    0    0 -0.14125610852E-01  0.56428554106E-02  0.16435603652E-01  0.10215357202E+01  0.10212902251E+01 0.  0.
     999903    2    3    3    0    0 -0.48517647433E-01  0.86412425516E-01  0.88366688725E-01  0.13424736990E+00  0.19814521232E-01 0.  0.
         14    1    1    2    0    0  0.14125610852E-01 -0.56428554106E-02 -0.16435603652E-01  0.22394279773E-01  0.00000000000E+00 0.  1.
     999901    1    3    3    0    0  0.34392036581E-01 -0.80769570105E-01 -0.71931085073E-01  0.88728835033E+00  0.88000000000E+00 0.  1.
        -11    1    4    4    0    0 -0.27595064302E-01  0.63650327810E-01  0.68490720467E-01  0.97488931244E-01  0.51100000000E-03 0. -1.
         11    1    4    4    0    0 -0.20922583131E-01  0.22762097706E-01  0.19875968258E-01  0.36758438651E-01  0.51100000000E-03 0.  1.
</event>
<event>
 8    1  0.1170483E+005  0.1043930E+01  0.7957747E-01            NaN
         13   -1    0    0    0    0  0.00000000000E+00  0.00000000000E+00  0.74505805969E-08  0.10566000000E+00  0.10566000000E+00 0. -1.
     999900   -1    0    0    0    0 -0.00000000000E+00 -0.00000000000E+00 -0.74505805969E-08  0.93827000000E+00  0.93827000000E+00 0. -1.
     999902    2    1    2    0    0 -0.12768231524E-01 -0.19691924847E-01 -0.17330932331E-02  0.10203969753E+01  0.10201255726E+01 0.  0.
     999903    2    3    3    0    0 -0.11474487412E+00  0.49155997943E-01  0.33974495847E-01  0.13111956973E+00  0.21339562483E-01 0.  0.
         14    1    1    2    0    0  0.12768231524E-01  0.19691924847E-01  0.17330932331E-02  0.23533024723E-01  0.00000000000E+00 0.  1.
     999901    1    3    3    0    0  0.10197664259E+00 -0.68847922790E-01 -0.35707589080E-01  0.88927740555E+00  0.88000000000E+00 0. -1.
        -11    1    4    4    0    0 -0.77307288190E-01  0.24161174918E-01  0.28039019685E-01  0.85712466577E-01  0.51100000000E-03 0. -1.
         11    1    4    4    0    0 -0.37437585927E-01  0.24994823025E-01  0.59354761615E-02  0.45407103149E-01  0.51100000000E-03 0.  1.
</event>
<event>
 8    1  0.1170483E+005  0.1043930E+01  0.7957747E-01            NaN
         13   -1    0    0    0    0  0.00000000000E+00  0.00000000000E+00  0.74505805969E-08  0.10566000000E+00  0.10566000000E+00 0. -1.
     999900   -1    0    0    0    0 -0.00000000000E+00 -0.00000000000E+00 -0.74505805969E-08  0.93827000000E+00  0.93827000000E+00 0. -1.
     999902    2    1    2    0    0 -0.17991336675E-01  0.12197668037E-01  0.72218397861E-02  0.10210252784E+01  0.10207683346E+01 0.  0.
     999903    2    3    3    0    0  0.54847259438E-01 -0.75542084814E-01 -0.85198791084E-01  0.12886761392E+00  0.25163455027E-01 0.  0.
         14    1    1    2    0    0  0.17991336675E-01 -0.12197668037E-01 -0.72218397861E-02  0.22904721583E-01  0.00000000000E+00 0.  1.
     999901    1    3    3    0    0 -0.72838596113E-01  0.87739752851E-01  0.92420630870E-01  0.89215766450E+00  0.88000000000E+00 0.  1.
        -11    1    4    4    0    0  0.36398172696E-01 -0.64619938575E-01 -0.73591071794E-01  0.10448191425E+00  0.51100000000E-03 0. -1.
         11    1    4    4    0    0  0.18449086742E-01 -0.10922146240E-01 -0.11607719289E-01  0.24385699666E-01  0.51100000000E-03 0.  1.
</event>
<event>
 8    1  0.1170483E+005  0.1043930E+01  0.7957747E-01            NaN
         13   -1    0    0    0    0  0.00000000000E+00  0.00000000000E+00  0.74505805969E-08  0.10566000000E+00  0.10566000000E+00 0. -1.
     999900   -1    0    0    0    0 -0.00000000000E+00 -0.00000000000E+00 -0.74505805969E-08  0.93827000000E+00  0.93827000000E+00 0. -1.
     999902    2    1    2    0    0  0.20796492185E-01 -0.48390388755E-02  0.13807884134E-01  0.10185022976E+01  0.10181848369E+01 0.  0.
     999903    2    3    3    0    0 -0.48187938016E-01  0.11216749492E+00 -0.29224523417E-01  0.12704216465E+00  0.19545192331E-01 0.  0.
         14    1    1    2    0    0 -0.20796492185E-01  0.48390388755E-02 -0.13807884134E-01  0.25427702387E-01  0.00000000000E+00 0.  1.
     999901    1    3    3    0    0  0.68984430201E-01 -0.11700653380E+00  0.43032407551E-01  0.89146013296E+00  0.88000000000E+00 0.  1.
        -11    1    4    4    0    0 -0.46807136726E-01  0.10125025675E+00 -0.31248961138E-01  0.11584162133E+00  0.51100000000E-03 0.  1.
         11    1    4    4    0    0 -0.13808012899E-02  0.10917238172E-01  0.20244377206E-02  0.11200543316E-01  0.51100000000E-03 0. -1.
</event>
<event>
 8    1  0.1170483E+005  0.1043930E+01  0.7957747E-01            NaN
         13   -1    0    0    0    0  0.00000000000E+00  0.00000000000E+00  0.74505805969E-08  0.10566000000E+00  0.10566000000E+00 0.  1.
     999900   -1    0    0    0    0 -0.00000000000E+00 -0.00000000000E+00 -0.74505805969E-08  0.93827000000E+00  0.93827000000E+00 0. -1.
     999902    2    1    2    0    0  0.15397116478E-01 -0.18560037235E-01  0.44970071100E-02  0.10193990145E+01  0.10191038129E+01 0.  0.
     999903    2    3    3    0    0 -0.91833806357E-01  0.44485599454E-01 -0.73456530154E-01  0.12723872781E+00  0.19529861360E-01 0.  0.
         14    1    1    2    0    0 -0.15397116478E-01  0.18560037235E-01 -0.44970071100E-02  0.24530985527E-01  0.00000000000E+00 0. -1.
     999901    1    3    3    0    0  0.10723092284E+00 -0.63045636689E-01  0.77953537264E-01  0.89216028666E+00  0.88000000000E+00 0.  1.
        -11    1    4    4    0    0 -0.67616901247E-01  0.41847205546E-01 -0.55581792163E-01  0.97019743801E-01  0.51100000000E-03 0.  1.
         11    1    4    4    0    0 -0.24216905110E-01  0.26383939081E-02 -0.17874737992E-01  0.30218984014E-01  0.51100000000E-03 0. -1.
</event>
<event>
 8    1  0.1170483E+005  0.1043930E+01  0.7957747E-01            NaN
         13   -1    0    0    0    0  0.00000000000E+00  0.00000000000E+00  0.74505805969E-08  0.10566000000E+00  0.10566000000E+00 0.  1.
     999900   -1    0    0    0    0 -0.00000000000E+00 -0.00000000000E+00 -0.74505805969E-08  0.93827000000E+00  0.93827000000E+00 0. -1.
     999902    2    1    2    0    0  0.23943953824E-02  0.20475544634E-01 -0.12201696155E-01  0.10199745738E+01  0.10196932228E+01 0.  0.
     999903    2    3    3    0    0  0.72333672731E-01 -0.63883486772E-01  0.81991709358E-01  0.12818965219E+00  0.19916988529E-01 0.  0.
         14    1    1    2    0    0 -0.23943953824E-02 -0.20475544634E-01  0.12201696155E-01  0.23955426241E-01  0.00000000000E+00 0. -1.
     999901    1    3    3    0    0 -0.69939277349E-01  0.84359031406E-01 -0.94193405514E-01  0.89178492157E+00  0.88000000000E+00 0. -1.
        -11    1    4    4    0    0  0.34523569471E-01 -0.20899381143E-01  0.42689285197E-01  0.58747741853E-01  0.51100000000E-03 0. -1.
         11    1    4    4    0    0  0.37810103261E-01 -0.42984105629E-01  0.39302424162E-01  0.69441910337E-01  0.51100000000E-03 0.  1.
</event>
<event>
 8    1  0.1170483E+005  0.1043930E+01  0.7957747E-01            NaN
         13   -1    0    0    0    0  0.00000000000E+00  0.00000000000E+00  0.74505805969E-08  0.10566000000E+00  0.10566000000E+00 0.  1.
     999900   -1    0    0    0    0 -0.00000000000E+00 -0.00000000000E+00 -0.74505805969E-08  0.93827000000E+00  0.93827000000E+00 0.  1.
     999902    2    1    2    0    0  0.84800084573E-02 -0.16916673054E-01  0.14394494283E-01  0.10201542595E+01  0.10198771629E+01 0.  0.
     999903    2    3    3    0    0  0.23835410295E-02  0.62346214511E-01 -0.10984264431E+00  0.12787928010E+00  0.19873903412E-01 0.  0.
         14    1    1    2    0    0 -0.84800084573E-02  0.16916673054E-01 -0.14394494283E-01  0.23775740500E-01  0.00000000000E+00 0.  1.
     999901    1    3    3    0    0  0.60964674278E-02 -0.79262887565E-01  0.12423713860E+00  0.89227497940E+00  0.88000000000E+00 0.  1.
        -11    1    4    4    0    0  0.39023098661E-02  0.38690634771E-01 -0.85338412393E-01  0.93782189098E-01  0.51100000000E-03 0. -1.
         11    1    4    4    0    0 -0.15187688366E-02  0.23655579740E-01 -0.24504231921E-01  0.34097091000E-01  0.51100000000E-03 0.  1.
</event>
<event>
 8    1  0.1170483E+005  0.1043930E+01  0.7957747E-01            NaN
         13   -1    0    0    0    0  0.00000000000E+00  0.00000000000E+00  0.74505805969E-08  0.10566000000E+00  0.10566000000E+00 0. -1.
     999900   -1    0    0    0    0 -0.00000000000E+00 -0.00000000000E+00 -0.74505805969E-08  0.93827000000E+00  0.93827000000E+00 0. -1.
     999902    2    1    2    0    0  0.50232422046E-02  0.14685916609E-01  0.16989327701E-01  0.10209181256E+01  0.10206587445E+01 0.  0.
     999903    2    3    3    0    0 -0.84405742334E-01 -0.86767095014E-02  0.99377665287E-01  0.13224991204E+00  0.20359377447E-01 0.  0.
         14    1    1    2    0    0 -0.50232422046E-02 -0.14685916609E-01 -0.16989327701E-01  0.23011874426E-01  0.00000000000E+00 0.  1.
     999901    1    3    3    0    0  0.89428984538E-01  0.23362626111E-01 -0.82388337586E-01  0.88866821353E+00  0.88000000000E+00 0. -1.
        -11    1    4    4    0    0 -0.48174044663E-01 -0.15019110958E-01  0.58422393995E-01  0.77199413950E-01  0.51100000000E-03 0.  1.
         11    1    4    4    0    0 -0.36231697671E-01  0.63424014565E-02  0.40955271292E-01  0.55050498090E-01  0.51100000000E-03 0. -1.
</event>
<event>
 8    1  0.1170483E+005  0.1043930E+01  0.7957747E-01            NaN
         13   -1    0    0    0    0  0.00000000000E+00  0.00000000000E+00  0.74505805969E-08  0.10566000000E+00  0.10566000000E+00 0.  1.
     999900   -1    0    0    0    0 -0.00000000000E+00 -0.00000000000E+00 -0.74505805969E-08  0.93827000000E+00  0.93827000000E+00 0. -1.
     999902    2    1    2    0    0  0.67542577441E-02  0.17929390286E-01  0.13694925253E-01  0.10203793310E+01  0.10201075164E+01 0.  0.
     999903    2    3    3    0    0 -0.12437240065E+00  0.20099263031E-01 -0.23809867030E-01  0.12987075812E+00  0.20664695258E-01 0.  0.
         14    1    1    2    0    0 -0.67542577441E-02 -0.17929390286E-01 -0.13694925253E-01  0.23550669022E-01  0.00000000000E+00 0. -1.
     999901    1    3    3    0    0  0.13112665839E+00 -0.21698727452E-02  0.37504792282E-01  0.89050857286E+00  0.88000000000E+00 0.  1.
        -11    1    4    4    0    0 -0.10366917651E+00  0.89711726135E-02 -0.17399764766E-01  0.10550257358E+00  0.51100000000E-03 0.  1.
         11    1    4    4    0    0 -0.20703224135E-01  0.11128090417E-01 -0.64101022642E-02  0.24368184544E-01  0.51100000000E-03 0. -1.
</event>
<event>
 8    1  0.1170483E+005  0.1043930E+01  0.7957747E-01            NaN
         13   -1    0    0    0    0  0.00000000000E+00  0.00000000000E+00  0.74505805969E-08  0.10566000000E+00  0.10566000000E+00 0.  1.
     999900   -1    0    0    0    0 -0.00000000000E+00 -0.00000000000E+00 -0.74505805969E-08  0.93827000000E+00  0.93827000000E+00 0.  1.
     999902    2    1    2    0    0 -0.12499446994E-01 -0.19761840221E-01  0.64475586919E-02  0.10196743302E+01  0.10193857965E+01 0.  0.
     999903    2    3    3    0    0  0.12101106651E-01  0.12017201498E+00  0.36780644613E-01  0.12776246955E+00  0.19562281124E-01 0.  0.
         14    1    1    2    0    0  0.12499446994E-01  0.19761840221E-01 -0.64475586919E-02  0.24255669794E-01  0.00000000000E+00 0. -1.
     999901    1    3    3    0    0 -0.24600553645E-01 -0.13993385520E+00 -0.30333085921E-01  0.89191186065E+00  0.88000000000E+00 0. -1.
        -11    1    4    4    0    0  0.41526613252E-03  0.89073431997E-01  0.28441916505E-01  0.93506430095E-01  0.51100000000E-03 0.  1.
         11    1    4    4    0    0  0.11685840519E-01  0.31098582980E-01  0.83387281076E-02  0.34256039459E-01  0.51100000000E-03 0. -1.
</event>
<event>
 8    1  0.1170483E+005  0.1043930E+01  0.7957747E-01            NaN
         13   -1    0    0    0    0  0.00000000000E+00  0.00000000000E+00  0.74505805969E-08  0.10566000000E+00  0.10566000000E+00 0.  1.
     999900   -1    0    0    0    0 -0.00000000000E+00 -0.00000000000E+00 -0.74505805969E-08  0.93827000000E+00  0.93827000000E+00 0. -1.
     999902    2    1    2    0    0  0.11393416181E-02 -0.18924514677E-01 -0.13459145709E-01  0.10206795385E+01  0.10204146885E+01 0.  0.
     999903    2    3    3    0    0  0.11263248080E+00  0.44219132711E-01 -0.46309842175E-01  0.13079358599E+00  0.17915167447E-01 0.  0.
         14    1    1    2    0    0 -0.11393416181E-02  0.18924514677E-01  0.13459145709E-01  0.23250461464E-01  0.00000000000E+00 0.  1.
     999901    1    3    3    0    0 -0.11149313918E+00 -0.63143647388E-01  0.32850696466E-01  0.88988595255E+00  0.88000000000E+00 0.  1.
        -11    1    4    4    0    0  0.73694518133E-01  0.24109013752E-01 -0.21651945441E-01  0.80505865682E-01  0.51100000000E-03 0. -1.
         11    1    4    4    0    0  0.38937962663E-01  0.20110118959E-01 -0.24657896734E-01  0.50287720303E-01  0.51100000000E-03 0.  1.
</event>
<event>
 8    1  0.1170483E+005  0.1043930E+01  0.7957747E-01            NaN
         13   -1    0    0    0    0  0.00000000000E+00  0.00000000000E+00  0.74505805969E-08  0.10566000000E+00  0.10566000000E+00 0.  1.
     999900   -1    0    0    0    0 -0.00000000000E+00 -0.00000000000E+00 -0.74505805969E-08  0.93827000000E+00  0.93827000000E+00 0. -1.
     999902    2    1    2    0    0 -0.98781734411E-02 -0.85948012065E-02  0.22051605514E-01  0.10182839043E+01  0.10179608969E+01 0.  0.
     999903    2    3    3    0    0 -0.73717077993E-01 -0.19976770763E-01  0.10564500670E+00  0.13194716712E+00  0.20393835194E-01 0.  0.
         14    1    1    2    0    0  0.98781734411E-02  0.85948012065E-02 -0.22051605514E-01  0.25646095689E-01  0.00000000000E+00 0.  1.
     999901    1    3    3    0    0  0.63838904552E-01  0.11381969556E-01 -0.83593401184E-01  0.88633673719E+00  0.88000000000E+00 0. -1.
        -11    1    4    4    0    0 -0.45815062520E-01 -0.63105520138E-02  0.49278414970E-01  0.67583032807E-01  0.51100000000E-03 0.  1.
         11    1    4    4    0    0 -0.27902015473E-01 -0.13666218749E-01  0.56366591728E-01  0.64364134317E-01  0.51100000000E-03 0. -1.
</event>
<event>
 8    1  0.1170483E+005  0.1043930E+01  0.7957747E-01            NaN
         13   -1    0    0    0    0  0.00000000000E+00  0.00000000000E+00  0.74505805969E-08  0.10566000000E+00  0.10566000000E+00 0.  1.
     999900   -1    0    0    0    0 -0.00000000000E+00 -0.00000000000E+00 -0.74505805969E-08  0.93827000000E+00  0.93827000000E+00 0.  1.
     999902    2    1    2    0    0  0.65826539848E-02  0.21689162515E-01  0.75516235237E-02  0.10200390368E+01  0.10197592159E+01 0.  0.
     999903    2    3    3    0    0 -0.12742473717E+00  0.12463800399E-02 -0.10732929099E-01  0.12947168220E+00  0.20226310071E-01 0.  0.
         14    1    1    2    0    0 -0.65826539848E-02 -0.21689162515E-01 -0.75516235237E-02  0.23890963185E-01  0.00000000000E+00 0. -1.
     999901    1    3    3    0    0  0.13400739115E+00  0.20442782475E-01  0.18284552622E-01  0.89056735461E+00  0.88000000000E+00 0.  1.
        -11    1    4    4    0    0 -0.28869681929E-01 -0.61341409442E-02 -0.80769071012E-02  0.30603656140E-01  0.51100000000E-03 0. -1.
         11    1    4    4    0    0 -0.98555055240E-01  0.73805209842E-02 -0.26560219974E-02  0.98868026061E-01  0.51100000000E-03 0.  1.
</event>
<event>
 8    1  0.1170483E+005  0.1043930E+01  0.7957747E-01            NaN
         13   -1    0    0    0    0  0.00000000000E+00  0.00000000000E+00  0.74505805969E-08  0.10566000000E+00  0.10566000000E+00 0. -1.
     999900   -1    0    0    0    0 -0.00000000000E+00 -0.00000000000E+00 -0.74505805969E-08  0.93827000000E+00  0.93827000000E+00 0.  1.
     999902    2    1    2    0    0 -0.34727801928E-03 -0.15882019726E-01 -0.18194117339E-01  0.10197766346E+01  0.10194905588E+01 0.  0.
     999903    2    3    3    0    0 -0.96384169102E-02 -0.85892323250E-01  0.94725298470E-01  0.12975497067E+00  0.19826244475E-01 0.  0.
         14    1    1    2    0    0  0.34727801928E-03  0.15882019726E-01  0.18194117339E-01  0.24153365363E-01  0.00000000000E+00 0. -1.
     999901    1    3    3    0    0  0.92911388909E-02  0.70010303524E-01 -0.11291941581E+00  0.89002166397E+00  0.88000000000E+00 0.  1.
        -11    1    4    4    0    0 -0.12383126539E-01 -0.34770164905E-01  0.46997228959E-01  0.59760411990E-01  0.51100000000E-03 0.  1.
         11    1    4    4    0    0  0.27447096288E-02 -0.51122158345E-01  0.47728069511E-01  0.69994558682E-01  0.51100000000E-03 0. -1.
</event>
<event>
 8    1  0.1170483E+005  0.1043930E+01  0.7957747E-01            NaN
         13   -1    0    0    0    0  0.00000000000E+00  0.00000000000E+00  0.74505805969E-08  0.10566000000E+00  0.10566000000E+00 0. -1.
     999900   -1    0    0    0    0 -0.00000000000E+00 -0.00000000000E+00 -0.74505805969E-08  0.93827000000E+00  0.93827000000E+00 0. -1.
     999902    2    1    2    0    0 -0.21859306504E-01 -0.88819532900E-02  0.11292368487E-02  0.10203081129E+01  0.10200346326E+01 0.  0.
     999903    2    3    3    0    0 -0.57376664291E-01 -0.75749402527E-02 -0.11659779378E+00  0.13175713251E+00  0.20382225777E-01 0.  0.
         14    1    1    2    0    0  0.21859306504E-01  0.88819532900E-02 -0.11292368487E-02  0.23621887116E-01  0.00000000000E+00 0.  1.
     999901    1    3    3    0    0  0.35517357787E-01 -0.13070130373E-02  0.11772703063E+00  0.88855098038E+00  0.88000000000E+00 0.  1.
        -11    1    4    4    0    0 -0.11835576017E-01 -0.10244375292E-01 -0.32707529630E-01  0.36263917332E-01  0.51100000000E-03 0.  1.
         11    1    4    4    0    0 -0.45541088274E-01  0.26694350396E-02 -0.83890264148E-01  0.95493215175E-01  0.51100000000E-03 0. -1.
</event>
<event>
 8    1  0.1170483E+005  0.1043930E+01  0.7957747E-01            NaN
         13   -1    0    0    0    0  0.00000000000E+00  0.00000000000E+00  0.74505805969E-08  0.10566000000E+00  0.10566000000E+00 0. -1.
     999900   -1    0    0    0    0 -0.00000000000E+00 -0.00000000000E+00 -0.74505805969E-08  0.93827000000E+00  0.93827000000E+00 0.  1.
     999902    2    1    2    0    0 -0.98331258630E-02  0.74504694526E-02 -0.19738140888E-01  0.10206535298E+01  0.10203880800E+01 0.  0.
     999903    2    3    3    0    0  0.55135084960E-01 -0.11626574452E+00  0.45354291876E-02  0.12929738536E+00  0.11817055566E-01 0.  0.
         14    1    1    2    0    0  0.98331258630E-02 -0.74504694526E-02  0.19738140888E-01  0.23276470201E-01  0.00000000000E+00 0.  1.
     999901    1    3    3    0    0 -0.64968210823E-01  0.12371621397E+00 -0.24273570075E-01  0.89135614443E+00  0.88000000000E+00 0. -1.
        -11    1    4    4    0    0  0.28965668407E-01 -0.73674223065E-01  0.84399713762E-03  0.79169909326E-01  0.51100000000E-03 0.  1.
         11    1    4    4    0    0  0.26169416553E-01 -0.42591521453E-01  0.36914320500E-02  0.50127476039E-01  0.51100000000E-03 0. -1.
</event>
<event>
 8    1  0.1170483E+005  0.1043930E+01  0.7957747E-01            NaN
         13   -1    0    0    0    0  0.00000000000E+00  0.00000000000E+00  0.74505805969E-08  0.10566000000E+00  0.10566000000E+00 0.  1.
     999900   -1    0    0    0    0 -0.00000000000E+00 -0.00000000000E+00 -0.74505805969E-08  0.93827000000E+00  0.93827000000E+00 0.  1.
     999902    2    1    2    0    0 -0.50820122002E-02 -0.14305753311E-01 -0.17358717373E-01  0.10208690700E+01  0.10206085692E+01 0.  0.
     999903    2    3    3    0    0 -0.10091033076E+00 -0.50558675073E-01 -0.68365899211E-01  0.13345762447E+00  0.19949107121E-01 0.  0.
         14    1    1    2    0    0  0.50820122002E-02  0.14305753311E-01  0.17358717373E-01  0.23060930047E-01  0.00000000000E+00 0.  1.
     999901    1    3    3    0    0  0.95828318561E-01  0.36252921762E-01  0.51007181837E-01  0.88741144548E+00  0.88000000000E+00 0. -1.
        -11    1    4    4    0    0 -0.23760564341E-01 -0.20550232370E-01 -0.23999361351E-01  0.39536147188E-01  0.51100000000E-03 0. -1.
         11    1    4    4    0    0 -0.77149766420E-01 -0.30008442703E-01 -0.44366537860E-01  0.93921477282E-01  0.51100000000E-03 0.  1.
</event>
<event>
 8    1  0.1170483E+005  0.1043930E+01  0.7957747E-01            NaN
         13   -1    0    0    0    0  0.00000000000E+00  0.00000000000E+00  0.74505805969E-08  0.10566000000E+00  0.10566000000E+00 0.  1.
     999900   -1    0    0    0    0 -0.00000000000E+00 -0.00000000000E+00 -0.74505805969E-08  0.93827000000E+00  0.93827000000E+00 0.  1.
     999902    2    1    2    0    0  0.24873199101E-01  0.33349799581E-02  0.94360476208E-03  0.10188164874E+01  0.10185069202E+01 0.  0.
     999903    2    3    3    0    0 -0.12465978401E+00  0.27791179128E-02  0.98151988454E-03  0.12620211184E+00  0.19447992353E-01 0.  0.
         14    1    1    2    0    0 -0.24873199101E-01 -0.33349799581E-02 -0.94360476208E-03  0.25113512594E-01  0.00000000000E+00 0. -1.
     999901    1    3    3    0    0  0.14953298311E+00  0.55586204524E-03 -0.37915122464E-04  0.89261437556E+00  0.88000000000E+00 0.  1.
        -11    1    4    4    0    0 -0.74843224194E-01 -0.78567299040E-02  0.70431266556E-03  0.75259508303E-01  0.51100000000E-03 0. -1.
         11    1    4    4    0    0 -0.49816559818E-01  0.10635847817E-01  0.27720721899E-03  0.50942603542E-01  0.51100000000E-03 0.  1.
</event>
<event>
 8    1  0.1170483E+005  0.1043930E+01  0.7957747E-01            NaN
         13   -1    0    0    0    0  0.00000000000E+00  0.00000000000E+00  0.74505805969E-08  0.10566000000E+00  0.10566000000E+00 0.  1.
     999900   -1    0    0    0    0 -0.00000000000E+00 -0.00000000000E+00 -0.74505805969E-08  0.93827000000E+00  0.93827000000E+00 0. -1.
     999902    2    1    2    0    0 -0.17931397100E-01  0.31000187970E-02  0.15271736729E-01  0.10201735049E+01  0.10198968619E+01 0.  0.
     999903    2    3    3    0    0  0.45557005054E-01 -0.57316456260E-01  0.10514226267E+00  0.13126538863E+00  0.28549780845E-01 0.  0.
         14    1    1    2    0    0  0.17931397100E-01 -0.31000187970E-02 -0.15271736729E-01  0.23756495138E-01  0.00000000000E+00 0. -1.
     999901    1    3    3    0    0 -0.63488402155E-01  0.60416475057E-01 -0.89870525939E-01  0.88890811623E+00  0.88000000000E+00 0. -1.
        -11    1    4    4    0    0  0.19932763233E-01 -0.33405795842E-01  0.32826943282E-01  0.50903158764E-01  0.51100000000E-03 0. -1.
         11    1    4    4    0    0  0.25624241822E-01 -0.23910660417E-01  0.72315319386E-01  0.80362229868E-01  0.51100000000E-03 0.  1.
</event>
<event>
 8    1  0.1170483E+005  0.1043930E+01  0.7957747E-01            NaN
         13   -1    0    0    0    0  0.00000000000E+00  0.00000000000E+00  0.74505805969E-08  0.10566000000E+00  0.10566000000E+00 0.  1.
     999900   -1    0    0    0    0 -0.00000000000E+00 -0.00000000000E+00 -0.74505805969E-08  0.93827000000E+00  0.93827000000E+00 0.  1.
     999902    2    1    2    0    0 -0.11570560862E-01  0.10925767445E-01 -0.16579199379E-01  0.10209491357E+01  0.10206904612E+01 0.  0.
     999903    2    3    3    0    0 -0.11241549502E+00 -0.24230096855E-01 -0.64111999597E-01  0.13321888237E+00  0.20312090341E-01 0.  0.
         14    1    1    2    0    0  0.11570560862E-01 -0.10925767445E-01  0.16579199379E-01  0.22980864322E-01  0.00000000000E+00 0. -1.
     999901    1    3    3    0    0  0.10084493416E+00  0.35155864300E-01  0.47532800218E-01  0.88773025331E+00  0.88000000000E+00 0. -1.
        -11    1    4    4    0    0 -0.94842923950E-02 -0.75304873810E-02 -0.10128234467E-01  0.15795641704E-01  0.51100000000E-03 0.  1.
         11    1    4    4    0    0 -0.10293120262E+00 -0.16699609474E-01 -0.53983765130E-01  0.11742324067E+00  0.51100000000E-03 0. -1.
</event>
<event>
 8    1  0.1170483E+005  0.1043930E+01  0.7957747E-01            NaN
         13   -1    0    0    0    0  0.00000000000E+00  0.00000000000E+00  0.74505805969E-08  0.10566000000E+00  0.10566000000E+00 0.  1.
     999900   -1    0    0    0    0 -0.00000000000E+00 -0.00000000000E+00 -0.74505805969E-08  0.93827000000E+00  0.93827000000E+00 0.  1.
     999902    2    1    2    0    0  0.15610962129E-01  0.14957178895E-01 -0.86257641152E-02  0.10206529051E+01  0.10203874409E+01 0.  0.
     999903    2    3    3    0    0 -0.11852207061E+00  0.46658979208E-01 -0.16217839693E-01  0.12989237938E+00  0.19607915093E-01 0.  0.
         14    1    1    2    0    0 -0.15610962129E-01 -0.14957178895E-01  0.86257641152E-02  0.23277094872E-01  0.00000000000E+00 0.  1.
     999901    1    3    3    0    0  0.13413303274E+00 -0.31701800313E-01  0.75920755774E-02  0.89076052575E+00  0.88000000000E+00 0.  1.
        -11    1    4    4    0    0 -0.52301702095E-01  0.15853700994E-01  0.17347751010E-02  0.54681609732E-01  0.51100000000E-03 0.  1.
         11    1    4    4    0    0 -0.66220368517E-01  0.30805278214E-01 -0.17952614794E-01  0.75210769650E-01  0.51100000000E-03 0. -1.
</event>
<event>
 8    1  0.1170483E+005  0.1043930E+01  0.7957747E-01            NaN
         13   -1    0    0    0    0  0.00000000000E+00  0.00000000000E+00  0.74505805969E-08  0.10566000000E+00  0.10566000000E+00 0. -1.
     999900   -1    0    0    0    0 -0.00000000000E+00 -0.00000000000E+00 -0.74505805969E-08  0.93827000000E+00  0.93827000000E+00 0.  1.
     999902    2    1    2    0    0  0.12133165338E-01 -0.10672078665E-01  0.16394720306E-01  0.10209105774E+01  0.10206510242E+01 0.  0.
     999903    2    3    3    0    0  0.68329804797E-01 -0.63990502704E-01 -0.89721390355E-01  0.13115693418E+00  0.19709562067E-01 0.  0.
         14    1    1    2    0    0 -0.12133165338E-01  0.10672078665E-01 -0.16394720306E-01  0.23019422627E-01  0.00000000000E+00 0.  1.
     999901    1    3    3    0    0 -0.56196639459E-01  0.53318424039E-01  0.10611611066E+00  0.88975364319E+00  0.88000000000E+00 0. -1.
        -11    1    4    4    0    0  0.36180382320E-01 -0.20907015144E-01 -0.42491053271E-01  0.59597601262E-01  0.51100000000E-03 0. -1.
         11    1    4    4    0    0  0.32149422477E-01 -0.43083487560E-01 -0.47230337084E-01  0.71559332921E-01  0.51100000000E-03 0.  1.
</event>
<event>
 8    1  0.1170483E+005  0.1043930E+01  0.7957747E-01            NaN
         13   -1    0    0    0    0  0.00000000000E+00  0.00000000000E+00  0.74505805969E-08  0.10566000000E+00  0.10566000000E+00 0.  1.
     999900   -1    0    0    0    0 -0.00000000000E+00 -0.00000000000E+00 -0.74505805969E-08  0.93827000000E+00  0.93827000000E+00 0. -1.
     999902    2    1    2    0    0 -0.24749731420E-02 -0.66337110978E-03  0.22248082730E-01  0.10215348501E+01  0.10212893357E+01 0.  0.
     999903    2    3    3    0    0  0.60931933915E-01 -0.49140534702E-01 -0.10105292111E+00  0.12936131946E+00  0.19878767187E-01 0.  0.
         14    1    1    2    0    0  0.24749731420E-02  0.66337110978E-03 -0.22248082730E-01  0.22395149887E-01  0.00000000000E+00 0. -1.
     999901    1    3    3    0    0 -0.63406907057E-01  0.48477163592E-01  0.12330100384E+00  0.89217353066E+00  0.88000000000E+00 0.  1.
        -11    1    4    4    0    0  0.29063473006E-01 -0.30679311399E-01 -0.66896824016E-01  0.79128703992E-01  0.51100000000E-03 0. -1.
         11    1    4    4    0    0  0.31868460910E-01 -0.18461223302E-01 -0.34156097098E-01  0.50232615466E-01  0.51100000000E-03 0.  1.
</event>
<event>
 8    1  0.1170483E+005  0.1043930E+01  0.7957747E-01            NaN
         13   -1    0    0    0    0  0.00000000000E+00  0.00000000000E+00  0.74505805969E-08  0.10566000000E+00  0.10566000000E+00 0.  1.
     999900   -1    0    0    0    0 -0.00000000000E+00 -0.00000000000E+00 -0.74505805969E-08  0.93827000000E+00  0.93827000000E+00 0.  1.
     999902    2    1    2    0    0 -0.43689535035E-02 -0.23290681736E-01  0.49799528726E-02  0.10197154684E+01  0.10194279243E+01 0.  0.
     999903    2    3    3    0    0 -0.14749111586E-01  0.15901076072E-01 -0.12573153814E+00  0.12913743394E+00  0.19941831630E-01 0.  0.
         14    1    1    2    0    0  0.43689535035E-02  0.23290681736E-01 -0.49799528726E-02  0.24214531609E-01  0.00000000000E+00 0. -1.
     999901    1    3    3    0    0  0.10380158083E-01 -0.39191757808E-01  0.13071149101E+00  0.89057803445E+00  0.88000000000E+00 0. -1.
        -11    1    4    4    0    0 -0.68514783886E-02 -0.95707625264E-03 -0.11753058836E-01  0.13647500287E-01  0.51100000000E-03 0. -1.
         11    1    4    4    0    0 -0.78976331975E-02  0.16858152325E-01 -0.11397847930E+00  0.11548993365E+00  0.51100000000E-03 0.  1.
</event>
<event>
 8    1  0.1170483E+005  0.1043930E+01  0.7957747E-01            NaN
         13   -1    0    0    0    0  0.00000000000E+00  0.00000000000E+00  0.74505805969E-08  0.10566000000E+00  0.10566000000E+00 0.  1.
     999900   -1    0    0    0    0 -0.00000000000E+00 -0.00000000000E+00 -0.74505805969E-08  0.93827000000E+00  0.93827000000E+00 0.  1.
     999902    2    1    2    0    0 -0.20450378337E-01  0.17663772626E-01 -0.54587886790E-02  0.10163614452E+01  0.10159874813E+01 0.  0.
     999903    2    3    3    0    0  0.58494102511E-01  0.14242521452E-01  0.10809376989E+00  0.12555387928E+00  0.21333168243E-01 0.  0.
         14    1    1    2    0    0  0.20450378337E-01 -0.17663772626E-01  0.54587886790E-02  0.27568554756E-01  0.00000000000E+00 0.  1.
     999901    1    3    3    0    0 -0.78944480847E-01  0.34212511747E-02 -0.11355255857E+00  0.89080756596E+00  0.88000000000E+00 0.  1.
        -11    1    4    4    0    0  0.21327277607E-01 -0.49765531143E-02  0.40858737660E-01  0.46360720607E-01  0.51100000000E-03 0.  1.
         11    1    4    4    0    0  0.37166824903E-01  0.19219074566E-01  0.67235032233E-01  0.79193158675E-01  0.51100000000E-03 0. -1.
</event>
<event>
 8    1  0.1170483E+005  0.1043930E+01  0.7957747E-01            NaN
         13   -1    0    0    0    0  0.00000000000E+00  0.00000000000E+00  0.74505805969E-08  0.10566000000E+00  0.10566000000E+00 0.  1.
     999900   -1    0    0    0    0 -0.00000000000E+00 -0.00000000000E+00 -0.74505805969E-08  0.93827000000E+00  0.93827000000E+00 0.  1.
     999902    2    1    2    0    0 -0.92075485720E-02 -0.17796631718E-01 -0.13853871093E-01  0.10195696060E+01  0.10192785452E+01 0.  0.
     999903    2    3    3    0    0  0.62523843611E-01  0.67847507004E-01 -0.88465254454E-01  0.12937458824E+00  0.19979179448E-01 0.  0.
         14    1    1    2    0    0  0.92075485720E-02  0.17796631718E-01  0.13853871093E-01  0.24360393993E-01  0.00000000000E+00 0.  1.
     999901    1    3    3    0    0 -0.71731392183E-01 -0.85644138723E-01  0.74611383361E-01  0.89019501776E+00  0.88000000000E+00 0. -1.
        -11    1    4    4    0    0  0.33194684695E-01  0.34262680328E-01 -0.32093416953E-01  0.57498407699E-01  0.51100000000E-03 0. -1.
         11    1    4    4    0    0  0.29329158916E-01  0.33584826676E-01 -0.56371837501E-01  0.71876180546E-01  0.51100000000E-03 0.  1.
</event>
<event>
 8    1  0.1170483E+005  0.1043930E+01  0.7957747E-01            NaN
         13   -1    0    0    0    0  0.00000000000E+00  0.00000000000E+00  0.74505805969E-08  0.10566000000E+00  0.10566000000E+00 0.  1.
     999900   -1    0    0    0    0 -0.00000000000E+00 -0.00000000000E+00 -0.74505805969E-08  0.93827000000E+00  0.93827000000E+00 0. -1.
     999902    2    1    2    0    0  0.18705176278E-01  0.64163494426E-03 -0.14486483439E-01  0.10202624374E+01  0.10199878861E+01 0.  0.
     999903    2    3    3    0    0  0.80341445846E-01  0.51643833434E-01  0.87083395562E-01  0.13081502793E+00  0.20179700099E-01 0.  0.
         14    1    1    2    0    0 -0.18705176278E-01 -0.64163494426E-03  0.14486483439E-01  0.23667562558E-01  0.00000000000E+00 0.  1.
     999901    1    3    3    0    0 -0.61636269568E-01 -0.51002198489E-01 -0.10156987900E+00  0.88944740952E+00  0.88000000000E+00 0. -1.
        -11    1    4    4    0    0  0.59004155791E-01  0.42953085671E-01  0.75549135433E-01  0.10504470931E+00  0.51100000000E-03 0.  1.
         11    1    4    4    0    0  0.21337290055E-01  0.86907477630E-02  0.11534260128E-01  0.25770318611E-01  0.51100000000E-03 0. -1.
</event>
<event>
 8    1  0.1170483E+005  0.1043930E+01  0.7957747E-01            NaN
         13   -1    0    0    0    0  0.00000000000E+00  0.00000000000E+00  0.74505805969E-08  0.10566000000E+00  0.10566000000E+00 0. -1.
     999900   -1    0    0    0    0 -0.00000000000E+00 -0.00000000000E+00 -0.74505805969E-08  0.93827000000E+00  0.93827000000E+00 0. -1.
     999902    2    1    2    0    0  0.17052364486E-01 -0.78755846094E-02 -0.13750962150E-01  0.10206513203E+01  0.10203858196E+01 0.  0.
     999903    2    3    3    0    0 -0.22024636976E-01  0.11246454472E+00 -0.59738919748E-01  0.13041334595E+00  0.17479811660E-01 0.  0.
         14    1    1    2    0    0 -0.17052364486E-01  0.78755846094E-02  0.13750962150E-01  0.23278679678E-01  0.00000000000E+00 0. -1.
     999901    1    3    3    0    0  0.39077001463E-01 -0.12034012933E+00  0.45987957598E-01  0.89023797437E+00  0.88000000000E+00 0. -1.
        -11    1    4    4    0    0 -0.62060428819E-02  0.49896044125E-01 -0.35140706003E-01  0.61345419772E-01  0.51100000000E-03 0.  1.
         11    1    4    4    0    0 -0.15818594095E-01  0.62568500597E-01 -0.24598213745E-01  0.69067926178E-01  0.51100000000E-03 0. -1.
</event>
<event>
 8    1  0.1170483E+005  0.1043930E+01  0.7957747E-01            NaN
         13   -1    0    0    0    0  0.00000000000E+00  0.00000000000E+00  0.74505805969E-08  0.10566000000E+00  0.10566000000E+00 0. -1.
     999900   -1    0    0    0    0 -0.00000000000E+00 -0.00000000000E+00 -0.74505805969E-08  0.93827000000E+00  0.93827000000E+00 0.  1.
     999902    2    1    2    0    0 -0.31303479011E-02  0.12509535544E-01 -0.21070973217E-01  0.10192262863E+01  0.10189268616E+01 0.  0.
     999903    2    3    3    0    0  0.53891851418E-02 -0.10314310510E+00 -0.77129498983E-01  0.12984972150E+00  0.15634804590E-01 0.  0.
         14    1    1    2    0    0  0.31303479011E-02 -0.12509535544E-01  0.21070973217E-01  0.24703713685E-01  0.00000000000E+00 0. -1.
     999901    1    3    3    0    0 -0.85195330428E-02  0.11565264064E+00  0.56058525766E-01  0.88937656481E+00  0.88000000000E+00 0. -1.
        -11    1    4    4    0    0  0.56943008096E-02 -0.20409659351E-01 -0.21236470649E-01  0.30003800812E-01  0.51100000000E-03 0. -1.
         11    1    4    4    0    0 -0.30511566784E-03 -0.82733445748E-01 -0.55893028334E-01  0.99845920689E-01  0.51100000000E-03 0.  1.
</event>
<event>
 8    1  0.1170483E+005  0.1043930E+01  0.7957747E-01            NaN
         13   -1    0    0    0    0  0.00000000000E+00  0.00000000000E+00  0.74505805969E-08  0.10566000000E+00  0.10566000000E+00 0. -1.
     999900   -1    0    0    0    0 -0.00000000000E+00 -0.00000000000E+00 -0.74505805969E-08  0.93827000000E+00  0.93827000000E+00 0.  1.
     999902    2    1    2    0    0 -0.11104507126E-01 -0.70957981475E-02  0.20173761617E-01  0.10198335047E+01  0.10195487905E+01 0.  0.
     999903    2    3    3    0    0  0.10366901383E+00  0.33237610161E-01  0.68464975956E-01  0.13015278310E+00  0.20007270131E-01 0.  0.
         14    1    1    2    0    0  0.11104507126E-01  0.70957981475E-02 -0.20173761617E-01  0.24096495340E-01  0.00000000000E+00 0.  1.
     999901    1    3    3    0    0 -0.11477352095E+00 -0.40333408308E-01 -0.48291214339E-01  0.88968072156E+00  0.88000000000E+00 0.  1.
        -11    1    4    4    0    0  0.11056784792E-01  0.92755460236E-02  0.13787864631E-01  0.19966336070E-01  0.51100000000E-03 0.  1.
         11    1    4    4    0    0  0.92612229035E-01  0.23962064137E-01  0.54677111325E-01  0.11018644703E+00  0.51100000000E-03 0. -1.
</event>
<event>
 8    1  0.1170483E+005  0.1043930E+01  0.7957747E-01            NaN
         13   -1    0    0    0    0  0.00000000000E+00  0.00000000000E+00  0.74505805969E-08  0.10566000000E+00  0.10566000000E+00 0.  1.
     999900   -1    0    0    0    0 -0.00000000000E+00 -0.00000000000E+00 -0.74505805969E-08  0.93827000000E+00  0.93827000000E+00 0.  1.
     999902    2    1    2    0    0  0.43889587413E-02  0.22093168828E-01 -0.10259592840E-01  0.10191786301E+01  0.10188780348E+01 0.  0.
     999903    2    3    3    0    0 -0.11627920109E+00  0.48718081721E-02  0.50971873687E-01  0.12866940916E+00  0.20324808113E-01 0.  0.
         14    1    1    2    0    0 -0.43889587413E-02 -0.22093168828E-01  0.10259592840E-01  0.24751369920E-01  0.00000000000E+00 0.  1.
     999901    1    3    3    0    0  0.12066815983E+00  0.17221360656E-01 -0.61231466526E-01  0.89050922092E+00  0.88000000000E+00 0.  1.
        -11    1    4    4    0    0 -0.64186645401E-01 -0.60320714155E-02  0.22336114126E-01  0.68231037282E-01  0.51100000000E-03 0.  1.
         11    1    4    4    0    0 -0.52092555687E-01  0.10903879588E-01  0.28635759561E-01  0.60438371873E-01  0.51100000000E-03 0. -1.
</event>
<event>
 8    1  0.1170483E+005  0.1043930E+01  0.7957747E-01            NaN
         13   -1    0    0    0    0  0.00000000000E+00  0.00000000000E+00  0.74505805969E-08  0.10566000000E+00  0.10566000000E+00 0. -1.
     999900   -1    0    0    0    0 -0.00000000000E+00 -0.00000000000E+00 -0.74505805969E-08  0.93827000000E+00  0.93827000000E+00 0.  1.
     999902    2    1    2    0    0 -0.26239341083E-02  0.97555055732E-02  0.27071797208E-01  0.10150347214E+01  0.10146233531E+01 0.  0.
     999903    2    3    3    0    0 -0.52379271180E-01  0.83771044702E-01 -0.73517612744E-01  0.12482568812E+00  0.20382272977E-01 0.  0.
         14    1    1    2    0    0  0.26239341083E-02 -0.97555055732E-02 -0.27071797208E-01  0.28895278564E-01  0.00000000000E+00 0.  1.
     999901    1    3    3    0    0  0.49755337072E-01 -0.74015539129E-01  0.10058940995E+00  0.89020903331E+00  0.88000000000E+00 0.  1.
        -11    1    4    4    0    0 -0.24939126095E-01  0.51103568976E-01 -0.31801125234E-01  0.65154489175E-01  0.51100000000E-03 0. -1.
         11    1    4    4    0    0 -0.27440145086E-01  0.32667475725E-01 -0.41716487511E-01  0.59671198947E-01  0.51100000000E-03 0.  1.
</event>
<event>
 8    1  0.1170483E+005  0.1043930E+01  0.7957747E-01            NaN
         13   -1    0    0    0    0  0.00000000000E+00  0.00000000000E+00  0.74505805969E-08  0.10566000000E+00  0.10566000000E+00 0. -1.
     999900   -1    0    0    0    0 -0.00000000000E+00 -0.00000000000E+00 -0.74505805969E-08  0.93827000000E+00  0.93827000000E+00 0. -1.
     999902    2    1    2    0    0 -0.11151416163E-01 -0.23209894971E-01 -0.32622758471E-02  0.10179743503E+01  0.10176433964E+01 0.  0.
     999903    2    3    3    0    0  0.64124590774E-01  0.10037998267E+00  0.33299521529E-01  0.12540631363E+00  0.20731167410E-01 0.  0.
         14    1    1    2    0    0  0.11151416163E-01  0.23209894971E-01  0.32622758471E-02  0.25955649688E-01  0.00000000000E+00 0.  1.
     999901    1    3    3    0    0 -0.75276006937E-01 -0.12358987764E+00 -0.36561797376E-01  0.89256803668E+00  0.88000000000E+00 0. -1.
        -11    1    4    4    0    0  0.17025904988E-01  0.31768751087E-01  0.19701799071E-01  0.41079885515E-01  0.51100000000E-03 0.  1.
         11    1    4    4    0    0  0.47098685786E-01  0.68611231582E-01  0.13597722458E-01  0.84326428117E-01  0.51100000000E-03 0. -1.
</event>
<event>
 8    1  0.1170483E+005  0.1043930E+01  0.7957747E-01            NaN
         13   -1    0    0    0    0  0.00000000000E+00  0.00000000000E+00  0.74505805969E-08  0.10566000000E+00  0.10566000000E+00 0.  1.
     999900   -1    0    0    0    0 -0.00000000000E+00 -0.00000000000E+00 -0.74505805969E-08  0.93827000000E+00  0.93827000000E+00 0.  1.
     999902    2    1    2    0    0 -0.46948454752E-03  0.14029268394E-01 -0.18386309383E-01  0.10207978328E+01  0.10205357016E+01 0.  0.
     999903    2    3    3    0    0  0.35145266177E-01 -0.64085074883E-01  0.10383310662E+00  0.12821290868E+00  0.17752446710E-01 0.  0.
         14    1    1    2    0    0  0.46948454752E-03 -0.14029268394E-01  0.18386309383E-01  0.23132167217E-01  0.00000000000E+00 0.  1.
     999901    1    3    3    0    0 -0.35614750724E-01  0.78114343277E-01 -0.12221941600E+00  0.89258492411E+00  0.88000000000E+00 0.  1.
        -11    1    4    4    0    0  0.16683987944E-01 -0.29826541200E-01  0.33669303583E-01  0.47977715019E-01  0.51100000000E-03 0.  1.
         11    1    4    4    0    0  0.18461278233E-01 -0.34258533683E-01  0.70163803034E-01  0.80235193658E-01  0.51100000000E-03 0. -1.
</event>
<event>
 8    1  0.1170483E+005  0.1043930E+01  0.7957747E-01            NaN
         13   -1    0    0    0    0  0.00000000000E+00  0.00000000000E+00  0.74505805969E-08  0.10566000000E+00  0.10566000000E+00 0.  1.
     999900   -1    0    0    0    0 -0.00000000000E+00 -0.00000000000E+00 -0.74505805969E-08  0.93827000000E+00  0.93827000000E+00 0. -1.
     999902    2    1    2    0    0 -0.15830093707E-01  0.97458438776E-02 -0.15823155922E-01  0.10195180029E+01  0.10192256927E+01 0.  0.
     999903    2    3    3    0    0  0.66375684482E-01  0.54387068435E-01  0.92856067380E-01  0.12791169825E+00  0.19377012043E-01 0.  0.
         14    1    1    2    0    0  0.15830093707E-01 -0.97458438776E-02  0.15823155922E-01  0.24411997112E-01  0.00000000000E+00 0. -1.
     999901    1    3    3    0    0 -0.82205778189E-01 -0.44641224558E-01 -0.10867922330E+00  0.89160630464E+00  0.88000000000E+00 0. -1.
        -11    1    4    4    0    0  0.34490000842E-01  0.38967427795E-01  0.48400347553E-01  0.71069510702E-01  0.51100000000E-03 0.  1.
         11    1    4    4    0    0  0.31885683639E-01  0.15419640640E-01  0.44455719827E-01  0.56842187546E-01  0.51100000000E-03 0. -1.
</event>
<event>
 8    1  0.1170483E+005  0.1043930E+01  0.7957747E-01            NaN
         13   -1    0    0    0    0  0.00000000000E+00  0.00000000000E+00  0.74505805969E-08  0.10566000000E+00  0.10566000000E+00 0.  1.
     999900   -1    0    0    0    0 -0.00000000000E+00 -0.00000000000E+00 -0.74505805969E-08  0.93827000000E+00  0.93827000000E+00 0.  1.
     999902    2    1    2    0    0 -0.14798861191E-02  0.26719435702E-01  0.13399044544E-02  0.10171360893E+01  0.10167831187E+01 0.  0.
     999903    2    3    3    0    0 -0.49816141893E-01  0.65882882901E-01 -0.97664910977E-01  0.12940182573E+00  0.19600903401E-01 0.  0.
         14    1    1    2    0    0  0.14798861191E-02 -0.26719435702E-01 -0.13399044544E-02  0.26793910709E-01  0.00000000000E+00 0. -1.
     999901    1    3    3    0    0  0.48336255774E-01 -0.39163447199E-01  0.99004815431E-01  0.88773426356E+00  0.88000000000E+00 0. -1.
        -11    1    4    4    0    0 -0.35025327913E-01  0.58090543125E-01 -0.73566796086E-01  0.10006807385E+00  0.51100000000E-03 0. -1.
         11    1    4    4    0    0 -0.14790813980E-01  0.77923397760E-02 -0.24098114890E-01  0.29333751885E-01  0.51100000000E-03 0.  1.
</event>
<event>
 8    1  0.1170483E+005  0.1043930E+01  0.7957747E-01            NaN
         13   -1    0    0    0    0  0.00000000000E+00  0.00000000000E+00  0.74505805969E-08  0.10566000000E+00  0.10566000000E+00 0. -1.
     999900   -1    0    0    0    0 -0.00000000000E+00 -0.00000000000E+00 -0.74505805969E-08  0.93827000000E+00  0.93827000000E+00 0.  1.
     999902    2    1    2    0    0  0.14569156440E-01 -0.12225393936E-01  0.31924376519E-03  0.10249083678E+01  0.10247318380E+01 0.  0.
     999903    2    3    3    0    0 -0.51969026185E-02 -0.36989240434E-01  0.12847048385E+00  0.13506192847E+00  0.18489121038E-01 0.  0.
         14    1    1    2    0    0 -0.14569156440E-01  0.12225393936E-01 -0.31924376519E-03  0.19021632234E-01  0.00000000000E+00 0. -1.
     999901    1    3    3    0    0  0.19766059058E-01  0.24763846499E-01 -0.12815124009E+00  0.88984643929E+00  0.88000000000E+00 0.  1.
        -11    1    4    4    0    0 -0.19749343007E-02 -0.30644791749E-01  0.73912603677E-01  0.80039601012E-01  0.51100000000E-03 0. -1.
         11    1    4    4    0    0 -0.32219683178E-02 -0.63444486853E-02  0.54557880178E-01  0.55022327463E-01  0.51100000000E-03 0.  1.
</event>
<event>
 8    1  0.1170483E+005  0.1043930E+01  0.7957747E-01            NaN
         13   -1    0    0    0    0  0.00000000000E+00  0.00000000000E+00  0.74505805969E-08  0.10566000000E+00  0.10566000000E+00 0.  1.
     999900   -1    0    0    0    0 -0.00000000000E+00 -0.00000000000E+00 -0.74505805969E-08  0.93827000000E+00  0.93827000000E+00 0. -1.
     999902    2    1    2    0    0 -0.65540991944E-02  0.59255620698E-02  0.15600491746E-01  0.10260011449E+01  0.10258444841E+01 0.  0.
     999903    2    3    3    0    0  0.10611484281E+00  0.71476980112E-01 -0.37874196412E-01  0.13479363755E+00  0.19119399040E-01 0.  0.
         14    1    1    2    0    0  0.65540991944E-02 -0.59255620698E-02 -0.15600491746E-01  0.17928855089E-01  0.00000000000E+00 0. -1.
     999901    1    3    3    0    0 -0.11266894201E+00 -0.65551418042E-01  0.53474688158E-01  0.89120750736E+00  0.88000000000E+00 0. -1.
        -11    1    4    4    0    0  0.37069417860E-01  0.35935295514E-01 -0.12887852908E-01  0.53215083179E-01  0.51100000000E-03 0. -1.
         11    1    4    4    0    0  0.69045424952E-01  0.35541684598E-01 -0.24986343505E-01  0.81578554373E-01  0.51100000000E-03 0.  1.
</event>
<event>
 8    1  0.1170483E+005  0.1043930E+01  0.7957747E-01            NaN
         13   -1    0    0    0    0  0.00000000000E+00  0.00000000000E+00  0.74505805969E-08  0.10566000000E+00  0.10566000000E+00 0. -1.
     999900   -1    0    0    0    0 -0.00000000000E+00 -0.00000000000E+00 -0.74505805969E-08  0.93827000000E+00  0.93827000000E+00 0.  1.
     999902    2    1    2    0    0  0.20485880680E-02 -0.12055095102E-01 -0.20267601260E-01  0.10202593918E+01  0.10199847690E+01 0.  0.
     999903    2    3    3    0    0 -0.10107728579E+00 -0.83124167684E-02  0.77071196482E-01  0.12889874929E+00  0.19728260592E-01 0.  0.
         14    1    1    2    0    0 -0.20485880680E-02  0.12055095102E-01  0.20267601260E-01  0.23670608185E-01  0.00000000000E+00 0. -1.
     999901    1    3    3    0    0  0.10312587386E+00 -0.37426783333E-02 -0.97338797743E-01  0.89136064253E+00  0.88000000000E+00 0.  1.
        -11    1    4    4    0    0 -0.78171299701E-01 -0.17567280165E-02  0.67209369648E-01  0.10310770427E+00  0.51100000000E-03 0.  1.
         11    1    4    4    0    0 -0.22905986087E-01 -0.65556887519E-02  0.98618268345E-02  0.25791045019E-01  0.51100000000E-03 0. -1.
</event>
<event>
 8    1  0.1170483E+005  0.1043930E+01  0.7957747E-01            NaN
         13   -1    0    0    0    0  0.00000000000E+00  0.00000000000E+00  0.74505805969E-08  0.10566000000E+00  0.10566000000E+00 0. -1.
     999900   -1    0    0    0    0 -0.00000000000E+00 -0.00000000000E+00 -0.74505805969E-08  0.93827000000E+00  0.93827000000E+00 0. -1.
     999902    2    1    2    0    0 -0.21395111467E-01 -0.33515881618E-02  0.10596646778E-01  0.10198203990E+01  0.10195353713E+01 0.  0.
     999903    2    3    3    0    0  0.11995591326E-01  0.45556258640E-01  0.12039059565E+00  0.13102254361E+00  0.21301279325E-01 0.  0.
         14    1    1    2    0    0  0.21395111467E-01  0.33515881618E-02 -0.10596646778E-01  0.24109601009E-01  0.00000000000E+00 0.  1.
     999901    1    3    3    0    0 -0.33390702793E-01 -0.48907846802E-01 -0.10979394888E+00  0.88879785538E+00  0.88000000000E+00 0. -1.
        -11    1    4    4    0    0  0.82286646876E-02  0.89627218462E-02  0.14571311170E-01  0.18990143118E-01  0.51100000000E-03 0.  1.
         11    1    4    4    0    0  0.37669266385E-02  0.36593536794E-01  0.10581928448E+00  0.11203240050E+00  0.51100000000E-03 0. -1.
</event>
<event>
 8    1  0.1170483E+005  0.1043930E+01  0.7957747E-01            NaN
         13   -1    0    0    0    0  0.00000000000E+00  0.00000000000E+00  0.74505805969E-08  0.10566000000E+00  0.10566000000E+00 0.  1.
     999900   -1    0    0    0    0 -0.00000000000E+00 -0.00000000000E+00 -0.74505805969E-08  0.93827000000E+00  0.93827000000E+00 0.  1.
     999902    2    1    2    0    0  0.10551168585E-01  0.17682246857E-01 -0.10449425945E-01  0.10208393197E+01  0.10205781387E+01 0.  0.
     999903    2    3    3    0    0  0.66419474268E-01  0.77321683315E-01  0.81835386772E-01  0.13224795324E+00  0.20057450848E-01 0.  0.
         14    1    1    2    0    0 -0.10551168585E-01 -0.17682246857E-01  0.10449425945E-01  0.23090680263E-01  0.00000000000E+00 0.  1.
     999901    1    3    3    0    0 -0.55868305683E-01 -0.59639436458E-01 -0.92284812717E-01  0.88859136650E+00  0.88000000000E+00 0.  1.
        -11    1    4    4    0    0  0.20921737579E-01  0.28879191122E-01  0.17413554670E-01  0.39689038668E-01  0.51100000000E-03 0. -1.
         11    1    4    4    0    0  0.45497736689E-01  0.48442492193E-01  0.64421832102E-01  0.92558914569E-01  0.51100000000E-03 0.  1.
</event>
<event>
 8    1  0.1170483E+005  0.1043930E+01  0.7957747E-01            NaN
         13   -1    0    0    0    0  0.00000000000E+00  0.00000000000E+00  0.74505805969E-08  0.10566000000E+00  0.10566000000E+00 0.  1.
     999900   -1    0    0    0    0 -0.00000000000E+00 -0.00000000000E+00 -0.74505805969E-08  0.93827000000E+00  0.93827000000E+00 0. -1.
     999902    2    1    2    0    0  0.83742019653E-02 -0.18721685184E-01 -0.12474877054E-01  0.10199247649E+01  0.10196422288E+01 0.  0.
     999903    2    3    3    0    0 -0.61292134428E-01  0.95969531950E-01 -0.56409713754E-01  0.12866849222E+00  0.20165522048E-01 0.  0.
         14    1    1    2    0    0 -0.83742019653E-02  0.18721685184E-01  0.12474877054E-01  0.24005235099E-01  0.00000000000E+00 0.  1.
     999901    1    3    3    0    0  0.69666336393E-01 -0.11469121713E+00  0.43934836700E-01  0.89125627268E+00  0.88000000000E+00 0.  1.
        -11    1    4    4    0    0 -0.36739755610E-01  0.55256601639E-01 -0.21753557134E-01  0.69832514175E-01  0.51100000000E-03 0.  1.
         11    1    4    4    0    0 -0.24552378818E-01  0.40712930310E-01 -0.34656156619E-01  0.58835978047E-01  0.51100000000E-03 0. -1.
</event>
<event>
 8    1  0.1170483E+005  0.1043930E+01  0.7957747E-01            NaN
         13   -1    0    0    0    0  0.00000000000E+00  0.00000000000E+00  0.74505805969E-08  0.10566000000E+00  0.10566000000E+00 0. -1.
     999900   -1    0    0    0    0 -0.00000000000E+00 -0.00000000000E+00 -0.74505805969E-08  0.93827000000E+00  0.93827000000E+00 0. -1.
     999902    2    1    2    0    0  0.93276186766E-02 -0.19360878934E-01  0.80269587863E-02  0.10209892029E+01  0.10207314399E+01 0.  0.
     999903    2    3    3    0    0 -0.11677451505E+00 -0.52033916533E-01 -0.20104165605E-01  0.13095513859E+00  0.20031350739E-01 0.  0.
         14    1    1    2    0    0 -0.93276186766E-02  0.19360878934E-01 -0.80269587863E-02  0.22940797079E-01  0.00000000000E+00 0.  1.
     999901    1    3    3    0    0  0.12610213373E+00  0.32673037599E-01  0.28131124392E-01  0.89003406433E+00  0.88000000000E+00 0.  1.
        -11    1    4    4    0    0 -0.48914956034E-01 -0.11186359239E-01 -0.68045915646E-02  0.50639620301E-01  0.51100000000E-03 0.  1.
         11    1    4    4    0    0 -0.67859559016E-01 -0.40847557294E-01 -0.13299574041E-01  0.80315518285E-01  0.51100000000E-03 0. -1.
</event>
<event>
 8    1  0.1170483E+005  0.1043930E+01  0.7957747E-01            NaN
         13   -1    0    0    0    0  0.00000000000E+00  0.00000000000E+00  0.74505805969E-08  0.10566000000E+00  0.10566000000E+00 0. -1.
     999900   -1    0    0    0    0 -0.00000000000E+00 -0.00000000000E+00 -0.74505805969E-08  0.93827000000E+00  0.93827000000E+00 0. -1.
     999902    2    1    2    0    0  0.19615725897E-01 -0.10360715200E-01 -0.80279363164E-02  0.10203382878E+01  0.10200655139E+01 0.  0.
     999903    2    3    3    0    0 -0.10747942646E+00 -0.44725335979E-01 -0.53618622932E-01  0.12937666372E+00  0.17640340162E-01 0.  0.
         14    1    1    2    0    0 -0.19615725897E-01  0.10360715200E-01  0.80279363164E-02  0.23591712176E-01  0.00000000000E+00 0. -1.
     999901    1    3    3    0    0  0.12709515235E+00  0.34364620779E-01  0.45590686616E-01  0.89096162410E+00  0.88000000000E+00 0.  1.
        -11    1    4    4    0    0 -0.42304444629E-02  0.24661865055E-03 -0.53635593243E-02  0.68546605122E-02  0.51100000000E-03 0. -1.
         11    1    4    4    0    0 -0.10324898199E+00 -0.44971954630E-01 -0.48255063608E-01  0.12252200321E+00  0.51100000000E-03 0.  1.
</event>
<event>
 8    1  0.1170483E+005  0.1043930E+01  0.7957747E-01            NaN
         13   -1    0    0    0    0  0.00000000000E+00  0.00000000000E+00  0.74505805969E-08  0.10566000000E+00  0.10566000000E+00 0.  1.
     999900   -1    0    0    0    0 -0.00000000000E+00 -0.00000000000E+00 -0.74505805969E-08  0.93827000000E+00  0.93827000000E+00 0.  1.
     999902    2    1    2    0    0 -0.18972003051E-01 -0.12725912058E-01 -0.31379125980E-02  0.10208706801E+01  0.10206102162E+01 0.  0.
     999903    2    3    3    0    0  0.92665337063E-01  0.54012178146E-01  0.67891175882E-01  0.12847951040E+00  0.19839172103E-01 0.  0.
         14    1    1    2    0    0  0.18972003051E-01  0.12725912058E-01  0.31379125980E-02  0.23059319872E-01  0.00000000000E+00 0.  1.
     999901    1    3    3    0    0 -0.11163734011E+00 -0.66738090204E-01 -0.71029088480E-01  0.89239116972E+00  0.88000000000E+00 0.  1.
        -11    1    4    4    0    0  0.31459181520E-01  0.21562615190E-01  0.35090736958E-01  0.51829020992E-01  0.51100000000E-03 0. -1.
         11    1    4    4    0    0  0.61206155543E-01  0.32449562956E-01  0.32800438925E-01  0.76650489411E-01  0.51100000000E-03 0.  1.
</event>
<event>
 8    1  0.1170483E+005  0.1043930E+01  0.7957747E-01            NaN
         13   -1    0    0    0    0  0.00000000000E+00  0.00000000000E+00  0.74505805969E-08  0.10566000000E+00  0.10566000000E+00 0.  1.
     999900   -1    0    0    0    0 -0.00000000000E+00 -0.00000000000E+00 -0.74505805969E-08  0.93827000000E+00  0.93827000000E+00 0.  1.
     999902    2    1    2    0    0  0.11622147665E-01  0.18513321720E-01 -0.29010290262E-03  0.10220690403E+01  0.10218352224E+01 0.  0.
     999903    2    3    3    0    0 -0.63902481924E-01 -0.10939581105E+00  0.17373348428E-01  0.12944553996E+00  0.20083423727E-01 0.  0.
         14    1    1    2    0    0 -0.11622147665E-01 -0.18513321720E-01  0.29010290262E-03  0.21860959658E-01  0.00000000000E+00 0.  1.
     999901    1    3    3    0    0  0.75524629589E-01  0.12790913277E+00 -0.17663451331E-01  0.89262350038E+00  0.88000000000E+00 0.  1.
        -11    1    4    4    0    0 -0.50677144082E-01 -0.99535047756E-01  0.13644034294E-01  0.11252475042E+00  0.51100000000E-03 0. -1.
         11    1    4    4    0    0 -0.13225337842E-01 -0.98607632941E-02  0.37293141340E-02  0.16920789541E-01  0.51100000000E-03 0.  1.
</event>
<event>
 8    1  0.1170483E+005  0.1043930E+01  0.7957747E-01            NaN
         13   -1    0    0    0    0  0.00000000000E+00  0.00000000000E+00  0.74505805969E-08  0.10566000000E+00  0.10566000000E+00 0. -1.
     999900   -1    0    0    0    0 -0.00000000000E+00 -0.00000000000E+00 -0.74505805969E-08  0.93827000000E+00  0.93827000000E+00 0. -1.
     999902    2    1    2    0    0  0.17888286614E-02  0.10627526137E-02 -0.18371467303E-01  0.10254410800E+01  0.10252743869E+01 0.  0.
     999903    2    3    3    0    0 -0.39046111326E-01 -0.12437000204E+00 -0.31029824107E-01  0.13551911588E+00  0.20250544888E-01 0.  0.
         14    1    1    2    0    0 -0.17888286614E-02 -0.10627526137E-02  0.18371467303E-01  0.18488919978E-01  0.00000000000E+00 0. -1.
     999901    1    3    3    0    0  0.40834939987E-01  0.12543275465E+00  0.12658356804E-01  0.88992196414E+00  0.88000000000E+00 0. -1.
        -11    1    4    4    0    0 -0.19994541775E-02 -0.35964623053E-01 -0.69966505785E-02  0.36696950400E-01  0.51100000000E-03 0.  1.
         11    1    4    4    0    0 -0.37046657149E-01 -0.88405378986E-01 -0.24033173528E-01  0.98822165481E-01  0.51100000000E-03 0. -1.
</event>
<event>
 8    1  0.1170483E+005  0.1043930E+01  0.7957747E-01            NaN
         13   -1    0    0    0    0  0.00000000000E+00  0.00000000000E+00  0.74505805969E-08  0.10566000000E+00  0.10566000000E+00 0. -1.
     999900   -1    0    0    0    0 -0.00000000000E+00 -0.00000000000E+00 -0.74505805969E-08  0.93827000000E+00  0.93827000000E+00 0. -1.
     999902    2    1    2    0    0  0.12477251383E-01 -0.19523111460E-01  0.55205771836E-03  0.10207537524E+01  0.10204906098E+01 0.  0.
     999903    2    3    3    0    0  0.86962496072E-01 -0.36500674932E-01 -0.90947540413E-01  0.13271745487E+00  0.21158750618E-01 0.  0.
         14    1    1    2    0    0 -0.12477251383E-01  0.19523111460E-01 -0.55205771836E-03  0.23176247558E-01  0.00000000000E+00 0.  1.
     999901    1    3    3    0    0 -0.74485244689E-01  0.16977563473E-01  0.91499598131E-01  0.88803629757E+00  0.88000000000E+00 0.  1.
        -11    1    4    4    0    0  0.25117686621E-01 -0.19772918586E-01 -0.23410361383E-01  0.39625403868E-01  0.51100000000E-03 0. -1.
         11    1    4    4    0    0  0.61844809451E-01 -0.16727756346E-01 -0.67537179029E-01  0.93092051007E-01  0.51100000000E-03 0.  1.
</event>
<event>
 8    1  0.1170483E+005  0.1043930E+01  0.7957747E-01            NaN
         13   -1    0    0    0    0  0.00000000000E+00  0.00000000000E+00  0.74505805969E-08  0.10566000000E+00  0.10566000000E+00 0. -1.
     999900   -1    0    0    0    0 -0.00000000000E+00 -0.00000000000E+00 -0.74505805969E-08  0.93827000000E+00  0.93827000000E+00 0. -1.
     999902    2    1    2    0    0  0.92877661417E-02  0.11406066300E-01 -0.11491777507E-01  0.10252639372E+01  0.10250940050E+01 0.  0.
     999903    2    3    3    0    0 -0.11455019571E+00  0.65692609395E-01  0.16267096911E-01  0.13450391083E+00  0.19733659593E-01 0.  0.
         14    1    1    2    0    0 -0.92877661417E-02 -0.11406066300E-01  0.11491777507E-01  0.18666062751E-01  0.00000000000E+00 0.  1.
     999901    1    3    3    0    0  0.12383796185E+00 -0.54286543095E-01 -0.27758874418E-01  0.89076002642E+00  0.88000000000E+00 0.  1.
        -11    1    4    4    0    0 -0.71741875703E-01  0.29973445634E-01  0.10195303400E-01  0.78418808362E-01  0.51100000000E-03 0. -1.
         11    1    4    4    0    0 -0.42808320006E-01  0.35719163761E-01  0.60717935109E-02  0.56085102469E-01  0.51100000000E-03 0.  1.
</event>
<event>
 8    1  0.1170483E+005  0.1043930E+01  0.7957747E-01            NaN
         13   -1    0    0    0    0  0.00000000000E+00  0.00000000000E+00  0.74505805969E-08  0.10566000000E+00  0.10566000000E+00 0.  1.
     999900   -1    0    0    0    0 -0.00000000000E+00 -0.00000000000E+00 -0.74505805969E-08  0.93827000000E+00  0.93827000000E+00 0. -1.
     999902    2    1    2    0    0  0.52505504002E-02  0.11089874633E-01  0.19970880298E-01  0.10204909373E+01  0.10202217227E+01 0.  0.
     999903    2    3    3    0    0  0.70377241635E-01 -0.79848903792E-02  0.11052902582E+00  0.13324457341E+00  0.22819644608E-01 0.  0.
         14    1    1    2    0    0 -0.52505504002E-02 -0.11089874633E-01 -0.19970880298E-01  0.23439062667E-01  0.00000000000E+00 0. -1.
     999901    1    3    3    0    0 -0.65126691234E-01  0.19074765012E-01 -0.90558145524E-01  0.88724636392E+00  0.88000000000E+00 0. -1.
        -11    1    4    4    0    0  0.14566529108E-01 -0.11315310973E-01  0.25361553584E-01  0.31363825562E-01  0.51100000000E-03 0. -1.
         11    1    4    4    0    0  0.55810712526E-01  0.33304205940E-02  0.85167472237E-01  0.10188074785E+00  0.51100000000E-03 0.  1.
</event>
<event>
 8    1  0.1170483E+005  0.1043930E+01  0.7957747E-01            NaN
         13   -1    0    0    0    0  0.00000000000E+00  0.00000000000E+00  0.74505805969E-08  0.10566000000E+00  0.10566000000E+00 0. -1.
     999900   -1    0    0    0    0 -0.00000000000E+00 -0.00000000000E+00 -0.74505805969E-08  0.93827000000E+00  0.93827000000E+00 0. -1.
     999902    2    1    2    0    0 -0.11270672814E-01 -0.12088702456E-01 -0.16841893053E-01  0.10203330902E+01  0.10200601946E+01 0.  0.
     999903    2    3    3    0    0  0.27959177802E-01  0.12236872518E+00 -0.24476457325E-01  0.12922363133E+00  0.18542637549E-01 0.  0.
         14    1    1    2    0    0  0.11270672814E-01  0.12088702456E-01  0.16841893053E-01  0.23596909847E-01  0.00000000000E+00 0. -1.
     999901    1    3    3    0    0 -0.39229850616E-01 -0.13445742763E+00  0.76345642726E-02  0.89110945882E+00  0.88000000000E+00 0. -1.
        -11    1    4    4    0    0  0.26458815232E-01  0.76475477615E-01 -0.17152167382E-01  0.82722581843E-01  0.51100000000E-03 0. -1.
         11    1    4    4    0    0  0.15003625706E-02  0.45893247561E-01 -0.73242899435E-02  0.46501049490E-01  0.51100000000E-03 0.  1.
</event>
<event>
 8    1  0.1170483E+005  0.1043930E+01  0.7957747E-01            NaN
         13   -1    0    0    0    0  0.00000000000E+00  0.00000000000E+00  0.74505805969E-08  0.10566000000E+00  0.10566000000E+00 0.  1.
     999900   -1    0    0    0    0 -0.00000000000E+00 -0.00000000000E+00 -0.74505805969E-08  0.93827000000E+00  0.93827000000E+00 0. -1.
     999902    2    1    2    0    0  0.12954780133E-01 -0.11221622734E-01  0.17784760152E-01  0.10192308332E+01  0.10189315201E+01 0.  0.
     999903    2    3    3    0    0 -0.49486714190E-01  0.34236669500E-01 -0.10974352794E+00  0.12669015584E+00  0.19638463324E-01 0.  0.
         14    1    1    2    0    0 -0.12954780133E-01  0.11221622734E-01 -0.17784760152E-01  0.24699166762E-01  0.00000000000E+00 0.  1.
     999901    1    3    3    0    0  0.62441494323E-01 -0.45458292234E-01  0.12752828809E+00  0.89254067740E+00  0.88000000000E+00 0.  1.
        -11    1    4    4    0    0 -0.36108046543E-01  0.13565531975E-01 -0.70331413383E-01  0.80215855742E-01  0.51100000000E-03 0.  1.
         11    1    4    4    0    0 -0.13378667647E-01  0.20671137525E-01 -0.39412114560E-01  0.46474300099E-01  0.51100000000E-03 0. -1.
</event>
<event>
 8    1  0.1170483E+005  0.1043930E+01  0.7957747E-01            NaN
         13   -1    0    0    0    0  0.00000000000E+00  0.00000000000E+00  0.74505805969E-08  0.10566000000E+00  0.10566000000E+00 0. -1.
     999900   -1    0    0    0    0 -0.00000000000E+00 -0.00000000000E+00 -0.74505805969E-08  0.93827000000E+00  0.93827000000E+00 0.  1.
     999902    2    1    2    0    0 -0.21877386675E-01 -0.48669023816E-02  0.75727197668E-02  0.10202730164E+01  0.10199987133E+01 0.  0.
     999903    2    3    3    0    0  0.86828794836E-01 -0.92935760824E-01 -0.97229879547E-02  0.12905345919E+00  0.19594988655E-01 0.  0.
         14    1    1    2    0    0  0.21877386675E-01  0.48669023816E-02 -0.75727197668E-02  0.23656983561E-01  0.00000000000E+00 0.  1.
     999901    1    3    3    0    0 -0.10870618151E+00  0.88068858442E-01  0.17295707722E-01  0.89121955725E+00  0.88000000000E+00 0. -1.
        -11    1    4    4    0    0  0.67548294884E-01 -0.78408247712E-01 -0.13679624130E-02  0.10350245356E+00  0.51100000000E-03 0. -1.
         11    1    4    4    0    0  0.19280499952E-01 -0.14527513112E-01 -0.83550255417E-02  0.25551005624E-01  0.51100000000E-03 0.  1.
</event>
<event>
 8    1  0.1170483E+005  0.1043930E+01  0.7957747E-01            NaN
         13   -1    0    0    0    0  0.00000000000E+00  0.00000000000E+00  0.74505805969E-08  0.10566000000E+00  0.10566000000E+00 0. -1.
     999900   -1    0    0    0    0 -0.00000000000E+00 -0.00000000000E+00 -0.74505805969E-08  0.93827000000E+00  0.93827000000E+00 0. -1.
     999902    2    1    2    0    0 -0.37767240960E-02 -0.19749759364E-01 -0.13145122080E-01  0.10199068679E+01  0.10196239054E+01 0.  0.
     999903    2    3    3    0    0  0.46468010378E-01  0.40660136027E-01 -0.11346745905E+00  0.13072833687E+00  0.20062680479E-01 0.  0.
         14    1    1    2    0    0  0.37767240960E-02  0.19749759364E-01  0.13145122080E-01  0.24023132068E-01  0.00000000000E+00 0. -1.
     999901    1    3    3    0    0 -0.50244734474E-01 -0.60409895391E-01  0.10032233697E+00  0.88917853106E+00  0.88000000000E+00 0.  1.
        -11    1    4    4    0    0  0.20501385374E-01  0.19363163485E-01 -0.32270359014E-01  0.42858792496E-01  0.51100000000E-03 0. -1.
         11    1    4    4    0    0  0.25966625004E-01  0.21296972542E-01 -0.81197100036E-01  0.87869544376E-01  0.51100000000E-03 0.  1.
</event>
<event>
 8    1  0.1170483E+005  0.1043930E+01  0.7957747E-01            NaN
         13   -1    0    0    0    0  0.00000000000E+00  0.00000000000E+00  0.74505805969E-08  0.10566000000E+00  0.10566000000E+00 0. -1.
     999900   -1    0    0    0    0 -0.00000000000E+00 -0.00000000000E+00 -0.74505805969E-08  0.93827000000E+00  0.93827000000E+00 0.  1.
     999902    2    1    2    0    0  0.13874277482E-02  0.14868345850E-02  0.23952595941E-01  0.10198912295E+01  0.10196078941E+01 0.  0.
     999903    2    3    3    0    0  0.77428853125E-01 -0.90722711916E-01 -0.45123105406E-01  0.12912956032E+00  0.20310365657E-01 0.  0.
         14    1    1    2    0    0 -0.13874277482E-02 -0.14868345850E-02 -0.23952595941E-01  0.24038770458E-01  0.00000000000E+00 0.  1.
     999901    1    3    3    0    0 -0.76041425377E-01  0.92209546501E-01  0.69075701346E-01  0.89076166922E+00  0.88000000000E+00 0.  1.
        -11    1    4    4    0    0 -0.60572354571E-03 -0.11581726260E-02 -0.26033191326E-02  0.29574746578E-02  0.51100000000E-03 0.  1.
         11    1    4    4    0    0  0.78034576671E-01 -0.89564539290E-01 -0.42519786273E-01  0.12617208566E+00  0.51100000000E-03 0. -1.
</event>
<event>
 8    1  0.1170483E+005  0.1043930E+01  0.7957747E-01            NaN
         13   -1    0    0    0    0  0.00000000000E+00  0.00000000000E+00  0.74505805969E-08  0.10566000000E+00  0.10566000000E+00 0. -1.
     999900   -1    0    0    0    0 -0.00000000000E+00 -0.00000000000E+00 -0.74505805969E-08  0.93827000000E+00  0.93827000000E+00 0. -1.
     999902    2    1    2    0    0  0.94275876118E-02  0.17040644282E-01  0.14342370951E-01  0.10197439178E+01  0.10194570572E+01 0.  0.
     999903    2    3    3    0    0  0.62495638627E-01  0.37337977652E-01 -0.10544197744E+00  0.12981330824E+00  0.20824383957E-01 0.  0.
         14    1    1    2    0    0 -0.94275876118E-02 -0.17040644282E-01 -0.14342370951E-01  0.24186082159E-01  0.00000000000E+00 0. -1.
     999901    1    3    3    0    0 -0.53068051015E-01 -0.20297333370E-01  0.11978434839E+00  0.88993060960E+00  0.88000000000E+00 0.  1.
        -11    1    4    4    0    0  0.55825762267E-01  0.38411135989E-01 -0.87763702236E-01  0.11088128630E+00  0.51100000000E-03 0.  1.
         11    1    4    4    0    0  0.66698763600E-02 -0.10731583374E-02 -0.17678275207E-01  0.18932021941E-01  0.51100000000E-03 0. -1.
</event>
<event>
 8    1  0.1170483E+005  0.1043930E+01  0.7957747E-01            NaN
         13   -1    0    0    0    0  0.00000000000E+00  0.00000000000E+00  0.74505805969E-08  0.10566000000E+00  0.10566000000E+00 0. -1.
     999900   -1    0    0    0    0 -0.00000000000E+00 -0.00000000000E+00 -0.74505805969E-08  0.93827000000E+00  0.93827000000E+00 0. -1.
     999902    2    1    2    0    0  0.30579094569E-02  0.16051967746E-01 -0.15957206319E-01  0.10210903653E+01  0.10208348962E+01 0.  0.
     999903    2    3    3    0    0 -0.73230156660E-02 -0.16018273218E-01  0.12621712016E+00  0.12904227073E+00  0.20271521310E-01 0.  0.
         14    1    1    2    0    0 -0.30579094569E-02 -0.16051967746E-01  0.15957206319E-01  0.22839634679E-01  0.00000000000E+00 0. -1.
     999901    1    3    3    0    0  0.10380925123E-01  0.32070240963E-01 -0.14217432648E+00  0.89204809460E+00  0.88000000000E+00 0. -1.
        -11    1    4    4    0    0  0.23139205041E-02 -0.14184545169E-01  0.10030475447E+00  0.10133045170E+00  0.51100000000E-03 0.  1.
         11    1    4    4    0    0 -0.96369361701E-02 -0.18337280494E-02  0.25912365690E-01  0.27711819030E-01  0.51100000000E-03 0. -1.
</event>
<event>
 8    1  0.1170483E+005  0.1043930E+01  0.7957747E-01            NaN
         13   -1    0    0    0    0  0.00000000000E+00  0.00000000000E+00  0.74505805969E-08  0.10566000000E+00  0.10566000000E+00 0.  1.
     999900   -1    0    0    0    0 -0.00000000000E+00 -0.00000000000E+00 -0.74505805969E-08  0.93827000000E+00  0.93827000000E+00 0. -1.
     999902    2    1    2    0    0 -0.10417460328E-01  0.96042910196E-02  0.19208162877E-01  0.10200612043E+01  0.10197819086E+01 0.  0.
     999903    2    3    3    0    0 -0.88314053172E-01 -0.51187448555E-01  0.81752014369E-01  0.13232518043E+00  0.20175099598E-01 0.  0.
         14    1    1    2    0    0  0.10417460328E-01 -0.96042910196E-02 -0.19208162877E-01  0.23868795671E-01  0.00000000000E+00 0. -1.
     999901    1    3    3    0    0  0.77896592844E-01  0.60791739575E-01 -0.62543851493E-01  0.88773602390E+00  0.88000000000E+00 0. -1.
        -11    1    4    4    0    0 -0.62311889134E-01 -0.26518162629E-01  0.47280135252E-01  0.82593321686E-01  0.51100000000E-03 0. -1.
         11    1    4    4    0    0 -0.26002164039E-01 -0.24669285926E-01  0.34471879117E-01  0.49731858739E-01  0.51100000000E-03 0.  1.
</event>
<event>
 8    1  0.1170483E+005  0.1043930E+01  0.7957747E-01            NaN
         13   -1    0    0    0    0  0.00000000000E+00  0.00000000000E+00  0.74505805969E-08  0.10566000000E+00  0.10566000000E+00 0. -1.
     999900   -1    0    0    0    0 -0.00000000000E+00 -0.00000000000E+00 -0.74505805969E-08  0.93827000000E+00  0.93827000000E+00 0. -1.
     999902    2    1    2    0    0  0.22432557669E-02 -0.24759256665E-02  0.23299633561E-01  0.10203920449E+01  0.10201205272E+01 0.  0.
     999903    2    3    3    0    0 -0.81200960901E-01  0.47038183494E-01  0.91072800494E-01  0.13246874507E+00  0.21154826214E-01 0.  0.
         14    1    1    2    0    0 -0.22432557669E-02  0.24759256665E-02 -0.23299633561E-01  0.23537955060E-01  0.00000000000E+00 0.  1.
     999901    1    3    3    0    0  0.83444216668E-01 -0.49514109160E-01 -0.67773166933E-01  0.88792329987E+00  0.88000000000E+00 0.  1.
        -11    1    4    4    0    0 -0.65147542350E-01  0.27253960223E-01  0.64315160390E-01  0.95517964797E-01  0.51100000000E-03 0.  1.
         11    1    4    4    0    0 -0.16053418552E-01  0.19784223270E-01  0.26757640104E-01  0.36950780270E-01  0.51100000000E-03 0. -1.
</event>
<event>
 8    1  0.1170483E+005  0.1043930E+01  0.7957747E-01            NaN
         13   -1    0    0    0    0  0.00000000000E+00  0.00000000000E+00  0.74505805969E-08  0.10566000000E+00  0.10566000000E+00 0. -1.
     999900   -1    0    0    0    0 -0.00000000000E+00 -0.00000000000E+00 -0.74505805969E-08  0.93827000000E+00  0.93827000000E+00 0.  1.
     999902    2    1    2    0    0  0.11880538015E-02  0.86588572017E-02 -0.24230872027E-01  0.10181710707E+01  0.10178451782E+01 0.  0.
     999903    2    3    3    0    0  0.12236056792E+00 -0.23699141587E-01 -0.27559744774E-01  0.12927237025E+00  0.20446229067E-01 0.  0.
         14    1    1    2    0    0 -0.11880538015E-02 -0.86588572017E-02  0.24230872027E-01  0.25758929307E-01  0.00000000000E+00 0. -1.
     999901    1    3    3    0    0 -0.12117251412E+00  0.32357998789E-01  0.33288727471E-02  0.88889870045E+00  0.88000000000E+00 0. -1.
        -11    1    4    4    0    0  0.96625957387E-01 -0.10670014285E-01 -0.24548465044E-01  0.10026621117E+00  0.51100000000E-03 0.  1.
         11    1    4    4    0    0  0.25734610533E-01 -0.13029127302E-01 -0.30112797294E-02  0.29006159073E-01  0.51100000000E-03 0. -1.
</event>
<event>
 8    1  0.1170483E+005  0.1043930E+01  0.7957747E-01            NaN
         13   -1    0    0    0    0  0.00000000000E+00  0.00000000000E+00  0.74505805969E-08  0.10566000000E+00  0.10566000000E+00 0.  1.
     999900   -1    0    0    0    0 -0.00000000000E+00 -0.00000000000E+00 -0.74505805969E-08  0.93827000000E+00  0.93827000000E+00 0. -1.
     999902    2    1    2    0    0 -0.16646778370E-01 -0.44742317057E-02 -0.16688890380E-01  0.10199372294E+01  0.10196549901E+01 0.  0.
     999903    2    3    3    0    0  0.73096302641E-01 -0.10489684415E+00  0.29726078093E-03  0.12952886745E+00  0.20765879891E-01 0.  0.
         14    1    1    2    0    0  0.16646778370E-01  0.44742317057E-02  0.16688890380E-01  0.23992770611E-01  0.00000000000E+00 0.  1.
     999901    1    3    3    0    0 -0.89743081011E-01  0.10042261244E+00 -0.16986151161E-01  0.89040836194E+00  0.88000000000E+00 0.  1.
        -11    1    4    4    0    0  0.27735662721E-01 -0.47309865108E-01  0.94507141935E-02  0.55651302257E-01  0.51100000000E-03 0. -1.
         11    1    4    4    0    0  0.45360639920E-01 -0.57586979037E-01 -0.91534534126E-02  0.73877565194E-01  0.51100000000E-03 0.  1.
</event>
<event>
 8    1  0.1170483E+005  0.1043930E+01  0.7957747E-01            NaN
         13   -1    0    0    0    0  0.00000000000E+00  0.00000000000E+00  0.74505805969E-08  0.10566000000E+00  0.10566000000E+00 0. -1.
     999900   -1    0    0    0    0 -0.00000000000E+00 -0.00000000000E+00 -0.74505805969E-08  0.93827000000E+00  0.93827000000E+00 0.  1.
     999902    2    1    2    0    0  0.21920287980E-01  0.48247281300E-02 -0.85058458431E-02  0.10199273660E+01  0.10196448918E+01 0.  0.
     999903    2    3    3    0    0  0.81979942425E-01  0.47312590034E-01  0.88800192557E-01  0.13151257230E+00  0.21234178588E-01 0.  0.
         14    1    1    2    0    0 -0.21920287980E-01 -0.48247281300E-02  0.85058458431E-02  0.24002634026E-01  0.00000000000E+00 0. -1.
     999901    1    3    3    0    0 -0.60059654444E-01 -0.42487861904E-01 -0.97306038400E-01  0.88841479367E+00  0.88000000000E+00 0.  1.
        -11    1    4    4    0    0  0.33124566583E-01  0.11956205703E-01  0.22051194679E-01  0.41553628890E-01  0.51100000000E-03 0.  1.
         11    1    4    4    0    0  0.48855375841E-01  0.35356384331E-01  0.66748997878E-01  0.89958943415E-01  0.51100000000E-03 0. -1.
</event>
<event>
 8    1  0.1170483E+005  0.1043930E+01  0.7957747E-01            NaN
         13   -1    0    0    0    0  0.00000000000E+00  0.00000000000E+00  0.74505805969E-08  0.10566000000E+00  0.10566000000E+00 0. -1.
     999900   -1    0    0    0    0 -0.00000000000E+00 -0.00000000000E+00 -0.74505805969E-08  0.93827000000E+00  0.93827000000E+00 0. -1.
     999902    2    1    2    0    0  0.10867520137E-01  0.21389277987E-01  0.11299514574E-01  0.10174105121E+01  0.10170648293E+01 0.  0.
     999903    2    3    3    0    0  0.55373932113E-01 -0.94182970036E-01  0.62258172263E-01  0.12727875222E+00  0.19674769408E-01 0.  0.
         14    1    1    2    0    0 -0.10867520137E-01 -0.21389277987E-01 -0.11299514574E-01  0.26519487860E-01  0.00000000000E+00 0. -1.
     999901    1    3    3    0    0 -0.44506411976E-01  0.11557224802E+00 -0.50958657689E-01  0.89013175992E+00  0.88000000000E+00 0.  1.
        -11    1    4    4    0    0  0.10485033975E-01 -0.31981254820E-01  0.12822122118E-01  0.36019502133E-01  0.51100000000E-03 0.  1.
         11    1    4    4    0    0  0.44888898139E-01 -0.62201715217E-01  0.49436050145E-01  0.91259250090E-01  0.51100000000E-03 0. -1.
</event>
<event>
 7    1  0.1170483E+005  0.1043930E+01  0.7957747E-01            NaN
         13   -1    0    0    0    0  0.00000000000E+00  0.00000000000E+00  0.74505805969E-08  0.10566000000E+00  0.10566000000E+00 0.  1.
     999900   -1    0    0    0    0 -0.00000000000E+00 -0.00000000000E+00 -0.74505805969E-08  0.93827000000E+00  0.93827000000E+00 0. -1.
     999903    2    1    2    0    0  0.48732044434E-01 -0.73014998433E-01  0.67179507250E-01  0.11236663352E+00  0.20178502993E-01 0.  0.
         14    1    1    2    0    0 -0.27413789251E-01 -0.90646844963E-02  0.30628664706E-01  0.42092748161E-01  0.00000000000E+00 0.  1.
     999901    1    1    2    0    0 -0.21318255183E-01  0.82079682929E-01 -0.97808171956E-01  0.88947061832E+00  0.88000000000E+00 0. -1.
        -11    1    3    3    0    0  0.24946608534E-01 -0.34700292904E-01  0.20303043808E-01  0.47317209490E-01  0.51100000000E-03 0. -1.
         11    1    3    3    0    0  0.23785435900E-01 -0.38314705529E-01  0.46876463442E-01  0.65049424029E-01  0.51100000000E-03 0.  1.
</event>
<event>
 8    1  0.1170483E+005  0.1043930E+01  0.7957747E-01            NaN
         13   -1    0    0    0    0  0.00000000000E+00  0.00000000000E+00  0.74505805969E-08  0.10566000000E+00  0.10566000000E+00 0.  1.
     999900   -1    0    0    0    0 -0.00000000000E+00 -0.00000000000E+00 -0.74505805969E-08  0.93827000000E+00  0.93827000000E+00 0.  1.
     999902    2    1    2    0    0 -0.47340883044E-02 -0.23779904624E-01  0.64707977036E-02  0.10188348475E+01  0.10185257384E+01 0.  0.
     999903    2    3    3    0    0  0.10468399777E+00  0.68316754791E-01 -0.11386459633E-01  0.12711011762E+00  0.20035273038E-01 0.  0.
         14    1    1    2    0    0  0.47340883044E-02  0.23779904624E-01 -0.64707977036E-02  0.25095152498E-01  0.00000000000E+00 0. -1.
     999901    1    3    3    0    0 -0.10941808607E+00 -0.92096659415E-01  0.17857257337E-01  0.89172472988E+00  0.88000000000E+00 0. -1.
        -11    1    4    4    0    0  0.25418601999E-01  0.14021554655E-01  0.55218288570E-02  0.29554374253E-01  0.51100000000E-03 0. -1.
         11    1    4    4    0    0  0.79265395769E-01  0.54295200136E-01 -0.16908288490E-01  0.97555743372E-01  0.51100000000E-03 0.  1.
</event>
<event>
 8    1  0.1170483E+005  0.1043930E+01  0.7957747E-01            NaN
         13   -1    0    0    0    0  0.00000000000E+00  0.00000000000E+00  0.74505805969E-08  0.10566000000E+00  0.10566000000E+00 0. -1.
     999900   -1    0    0    0    0 -0.00000000000E+00 -0.00000000000E+00 -0.74505805969E-08  0.93827000000E+00  0.93827000000E+00 0.  1.
     999902    2    1    2    0    0 -0.29185111868E-02 -0.23475879026E-01  0.49824501546E-03  0.10202681562E+01  0.10199937391E+01 0.  0.
     999903    2    3    3    0    0  0.12522714542E+00 -0.20805340207E-01  0.23777176046E-01  0.13067816654E+00  0.19918056567E-01 0.  0.
         14    1    1    2    0    0  0.29185111868E-02  0.23475879026E-01 -0.49824501546E-03  0.23661843793E-01  0.00000000000E+00 0. -1.
     999901    1    3    3    0    0 -0.12814565661E+00 -0.26705388188E-02 -0.23278931031E-01  0.88958998967E+00  0.88000000000E+00 0.  1.
        -11    1    4    4    0    0  0.67331883603E-01 -0.21193089305E-01  0.13774011357E-01  0.71921582948E-01  0.51100000000E-03 0. -1.
         11    1    4    4    0    0  0.57895261821E-01  0.38774909771E-03  0.10003164690E-01  0.58756583593E-01  0.51100000000E-03 0.  1.
</event>
<event>
 8    1  0.1170483E+005  0.1043930E+01  0.7957747E-01            NaN
         13   -1    0    0    0    0  0.00000000000E+00  0.00000000000E+00  0.74505805969E-08  0.10566000000E+00  0.10566000000E+00 0. -1.
     999900   -1    0    0    0    0 -0.00000000000E+00 -0.00000000000E+00 -0.74505805969E-08  0.93827000000E+00  0.93827000000E+00 0. -1.
     999902    2    1    2    0    0 -0.13644243915E-01 -0.71579987233E-02 -0.17800806572E-01  0.10203870382E+01  0.10201154036E+01 0.  0.
     999903    2    3    3    0    0 -0.11012867990E+00  0.41643244117E-01  0.53576556110E-01  0.13090093057E+00  0.20052938511E-01 0.  0.
         14    1    1    2    0    0  0.13644243915E-01  0.71579987233E-02  0.17800806572E-01  0.23542961843E-01  0.00000000000E+00 0. -1.
     999901    1    3    3    0    0  0.96484435981E-01 -0.48801242840E-01 -0.71377362682E-01  0.88948610759E+00  0.88000000000E+00 0. -1.
        -11    1    4    4    0    0 -0.43696508207E-01  0.26876737366E-01  0.25344802921E-01  0.57222058658E-01  0.51100000000E-03 0. -1.
         11    1    4    4    0    0 -0.66432171689E-01  0.14766506751E-01  0.28231753189E-01  0.73678871911E-01  0.51100000000E-03 0.  1.
</event>
<event>
 8    1  0.1170483E+005  0.1043930E+01  0.7957747E-01            NaN
         13   -1    0    0    0    0  0.00000000000E+00  0.00000000000E+00  0.74505805969E-08  0.10566000000E+00  0.10566000000E+00 0.  1.
     999900   -1    0    0    0    0 -0.00000000000E+00 -0.00000000000E+00 -0.74505805969E-08  0.93827000000E+00  0.93827000000E+00 0.  1.
     999902    2    1    2    0    0  0.12461548367E-02 -0.52319931378E-02  0.21712065357E-01  0.10215617091E+01  0.10213167898E+01 0.  0.
     999903    2    3    3    0    0  0.31840535250E-01 -0.42066395002E-01  0.12085643264E+00  0.13470073083E+00  0.27470134749E-01 0.  0.
         14    1    1    2    0    0 -0.12461548367E-02  0.52319931378E-02 -0.21712065357E-01  0.22368290863E-01  0.00000000000E+00 0. -1.
     999901    1    3    3    0    0 -0.30594380413E-01  0.36834401864E-01 -0.99144367283E-01  0.88686097830E+00  0.88000000000E+00 0.  1.
        -11    1    4    4    0    0  0.95163614926E-02 -0.33363428407E-02  0.49325482425E-01  0.50348353072E-01  0.51100000000E-03 0. -1.
         11    1    4    4    0    0  0.22324173757E-01 -0.38730052161E-01  0.71530950215E-01  0.84352377762E-01  0.51100000000E-03 0.  1.
</event>
<event>
 8    1  0.1170483E+005  0.1043930E+01  0.7957747E-01            NaN
         13   -1    0    0    0    0  0.00000000000E+00  0.00000000000E+00  0.74505805969E-08  0.10566000000E+00  0.10566000000E+00 0. -1.
     999900   -1    0    0    0    0 -0.00000000000E+00 -0.00000000000E+00 -0.74505805969E-08  0.93827000000E+00  0.93827000000E+00 0. -1.
     999902    2    1    2    0    0  0.92352357079E-02 -0.20138012618E-01 -0.74849949576E-02  0.10205450843E+01  0.10202771265E+01 0.  0.
     999903    2    3    3    0    0 -0.70154660788E-01  0.97896428465E-01 -0.39643351272E-01  0.12854225653E+00  0.21121772578E-01 0.  0.
         14    1    1    2    0    0 -0.92352357079E-02  0.20138012618E-01  0.74849949576E-02  0.23384915657E-01  0.00000000000E+00 0. -1.
     999901    1    3    3    0    0  0.79389896496E-01 -0.11803444108E+00  0.32158356315E-01  0.89200282781E+00  0.88000000000E+00 0. -1.
        -11    1    4    4    0    0 -0.61406441782E-01  0.70435137513E-01 -0.30789003567E-01  0.98387415610E-01  0.51100000000E-03 0. -1.
         11    1    4    4    0    0 -0.87482190064E-02  0.27461290952E-01 -0.88543477056E-02  0.30154840918E-01  0.51100000000E-03 0.  1.
</event>
<event>
 8    1  0.1170483E+005  0.1043930E+01  0.7957747E-01            NaN
         13   -1    0    0    0    0  0.00000000000E+00  0.00000000000E+00  0.74505805969E-08  0.10566000000E+00  0.10566000000E+00 0.  1.
     999900   -1    0    0    0    0 -0.00000000000E+00 -0.00000000000E+00 -0.74505805969E-08  0.93827000000E+00  0.93827000000E+00 0.  1.
     999902    2    1    2    0    0 -0.63093440061E-02 -0.14525157609E-01 -0.16908146267E-01  0.10207637868E+01  0.10205008745E+01 0.  0.
     999903    2    3    3    0    0 -0.88305054055E-01 -0.88635769273E-01  0.37070689613E-01  0.13220912106E+00  0.21235194767E-01 0.  0.
         14    1    1    2    0    0  0.63093440061E-02  0.14525157609E-01  0.16908146267E-01  0.23166213233E-01  0.00000000000E+00 0.  1.
     999901    1    3    3    0    0  0.81995710048E-01  0.74110611664E-01 -0.53978835880E-01  0.88855466571E+00  0.88000000000E+00 0.  1.
        -11    1    4    4    0    0 -0.54946165143E-01 -0.40218875997E-01  0.18979697022E-01  0.70690374666E-01  0.51100000000E-03 0.  1.
         11    1    4    4    0    0 -0.33358888911E-01 -0.48416893276E-01  0.18090992591E-01  0.61518746393E-01  0.51100000000E-03 0. -1.
</event>
<event>
 8    1  0.1170483E+005  0.1043930E+01  0.7957747E-01            NaN
         13   -1    0    0    0    0  0.00000000000E+00  0.00000000000E+00  0.74505805969E-08  0.10566000000E+00  0.10566000000E+00 0.  1.
     999900   -1    0    0    0    0 -0.00000000000E+00 -0.00000000000E+00 -0.74505805969E-08  0.93827000000E+00  0.93827000000E+00 0.  1.
     999902    2    1    2    0    0  0.17712082844E-01  0.86082139014E-02  0.11516980844E-01  0.10211164060E+01  0.10208615256E+01 0.  0.
     999903    2    3    3    0    0 -0.71875387392E-01  0.58595493725E-02  0.10797809537E+00  0.13131967828E+00  0.19626084471E-01 0.  0.
         14    1    1    2    0    0 -0.17712082844E-01 -0.86082139014E-02 -0.11516980844E-01  0.22813594039E-01  0.00000000000E+00 0. -1.
     999901    1    3    3    0    0  0.89587470236E-01  0.27486645288E-02 -0.96461114526E-01  0.88979672768E+00  0.88000000000E+00 0.  1.
        -11    1    4    4    0    0 -0.60371272464E-01  0.65014645044E-02  0.75711931611E-01  0.97054197688E-01  0.51100000000E-03 0.  1.
         11    1    4    4    0    0 -0.11504114928E-01 -0.64191513190E-03  0.32266163759E-01  0.34265480589E-01  0.51100000000E-03 0. -1.
</event>
<event>
 8    1  0.1170483E+005  0.1043930E+01  0.7957747E-01            NaN
         13   -1    0    0    0    0  0.00000000000E+00  0.00000000000E+00  0.74505805969E-08  0.10566000000E+00  0.10566000000E+00 0.  1.
     999900   -1    0    0    0    0 -0.00000000000E+00 -0.00000000000E+00 -0.74505805969E-08  0.93827000000E+00  0.93827000000E+00 0. -1.
     999902    2    1    2    0    0 -0.81139922555E-02  0.12730774843E-02 -0.18946346307E-01  0.10232800209E+01  0.10230716395E+01 0.  0.
     999903    2    3    3    0    0 -0.95153494612E-01  0.38108355039E-01 -0.86450416917E-01  0.13564861535E+00  0.20504584892E-01 0.  0.
         14    1    1    2    0    0  0.81139922555E-02 -0.12730774843E-02  0.18946346307E-01  0.20649979055E-01  0.00000000000E+00 0.  1.
     999901    1    3    3    0    0  0.87039502357E-01 -0.36835277554E-01  0.67504070610E-01  0.88763140559E+00  0.88000000000E+00 0.  1.
        -11    1    4    4    0    0 -0.74100241417E-01  0.33328436450E-01 -0.57538228777E-01  0.99561736355E-01  0.51100000000E-03 0. -1.
         11    1    4    4    0    0 -0.21053253195E-01  0.47799185886E-02 -0.28912188140E-01  0.36086878998E-01  0.51100000000E-03 0.  1.
</event>
<event>
 8    1  0.1306344E+005  0.1043930E+01  0.7957747E-01            NaN
         13   -1    0    0    0    0  0.00000000000E+00  0.00000000000E+00  0.74505805969E-08  0.10566000000E+00  0.10566000000E+00 0. -1.
     999900   -1    0    0    0    0 -0.00000000000E+00 -0.00000000000E+00 -0.74505805969E-08  0.93827000000E+00  0.93827000000E+00 0. -1.
     999902    2    1    2    0    0  0.16161643590E-01 -0.49087720806E-02 -0.17299239330E-01  0.10197523564E+01  0.10194656983E+01 0.  0.
     999903    2    3    3    0    0  0.55240681932E-01 -0.11394685376E+00  0.21771160619E-01  0.13130259947E+00  0.27036471133E-01 0.  0.
         14    1    1    2    0    0 -0.16161643590E-01  0.49087720806E-02  0.17299239330E-01  0.24177643564E-01  0.00000000000E+00 0. -1.
     999901    1    3    3    0    0 -0.39079038341E-01  0.10903808168E+00 -0.39070399949E-01  0.88844975696E+00  0.88000000000E+00 0. -1.
        -11    1    4    4    0    0  0.39003832454E-01 -0.49684255865E-01  0.91218635585E-02  0.63822360836E-01  0.51100000000E-03 0.  1.
         11    1    4    4    0    0  0.16236849478E-01 -0.64262597898E-01  0.12649297060E-01  0.67480238638E-01  0.51100000000E-03 0. -1.
</event>
<event>
 8    1  0.1170483E+005  0.1043930E+01  0.7957747E-01            NaN
         13   -1    0    0    0    0  0.00000000000E+00  0.00000000000E+00  0.74505805969E-08  0.10566000000E+00  0.10566000000E+00 0.  1.
     999900   -1    0    0    0    0 -0.00000000000E+00 -0.00000000000E+00 -0.74505805969E-08  0.93827000000E+00  0.93827000000E+00 0. -1.
     999902    2    1    2    0    0  0.32850089725E-03 -0.22627674854E-01 -0.59138089744E-02  0.10205399868E+01  0.10202719108E+01 0.  0.
     999903    2    3    3    0    0 -0.12313380193E+00  0.27392001108E-01  0.25922288564E-01  0.12994555309E+00  0.17367406887E-01 0.  0.
         14    1    1    2    0    0 -0.32850089725E-03  0.22627674854E-01  0.59138089744E-02  0.23390013226E-01  0.00000000000E+00 0.  1.
     999901    1    3    3    0    0  0.12346230282E+00 -0.50019675961E-01 -0.31836097538E-01  0.89059443368E+00  0.88000000000E+00 0. -1.
        -11    1    4    4    0    0 -0.72756178338E-01  0.74055608151E-02  0.14867733391E-01  0.74629849488E-01  0.51100000000E-03 0.  1.
         11    1    4    4    0    0 -0.50377623589E-01  0.19986440293E-01  0.11054555173E-01  0.55315703603E-01  0.51100000000E-03 0. -1.
</event>
<event>
 8    1  0.1170483E+005  0.1043930E+01  0.7957747E-01            NaN
         13   -1    0    0    0    0  0.00000000000E+00  0.00000000000E+00  0.74505805969E-08  0.10566000000E+00  0.10566000000E+00 0. -1.
     999900   -1    0    0    0    0 -0.00000000000E+00 -0.00000000000E+00 -0.74505805969E-08  0.93827000000E+00  0.93827000000E+00 0.  1.
     999902    2    1    2    0    0 -0.71000535595E-02 -0.23162047683E-01 -0.14334623225E-02  0.10196617898E+01  0.10193729541E+01 0.  0.
     999903    2    3    3    0    0 -0.11018806274E+00  0.63493222125E-01 -0.11795111957E-01  0.12935642800E+00  0.20522240883E-01 0.  0.
         14    1    1    2    0    0  0.71000535595E-02  0.23162047683E-01  0.14334623225E-02  0.24268210227E-01  0.00000000000E+00 0.  1.
     999901    1    3    3    0    0  0.10308800919E+00 -0.86655269808E-01  0.10361649634E-01  0.89030536178E+00  0.88000000000E+00 0. -1.
        -11    1    4    4    0    0 -0.35334737640E-01  0.29428052455E-01 -0.10171602588E-01  0.47098583583E-01  0.51100000000E-03 0.  1.
         11    1    4    4    0    0 -0.74853325105E-01  0.34065169671E-01 -0.16235093687E-02  0.82257844414E-01  0.51100000000E-03 0. -1.
</event>
<event>
 8    1  0.1170483E+005  0.1043930E+01  0.7957747E-01            NaN
         13   -1    0    0    0    0  0.00000000000E+00  0.00000000000E+00  0.74505805969E-08  0.10566000000E+00  0.10566000000E+00 0. -1.
     999900   -1    0    0    0    0 -0.00000000000E+00 -0.00000000000E+00 -0.74505805969E-08  0.93827000000E+00  0.93827000000E+00 0. -1.
     999902    2    1    2    0    0 -0.57342237990E-03  0.60031818362E-02  0.23548482144E-01  0.10196216060E+01  0.10193318015E+01 0.  0.
     999903    2    3    3    0    0 -0.95585876441E-01 -0.31924036520E-01 -0.76234060125E-01  0.12809348194E+00  0.20988194558E-01 0.  0.
         14    1    1    2    0    0  0.57342237990E-03 -0.60031818362E-02 -0.23548482144E-01  0.24308393955E-01  0.00000000000E+00 0.  1.
     999901    1    3    3    0    0  0.95012454061E-01  0.37927218356E-01  0.99782542270E-01  0.89152812410E+00  0.88000000000E+00 0.  1.
        -11    1    4    4    0    0 -0.63999631832E-01 -0.13993692178E-01 -0.39853216625E-01  0.76683220406E-01  0.51100000000E-03 0. -1.
         11    1    4    4    0    0 -0.31586244609E-01 -0.17930344342E-01 -0.36380843500E-01  0.51410261539E-01  0.51100000000E-03 0.  1.
</event>
<event>
 8    1  0.1170483E+005  0.1043930E+01  0.7957747E-01            NaN
         13   -1    0    0    0    0  0.00000000000E+00  0.00000000000E+00  0.74505805969E-08  0.10566000000E+00  0.10566000000E+00 0. -1.
     999900   -1    0    0    0    0 -0.00000000000E+00 -0.00000000000E+00 -0.74505805969E-08  0.93827000000E+00  0.93827000000E+00 0.  1.
     999902    2    1    2    0    0  0.19841175518E-01 -0.87352175032E-02 -0.57016716114E-02  0.10215138154E+01  0.10212678345E+01 0.  0.
     999903    2    3    3    0    0  0.54658724669E-02 -0.12441864182E+00  0.41262282064E-01  0.13258473113E+00  0.19137941744E-01 0.  0.
         14    1    1    2    0    0 -0.19841175518E-01  0.87352175032E-02  0.57016716114E-02  0.22416184553E-01  0.00000000000E+00 0.  1.
     999901    1    3    3    0    0  0.14375303051E-01  0.11568342431E+00 -0.46963953675E-01  0.88892908432E+00  0.88000000000E+00 0.  1.
        -11    1    4    4    0    0  0.89906625698E-02 -0.56320328441E-01  0.11510616172E-01  0.58185623781E-01  0.51100000000E-03 0. -1.
         11    1    4    4    0    0 -0.35247901029E-02 -0.68098313377E-01  0.29751665892E-01  0.74399107349E-01  0.51100000000E-03 0.  1.
</event>
<event>
 8    1  0.1170483E+005  0.1043930E+01  0.7957747E-01            NaN
         13   -1    0    0    0    0  0.00000000000E+00  0.00000000000E+00  0.74505805969E-08  0.10566000000E+00  0.10566000000E+00 0. -1.
     999900   -1    0    0    0    0 -0.00000000000E+00 -0.00000000000E+00 -0.74505805969E-08  0.93827000000E+00  0.93827000000E+00 0. -1.
     999902    2    1    2    0    0  0.22851651802E-01  0.64093769721E-02  0.44358775390E-03  0.10201923743E+01  0.10199161758E+01 0.  0.
     999903    2    3    3    0    0 -0.11127433686E+00 -0.48042740952E-01 -0.34889508418E-01  0.12766604884E+00  0.19780273640E-01 0.  0.
         14    1    1    2    0    0 -0.22851651802E-01 -0.64093769721E-02 -0.44358775390E-03  0.23737625689E-01  0.00000000000E+00 0.  1.
     999901    1    3    3    0    0  0.13412598866E+00  0.54452117924E-01  0.35333096171E-01  0.89252632548E+00  0.88000000000E+00 0. -1.
        -11    1    4    4    0    0 -0.41938910113E-01 -0.82251861437E-02 -0.96084017843E-02  0.43807629180E-01  0.51100000000E-03 0. -1.
         11    1    4    4    0    0 -0.69335426750E-01 -0.39817554808E-01 -0.25281106633E-01  0.83858419655E-01  0.51100000000E-03 0.  1.
</event>
<event>
 8    1  0.1170483E+005  0.1043930E+01  0.7957747E-01            NaN
         13   -1    0    0    0    0  0.00000000000E+00  0.00000000000E+00  0.74505805969E-08  0.10566000000E+00  0.10566000000E+00 0.  1.
     999900   -1    0    0    0    0 -0.00000000000E+00 -0.00000000000E+00 -0.74505805969E-08  0.93827000000E+00  0.93827000000E+00 0.  1.
     999902    2    1    2    0    0 -0.10813659488E-01  0.22288213247E-01 -0.19664128212E-02  0.10190791155E+01  0.10187760682E+01 0.  0.
     999903    2    3    3    0    0 -0.90096511876E-02  0.64129958666E-01 -0.11230745203E+00  0.13120010851E+00  0.20166290669E-01 0.  0.
         14    1    1    2    0    0  0.10813659488E-01 -0.22288213247E-01  0.19664128212E-02  0.24850884504E-01  0.00000000000E+00 0. -1.
     999901    1    3    3    0    0 -0.18040083004E-02 -0.41841745419E-01  0.11034103921E+00  0.88787900698E+00  0.88000000000E+00 0. -1.
        -11    1    4    4    0    0 -0.40816363274E-02  0.53194317642E-01 -0.75238641111E-01  0.92235619051E-01  0.51100000000E-03 0. -1.
         11    1    4    4    0    0 -0.49280148602E-02  0.10935641023E-01 -0.37068810920E-01  0.38964489462E-01  0.51100000000E-03 0.  1.
</event>
<event>
 8    1  0.1170483E+005  0.1043930E+01  0.7957747E-01            NaN
         13   -1    0    0    0    0  0.00000000000E+00  0.00000000000E+00  0.74505805969E-08  0.10566000000E+00  0.10566000000E+00 0. -1.
     999900   -1    0    0    0    0 -0.00000000000E+00 -0.00000000000E+00 -0.74505805969E-08  0.93827000000E+00  0.93827000000E+00 0. -1.
     999902    2    1    2    0    0 -0.19066099132E-01 -0.12801679569E-01 -0.47477629658E-02  0.10204791921E+01  0.10202097045E+01 0.  0.
     999903    2    3    3    0    0 -0.19925043584E-01 -0.98836366348E-01  0.82924141276E-01  0.13194721866E+00  0.19183863799E-01 0.  0.
         14    1    1    2    0    0  0.19066099132E-01  0.12801679569E-01  0.47477629658E-02  0.23450807856E-01  0.00000000000E+00 0.  1.
     999901    1    3    3    0    0  0.85894445145E-03  0.86034686779E-01 -0.87671904242E-01  0.88853197349E+00  0.88000000000E+00 0. -1.
        -11    1    4    4    0    0 -0.51405975483E-02 -0.57993150342E-01  0.38418035179E-01  0.69755557325E-01  0.51100000000E-03 0.  1.
         11    1    4    4    0    0 -0.14784446036E-01 -0.40843216006E-01  0.44506106097E-01  0.62191661332E-01  0.51100000000E-03 0. -1.
</event>
<event>
 8    1  0.1170483E+005  0.1043930E+01  0.7957747E-01            NaN
         13   -1    0    0    0    0  0.00000000000E+00  0.00000000000E+00  0.74505805969E-08  0.10566000000E+00  0.10566000000E+00 0.  1.
     999900   -1    0    0    0    0 -0.00000000000E+00 -0.00000000000E+00 -0.74505805969E-08  0.93827000000E+00  0.93827000000E+00 0.  1.
     999902    2    1    2    0    0  0.20920351926E-01 -0.93260234607E-02  0.49832906160E-02  0.10204892444E+01  0.10202199904E+01 0.  0.
     999903    2    3    3    0    0  0.67736127346E-02 -0.95789927236E-01  0.87740760402E-01  0.13227477947E+00  0.24012168965E-01 0.  0.
         14    1    1    2    0    0 -0.20920351926E-01  0.93260234607E-02 -0.49832906160E-02  0.23440755612E-01  0.00000000000E+00 0. -1.
     999901    1    3    3    0    0  0.14146739191E-01  0.86463903775E-01 -0.82757469786E-01  0.88821446492E+00  0.88000000000E+00 0. -1.
        -11    1    4    4    0    0  0.11041309633E-01 -0.49266809228E-01  0.57964073300E-01  0.76871476663E-01  0.51100000000E-03 0. -1.
         11    1    4    4    0    0 -0.42676968985E-02 -0.46523118009E-01  0.29776687102E-01  0.55403302806E-01  0.51100000000E-03 0.  1.
</event>
<event>
 8    1  0.1170483E+005  0.1043930E+01  0.7957747E-01            NaN
         13   -1    0    0    0    0  0.00000000000E+00  0.00000000000E+00  0.74505805969E-08  0.10566000000E+00  0.10566000000E+00 0.  1.
     999900   -1    0    0    0    0 -0.00000000000E+00 -0.00000000000E+00 -0.74505805969E-08  0.93827000000E+00  0.93827000000E+00 0. -1.
     999902    2    1    2    0    0 -0.27316154661E-02  0.24552416408E-01  0.45933948751E-03  0.10192218259E+01  0.10189222917E+01 0.  0.
     999903    2    3    3    0    0  0.62532846779E-01  0.11257595861E+00 -0.22601978473E-01  0.13212576662E+00  0.19043775596E-01 0.  0.
         14    1    1    2    0    0  0.27316154661E-02 -0.24552416408E-01 -0.45933948751E-03  0.24708174098E-01  0.00000000000E+00 0.  1.
     999901    1    3    3    0    0 -0.65264462245E-01 -0.88023542205E-01  0.23061317961E-01  0.88709605929E+00  0.88000000000E+00 0. -1.
        -11    1    4    4    0    0  0.30276700212E-01  0.57096989463E-01 -0.20905423406E-01  0.67926744587E-01  0.51100000000E-03 0. -1.
         11    1    4    4    0    0  0.32256146568E-01  0.55478969150E-01 -0.16965550676E-02  0.64199022028E-01  0.51100000000E-03 0.  1.
</event>
<event>
 8    1  0.1170483E+005  0.1043930E+01  0.7957747E-01            NaN
         13   -1    0    0    0    0  0.00000000000E+00  0.00000000000E+00  0.74505805969E-08  0.10566000000E+00  0.10566000000E+00 0.  1.
     999900   -1    0    0    0    0 -0.00000000000E+00 -0.00000000000E+00 -0.74505805969E-08  0.93827000000E+00  0.93827000000E+00 0. -1.
     999902    2    1    2    0    0  0.23347903333E-01 -0.95758801237E-02 -0.48431104319E-02  0.10182341290E+01  0.10179098504E+01 0.  0.
     999903    2    3    3    0    0 -0.21796189926E-01  0.12226073729E+00 -0.19503407435E-01  0.12714838271E+00  0.19067421105E-01 0.  0.
         14    1    1    2    0    0 -0.23347903333E-01  0.95758801237E-02  0.48431104319E-02  0.25695871046E-01  0.00000000000E+00 0. -1.
     999901    1    3    3    0    0  0.45144093258E-01 -0.13183661741E+00  0.14660297003E-01  0.89108574624E+00  0.88000000000E+00 0. -1.
        -11    1    4    4    0    0 -0.95013170826E-03  0.20023953098E-01 -0.99059346049E-02  0.22366271691E-01  0.51100000000E-03 0.  1.
         11    1    4    4    0    0 -0.20846058217E-01  0.10223678419E+00 -0.95974728300E-02  0.10478211102E+00  0.51100000000E-03 0. -1.
</event>
<event>
 8    1  0.1170483E+005  0.1043930E+01  0.7957747E-01            NaN
         13   -1    0    0    0    0  0.00000000000E+00  0.00000000000E+00  0.74505805969E-08  0.10566000000E+00  0.10566000000E+00 0.  1.
     999900   -1    0    0    0    0 -0.00000000000E+00 -0.00000000000E+00 -0.74505805969E-08  0.93827000000E+00  0.93827000000E+00 0.  1.
     999902    2    1    2    0    0 -0.63715660651E-02  0.19343224570E-01  0.11729215817E-01  0.10204282619E+01  0.10201575888E+01 0.  0.
     999903    2    3    3    0    0 -0.10536024136E+00 -0.69630871111E-01 -0.70737794714E-02  0.13022115105E+00  0.30955955074E-01 0.  0.
         14    1    1    2    0    0  0.63715660651E-02 -0.19343224570E-01 -0.11729215817E-01  0.23501738118E-01  0.00000000000E+00 0. -1.
     999901    1    3    3    0    0  0.98988675295E-01  0.88974095680E-01  0.18802995289E-01  0.89020711083E+00  0.88000000000E+00 0. -1.
        -11    1    4    4    0    0 -0.32729673803E-01 -0.39726969967E-01 -0.34093118496E-02  0.51588256593E-01  0.51100000000E-03 0. -1.
         11    1    4    4    0    0 -0.72630567557E-01 -0.29903901144E-01 -0.36644676219E-02  0.78632894460E-01  0.51100000000E-03 0.  1.
</event>
<event>
 8    1  0.1170483E+005  0.1043930E+01  0.7957747E-01            NaN
         13   -1    0    0    0    0  0.00000000000E+00  0.00000000000E+00  0.74505805969E-08  0.10566000000E+00  0.10566000000E+00 0. -1.
     999900   -1    0    0    0    0 -0.00000000000E+00 -0.00000000000E+00 -0.74505805969E-08  0.93827000000E+00  0.93827000000E+00 0.  1.
     999902    2    1    2    0    0  0.32805864862E-02  0.22750268833E-01 -0.60597278784E-02  0.10201590665E+01  0.10198820832E+01 0.  0.
     999903    2    3    3    0    0 -0.44890549530E-02  0.88761045108E-01  0.95449326020E-01  0.13183374433E+00  0.19258441320E-01 0.  0.
         14    1    1    2    0    0 -0.32805864862E-02 -0.22750268833E-01  0.60597278784E-02  0.23770933546E-01  0.00000000000E+00 0.  1.
     999901    1    3    3    0    0  0.77696414393E-02 -0.66010776275E-01 -0.10150905390E+00  0.88832532213E+00  0.88000000000E+00 0.  1.
        -11    1    4    4    0    0 -0.49494829103E-02  0.71466031215E-01  0.64617883601E-01  0.96476022932E-01  0.51100000000E-03 0. -1.
         11    1    4    4    0    0  0.46042795724E-03  0.17295013892E-01  0.30831442419E-01  0.35357721393E-01  0.51100000000E-03 0.  1.
</event>
<event>
 8    1  0.1170483E+005  0.1043930E+01  0.7957747E-01            NaN
         13   -1    0    0    0    0  0.00000000000E+00  0.00000000000E+00  0.74505805969E-08  0.10566000000E+00  0.10566000000E+00 0. -1.
     999900   -1    0    0    0    0 -0.00000000000E+00 -0.00000000000E+00 -0.74505805969E-08  0.93827000000E+00  0.93827000000E+00 0. -1.
     999902    2    1    2    0    0  0.94060724244E-02 -0.21439965913E-01  0.42293015478E-02  0.10201385451E+01  0.10198610777E+01 0.  0.
     999903    2    3    3    0    0 -0.61371694031E-02 -0.12720760681E+00 -0.32370089320E-01  0.13291371355E+00  0.19969789380E-01 0.  0.
         14    1    1    2    0    0 -0.94060724244E-02  0.21439965913E-01 -0.42293015478E-02  0.23791454945E-01  0.00000000000E+00 0. -1.
     999901    1    3    3    0    0  0.15543241828E-01  0.10576764090E+00  0.36599390868E-01  0.88722483151E+00  0.88000000000E+00 0. -1.
        -11    1    4    4    0    0  0.26222388912E-02 -0.69215072338E-01 -0.93044197802E-02  0.69888738177E-01  0.51100000000E-03 0.  1.
         11    1    4    4    0    0 -0.87594082943E-02 -0.57992534474E-01 -0.23065669540E-01  0.63024975373E-01  0.51100000000E-03 0. -1.
</event>
<event>
 8    1  0.1170483E+005  0.1043930E+01  0.7957747E-01            NaN
         13   -1    0    0    0    0  0.00000000000E+00  0.00000000000E+00  0.74505805969E-08  0.10566000000E+00  0.10566000000E+00 0. -1.
     999900   -1    0    0    0    0 -0.00000000000E+00 -0.00000000000E+00 -0.74505805969E-08  0.93827000000E+00  0.93827000000E+00 0.  1.
     999902    2    1    2    0    0 -0.21634402607E-01  0.36840889259E-02  0.96005542382E-02  0.10199760749E+01  0.10196947596E+01 0.  0.
     999903    2    3    3    0    0  0.33595743770E-01 -0.17752276907E-01  0.12355346646E+00  0.13065321277E+00  0.18999621021E-01 0.  0.
         14    1    1    2    0    0  0.21634402607E-01 -0.36840889259E-02 -0.96005542382E-02  0.23953925129E-01  0.00000000000E+00 0. -1.
     999901    1    3    3    0    0 -0.55230146377E-01  0.21436365833E-01 -0.11395291222E+00  0.88932286210E+00  0.88000000000E+00 0.  1.
        -11    1    4    4    0    0  0.15920524091E-01 -0.81842436910E-03  0.30327177206E-01  0.34265605263E-01  0.51100000000E-03 0. -1.
         11    1    4    4    0    0  0.17675219679E-01 -0.16933852538E-01  0.93226289253E-01  0.96387607509E-01  0.51100000000E-03 0.  1.
</event>
<event>
 8    1  0.1170483E+005  0.1043930E+01  0.7957747E-01            NaN
         13   -1    0    0    0    0  0.00000000000E+00  0.00000000000E+00  0.74505805969E-08  0.10566000000E+00  0.10566000000E+00 0.  1.
     999900   -1    0    0    0    0 -0.00000000000E+00 -0.00000000000E+00 -0.74505805969E-08  0.93827000000E+00  0.93827000000E+00 0. -1.
     999902    2    1    2    0    0  0.17295296499E-01 -0.12441985864E-01  0.88484351690E-02  0.10208599957E+01  0.10205992875E+01 0.  0.
     999903    2    3    3    0    0  0.74028657955E-01 -0.20764452954E-01  0.10745604099E+00  0.13349795139E+00  0.19065612361E-01 0.  0.
         14    1    1    2    0    0 -0.17295296499E-01  0.12441985864E-01 -0.88484351690E-02  0.23070004295E-01  0.00000000000E+00 0. -1.
     999901    1    3    3    0    0 -0.56733361456E-01  0.83224670900E-02 -0.98607605825E-01  0.88736204431E+00  0.88000000000E+00 0. -1.
        -11    1    4    4    0    0  0.53830308352E-01 -0.15868985235E-01  0.62699884689E-01  0.84149054960E-01  0.51100000000E-03 0.  1.
         11    1    4    4    0    0  0.20198349603E-01 -0.48954677184E-02  0.44756156305E-01  0.49348896432E-01  0.51100000000E-03 0. -1.
</event>
<event>
 8    1  0.1170483E+005  0.1043930E+01  0.7957747E-01            NaN
         13   -1    0    0    0    0  0.00000000000E+00  0.00000000000E+00  0.74505805969E-08  0.10566000000E+00  0.10566000000E+00 0. -1.
     999900   -1    0    0    0    0 -0.00000000000E+00 -0.00000000000E+00 -0.74505805969E-08  0.93827000000E+00  0.93827000000E+00 0. -1.
     999902    2    1    2    0    0 -0.66282283681E-02  0.22181907333E-01 -0.12513456892E-01  0.10176135217E+01  0.10172731799E+01 0.  0.
     999903    2    3    3    0    0 -0.11404845124E+00  0.19502269657E-01 -0.52668000378E-01  0.13016849691E+00  0.27973765794E-01 0.  0.
         14    1    1    2    0    0  0.66282283681E-02 -0.22181907333E-01  0.12513456892E-01  0.26316478253E-01  0.00000000000E+00 0.  1.
     999901    1    3    3    0    0  0.10742022287E+00  0.26796376764E-02  0.40154543485E-01  0.88744502483E+00  0.88000000000E+00 0. -1.
        -11    1    4    4    0    0 -0.36521828039E-01 -0.66529219429E-02 -0.14111598869E-01  0.39717800006E-01  0.51100000000E-03 0. -1.
         11    1    4    4    0    0 -0.77526623201E-01  0.26155191600E-01 -0.38556401509E-01  0.90450696907E-01  0.51100000000E-03 0.  1.
</event>
<event>
 8    1  0.1170483E+005  0.1043930E+01  0.7957747E-01            NaN
         13   -1    0    0    0    0  0.00000000000E+00  0.00000000000E+00  0.74505805969E-08  0.10566000000E+00  0.10566000000E+00 0.  1.
     999900   -1    0    0    0    0 -0.00000000000E+00 -0.00000000000E+00 -0.74505805969E-08  0.93827000000E+00  0.93827000000E+00 0. -1.
     999902    2    1    2    0    0 -0.15126386846E-01 -0.15489458596E-01  0.92978527211E-02  0.10203677214E+01  0.10200956357E+01 0.  0.
     999903    2    3    3    0    0 -0.11154403715E+00 -0.65398632351E-01  0.26874136171E-01  0.13352150327E+00  0.19665179944E-01 0.  0.
         14    1    1    2    0    0  0.15126386846E-01  0.15489458596E-01 -0.92978527211E-02  0.23562278579E-01  0.00000000000E+00 0. -1.
     999901    1    3    3    0    0  0.96417650305E-01  0.49909173756E-01 -0.17576283450E-01  0.88684621815E+00  0.88000000000E+00 0.  1.
        -11    1    4    4    0    0 -0.35653925366E-01 -0.12670274748E-01  0.13340721105E-01  0.40124484007E-01  0.51100000000E-03 0.  1.
         11    1    4    4    0    0 -0.75890111785E-01 -0.52728357603E-01  0.13533415066E-01  0.93397019260E-01  0.51100000000E-03 0. -1.
</event>
<event>
 8    1  0.1170483E+005  0.1043930E+01  0.7957747E-01            NaN
         13   -1    0    0    0    0  0.00000000000E+00  0.00000000000E+00  0.74505805969E-08  0.10566000000E+00  0.10566000000E+00 0. -1.
     999900   -1    0    0    0    0 -0.00000000000E+00 -0.00000000000E+00 -0.74505805969E-08  0.93827000000E+00  0.93827000000E+00 0. -1.
     999902    2    1    2    0    0  0.21211101338E-01  0.60492353975E-03 -0.95544030041E-02  0.10206584859E+01  0.10203931504E+01 0.  0.
     999903    2    3    3    0    0 -0.10865110079E+00  0.60357031111E-01 -0.27750797594E-01  0.12893789362E+00  0.20170293373E-01 0.  0.
         14    1    1    2    0    0 -0.21211101338E-01 -0.60492353975E-03  0.95544030041E-02  0.23271514115E-01  0.00000000000E+00 0. -1.
     999901    1    3    3    0    0  0.12986220213E+00 -0.59752107572E-01  0.18196394590E-01  0.89172059227E+00  0.88000000000E+00 0. -1.
        -11    1    4    4    0    0 -0.45366174637E-01  0.19547364175E-01 -0.23182595601E-02  0.49455279757E-01  0.51100000000E-03 0.  1.
         11    1    4    4    0    0 -0.63284926155E-01  0.40809666936E-01 -0.25432538034E-01  0.79482613859E-01  0.51100000000E-03 0. -1.
</event>
<event>
 8    1  0.1170483E+005  0.1043930E+01  0.7957747E-01            NaN
         13   -1    0    0    0    0  0.00000000000E+00  0.00000000000E+00  0.74505805969E-08  0.10566000000E+00  0.10566000000E+00 0.  1.
     999900   -1    0    0    0    0 -0.00000000000E+00 -0.00000000000E+00 -0.74505805969E-08  0.93827000000E+00  0.93827000000E+00 0.  1.
     999902    2    1    2    0    0  0.14328123004E-01  0.67930457556E-02  0.17288542682E-01  0.10204707952E+01  0.10202011124E+01 0.  0.
     999903    2    3    3    0    0 -0.18750547710E-01 -0.12647481955E+00 -0.10400298269E-02  0.12963385229E+00  0.21363309114E-01 0.  0.
         14    1    1    2    0    0 -0.14328123004E-01 -0.67930457556E-02 -0.17288542682E-01  0.23459204750E-01  0.00000000000E+00 0. -1.
     999901    1    3    3    0    0  0.33078670713E-01  0.13326786531E+00  0.18328572509E-01  0.89083694296E+00  0.88000000000E+00 0. -1.
        -11    1    4    4    0    0  0.20389074754E-02 -0.57404712339E-01 -0.23143678116E-02  0.57489786586E-01  0.51100000000E-03 0. -1.
         11    1    4    4    0    0 -0.20789455185E-01 -0.69070107213E-01  0.12743379847E-02  0.72144065699E-01  0.51100000000E-03 0.  1.
</event>
<event>
 8    1  0.1170483E+005  0.1043930E+01  0.7957747E-01            NaN
         13   -1    0    0    0    0  0.00000000000E+00  0.00000000000E+00  0.74505805969E-08  0.10566000000E+00  0.10566000000E+00 0. -1.
     999900   -1    0    0    0    0 -0.00000000000E+00 -0.00000000000E+00 -0.74505805969E-08  0.93827000000E+00  0.93827000000E+00 0.  1.
     999902    2    1    2    0    0  0.15570840869E-01 -0.17783654141E-01 -0.27708442633E-02  0.10201311131E+01  0.10198534703E+01 0.  0.
     999903    2    3    3    0    0  0.15516155897E-01 -0.56718238799E-01  0.11558293057E+00  0.13135469527E+00  0.20902928565E-01 0.  0.
         14    1    1    2    0    0 -0.15570840869E-01  0.17783654141E-01  0.27708442633E-02  0.23798886905E-01  0.00000000000E+00 0. -1.
     999901    1    3    3    0    0  0.54684971680E-04  0.38934584658E-01 -0.11835377483E+00  0.88877641783E+00  0.88000000000E+00 0.  1.
        -11    1    4    4    0    0  0.38984193815E-02 -0.30989369667E-01  0.80320995780E-01  0.86181565257E-01  0.51100000000E-03 0.  1.
         11    1    4    4    0    0  0.11617736516E-01 -0.25728869132E-01  0.35261934791E-01  0.45173130008E-01  0.51100000000E-03 0. -1.
</event>
<event>
 8    1  0.1170483E+005  0.1043930E+01  0.7957747E-01            NaN
         13   -1    0    0    0    0  0.00000000000E+00  0.00000000000E+00  0.74505805969E-08  0.10566000000E+00  0.10566000000E+00 0. -1.
     999900   -1    0    0    0    0 -0.00000000000E+00 -0.00000000000E+00 -0.74505805969E-08  0.93827000000E+00  0.93827000000E+00 0.  1.
     999902    2    1    2    0    0  0.89435443096E-02 -0.74881438190E-02 -0.20040567696E-01  0.10207419937E+01  0.10204785809E+01 0.  0.
     999903    2    3    3    0    0  0.82132421879E-01 -0.10126467892E+00 -0.15452503191E-01  0.13272639661E+00  0.19422836589E-01 0.  0.
         14    1    1    2    0    0 -0.89435443096E-02  0.74881438190E-02  0.20040567696E-01  0.23188006302E-01  0.00000000000E+00 0. -1.
     999901    1    3    3    0    0 -0.73188877570E-01  0.93776535104E-01 -0.45880645046E-02  0.88801559709E+00  0.88000000000E+00 0. -1.
        -11    1    4    4    0    0  0.37617705332E-01 -0.32072198931E-01 -0.31696353792E-02  0.49538120757E-01  0.51100000000E-03 0.  1.
         11    1    4    4    0    0  0.44514716547E-01 -0.69192479992E-01 -0.12282867812E-01  0.83188275853E-01  0.51100000000E-03 0. -1.
</event>
<event>
 8    1  0.1170483E+005  0.1043930E+01  0.7957747E-01            NaN
         13   -1    0    0    0    0  0.00000000000E+00  0.00000000000E+00  0.74505805969E-08  0.10566000000E+00  0.10566000000E+00 0. -1.
     999900   -1    0    0    0    0 -0.00000000000E+00 -0.00000000000E+00 -0.74505805969E-08  0.93827000000E+00  0.93827000000E+00 0.  1.
     999902    2    1    2    0    0 -0.62118799679E-02 -0.23140654790E-01  0.65330257308E-03  0.10199611836E+01  0.10196795143E+01 0.  0.
     999903    2    3    3    0    0  0.11289433742E-01 -0.10024459169E+00  0.83661172272E-01  0.13252576648E+00  0.19683941631E-01 0.  0.
         14    1    1    2    0    0  0.62118799679E-02  0.23140654790E-01 -0.65330257308E-03  0.23968816431E-01  0.00000000000E+00 0.  1.
     999901    1    3    3    0    0 -0.17501313710E-01  0.77103936903E-01 -0.83007869699E-01  0.88743541709E+00  0.88000000000E+00 0.  1.
        -11    1    4    4    0    0  0.96937408604E-02 -0.48201354131E-01  0.52096085911E-01  0.71635203917E-01  0.51100000000E-03 0.  1.
         11    1    4    4    0    0  0.15956928819E-02 -0.52043237561E-01  0.31565086360E-01  0.60890562566E-01  0.51100000000E-03 0. -1.
</event>
<event>
 8    1  0.1302704E+005  0.1043930E+01  0.7957747E-01            NaN
         13   -1    0    0    0    0  0.00000000000E+00  0.00000000000E+00  0.74505805969E-08  0.10566000000E+00  0.10566000000E+00 0. -1.
     999900   -1    0    0    0    0 -0.00000000000E+00 -0.00000000000E+00 -0.74505805969E-08  0.93827000000E+00  0.93827000000E+00 0.  1.
     999902    2    1    2    0    0 -0.10343292835E-01 -0.70077841540E-02 -0.19605252120E-01  0.10206822333E+01  0.10204174453E+01 0.  0.
     999903    2    3    3    0    0 -0.85598497361E-02 -0.12744623556E+00  0.26441884411E-01  0.13128415594E+00  0.14850668765E-01 0.  0.
         14    1    1    2    0    0  0.10343292835E-01  0.70077841540E-02  0.19605252120E-01  0.23247766691E-01  0.00000000000E+00 0. -1.
     999901    1    3    3    0    0 -0.17834430990E-02  0.12043845141E+00 -0.46047136531E-01  0.88939807737E+00  0.88000000000E+00 0.  1.
        -11    1    4    4    0    0 -0.57410620367E-02 -0.59944502866E-01  0.19816351558E-01  0.63397571935E-01  0.51100000000E-03 0.  1.
         11    1    4    4    0    0 -0.28187876995E-02 -0.67501732697E-01  0.66255328529E-02  0.67886584004E-01  0.51100000000E-03 0. -1.
</event>
<event>
 8    1  0.1170483E+005  0.1043930E+01  0.7957747E-01            NaN
         13   -1    0    0    0    0  0.00000000000E+00  0.00000000000E+00  0.74505805969E-08  0.10566000000E+00  0.10566000000E+00 0. -1.
     999900   -1    0    0    0    0 -0.00000000000E+00 -0.00000000000E+00 -0.74505805969E-08  0.93827000000E+00  0.93827000000E+00 0.  1.
     999902    2    1    2    0    0 -0.94429485754E-04 -0.22873170769E-01 -0.92871931551E-02  0.10192431044E+01  0.10189440922E+01 0.  0.
     999903    2    3    3    0    0  0.67201823640E-01 -0.95692613226E-01  0.56241818490E-01  0.13125351648E+00  0.19778324337E-01 0.  0.
         14    1    1    2    0    0  0.94429485754E-04  0.22873170769E-01  0.92871931551E-02  0.24686895606E-01  0.00000000000E+00 0. -1.
     999901    1    3    3    0    0 -0.67296253125E-01  0.72819442457E-01 -0.65529011645E-01  0.88798958792E+00  0.88000000000E+00 0.  1.
        -11    1    4    4    0    0  0.57875653540E-01 -0.74101122529E-01  0.37709722573E-01  0.10130573493E+00  0.51100000000E-03 0.  1.
         11    1    4    4    0    0  0.93261700997E-02 -0.21591490697E-01  0.18532095917E-01  0.29947781543E-01  0.51100000000E-03 0. -1.
</event>
<event>
 8    1  0.1170483E+005  0.1043930E+01  0.7957747E-01            NaN
         13   -1    0    0    0    0  0.00000000000E+00  0.00000000000E+00  0.74505805969E-08  0.10566000000E+00  0.10566000000E+00 0. -1.
     999900   -1    0    0    0    0 -0.00000000000E+00 -0.00000000000E+00 -0.74505805969E-08  0.93827000000E+00  0.93827000000E+00 0.  1.
     999902    2    1    2    0    0 -0.92339935791E-03  0.22663318241E-01 -0.86785769581E-02  0.10196442767E+01  0.10193550189E+01 0.  0.
     999903    2    3    3    0    0 -0.48812094493E-02  0.16928512044E-02  0.12707511601E+00  0.12897908148E+00  0.21466867528E-01 0.  0.
         14    1    1    2    0    0  0.92339935791E-03 -0.22663318241E-01  0.86785769581E-02  0.24285723338E-01  0.00000000000E+00 0. -1.
     999901    1    3    3    0    0  0.39578100914E-02  0.20970467036E-01 -0.13575369296E+00  0.89066519518E+00  0.88000000000E+00 0.  1.
        -11    1    4    4    0    0  0.79932932789E-02  0.37629393987E-02  0.43471467376E-01  0.44363070759E-01  0.51100000000E-03 0.  1.
         11    1    4    4    0    0 -0.12874502728E-01 -0.20700881943E-02  0.83603648630E-01  0.84616010724E-01  0.51100000000E-03 0. -1.
</event>
<event>
 7    1  0.1170483E+005  0.1043930E+01  0.7957747E-01            NaN
         13   -1    0    0    0    0  0.00000000000E+00  0.00000000000E+00  0.74505805969E-08  0.10566000000E+00  0.10566000000E+00 0.  1.
     999900   -1    0    0    0    0 -0.00000000000E+00 -0.00000000000E+00 -0.74505805969E-08  0.93827000000E+00  0.93827000000E+00 0.  1.
     999903    2    1    2    0    0  0.89263076303E-02  0.43243521751E-01 -0.10660083235E+00  0.11719516878E+00  0.20525325487E-01 0.  0.
         14    1    1    2    0    0  0.37168257041E-02  0.22180870078E-02  0.42958037607E-01  0.43175545143E-01  0.00000000000E+00 0.  1.
     999901    1    1    2    0    0 -0.12643133334E-01 -0.45461608759E-01  0.63642794742E-01  0.88355928608E+00  0.88000000000E+00 0. -1.
        -11    1    3    3    0    0  0.13187259874E-01  0.19684806569E-01 -0.65121309111E-01  0.69299649739E-01  0.51100000000E-03 0.  1.
         11    1    3    3    0    0 -0.42609522439E-02  0.23558715182E-01 -0.41479523238E-01  0.47895519040E-01  0.51100000000E-03 0. -1.
</event>
<event>
 8    1  0.1170483E+005  0.1043930E+01  0.7957747E-01            NaN
         13   -1    0    0    0    0  0.00000000000E+00  0.00000000000E+00  0.74505805969E-08  0.10566000000E+00  0.10566000000E+00 0. -1.
     999900   -1    0    0    0    0 -0.00000000000E+00 -0.00000000000E+00 -0.74505805969E-08  0.93827000000E+00  0.93827000000E+00 0. -1.
     999902    2    1    2    0    0  0.23813285330E-01  0.12685659607E-01 -0.68610569039E-02  0.10160898739E+01  0.10157084027E+01 0.  0.
     999903    2    3    3    0    0  0.97212893991E-01  0.82023226753E-01  0.17253556158E-01  0.12998789597E+00  0.20518562687E-01 0.  0.
         14    1    1    2    0    0 -0.23813285330E-01 -0.12685659607E-01  0.68610569039E-02  0.27840126072E-01  0.00000000000E+00 0. -1.
     999901    1    3    3    0    0 -0.73399608661E-01 -0.69337567145E-01 -0.24114613062E-01  0.88610197795E+00  0.88000000000E+00 0. -1.
        -11    1    4    4    0    0  0.45941069131E-01  0.37360073789E-01 -0.22109005866E-02  0.59257962746E-01  0.51100000000E-03 0.  1.
         11    1    4    4    0    0  0.51271824860E-01  0.44663152964E-01  0.19464456744E-01  0.70729933228E-01  0.51100000000E-03 0. -1.
</event>
<event>
 8    1  0.1170483E+005  0.1043930E+01  0.7957747E-01            NaN
         13   -1    0    0    0    0  0.00000000000E+00  0.00000000000E+00  0.74505805969E-08  0.10566000000E+00  0.10566000000E+00 0.  1.
     999900   -1    0    0    0    0 -0.00000000000E+00 -0.00000000000E+00 -0.74505805969E-08  0.93827000000E+00  0.93827000000E+00 0. -1.
     999902    2    1    2    0    0  0.16698641341E-01 -0.15142347859E-01 -0.57391355286E-02  0.10206690241E+01  0.10204039317E+01 0.  0.
     999903    2    3    3    0    0 -0.11009634056E+00  0.13459686145E-02 -0.65083145961E-01  0.12945045185E+00  0.19964662773E-01 0.  0.
         14    1    1    2    0    0 -0.16698641341E-01  0.15142347859E-01  0.57391355286E-02  0.23260975859E-01  0.00000000000E+00 0.  1.
     999901    1    3    3    0    0  0.12679498191E+00 -0.16488316473E-01  0.59344010433E-01  0.89121857229E+00  0.88000000000E+00 0.  1.
        -11    1    4    4    0    0 -0.32453093145E-01 -0.13562943323E-02 -0.29946407732E-01  0.44182476685E-01  0.51100000000E-03 0. -1.
         11    1    4    4    0    0 -0.77643247419E-01  0.27022629467E-02 -0.35136738229E-01  0.85267975168E-01  0.51100000000E-03 0.  1.
</event>
<event>
 8    1  0.1170483E+005  0.1043930E+01  0.7957747E-01            NaN
         13   -1    0    0    0    0  0.00000000000E+00  0.00000000000E+00  0.74505805969E-08  0.10566000000E+00  0.10566000000E+00 0. -1.
     999900   -1    0    0    0    0 -0.00000000000E+00 -0.00000000000E+00 -0.74505805969E-08  0.93827000000E+00  0.93827000000E+00 0.  1.
     999902    2    1    2    0    0 -0.21841783594E-01 -0.11350346943E-01 -0.80517250392E-02  0.10180316571E+01  0.10177021818E+01 0.  0.
     999903    2    3    3    0    0 -0.28280266932E-01  0.39213103465E-01 -0.11857771437E+00  0.12965442258E+00  0.20301575478E-01 0.  0.
         14    1    1    2    0    0  0.21841783594E-01  0.11350346943E-01  0.80517250392E-02  0.25898342850E-01  0.00000000000E+00 0. -1.
     999901    1    3    3    0    0  0.64384833374E-02 -0.50563450408E-01  0.11052598934E+00  0.88837723457E+00  0.88000000000E+00 0. -1.
        -11    1    4    4    0    0 -0.25656637670E-01  0.20145294862E-01 -0.83364700890E-01  0.89521117269E-01  0.51100000000E-03 0.  1.
         11    1    4    4    0    0 -0.26236292612E-02  0.19067808604E-01 -0.35213013484E-01  0.40133305310E-01  0.51100000000E-03 0. -1.
</event>
<event>
 8    1  0.1170483E+005  0.1043930E+01  0.7957747E-01            NaN
         13   -1    0    0    0    0  0.00000000000E+00  0.00000000000E+00  0.74505805969E-08  0.10566000000E+00  0.10566000000E+00 0. -1.
     999900   -1    0    0    0    0 -0.00000000000E+00 -0.00000000000E+00 -0.74505805969E-08  0.93827000000E+00  0.93827000000E+00 0. -1.
     999902    2    1    2    0    0  0.21719194460E-01  0.82236433194E-02  0.47940638167E-02  0.10202164013E+01  0.10199407682E+01 0.  0.
     999903    2    3    3    0    0  0.94313126886E-01  0.16634327668E-01  0.90079445075E-01  0.13307818492E+00  0.20587134715E-01 0.  0.
         14    1    1    2    0    0 -0.21719194460E-01 -0.82236433194E-02 -0.47940638167E-02  0.23713598742E-01  0.00000000000E+00 0.  1.
     999901    1    3    3    0    0 -0.72593932426E-01 -0.84106843487E-02 -0.85285381259E-01  0.88713821634E+00  0.88000000000E+00 0. -1.
        -11    1    4    4    0    0  0.24349505968E-01  0.10675853850E-01  0.16129334017E-01  0.31101267388E-01  0.51100000000E-03 0.  1.
         11    1    4    4    0    0  0.69963620918E-01  0.59584738182E-02  0.73950111058E-01  0.10197691753E+00  0.51100000000E-03 0. -1.
</event>
<event>
 8    1  0.1170483E+005  0.1043930E+01  0.7957747E-01            NaN
         13   -1    0    0    0    0  0.00000000000E+00  0.00000000000E+00  0.74505805969E-08  0.10566000000E+00  0.10566000000E+00 0. -1.
     999900   -1    0    0    0    0 -0.00000000000E+00 -0.00000000000E+00 -0.74505805969E-08  0.93827000000E+00  0.93827000000E+00 0.  1.
     999902    2    1    2    0    0 -0.37414467974E-02 -0.21665061347E-01 -0.15235981882E-01  0.10171810103E+01  0.10168292380E+01 0.  0.
     999903    2    3    3    0    0 -0.34861143537E-01 -0.76178930292E-01 -0.98661130183E-01  0.13100949595E+00  0.20271671642E-01 0.  0.
         14    1    1    2    0    0  0.37414467974E-02  0.21665061347E-01  0.15235981882E-01  0.26748989723E-01  0.00000000000E+00 0.  1.
     999901    1    3    3    0    0  0.31119696739E-01  0.54513868945E-01  0.83425148302E-01  0.88617151433E+00  0.88000000000E+00 0. -1.
        -11    1    4    4    0    0 -0.10448639834E-02 -0.19919945179E-01 -0.29898157217E-01  0.35945192761E-01  0.51100000000E-03 0.  1.
         11    1    4    4    0    0 -0.33816279553E-01 -0.56258985113E-01 -0.68762972967E-01  0.95064303190E-01  0.51100000000E-03 0. -1.
</event>
<event>
 8    1  0.1170483E+005  0.1043930E+01  0.7957747E-01            NaN
         13   -1    0    0    0    0  0.00000000000E+00  0.00000000000E+00  0.74505805969E-08  0.10566000000E+00  0.10566000000E+00 0.  1.
     999900   -1    0    0    0    0 -0.00000000000E+00 -0.00000000000E+00 -0.74505805969E-08  0.93827000000E+00  0.93827000000E+00 0. -1.
     999902    2    1    2    0    0 -0.20256821304E-01  0.64968422740E-02 -0.13460469737E-01  0.10187559655E+01  0.10184448857E+01 0.  0.
     999903    2    3    3    0    0 -0.10122964443E+00 -0.74088910598E-01  0.29424399039E-01  0.13033614713E+00  0.19624179096E-01 0.  0.
         14    1    1    2    0    0  0.20256821304E-01 -0.64968422740E-02  0.13460469737E-01  0.25174034528E-01  0.00000000000E+00 0.  1.
     999901    1    3    3    0    0  0.80972823125E-01  0.80585752872E-01 -0.42884868776E-01  0.88841981834E+00  0.88000000000E+00 0. -1.
        -11    1    4    4    0    0 -0.52101078522E-01 -0.33450559171E-01  0.52211803926E-02  0.62136817892E-01  0.51100000000E-03 0. -1.
         11    1    4    4    0    0 -0.49128565907E-01 -0.40638351427E-01  0.24203218647E-01  0.68199329239E-01  0.51100000000E-03 0.  1.
</event>
<event>
 8    1  0.1170483E+005  0.1043930E+01  0.7957747E-01            NaN
         13   -1    0    0    0    0  0.00000000000E+00  0.00000000000E+00  0.74505805969E-08  0.10566000000E+00  0.10566000000E+00 0. -1.
     999900   -1    0    0    0    0 -0.00000000000E+00 -0.00000000000E+00 -0.74505805969E-08  0.93827000000E+00  0.93827000000E+00 0.  1.
     999902    2    1    2    0    0  0.17148204236E-01  0.15962691288E-01 -0.48922317161E-02  0.10199967104E+01  0.10197158853E+01 0.  0.
     999903    2    3    3    0    0 -0.18094084210E-01 -0.10927283286E+00  0.60911775585E-01  0.12800112586E+00  0.20151822011E-01 0.  0.
         14    1    1    2    0    0 -0.17148204236E-01 -0.15962691288E-01  0.48922317161E-02  0.23933289636E-01  0.00000000000E+00 0.  1.
     999901    1    3    3    0    0  0.35242288446E-01  0.12523552415E+00 -0.65804007301E-01  0.89199558451E+00  0.88000000000E+00 0.  1.
        -11    1    4    4    0    0 -0.21394612844E-01 -0.82647064488E-01  0.50679005262E-01  0.99281868549E-01  0.51100000000E-03 0. -1.
         11    1    4    4    0    0  0.33005286344E-02 -0.26625768375E-01  0.10232770323E-01  0.28719257307E-01  0.51100000000E-03 0.  1.
</event>
<event>
 8    1  0.1170483E+005  0.1043930E+01  0.7957747E-01            NaN
         13   -1    0    0    0    0  0.00000000000E+00  0.00000000000E+00  0.74505805969E-08  0.10566000000E+00  0.10566000000E+00 0.  1.
     999900   -1    0    0    0    0 -0.00000000000E+00 -0.00000000000E+00 -0.74505805969E-08  0.93827000000E+00  0.93827000000E+00 0.  1.
     999902    2    1    2    0    0  0.19511826167E-01  0.13833608373E-01 -0.36662680500E-02  0.10197324464E+01  0.10194453102E+01 0.  0.
     999903    2    3    3    0    0 -0.99167439706E-01  0.77530243504E-01  0.21269789327E-01  0.12913498598E+00  0.19450473248E-01 0.  0.
         14    1    1    2    0    0 -0.19511826167E-01 -0.13833608373E-01  0.36662680500E-02  0.24197553645E-01  0.00000000000E+00 0.  1.
     999901    1    3    3    0    0  0.11867926587E+00 -0.63696635131E-01 -0.24936057377E-01  0.89059746038E+00  0.88000000000E+00 0.  1.
        -11    1    4    4    0    0 -0.78524477978E-01  0.61323597914E-01  0.86486621131E-02  0.10000868852E+00  0.51100000000E-03 0.  1.
         11    1    4    4    0    0 -0.20642961728E-01  0.16206645589E-01  0.12621127214E-01  0.29126297453E-01  0.51100000000E-03 0. -1.
</event>
<event>
 8    1  0.1170483E+005  0.1043930E+01  0.7957747E-01            NaN
         13   -1    0    0    0    0  0.00000000000E+00  0.00000000000E+00  0.74505805969E-08  0.10566000000E+00  0.10566000000E+00 0. -1.
     999900   -1    0    0    0    0 -0.00000000000E+00 -0.00000000000E+00 -0.74505805969E-08  0.93827000000E+00  0.93827000000E+00 0. -1.
     999902    2    1    2    0    0  0.11663001138E-01  0.11321067011E-03  0.22492094452E-01  0.10185936087E+01  0.10182784525E+01 0.  0.
     999903    2    3    3    0    0  0.11896297592E+00  0.33443017887E-01 -0.34520515527E-01  0.12961970674E+00  0.18411336146E-01 0.  0.
         14    1    1    2    0    0 -0.11663001138E-01 -0.11321067011E-03 -0.22492094452E-01  0.25336391318E-01  0.00000000000E+00 0.  1.
     999901    1    3    3    0    0 -0.10729997478E+00 -0.33329807217E-01  0.57012609979E-01  0.88897390194E+00  0.88000000000E+00 0. -1.
        -11    1    4    4    0    0  0.47281671052E-01  0.40338174687E-02 -0.13335217065E-01  0.49294190692E-01  0.51100000000E-03 0. -1.
         11    1    4    4    0    0  0.71681304865E-01  0.29409200418E-01 -0.21185298463E-01  0.80325516048E-01  0.51100000000E-03 0.  1.
</event>
<event>
 8    1  0.1170483E+005  0.1043930E+01  0.7957747E-01            NaN
         13   -1    0    0    0    0  0.00000000000E+00  0.00000000000E+00  0.74505805969E-08  0.10566000000E+00  0.10566000000E+00 0. -1.
     999900   -1    0    0    0    0 -0.00000000000E+00 -0.00000000000E+00 -0.74505805969E-08  0.93827000000E+00  0.93827000000E+00 0.  1.
     999902    2    1    2    0    0  0.21765038416E-01 -0.86177241145E-02 -0.55247920076E-02  0.10198778610E+01  0.10195942065E+01 0.  0.
     999903    2    3    3    0    0 -0.27737942720E-01 -0.37247487180E-01 -0.12041411737E+00  0.13056927246E+00  0.19799153542E-01 0.  0.
         14    1    1    2    0    0 -0.21765038416E-01  0.86177241145E-02  0.55247920076E-02  0.24052139050E-01  0.00000000000E+00 0. -1.
     999901    1    3    3    0    0  0.49502981135E-01  0.28629763065E-01  0.11488932537E+00  0.88930858849E+00  0.88000000000E+00 0. -1.
        -11    1    4    4    0    0 -0.81916171862E-02 -0.83558474447E-02 -0.57015226986E-01  0.58205841700E-01  0.51100000000E-03 0.  1.
         11    1    4    4    0    0 -0.19546325534E-01 -0.28891639735E-01 -0.63398890387E-01  0.72363430763E-01  0.51100000000E-03 0. -1.
</event>
<event>
 8    1  0.1170483E+005  0.1043930E+01  0.7957747E-01            NaN
         13   -1    0    0    0    0  0.00000000000E+00  0.00000000000E+00  0.74505805969E-08  0.10566000000E+00  0.10566000000E+00 0.  1.
     999900   -1    0    0    0    0 -0.00000000000E+00 -0.00000000000E+00 -0.74505805969E-08  0.93827000000E+00  0.93827000000E+00 0. -1.
     999902    2    1    2    0    0  0.79901228000E-03 -0.12403218831E-01  0.20718443193E-01  0.10197694506E+01  0.10194832025E+01 0.  0.
     999903    2    3    3    0    0  0.61452758458E-01 -0.28260458346E-01 -0.10728787662E+00  0.12830102892E+00  0.19374481314E-01 0.  0.
         14    1    1    2    0    0 -0.79901228000E-03  0.12403218831E-01 -0.20718443193E-01  0.24160549380E-01  0.00000000000E+00 0. -1.
     999901    1    3    3    0    0 -0.60653746178E-01  0.15857239514E-01  0.12800631981E+00  0.89146842170E+00  0.88000000000E+00 0.  1.
        -11    1    4    4    0    0  0.33067319904E-01 -0.25002141647E-01 -0.57370013951E-01  0.70782302551E-01  0.51100000000E-03 0.  1.
         11    1    4    4    0    0  0.28385438554E-01 -0.32583166984E-02 -0.49917862665E-01  0.57518726373E-01  0.51100000000E-03 0. -1.
</event>
<event>
 8    1  0.1170483E+005  0.1043930E+01  0.7957747E-01            NaN
         13   -1    0    0    0    0  0.00000000000E+00  0.00000000000E+00  0.74505805969E-08  0.10566000000E+00  0.10566000000E+00 0.  1.
     999900   -1    0    0    0    0 -0.00000000000E+00 -0.00000000000E+00 -0.74505805969E-08  0.93827000000E+00  0.93827000000E+00 0. -1.
     999902    2    1    2    0    0 -0.20113596906E-01 -0.90386055590E-02 -0.87655863200E-02  0.10202005104E+01  0.10199245035E+01 0.  0.
     999903    2    3    3    0    0 -0.13016739168E+00 -0.14544483937E-01 -0.18760429448E-01  0.13327207515E+00  0.15949935163E-01 0.  0.
         14    1    1    2    0    0  0.20113596906E-01  0.90386055590E-02  0.87655863200E-02  0.23729489554E-01  0.00000000000E+00 0.  1.
     999901    1    3    3    0    0  0.11005379478E+00  0.55058783779E-02  0.99948431277E-02  0.88692843529E+00  0.88000000000E+00 0. -1.
        -11    1    4    4    0    0 -0.43051844219E-01 -0.12109896310E-01 -0.83979678317E-02  0.45507118828E-01  0.51100000000E-03 0. -1.
         11    1    4    4    0    0 -0.87115547465E-01 -0.24345876271E-02 -0.10362461616E-01  0.87764956325E-01  0.51100000000E-03 0.  1.
</event>
<event>
 8    1  0.1170483E+005  0.1043930E+01  0.7957747E-01            NaN
         13   -1    0    0    0    0  0.00000000000E+00  0.00000000000E+00  0.74505805969E-08  0.10566000000E+00  0.10566000000E+00 0.  1.
     999900   -1    0    0    0    0 -0.00000000000E+00 -0.00000000000E+00 -0.74505805969E-08  0.93827000000E+00  0.93827000000E+00 0.  1.
     999902    2    1    2    0    0  0.41976537856E-02  0.22215646132E-01  0.70312175744E-02  0.10202531495E+01  0.10199783800E+01 0.  0.
     999903    2    3    3    0    0 -0.45955063270E-01 -0.11312357918E+00 -0.30996505338E-01  0.12768488393E+00  0.20828687796E-01 0.  0.
         14    1    1    2    0    0 -0.41976537856E-02 -0.22215646132E-01 -0.70312175744E-02  0.23676850529E-01  0.00000000000E+00 0. -1.
     999901    1    3    3    0    0  0.50152717056E-01  0.13533922531E+00  0.38027722913E-01  0.89256826554E+00  0.88000000000E+00 0. -1.
        -11    1    4    4    0    0 -0.29170122152E-01 -0.59162172409E-01 -0.71682160909E-02  0.66352868163E-01  0.51100000000E-03 0. -1.
         11    1    4    4    0    0 -0.16784941118E-01 -0.53961406770E-01 -0.23828289247E-01  0.61332015770E-01  0.51100000000E-03 0.  1.
</event>
<event>
 8    1  0.1170483E+005  0.1043930E+01  0.7957747E-01            NaN
         13   -1    0    0    0    0  0.00000000000E+00  0.00000000000E+00  0.74505805969E-08  0.10566000000E+00  0.10566000000E+00 0. -1.
     999900   -1    0    0    0    0 -0.00000000000E+00 -0.00000000000E+00 -0.74505805969E-08  0.93827000000E+00  0.93827000000E+00 0.  1.
     999902    2    1    2    0    0  0.84948338404E-02  0.98236238878E-02  0.17879979229E-01  0.10218311438E+01  0.10215921530E+01 0.  0.
     999903    2    3    3    0    0 -0.92910950438E-01 -0.78311541725E-01  0.45206430709E-01  0.13121468569E+00  0.20212127159E-01 0.  0.
         14    1    1    2    0    0 -0.84948338404E-02 -0.98236238878E-02 -0.17879979229E-01  0.22098856204E-01  0.00000000000E+00 0.  1.
     999901    1    3    3    0    0  0.10140578428E+00  0.88135165613E-01 -0.27326451479E-01  0.89061645811E+00  0.88000000000E+00 0.  1.
        -11    1    4    4    0    0 -0.77554889350E-01 -0.61959808158E-01  0.44447846656E-01  0.10876419853E+00  0.51100000000E-03 0.  1.
         11    1    4    4    0    0 -0.15356061088E-01 -0.16351733567E-01  0.75858405322E-03  0.22450487156E-01  0.51100000000E-03 0. -1.
</event>
<event>
 8    1  0.1170483E+005  0.1043930E+01  0.7957747E-01            NaN
         13   -1    0    0    0    0  0.00000000000E+00  0.00000000000E+00  0.74505805969E-08  0.10566000000E+00  0.10566000000E+00 0.  1.
     999900   -1    0    0    0    0 -0.00000000000E+00 -0.00000000000E+00 -0.74505805969E-08  0.93827000000E+00  0.93827000000E+00 0. -1.
     999902    2    1    2    0    0  0.10290574150E-01 -0.67201680474E-02  0.18771197812E-01  0.10214931009E+01  0.10212466601E+01 0.  0.
     999903    2    3    3    0    0  0.60069170369E-02 -0.90703083579E-01  0.96670523507E-01  0.13405871752E+00  0.19063504535E-01 0.  0.
         14    1    1    2    0    0 -0.10290574150E-01  0.67201680474E-02 -0.18771197812E-01  0.22436899123E-01  0.00000000000E+00 0. -1.
     999901    1    3    3    0    0  0.42836571132E-02  0.83982915532E-01 -0.77899325695E-01  0.88743438336E+00  0.88000000000E+00 0. -1.
        -11    1    4    4    0    0  0.96253954890E-02 -0.22458084168E-01  0.22809131640E-01  0.33429498799E-01  0.51100000000E-03 0.  1.
         11    1    4    4    0    0 -0.36184784522E-02 -0.68244999412E-01  0.73861391867E-01  0.10062921872E+00  0.51100000000E-03 0. -1.
</event>
<event>
 8    1  0.1170483E+005  0.1043930E+01  0.7957747E-01            NaN
         13   -1    0    0    0    0  0.00000000000E+00  0.00000000000E+00  0.74505805969E-08  0.10566000000E+00  0.10566000000E+00 0. -1.
     999900   -1    0    0    0    0 -0.00000000000E+00 -0.00000000000E+00 -0.74505805969E-08  0.93827000000E+00  0.93827000000E+00 0.  1.
     999902    2    1    2    0    0  0.12414909902E-01  0.89741474092E-02 -0.21420524742E-01  0.10175955323E+01  0.10172547189E+01 0.  0.
     999903    2    3    3    0    0  0.96937101259E-01  0.13864213250E-01  0.79451794328E-01  0.12779603896E+00  0.20741792139E-01 0.  0.
         14    1    1    2    0    0 -0.12414909902E-01 -0.89741474092E-02  0.21420524742E-01  0.26334467715E-01  0.00000000000E+00 0. -1.
     999901    1    3    3    0    0 -0.84522191357E-01 -0.48900658411E-02 -0.10087231907E+00  0.88979949333E+00  0.88000000000E+00 0. -1.
        -11    1    4    4    0    0  0.25958170956E-01  0.79043347204E-02  0.33135585215E-01  0.42831451941E-01  0.51100000000E-03 0. -1.
         11    1    4    4    0    0  0.70978930302E-01  0.59598785299E-02  0.46316209113E-01  0.84964587015E-01  0.51100000000E-03 0.  1.
</event>
<event>
 8    1  0.1170483E+005  0.1043930E+01  0.7957747E-01            NaN
         13   -1    0    0    0    0  0.00000000000E+00  0.00000000000E+00  0.74505805969E-08  0.10566000000E+00  0.10566000000E+00 0. -1.
     999900   -1    0    0    0    0 -0.00000000000E+00 -0.00000000000E+00 -0.74505805969E-08  0.93827000000E+00  0.93827000000E+00 0. -1.
     999902    2    1    2    0    0  0.63692460619E-02 -0.38715846914E-02 -0.22635738034E-01  0.10200986530E+01  0.10198202434E+01 0.  0.
     999903    2    3    3    0    0 -0.11552730725E+00  0.54868316333E-01  0.14287615156E-02  0.12943134934E+00  0.19832850869E-01 0.  0.
         14    1    1    2    0    0 -0.63692460619E-02  0.38715846914E-02  0.22635738034E-01  0.23831346998E-01  0.00000000000E+00 0. -1.
     999901    1    3    3    0    0  0.12189655331E+00 -0.58739901024E-01 -0.24064499549E-01  0.89066730367E+00  0.88000000000E+00 0.  1.
        -11    1    4    4    0    0 -0.73709543307E-01  0.25723590444E-01  0.56969373370E-02  0.78278452309E-01  0.51100000000E-03 0. -1.
         11    1    4    4    0    0 -0.41817763943E-01  0.29144725889E-01 -0.42681758214E-02  0.51152897026E-01  0.51100000000E-03 0.  1.
</event>
<event>
 8    1  0.1170483E+005  0.1043930E+01  0.7957747E-01            NaN
         13   -1    0    0    0    0  0.00000000000E+00  0.00000000000E+00  0.74505805969E-08  0.10566000000E+00  0.10566000000E+00 0. -1.
     999900   -1    0    0    0    0 -0.00000000000E+00 -0.00000000000E+00 -0.74505805969E-08  0.93827000000E+00  0.93827000000E+00 0. -1.
     999902    2    1    2    0    0  0.18851844303E-01 -0.11745879627E-01  0.85062402308E-02  0.10201452603E+01  0.10198679513E+01 0.  0.
     999903    2    3    3    0    0  0.89502177022E-01  0.91519985290E-01 -0.18531047950E-01  0.13088358711E+00  0.20014150945E-01 0.  0.
         14    1    1    2    0    0 -0.18851844303E-01  0.11745879627E-01 -0.85062402308E-02  0.23784739744E-01  0.00000000000E+00 0.  1.
     999901    1    3    3    0    0 -0.70650332719E-01 -0.10326586492E+00  0.27037288181E-01  0.88926167314E+00  0.88000000000E+00 0.  1.
        -11    1    4    4    0    0  0.59752184632E-01  0.73393368904E-01 -0.11477654495E-01  0.95335763704E-01  0.51100000000E-03 0. -1.
         11    1    4    4    0    0  0.29749992390E-01  0.18126616387E-01 -0.70533934549E-02  0.35547823408E-01  0.51100000000E-03 0.  1.
</event>
<event>
 8    1  0.1170483E+005  0.1043930E+01  0.7957747E-01            NaN
         13   -1    0    0    0    0  0.00000000000E+00  0.00000000000E+00  0.74505805969E-08  0.10566000000E+00  0.10566000000E+00 0.  1.
     999900   -1    0    0    0    0 -0.00000000000E+00 -0.00000000000E+00 -0.74505805969E-08  0.93827000000E+00  0.93827000000E+00 0.  1.
     999902    2    1    2    0    0  0.11256275260E-01 -0.15981319585E-01 -0.16330703230E-01  0.10184584830E+01  0.10181399135E+01 0.  0.
     999903    2    3    3    0    0 -0.66237463034E-01  0.10595158292E+00 -0.83630493877E-02  0.12664213664E+00  0.18845443610E-01 0.  0.
         14    1    1    2    0    0 -0.11256275260E-01  0.15981319585E-01  0.16330703230E-01  0.25471516963E-01  0.00000000000E+00 0.  1.
     999901    1    3    3    0    0  0.77493738294E-01 -0.12193290251E+00 -0.79676538424E-02  0.89181634639E+00  0.88000000000E+00 0. -1.
        -11    1    4    4    0    0 -0.23470489801E-01  0.50322548237E-01 -0.10149922340E-01  0.56449134600E-01  0.51100000000E-03 0.  1.
         11    1    4    4    0    0 -0.42766973233E-01  0.55629034688E-01  0.17868729526E-02  0.70193002043E-01  0.51100000000E-03 0. -1.
</event>
<event>
 8    1  0.1170483E+005  0.1043930E+01  0.7957747E-01            NaN
         13   -1    0    0    0    0  0.00000000000E+00  0.00000000000E+00  0.74505805969E-08  0.10566000000E+00  0.10566000000E+00 0.  1.
     999900   -1    0    0    0    0 -0.00000000000E+00 -0.00000000000E+00 -0.74505805969E-08  0.93827000000E+00  0.93827000000E+00 0. -1.
     999902    2    1    2    0    0  0.81866582303E-02 -0.15254185025E-02  0.22139278727E-01  0.10202763335E+01  0.10200021083E+01 0.  0.
     999903    2    3    3    0    0 -0.10948882221E-01  0.10132421140E+00  0.81445125369E-01  0.13209763602E+00  0.20736517510E-01 0.  0.
         14    1    1    2    0    0 -0.81866582303E-02  0.15254185025E-02 -0.22139278727E-01  0.23653666463E-01  0.00000000000E+00 0. -1.
     999901    1    3    3    0    0  0.19135540451E-01 -0.10284962990E+00 -0.59305846642E-01  0.88817869752E+00  0.88000000000E+00 0.  1.
        -11    1    4    4    0    0  0.38658429132E-02  0.59487302408E-01  0.47082194221E-01  0.75964978924E-01  0.51100000000E-03 0.  1.
         11    1    4    4    0    0 -0.14814725134E-01  0.41836908990E-01  0.34362931147E-01  0.56132657096E-01  0.51100000000E-03 0. -1.
</event>
<event>
 8    1  0.1170483E+005  0.1043930E+01  0.7957747E-01            NaN
         13   -1    0    0    0    0  0.00000000000E+00  0.00000000000E+00  0.74505805969E-08  0.10566000000E+00  0.10566000000E+00 0.  1.
     999900   -1    0    0    0    0 -0.00000000000E+00 -0.00000000000E+00 -0.74505805969E-08  0.93827000000E+00  0.93827000000E+00 0.  1.
     999902    2    1    2    0    0 -0.18286013625E-01 -0.10658335009E-01  0.93907133280E-02  0.10207747868E+01  0.10205121271E+01 0.  0.
     999903    2    3    3    0    0  0.58161002167E-01 -0.11528329616E+00 -0.11110891441E-01  0.13104963573E+00  0.19432307375E-01 0.  0.
         14    1    1    2    0    0  0.18286013625E-01  0.10658335009E-01 -0.93907133280E-02  0.23155213155E-01  0.00000000000E+00 0. -1.
     999901    1    3    3    0    0 -0.76447015792E-01  0.10462496116E+00  0.20501604769E-01  0.88972515111E+00  0.88000000000E+00 0. -1.
        -11    1    4    4    0    0  0.53627583079E-02 -0.29775013989E-02 -0.25290920456E-02  0.66544811086E-02  0.51100000000E-03 0.  1.
         11    1    4    4    0    0  0.52798243859E-01 -0.11230579477E+00 -0.85817993954E-02  0.12439515463E+00  0.51100000000E-03 0. -1.
</event>
<event>
 8    1  0.1170483E+005  0.1043930E+01  0.7957747E-01            NaN
         13   -1    0    0    0    0  0.00000000000E+00  0.00000000000E+00  0.74505805969E-08  0.10566000000E+00  0.10566000000E+00 0.  1.
     999900   -1    0    0    0    0 -0.00000000000E+00 -0.00000000000E+00 -0.74505805969E-08  0.93827000000E+00  0.93827000000E+00 0.  1.
     999902    2    1    2    0    0  0.86766235496E-02  0.12934176315E-01 -0.16299007990E-01  0.10213859459E+01  0.10211371192E+01 0.  0.
     999903    2    3    3    0    0 -0.43155525018E-01 -0.11780800457E+00 -0.27788112543E-01  0.13014406572E+00  0.20595469454E-01 0.  0.
         14    1    1    2    0    0 -0.86766235496E-02 -0.12934176315E-01  0.16299007990E-01  0.22544054086E-01  0.00000000000E+00 0.  1.
     999901    1    3    3    0    0  0.51832148567E-01  0.13074218089E+00  0.11489104553E-01  0.89124188019E+00  0.88000000000E+00 0.  1.
        -11    1    4    4    0    0 -0.25303784329E-01 -0.40308415563E-01 -0.11429921725E-01  0.48948484126E-01  0.51100000000E-03 0.  1.
         11    1    4    4    0    0 -0.17851740689E-01 -0.77499589011E-01 -0.16358190818E-01  0.81195581594E-01  0.51100000000E-03 0. -1.
</event>
<event>
 8    1  0.1170483E+005  0.1043930E+01  0.7957747E-01            NaN
         13   -1    0    0    0    0  0.00000000000E+00  0.00000000000E+00  0.74505805969E-08  0.10566000000E+00  0.10566000000E+00 0.  1.
     999900   -1    0    0    0    0 -0.00000000000E+00 -0.00000000000E+00 -0.74505805969E-08  0.93827000000E+00  0.93827000000E+00 0.  1.
     999902    2    1    2    0    0 -0.18916106672E-01 -0.99690031632E-02 -0.33229221820E-02  0.10222911015E+01  0.10220620599E+01 0.  0.
     999903    2    3    3    0    0  0.42776504843E-01  0.76749734876E-01  0.94591849061E-01  0.13048763647E+00  0.18948725357E-01 0.  0.
         14    1    1    2    0    0  0.18916106672E-01  0.99690031632E-02  0.33229221820E-02  0.21638898482E-01  0.00000000000E+00 0. -1.
     999901    1    3    3    0    0 -0.61692611515E-01 -0.86718738040E-01 -0.97914771244E-01  0.89180346505E+00  0.88000000000E+00 0.  1.
        -11    1    4    4    0    0  0.22109635719E-01  0.48631222436E-01  0.45024776819E-01  0.69866468608E-01  0.51100000000E-03 0. -1.
         11    1    4    4    0    0  0.20666869124E-01  0.28118512440E-01  0.49567072243E-01  0.60621167862E-01  0.51100000000E-03 0.  1.
</event>
<event>
 8    1  0.1170483E+005  0.1043930E+01  0.7957747E-01            NaN
         13   -1    0    0    0    0  0.00000000000E+00  0.00000000000E+00  0.74505805969E-08  0.10566000000E+00  0.10566000000E+00 0. -1.
     999900   -1    0    0    0    0 -0.00000000000E+00 -0.00000000000E+00 -0.74505805969E-08  0.93827000000E+00  0.93827000000E+00 0.  1.
     999902    2    1    2    0    0 -0.15861930966E-01  0.11349330632E-01  0.13110393848E-01  0.10204291365E+01  0.10201584838E+01 0.  0.
     999903    2    3    3    0    0 -0.23910074717E-02 -0.12607553649E+00  0.22787339396E-01  0.12960889469E+00  0.19453661090E-01 0.  0.
         14    1    1    2    0    0  0.15861930966E-01 -0.11349330632E-01 -0.13110393848E-01  0.23500863529E-01  0.00000000000E+00 0.  1.
     999901    1    3    3    0    0 -0.13470923495E-01  0.13742486712E+00 -0.96769455484E-02  0.89082024178E+00  0.88000000000E+00 0. -1.
        -11    1    4    4    0    0 -0.89105295005E-02 -0.74882586500E-01  0.19512913965E-01  0.77896175961E-01  0.51100000000E-03 0. -1.
         11    1    4    4    0    0  0.65195220288E-02 -0.51192949988E-01  0.32744254308E-02  0.51712718734E-01  0.51100000000E-03 0.  1.
</event>
<event>
 8    1  0.1170483E+005  0.1043930E+01  0.7957747E-01            NaN
         13   -1    0    0    0    0  0.00000000000E+00  0.00000000000E+00  0.74505805969E-08  0.10566000000E+00  0.10566000000E+00 0.  1.
     999900   -1    0    0    0    0 -0.00000000000E+00 -0.00000000000E+00 -0.74505805969E-08  0.93827000000E+00  0.93827000000E+00 0.  1.
     999902    2    1    2    0    0  0.12097007572E-01  0.94802483637E-02 -0.18554163644E-01  0.10198370614E+01  0.10195524323E+01 0.  0.
     999903    2    3    3    0    0  0.12707467635E+00 -0.21050314573E-01 -0.19924631418E-01  0.13183151088E+00  0.19785530338E-01 0.  0.
         14    1    1    2    0    0 -0.12097007572E-01 -0.94802483637E-02  0.18554163644E-01  0.24092938587E-01  0.00000000000E+00 0.  1.
     999901    1    3    3    0    0 -0.11497766878E+00  0.30530562937E-01  0.13704677744E-02  0.88800555053E+00  0.88000000000E+00 0. -1.
        -11    1    4    4    0    0  0.32981057438E-01  0.29452329904E-02 -0.28879286633E-02  0.33241928345E-01  0.51100000000E-03 0.  1.
         11    1    4    4    0    0  0.94093618914E-01 -0.23995547564E-01 -0.17036702755E-01  0.98589582538E-01  0.51100000000E-03 0. -1.
</event>
<event>
 8    1  0.1170483E+005  0.1043930E+01  0.7957747E-01            NaN
         13   -1    0    0    0    0  0.00000000000E+00  0.00000000000E+00  0.74505805969E-08  0.10566000000E+00  0.10566000000E+00 0.  1.
     999900   -1    0    0    0    0 -0.00000000000E+00 -0.00000000000E+00 -0.74505805969E-08  0.93827000000E+00  0.93827000000E+00 0. -1.
     999902    2    1    2    0    0 -0.17153901737E-01 -0.68406465071E-02  0.14756650046E-01  0.10202908479E+01  0.10200169630E+01 0.  0.
     999903    2    3    3    0    0 -0.69005620830E-01  0.10310973385E+00  0.38979685173E-01  0.13160392762E+00  0.20168911463E-01 0.  0.
         14    1    1    2    0    0  0.17153901737E-01  0.68406465071E-02 -0.14756650046E-01  0.23639152058E-01  0.00000000000E+00 0. -1.
     999901    1    3    3    0    0  0.51851719092E-01 -0.10995038036E+00 -0.24223035127E-01  0.88868692032E+00  0.88000000000E+00 0. -1.
        -11    1    4    4    0    0 -0.46198943858E-01  0.75899787081E-01  0.19012416153E-01  0.90867228314E-01  0.51100000000E-03 0. -1.
         11    1    4    4    0    0 -0.22806676971E-01  0.27209946767E-01  0.19967269020E-01  0.40736699310E-01  0.51100000000E-03 0.  1.
</event>
<event>
 8    1  0.1170483E+005  0.1043930E+01  0.7957747E-01            NaN
         13   -1    0    0    0    0  0.00000000000E+00  0.00000000000E+00  0.74505805969E-08  0.10566000000E+00  0.10566000000E+00 0.  1.
     999900   -1    0    0    0    0 -0.00000000000E+00 -0.00000000000E+00 -0.74505805969E-08  0.93827000000E+00  0.93827000000E+00 0. -1.
     999902    2    1    2    0    0  0.87473078168E-03  0.11066979853E-01  0.20924773687E-01  0.10202426753E+01  0.10199676599E+01 0.  0.
     999903    2    3    3    0    0  0.58704792239E-01  0.88625096025E-01  0.77502481223E-01  0.13313466927E+00  0.20433924948E-01 0.  0.
         14    1    1    2    0    0 -0.87473078168E-03 -0.11066979853E-01 -0.20924773687E-01  0.23687324688E-01  0.00000000000E+00 0. -1.
     999901    1    3    3    0    0 -0.57830061458E-01 -0.77558116172E-01 -0.56577707536E-01  0.88710800604E+00  0.88000000000E+00 0. -1.
        -11    1    4    4    0    0  0.34810255220E-01  0.44772154589E-01  0.29783841441E-01  0.64059644294E-01  0.51100000000E-03 0.  1.
         11    1    4    4    0    0  0.23894537019E-01  0.43852941436E-01  0.47718639782E-01  0.69075024977E-01  0.51100000000E-03 0. -1.
</event>
<event>
 8    1  0.1170483E+005  0.1043930E+01  0.7957747E-01            NaN
         13   -1    0    0    0    0  0.00000000000E+00  0.00000000000E+00  0.74505805969E-08  0.10566000000E+00  0.10566000000E+00 0. -1.
     999900   -1    0    0    0    0 -0.00000000000E+00 -0.00000000000E+00 -0.74505805969E-08  0.93827000000E+00  0.93827000000E+00 0.  1.
     999902    2    1    2    0    0 -0.14088766446E-01 -0.26500335401E-02  0.19388044706E-01  0.10198175075E+01  0.10195324106E+01 0.  0.
     999903    2    3    3    0    0 -0.12578598823E-01  0.11155656656E+00 -0.60080988444E-01  0.12888498740E+00  0.19963118877E-01 0.  0.
         14    1    1    2    0    0  0.14088766446E-01  0.26500335401E-02 -0.19388044706E-01  0.24112492515E-01  0.00000000000E+00 0.  1.
     999901    1    3    3    0    0 -0.15101676233E-02 -0.11420660010E+00  0.79469033150E-01  0.89093252008E+00  0.88000000000E+00 0. -1.
        -11    1    4    4    0    0  0.44710778711E-02  0.22885139950E-01 -0.16845244365E-01  0.28770532608E-01  0.51100000000E-03 0. -1.
         11    1    4    4    0    0 -0.17049676694E-01  0.88671426606E-01 -0.43235744080E-01  0.10011445479E+00  0.51100000000E-03 0.  1.
</event>
<event>
 8    1  0.1170483E+005  0.1043930E+01  0.7957747E-01            NaN
         13   -1    0    0    0    0  0.00000000000E+00  0.00000000000E+00  0.74505805969E-08  0.10566000000E+00  0.10566000000E+00 0. -1.
     999900   -1    0    0    0    0 -0.00000000000E+00 -0.00000000000E+00 -0.74505805969E-08  0.93827000000E+00  0.93827000000E+00 0.  1.
     999902    2    1    2    0    0 -0.20624644678E-01 -0.13946058339E-01 -0.12160732393E-01  0.10162216633E+01  0.10158438448E+01 0.  0.
     999903    2    3    3    0    0  0.59407677255E-01  0.10550338418E+00 -0.20757242021E-01  0.12451137297E+00  0.20297357257E-01 0.  0.
         14    1    1    2    0    0  0.20624644678E-01  0.13946058339E-01  0.12160732393E-01  0.27708336717E-01  0.00000000000E+00 0. -1.
     999901    1    3    3    0    0 -0.80032321933E-01 -0.11944944252E+00  0.85965096277E-02  0.89171029031E+00  0.88000000000E+00 0. -1.
        -11    1    4    4    0    0  0.37566418668E-01  0.53049136805E-01 -0.33872078706E-02  0.65093632757E-01  0.51100000000E-03 0.  1.
         11    1    4    4    0    0  0.21841258587E-01  0.52454247378E-01 -0.17370034150E-01  0.59417740213E-01  0.51100000000E-03 0. -1.
</event>
<event>
 8    1  0.1170483E+005  0.1043930E+01  0.7957747E-01            NaN
         13   -1    0    0    0    0  0.00000000000E+00  0.00000000000E+00  0.74505805969E-08  0.10566000000E+00  0.10566000000E+00 0. -1.
     999900   -1    0    0    0    0 -0.00000000000E+00 -0.00000000000E+00 -0.74505805969E-08  0.93827000000E+00  0.93827000000E+00 0. -1.
     999902    2    1    2    0    0 -0.59066969315E-02  0.15258505450E-01 -0.17089612809E-01  0.10202706272E+01  0.10199962680E+01 0.  0.
     999903    2    3    3    0    0  0.13427355613E-01  0.11585188648E+00 -0.61086184577E-01  0.13323706961E+00  0.20460725605E-01 0.  0.
         14    1    1    2    0    0  0.59066969315E-02 -0.15258505450E-01  0.17089612809E-01  0.23659372840E-01  0.00000000000E+00 0. -1.
     999901    1    3    3    0    0 -0.19334052544E-01 -0.10059338103E+00  0.43996571768E-01  0.88703355755E+00  0.88000000000E+00 0. -1.
        -11    1    4    4    0    0 -0.31457266432E-02  0.56296616230E-01 -0.33024327085E-01  0.65345787129E-01  0.51100000000E-03 0. -1.
         11    1    4    4    0    0  0.16573082256E-01  0.59555270249E-01 -0.28061857492E-01  0.67891282480E-01  0.51100000000E-03 0.  1.
</event>
<event>
 8    1  0.1170483E+005  0.1043930E+01  0.7957747E-01            NaN
         13   -1    0    0    0    0  0.00000000000E+00  0.00000000000E+00  0.74505805969E-08  0.10566000000E+00  0.10566000000E+00 0. -1.
     999900   -1    0    0    0    0 -0.00000000000E+00 -0.00000000000E+00 -0.74505805969E-08  0.93827000000E+00  0.93827000000E+00 0. -1.
     999902    2    1    2    0    0 -0.20567691734E-01 -0.11715398100E-01  0.92385374244E-03  0.10202417328E+01  0.10199666952E+01 0.  0.
     999903    2    3    3    0    0 -0.40895334546E-01 -0.12125917070E+00 -0.29093635648E-01  0.13270914140E+00  0.19724647227E-01 0.  0.
         14    1    1    2    0    0  0.20567691734E-01  0.11715398100E-01 -0.92385374244E-03  0.23688267173E-01  0.00000000000E+00 0. -1.
     999901    1    3    3    0    0  0.20327642812E-01  0.10954377260E+00  0.30017489391E-01  0.88753259143E+00  0.88000000000E+00 0.  1.
        -11    1    4    4    0    0 -0.25219291376E-01 -0.99563321274E-01 -0.23214583615E-01  0.10529978924E+00  0.51100000000E-03 0.  1.
         11    1    4    4    0    0 -0.15676043170E-01 -0.21695849429E-01 -0.58790520329E-02  0.27409352158E-01  0.51100000000E-03 0. -1.
</event>
<event>
 8    1  0.1170483E+005  0.1043930E+01  0.7957747E-01            NaN
         13   -1    0    0    0    0  0.00000000000E+00  0.00000000000E+00  0.74505805969E-08  0.10566000000E+00  0.10566000000E+00 0. -1.
     999900   -1    0    0    0    0 -0.00000000000E+00 -0.00000000000E+00 -0.74505805969E-08  0.93827000000E+00  0.93827000000E+00 0.  1.
     999902    2    1    2    0    0 -0.12176870089E-01 -0.49625798068E-03 -0.20278338453E-01  0.10202713135E+01  0.10199969704E+01 0.  0.
     999903    2    3    3    0    0 -0.33007194130E-01  0.61323513297E-01  0.10651215806E+00  0.12879421534E+00  0.19825789845E-01 0.  0.
         14    1    1    2    0    0  0.12176870089E-01  0.49625798068E-03  0.20278338453E-01  0.23658686514E-01  0.00000000000E+00 0. -1.
     999901    1    3    3    0    0  0.20830324041E-01 -0.61819771278E-01 -0.12679049651E+00  0.89147709815E+00  0.88000000000E+00 0. -1.
        -11    1    4    4    0    0 -0.15946722115E-01  0.47047436927E-01  0.66453744868E-01  0.82970600791E-01  0.51100000000E-03 0.  1.
         11    1    4    4    0    0 -0.17060472016E-01  0.14276076371E-01  0.40058413188E-01  0.45823614546E-01  0.51100000000E-03 0. -1.
</event>
<event>
 8    1  0.1170483E+005  0.1043930E+01  0.7957747E-01            NaN
         13   -1    0    0    0    0  0.00000000000E+00  0.00000000000E+00  0.74505805969E-08  0.10566000000E+00  0.10566000000E+00 0. -1.
     999900   -1    0    0    0    0 -0.00000000000E+00 -0.00000000000E+00 -0.74505805969E-08  0.93827000000E+00  0.93827000000E+00 0.  1.
     999902    2    1    2    0    0  0.52972716001E-02 -0.24222314487E-01  0.30905093902E-03  0.10191332841E+01  0.10188315728E+01 0.  0.
     999903    2    3    3    0    0  0.38374651715E-01  0.11520476963E+00 -0.31446431086E-01  0.12697722407E+00  0.19737896697E-01 0.  0.
         14    1    1    2    0    0 -0.52972716001E-02  0.24222314487E-01 -0.30905093902E-03  0.24796715871E-01  0.00000000000E+00 0. -1.
     999901    1    3    3    0    0 -0.33077380115E-01 -0.13942708411E+00  0.31755482025E-01  0.89215606006E+00  0.88000000000E+00 0.  1.
        -11    1    4    4    0    0  0.17144931155E-01  0.80297152576E-01 -0.19230621069E-01  0.84330654473E-01  0.51100000000E-03 0.  1.
         11    1    4    4    0    0  0.21229720560E-01  0.34907617050E-01 -0.12215810017E-01  0.42646569598E-01  0.51100000000E-03 0. -1.
</event>
<event>
 8    1  0.1170483E+005  0.1043930E+01  0.7957747E-01            NaN
         13   -1    0    0    0    0  0.00000000000E+00  0.00000000000E+00  0.74505805969E-08  0.10566000000E+00  0.10566000000E+00 0. -1.
     999900   -1    0    0    0    0 -0.00000000000E+00 -0.00000000000E+00 -0.74505805969E-08  0.93827000000E+00  0.93827000000E+00 0.  1.
     999902    2    1    2    0    0 -0.18887812929E-02 -0.23285683610E-01 -0.10109035855E-01  0.10184744866E+01  0.10181563223E+01 0.  0.
     999903    2    3    3    0    0 -0.84940603455E-01 -0.97765305780E-01  0.76374150208E-02  0.13125424575E+00  0.19909439680E-01 0.  0.
         14    1    1    2    0    0  0.18887812929E-02  0.23285683610E-01  0.10109035855E-01  0.25455513389E-01  0.00000000000E+00 0. -1.
     999901    1    3    3    0    0  0.83051822162E-01  0.74479622170E-01 -0.17746450876E-01  0.88722024087E+00  0.88000000000E+00 0.  1.
        -11    1    4    4    0    0 -0.38926759665E-01 -0.31657086028E-01  0.73091913589E-02  0.50706499713E-01  0.51100000000E-03 0.  1.
         11    1    4    4    0    0 -0.46013843790E-01 -0.66108219753E-01  0.32822366189E-03  0.80547746033E-01  0.51100000000E-03 0. -1.
</event>
<event>
 8    1  0.1170483E+005  0.1043930E+01  0.7957747E-01            NaN
         13   -1    0    0    0    0  0.00000000000E+00  0.00000000000E+00  0.74505805969E-08  0.10566000000E+00  0.10566000000E+00 0. -1.
     999900   -1    0    0    0    0 -0.00000000000E+00 -0.00000000000E+00 -0.74505805969E-08  0.93827000000E+00  0.93827000000E+00 0.  1.
     999902    2    1    2    0    0  0.39351025554E-02 -0.14409556653E-01  0.16545927547E-01  0.10216390136E+01  0.10213958029E+01 0.  0.
     999903    2    3    3    0    0  0.47030646613E-01 -0.97095777361E-01 -0.73346040803E-01  0.13215893910E+00  0.21139341990E-01 0.  0.
         14    1    1    2    0    0 -0.39351025554E-02  0.14409556653E-01 -0.16545927547E-01  0.22290986372E-01  0.00000000000E+00 0.  1.
     999901    1    3    3    0    0 -0.43095544057E-01  0.82686220708E-01  0.89891968350E-01  0.88948007453E+00  0.88000000000E+00 0. -1.
        -11    1    4    4    0    0  0.84574681502E-02 -0.24279840504E-01 -0.78199976714E-02  0.26878484090E-01  0.51100000000E-03 0. -1.
         11    1    4    4    0    0  0.38573178462E-01 -0.72815936857E-01 -0.65526043132E-01  0.10528045501E+00  0.51100000000E-03 0.  1.
</event>
<event>
 8    1  0.1170483E+005  0.1043930E+01  0.7957747E-01            NaN
         13   -1    0    0    0    0  0.00000000000E+00  0.00000000000E+00  0.74505805969E-08  0.10566000000E+00  0.10566000000E+00 0.  1.
     999900   -1    0    0    0    0 -0.00000000000E+00 -0.00000000000E+00 -0.74505805969E-08  0.93827000000E+00  0.93827000000E+00 0. -1.
     999902    2    1    2    0    0  0.23103776078E-01  0.47259239015E-02 -0.10305945955E-01  0.10181942010E+01  0.10178689010E+01 0.  0.
     999903    2    3    3    0    0  0.46756493063E-02  0.90107671253E-01  0.88992564096E-01  0.12831228038E+00  0.20077617285E-01 0.  0.
         14    1    1    2    0    0 -0.23103776078E-01 -0.47259239015E-02  0.10305945955E-01  0.25735798954E-01  0.00000000000E+00 0.  1.
     999901    1    3    3    0    0  0.18428126771E-01 -0.85381747351E-01 -0.99298510051E-01  0.88988192067E+00  0.88000000000E+00 0. -1.
        -11    1    4    4    0    0 -0.51461345154E-02  0.24985720409E-01  0.34014423988E-01  0.42520713599E-01  0.51100000000E-03 0.  1.
         11    1    4    4    0    0  0.98217838217E-02  0.65121950844E-01  0.54978140109E-01  0.85791566777E-01  0.51100000000E-03 0. -1.
</event>
<event>
 8    1  0.1170483E+005  0.1043930E+01  0.7957747E-01            NaN
         13   -1    0    0    0    0  0.00000000000E+00  0.00000000000E+00  0.74505805969E-08  0.10566000000E+00  0.10566000000E+00 0. -1.
     999900   -1    0    0    0    0 -0.00000000000E+00 -0.00000000000E+00 -0.74505805969E-08  0.93827000000E+00  0.93827000000E+00 0.  1.
     999902    2    1    2    0    0 -0.47652329949E-02  0.11877322714E-01  0.20895262109E-01  0.10194271386E+01  0.10191326217E+01 0.  0.
     999903    2    3    3    0    0  0.10435500811E+00  0.10969674391E-01 -0.70761326745E-01  0.12796262377E+00  0.18893550366E-01 0.  0.
         14    1    1    2    0    0  0.47652329949E-02 -0.11877322714E-01 -0.20895262109E-01  0.24502861444E-01  0.00000000000E+00 0.  1.
     999901    1    3    3    0    0 -0.10912024110E+00  0.90764832314E-03  0.91656588854E-01  0.89146451479E+00  0.88000000000E+00 0. -1.
        -11    1    4    4    0    0  0.60876540070E-01 -0.29270589517E-02 -0.39225157946E-01  0.72480307269E-01  0.51100000000E-03 0.  1.
         11    1    4    4    0    0  0.43478468039E-01  0.13896733343E-01 -0.31536168799E-01  0.55482316500E-01  0.51100000000E-03 0. -1.
</event>
<event>
 8    1  0.1170483E+005  0.1043930E+01  0.7957747E-01            NaN
         13   -1    0    0    0    0  0.00000000000E+00  0.00000000000E+00  0.74505805969E-08  0.10566000000E+00  0.10566000000E+00 0.  1.
     999900   -1    0    0    0    0 -0.00000000000E+00 -0.00000000000E+00 -0.74505805969E-08  0.93827000000E+00  0.93827000000E+00 0. -1.
     999902    2    1    2    0    0 -0.81926008167E-02 -0.16339119707E-02  0.19340109735E-01  0.10228627690E+01  0.10226457921E+01 0.  0.
     999903    2    3    3    0    0  0.63981009318E-02 -0.12414652841E+00 -0.40904779656E-01  0.13221599478E+00  0.18830084052E-01 0.  0.
         14    1    1    2    0    0  0.81926008167E-02  0.16339119707E-02 -0.19340109735E-01  0.21067230976E-01  0.00000000000E+00 0. -1.
     999901    1    3    3    0    0 -0.14590701748E-01  0.12251261644E+00  0.60244889391E-01  0.89064677424E+00  0.88000000000E+00 0.  1.
        -11    1    4    4    0    0  0.97179547546E-02 -0.95835603287E-01 -0.38023302392E-01  0.10356125795E+00  0.51100000000E-03 0.  1.
         11    1    4    4    0    0 -0.33198538229E-02 -0.28310925126E-01 -0.28814772641E-02  0.28654736836E-01  0.51100000000E-03 0. -1.
</event>
<event>
 8    1  0.1170483E+005  0.1043930E+01  0.7957747E-01            NaN
         13   -1    0    0    0    0  0.00000000000E+00  0.00000000000E+00  0.74505805969E-08  0.10566000000E+00  0.10566000000E+00 0. -1.
     999900   -1    0    0    0    0 -0.00000000000E+00 -0.00000000000E+00 -0.74505805969E-08  0.93827000000E+00  0.93827000000E+00 0. -1.
     999902    2    1    2    0    0  0.28752585761E-03 -0.19412262076E-01 -0.14047837895E-01  0.10199662703E+01  0.10196847220E+01 0.  0.
     999903    2    3    3    0    0 -0.18387497302E-01  0.10953596085E+00 -0.62722046392E-01  0.12904226726E+00  0.19535220946E-01 0.  0.
         14    1    1    2    0    0 -0.28752585761E-03  0.19412262076E-01  0.14047837895E-01  0.23963729667E-01  0.00000000000E+00 0. -1.
     999901    1    3    3    0    0  0.18675023160E-01 -0.12894822293E+00  0.48674208497E-01  0.89092400308E+00  0.88000000000E+00 0. -1.
        -11    1    4    4    0    0 -0.88965959446E-02  0.62507574424E-01 -0.46427090289E-01  0.78371436847E-01  0.51100000000E-03 0.  1.
         11    1    4    4    0    0 -0.94909013574E-02  0.47028386431E-01 -0.16294956103E-01  0.50670830409E-01  0.51100000000E-03 0. -1.
</event>
<event>
 8    1  0.1170483E+005  0.1043930E+01  0.7957747E-01            NaN
         13   -1    0    0    0    0  0.00000000000E+00  0.00000000000E+00  0.74505805969E-08  0.10566000000E+00  0.10566000000E+00 0. -1.
     999900   -1    0    0    0    0 -0.00000000000E+00 -0.00000000000E+00 -0.74505805969E-08  0.93827000000E+00  0.93827000000E+00 0. -1.
     999902    2    1    2    0    0 -0.37049557665E-02 -0.98693064295E-02  0.20788872922E-01  0.10206210501E+01  0.10203548504E+01 0.  0.
     999903    2    3    3    0    0 -0.53302373887E-02 -0.29817290810E-01 -0.12350756554E+00  0.12864457860E+00  0.19437762068E-01 0.  0.
         14    1    1    2    0    0  0.37049557665E-02  0.98693064295E-02 -0.20788872922E-01  0.23308949869E-01  0.00000000000E+00 0.  1.
     999901    1    3    3    0    0  0.16252816222E-02  0.19947984381E-01  0.14429643846E+00  0.89197647154E+00  0.88000000000E+00 0.  1.
        -11    1    4    4    0    0 -0.10745670960E-01 -0.17822029600E-01 -0.94815802744E-01  0.97074155955E-01  0.51100000000E-03 0.  1.
         11    1    4    4    0    0  0.54154335712E-02 -0.11995261210E-01 -0.28691762797E-01  0.31570422640E-01  0.51100000000E-03 0. -1.
</event>
<event>
 8    1  0.1170483E+005  0.1043930E+01  0.7957747E-01            NaN
         13   -1    0    0    0    0  0.00000000000E+00  0.00000000000E+00  0.74505805969E-08  0.10566000000E+00  0.10566000000E+00 0.  1.
     999900   -1    0    0    0    0 -0.00000000000E+00 -0.00000000000E+00 -0.74505805969E-08  0.93827000000E+00  0.93827000000E+00 0.  1.
     999902    2    1    2    0    0 -0.85462415768E-02  0.44707310436E-02 -0.20858373879E-01  0.10209496292E+01  0.10206909659E+01 0.  0.
     999903    2    3    3    0    0 -0.72709416786E-01 -0.94236248913E-01  0.49393572532E-01  0.13033449520E+00  0.19499377737E-01 0.  0.
         14    1    1    2    0    0  0.85462415768E-02 -0.44707310436E-02  0.20858373879E-01  0.22980370798E-01  0.00000000000E+00 0.  1.
     999901    1    3    3    0    0  0.64163175209E-01  0.98706979956E-01 -0.70251946411E-01  0.89061513401E+00  0.88000000000E+00 0.  1.
        -11    1    4    4    0    0 -0.33360031677E-01 -0.55946059180E-01  0.33066773297E-01  0.73051528858E-01  0.51100000000E-03 0.  1.
         11    1    4    4    0    0 -0.39349385109E-01 -0.38290189733E-01  0.16326799234E-01  0.57282966338E-01  0.51100000000E-03 0. -1.
</event>
<event>
 8    1  0.1170483E+005  0.1043930E+01  0.7957747E-01            NaN
         13   -1    0    0    0    0  0.00000000000E+00  0.00000000000E+00  0.74505805969E-08  0.10566000000E+00  0.10566000000E+00 0.  1.
     999900   -1    0    0    0    0 -0.00000000000E+00 -0.00000000000E+00 -0.74505805969E-08  0.93827000000E+00  0.93827000000E+00 0. -1.
     999902    2    1    2    0    0 -0.37417357591E-02 -0.23012643261E-01 -0.15582614993E-02  0.10205631321E+01  0.10202955925E+01 0.  0.
     999903    2    3    3    0    0  0.72497075200E-01  0.30820709547E-01 -0.10035031282E+00  0.13013050940E+00  0.25651942293E-01 0.  0.
         14    1    1    2    0    0  0.37417357591E-02  0.23012643261E-01  0.15582614993E-02  0.23366867896E-01  0.00000000000E+00 0.  1.
     999901    1    3    3    0    0 -0.76238810959E-01 -0.53833352808E-01  0.98792051324E-01  0.89043262270E+00  0.88000000000E+00 0.  1.
        -11    1    4    4    0    0  0.38729181963E-01  0.50234329817E-02 -0.36681468599E-01  0.53581486299E-01  0.51100000000E-03 0. -1.
         11    1    4    4    0    0  0.33767893237E-01  0.25797276566E-01 -0.63668844224E-01  0.76549023101E-01  0.51100000000E-03 0.  1.
</event>
<event>
 8    1  0.1170483E+005  0.1043930E+01  0.7957747E-01            NaN
         13   -1    0    0    0    0  0.00000000000E+00  0.00000000000E+00  0.74505805969E-08  0.10566000000E+00  0.10566000000E+00 0. -1.
     999900   -1    0    0    0    0 -0.00000000000E+00 -0.00000000000E+00 -0.74505805969E-08  0.93827000000E+00  0.93827000000E+00 0. -1.
     999902    2    1    2    0    0  0.19011738607E-01  0.16941731351E-01 -0.23396656653E-02  0.10183577005E+01  0.10180365729E+01 0.  0.
     999903    2    3    3    0    0 -0.10425854670E+00 -0.26264499419E-01  0.63102290326E-01  0.12631230299E+00  0.20328068123E-01 0.  0.
         14    1    1    2    0    0 -0.19011738607E-01 -0.16941731351E-01  0.23396656653E-02  0.25572299495E-01  0.00000000000E+00 0.  1.
     999901    1    3    3    0    0  0.12327028531E+00  0.43206230770E-01 -0.65441955991E-01  0.89204539751E+00  0.88000000000E+00 0. -1.
        -11    1    4    4    0    0 -0.60203290845E-01 -0.17286556705E-01  0.25245253918E-01  0.67534030220E-01  0.51100000000E-03 0.  1.
         11    1    4    4    0    0 -0.44055255855E-01 -0.89779427146E-02  0.37857036407E-01  0.58778272774E-01  0.51100000000E-03 0. -1.
</event>
<event>
 8    1  0.1170483E+005  0.1043930E+01  0.7957747E-01            NaN
         13   -1    0    0    0    0  0.00000000000E+00  0.00000000000E+00  0.74505805969E-08  0.10566000000E+00  0.10566000000E+00 0.  1.
     999900   -1    0    0    0    0 -0.00000000000E+00 -0.00000000000E+00 -0.74505805969E-08  0.93827000000E+00  0.93827000000E+00 0. -1.
     999902    2    1    2    0    0  0.97625634594E-02  0.27146652463E-01  0.11853643704E-01  0.10127409434E+01  0.10122605698E+01 0.  0.
     999903    2    3    3    0    0 -0.80522200597E-01 -0.80677559635E-01 -0.33199821428E-01  0.12043650313E+00  0.20249190710E-01 0.  0.
         14    1    1    2    0    0 -0.97625634594E-02 -0.27146652463E-01 -0.11853643704E-01  0.31189056644E-01  0.00000000000E+00 0.  1.
     999901    1    3    3    0    0  0.90284764057E-01  0.10782421210E+00  0.45053465132E-01  0.89230444023E+00  0.88000000000E+00 0. -1.
        -11    1    4    4    0    0 -0.46624707648E-01 -0.59910139021E-01 -0.19441507183E-01  0.78366583716E-01  0.51100000000E-03 0.  1.
         11    1    4    4    0    0 -0.33897492949E-01 -0.20767420614E-01 -0.13758314245E-01  0.42069919409E-01  0.51100000000E-03 0. -1.
</event>
<event>
 8    1  0.1170483E+005  0.1043930E+01  0.7957747E-01            NaN
         13   -1    0    0    0    0  0.00000000000E+00  0.00000000000E+00  0.74505805969E-08  0.10566000000E+00  0.10566000000E+00 0.  1.
     999900   -1    0    0    0    0 -0.00000000000E+00 -0.00000000000E+00 -0.74505805969E-08  0.93827000000E+00  0.93827000000E+00 0.  1.
     999902    2    1    2    0    0 -0.96899509535E-02 -0.20532059806E-01  0.60531465024E-02  0.10204331659E+01  0.10201626071E+01 0.  0.
     999903    2    3    3    0    0  0.21288100412E-01 -0.11614916105E+00 -0.56634474426E-01  0.13249622698E+00  0.20099145190E-01 0.  0.
         14    1    1    2    0    0  0.96899509535E-02  0.20532059806E-01 -0.60531465024E-02  0.23496834084E-01  0.00000000000E+00 0. -1.
     999901    1    3    3    0    0 -0.30978051365E-01  0.95617101245E-01  0.62687620929E-01  0.88793693894E+00  0.88000000000E+00 0. -1.
        -11    1    4    4    0    0 -0.24759842471E-02 -0.35464373965E-01 -0.19498133521E-01  0.40549853890E-01  0.51100000000E-03 0.  1.
         11    1    4    4    0    0  0.23764084659E-01 -0.80684787086E-01 -0.37136340905E-01  0.91946373086E-01  0.51100000000E-03 0. -1.
</event>
<event>
 8    1  0.1170483E+005  0.1043930E+01  0.7957747E-01            NaN
         13   -1    0    0    0    0  0.00000000000E+00  0.00000000000E+00  0.74505805969E-08  0.10566000000E+00  0.10566000000E+00 0. -1.
     999900   -1    0    0    0    0 -0.00000000000E+00 -0.00000000000E+00 -0.74505805969E-08  0.93827000000E+00  0.93827000000E+00 0.  1.
     999902    2    1    2    0    0 -0.14555437241E-01  0.93419805764E-02 -0.16778557445E-01  0.10198332503E+01  0.10195485301E+01 0.  0.
     999903    2    3    3    0    0  0.69457633310E-01 -0.13046945220E-01  0.10340865114E+00  0.12741831034E+00  0.23398527189E-01 0.  0.
         14    1    1    2    0    0  0.14555437241E-01 -0.93419805764E-02  0.16778557445E-01  0.24096749662E-01  0.00000000000E+00 0. -1.
     999901    1    3    3    0    0 -0.84013070551E-01  0.22388925796E-01 -0.12018720859E+00  0.89241494000E+00  0.88000000000E+00 0.  1.
        -11    1    4    4    0    0  0.39302679423E-01 -0.40672538481E-02  0.76122613651E-01  0.85768039465E-01  0.51100000000E-03 0.  1.
         11    1    4    4    0    0  0.30154953887E-01 -0.89796913717E-02  0.27286037491E-01  0.41650270876E-01  0.51100000000E-03 0. -1.
</event>
<event>
 8    1  0.1170483E+005  0.1043930E+01  0.7957747E-01            NaN
         13   -1    0    0    0    0  0.00000000000E+00  0.00000000000E+00  0.74505805969E-08  0.10566000000E+00  0.10566000000E+00 0.  1.
     999900   -1    0    0    0    0 -0.00000000000E+00 -0.00000000000E+00 -0.74505805969E-08  0.93827000000E+00  0.93827000000E+00 0.  1.
     999902    2    1    2    0    0  0.10842861543E-01 -0.73973565932E-02 -0.19307663341E-01  0.10205831716E+01  0.10203160960E+01 0.  0.
     999903    2    3    3    0    0 -0.59637178515E-01  0.41038496044E-02 -0.11646371379E+00  0.13236078286E+00  0.19548543815E-01 0.  0.
         14    1    1    2    0    0 -0.10842861543E-01  0.73973565932E-02  0.19307663341E-01  0.23346828365E-01  0.00000000000E+00 0. -1.
     999901    1    3    3    0    0  0.70480040058E-01 -0.11501206198E-01  0.97156050450E-01  0.88822238878E+00  0.88000000000E+00 0. -1.
        -11    1    4    4    0    0 -0.32309648314E-01  0.94915697354E-02 -0.49893554551E-01  0.60196604364E-01  0.51100000000E-03 0. -1.
         11    1    4    4    0    0 -0.27327530201E-01 -0.53877201310E-02 -0.66570159240E-01  0.72164178491E-01  0.51100000000E-03 0.  1.
</event>
<event>
 8    1  0.1170483E+005  0.1043930E+01  0.7957747E-01            NaN
         13   -1    0    0    0    0  0.00000000000E+00  0.00000000000E+00  0.74505805969E-08  0.10566000000E+00  0.10566000000E+00 0. -1.
     999900   -1    0    0    0    0 -0.00000000000E+00 -0.00000000000E+00 -0.74505805969E-08  0.93827000000E+00  0.93827000000E+00 0.  1.
     999902    2    1    2    0    0 -0.99098413082E-02 -0.13863835224E-01  0.17051344383E-01  0.10198227557E+01  0.10195377844E+01 0.  0.
     999903    2    3    3    0    0  0.12648597235E+00 -0.14481201149E-01 -0.62050228154E-02  0.12901129545E+00  0.19925000833E-01 0.  0.
         14    1    1    2    0    0  0.99098413082E-02  0.13863835224E-01 -0.17051344383E-01  0.24107244288E-01  0.00000000000E+00 0.  1.
     999901    1    3    3    0    0 -0.13639581365E+00  0.61736592473E-03  0.23256367199E-01  0.89081146026E+00  0.88000000000E+00 0. -1.
        -11    1    4    4    0    0  0.36440813449E-01 -0.26955256659E-02 -0.10722070059E-01  0.38084414801E-01  0.51100000000E-03 0.  1.
         11    1    4    4    0    0  0.90045158897E-01 -0.11785675483E-01  0.45170472437E-02  0.90926880646E-01  0.51100000000E-03 0. -1.
</event>
<event>
 8    1  0.1170483E+005  0.1043930E+01  0.7957747E-01            NaN
         13   -1    0    0    0    0  0.00000000000E+00  0.00000000000E+00  0.74505805969E-08  0.10566000000E+00  0.10566000000E+00 0. -1.
     999900   -1    0    0    0    0 -0.00000000000E+00 -0.00000000000E+00 -0.74505805969E-08  0.93827000000E+00  0.93827000000E+00 0.  1.
     999902    2    1    2    0    0  0.14231494897E-01 -0.79520694590E-02  0.17135311107E-01  0.10202785784E+01  0.10200044058E+01 0.  0.
     999903    2    3    3    0    0 -0.12240417158E+00  0.25330403946E-01  0.26277802952E-01  0.12906557721E+00  0.18519981313E-01 0.  0.
         14    1    1    2    0    0 -0.14231494897E-01  0.79520694590E-02 -0.17135311107E-01  0.23651421573E-01  0.00000000000E+00 0.  1.
     999901    1    3    3    0    0  0.13663566647E+00 -0.33282473405E-01 -0.91424918453E-02  0.89121300122E+00  0.88000000000E+00 0. -1.
        -11    1    4    4    0    0 -0.11087549149E+00  0.20705634796E-01  0.28727562255E-01  0.11639429488E+00  0.51100000000E-03 0.  1.
         11    1    4    4    0    0 -0.11528680086E-01  0.46247691500E-02 -0.24497593028E-02  0.12671282329E-01  0.51100000000E-03 0. -1.
</event>
<event>
 8    1  0.1170483E+005  0.1043930E+01  0.7957747E-01            NaN
         13   -1    0    0    0    0  0.00000000000E+00  0.00000000000E+00  0.74505805969E-08  0.10566000000E+00  0.10566000000E+00 0.  1.
     999900   -1    0    0    0    0 -0.00000000000E+00 -0.00000000000E+00 -0.74505805969E-08  0.93827000000E+00  0.93827000000E+00 0.  1.
     999902    2    1    2    0    0  0.52097344822E-02  0.13659362630E-01 -0.18687711614E-01  0.10202034308E+01  0.10199274926E+01 0.  0.
     999903    2    3    3    0    0  0.51448684425E-01 -0.10924599750E+00 -0.44168411851E-01  0.13009499126E+00  0.19804116929E-01 0.  0.
         14    1    1    2    0    0 -0.52097344822E-02 -0.13659362630E-01  0.18687711614E-01  0.23726569204E-01  0.00000000000E+00 0.  1.
     999901    1    3    3    0    0 -0.46238949942E-01  0.12290536013E+00  0.25480700236E-01  0.89010843953E+00  0.88000000000E+00 0. -1.
        -11    1    4    4    0    0  0.10744121818E-01 -0.23452680807E-01 -0.18429041885E-01  0.31707335058E-01  0.51100000000E-03 0.  1.
         11    1    4    4    0    0  0.40704562606E-01 -0.85793316695E-01 -0.25739369966E-01  0.98387656206E-01  0.51100000000E-03 0. -1.
</event>
<event>
 8    1  0.1428335E+005  0.1043930E+01  0.7957747E-01            NaN
         13   -1    0    0    0    0  0.00000000000E+00  0.00000000000E+00  0.74505805969E-08  0.10566000000E+00  0.10566000000E+00 0. -1.
     999900   -1    0    0    0    0 -0.00000000000E+00 -0.00000000000E+00 -0.74505805969E-08  0.93827000000E+00  0.93827000000E+00 0. -1.
     999902    2    1    2    0    0 -0.21031179039E-01  0.79011477450E-02  0.10283740342E-01  0.10192218244E+01  0.10189222901E+01 0.  0.
     999903    2    3    3    0    0  0.24886138862E-01  0.58117326946E-01  0.11305779223E+00  0.13063160921E+00  0.16899980578E-01 0.  0.
         14    1    1    2    0    0  0.21031179039E-01 -0.79011477450E-02 -0.10283740342E-01  0.24708175628E-01  0.00000000000E+00 0. -1.
     999901    1    3    3    0    0 -0.45917317901E-01 -0.50216179201E-01 -0.10277405188E+00  0.88859021516E+00  0.88000000000E+00 0. -1.
        -11    1    4    4    0    0  0.13720910693E-01  0.38403543873E-01  0.87085272077E-01  0.96162369490E-01  0.51100000000E-03 0.  1.
         11    1    4    4    0    0  0.11165228169E-01  0.19713783073E-01  0.25972520149E-01  0.34469239723E-01  0.51100000000E-03 0. -1.
</event>
<event>
 8    1  0.1170483E+005  0.1043930E+01  0.7957747E-01            NaN
         13   -1    0    0    0    0  0.00000000000E+00  0.00000000000E+00  0.74505805969E-08  0.10566000000E+00  0.10566000000E+00 0.  1.
     999900   -1    0    0    0    0 -0.00000000000E+00 -0.00000000000E+00 -0.74505805969E-08  0.93827000000E+00  0.93827000000E+00 0.  1.
     999902    2    1    2    0    0 -0.11985317030E-01 -0.11265609993E-01 -0.16776720643E-01  0.10204348910E+01  0.10201643723E+01 0.  0.
     999903    2    3    3    0    0 -0.11930265039E+00  0.37296320215E-01  0.34576383684E-01  0.13110232526E+00  0.19187378334E-01 0.  0.
         14    1    1    2    0    0  0.11985317030E-01  0.11265609993E-01  0.16776720643E-01  0.23495109031E-01  0.00000000000E+00 0.  1.
     999901    1    3    3    0    0  0.10731733336E+00 -0.48561930208E-01 -0.51353104327E-01  0.88933256571E+00  0.88000000000E+00 0.  1.
        -11    1    4    4    0    0 -0.57908798805E-01  0.25878544585E-01  0.23702304558E-01  0.67714019311E-01  0.51100000000E-03 0.  1.
         11    1    4    4    0    0 -0.61393851590E-01  0.11417775630E-01  0.10874079125E-01  0.63388305950E-01  0.51100000000E-03 0. -1.
</event>
<event>
 8    1  0.1170483E+005  0.1043930E+01  0.7957747E-01            NaN
         13   -1    0    0    0    0  0.00000000000E+00  0.00000000000E+00  0.74505805969E-08  0.10566000000E+00  0.10566000000E+00 0. -1.
     999900   -1    0    0    0    0 -0.00000000000E+00 -0.00000000000E+00 -0.74505805969E-08  0.93827000000E+00  0.93827000000E+00 0. -1.
     999902    2    1    2    0    0 -0.22936308617E-01  0.18644810568E-03  0.36258146412E-02  0.10207081235E+01  0.10204439318E+01 0.  0.
     999903    2    3    3    0    0  0.12530304824E-01  0.12262720290E+00  0.38603923120E-01  0.13083561176E+00  0.20814778244E-01 0.  0.
         14    1    1    2    0    0  0.22936308617E-01 -0.18644810568E-03 -0.36258146412E-02  0.23221876489E-01  0.00000000000E+00 0.  1.
     999901    1    3    3    0    0 -0.35466613441E-01 -0.12244075479E+00 -0.34978108479E-01  0.88987251175E+00  0.88000000000E+00 0. -1.
        -11    1    4    4    0    0  0.24777531573E-03  0.87487238620E-01  0.22942121059E-01  0.90447113572E-01  0.51100000000E-03 0.  1.
         11    1    4    4    0    0  0.12282529509E-01  0.35139964280E-01  0.15661802061E-01  0.40388498184E-01  0.51100000000E-03 0. -1.
</event>
<event>
 8    1  0.1170483E+005  0.1043930E+01  0.7957747E-01            NaN
         13   -1    0    0    0    0  0.00000000000E+00  0.00000000000E+00  0.74505805969E-08  0.10566000000E+00  0.10566000000E+00 0.  1.
     999900   -1    0    0    0    0 -0.00000000000E+00 -0.00000000000E+00 -0.74505805969E-08  0.93827000000E+00  0.93827000000E+00 0. -1.
     999902    2    1    2    0    0  0.32155339308E-02 -0.10569024306E-01  0.21005159051E-01  0.10201968873E+01  0.10199207950E+01 0.  0.
     999903    2    3    3    0    0  0.61421005025E-01 -0.95142048323E-01  0.68979918140E-01  0.13293026963E+00  0.93636670588E-02 0.  0.
         14    1    1    2    0    0 -0.32155339308E-02  0.10569024306E-01 -0.21005159051E-01  0.23733112733E-01  0.00000000000E+00 0. -1.
     999901    1    3    3    0    0 -0.58205471095E-01  0.84573024018E-01 -0.47974759089E-01  0.88726661763E+00  0.88000000000E+00 0. -1.
        -11    1    4    4    0    0  0.39147526819E-01 -0.66526700095E-01  0.50325750940E-01  0.92148103672E-01  0.51100000000E-03 0. -1.
         11    1    4    4    0    0  0.22273478207E-01 -0.28615348228E-01  0.18654167201E-01  0.40782165962E-01  0.51100000000E-03 0.  1.
</event>
<event>
 8    1  0.1170483E+005  0.1043930E+01  0.7957747E-01            NaN
         13   -1    0    0    0    0  0.00000000000E+00  0.00000000000E+00  0.74505805969E-08  0.10566000000E+00  0.10566000000E+00 0.  1.
     999900   -1    0    0    0    0 -0.00000000000E+00 -0.00000000000E+00 -0.74505805969E-08  0.93827000000E+00  0.93827000000E+00 0.  1.
     999902    2    1    2    0    0 -0.20832513369E-01 -0.72669250449E-02 -0.52462904870E-02  0.10212512572E+01  0.10209994147E+01 0.  0.
     999903    2    3    3    0    0  0.40358879996E-01  0.11107732699E+00 -0.50409185574E-01  0.13007818996E+00  0.20303638772E-01 0.  0.
         14    1    1    2    0    0  0.20832513369E-01  0.72669250449E-02  0.52462904870E-02  0.22678742839E-01  0.00000000000E+00 0.  1.
     999901    1    3    3    0    0 -0.61191393365E-01 -0.11834425203E+00  0.45162895087E-01  0.89117306720E+00  0.88000000000E+00 0. -1.
        -11    1    4    4    0    0  0.15090377432E-01  0.70571798197E-01 -0.30584368439E-01  0.78382159358E-01  0.51100000000E-03 0.  1.
         11    1    4    4    0    0  0.25268502564E-01  0.40505528793E-01 -0.19824817135E-01  0.51696030602E-01  0.51100000000E-03 0. -1.
</event>
<event>
 8    1  0.1170483E+005  0.1043930E+01  0.7957747E-01            NaN
         13   -1    0    0    0    0  0.00000000000E+00  0.00000000000E+00  0.74505805969E-08  0.10566000000E+00  0.10566000000E+00 0. -1.
     999900   -1    0    0    0    0 -0.00000000000E+00 -0.00000000000E+00 -0.74505805969E-08  0.93827000000E+00  0.93827000000E+00 0.  1.
     999902    2    1    2    0    0 -0.24150479116E-01  0.66635752210E-02  0.34401871759E-02  0.10186419838E+01  0.10183280451E+01 0.  0.
     999903    2    3    3    0    0  0.29972373722E-01  0.10251140852E+00  0.70098545166E-01  0.12928298595E+00  0.19833112658E-01 0.  0.
         14    1    1    2    0    0  0.24150479116E-01 -0.66635752210E-02 -0.34401871759E-02  0.25288016214E-01  0.00000000000E+00 0. -1.
     999901    1    3    3    0    0 -0.54122852838E-01 -0.95847833298E-01 -0.66658357990E-01  0.88935899784E+00  0.88000000000E+00 0.  1.
        -11    1    4    4    0    0  0.30726717493E-01  0.75039260614E-01  0.50566711357E-01  0.95562938527E-01  0.51100000000E-03 0. -1.
         11    1    4    4    0    0 -0.75434377080E-03  0.27472147905E-01  0.19531833809E-01  0.33720047420E-01  0.51100000000E-03 0.  1.
</event>
<event>
 8    1  0.1170483E+005  0.1043930E+01  0.7957747E-01            NaN
         13   -1    0    0    0    0  0.00000000000E+00  0.00000000000E+00  0.74505805969E-08  0.10566000000E+00  0.10566000000E+00 0.  1.
     999900   -1    0    0    0    0 -0.00000000000E+00 -0.00000000000E+00 -0.74505805969E-08  0.93827000000E+00  0.93827000000E+00 0.  1.
     999902    2    1    2    0    0 -0.21225960206E-01  0.82718673963E-02  0.50683210943E-02  0.10205921969E+01  0.10203253301E+01 0.  0.
     999903    2    3    3    0    0  0.43786527556E-01 -0.85758752709E-01 -0.83190375076E-01  0.12881981641E+00  0.20052005686E-01 0.  0.
         14    1    1    2    0    0  0.21225960206E-01 -0.82718673963E-02 -0.50683210943E-02  0.23337803145E-01  0.00000000000E+00 0. -1.
     999901    1    3    3    0    0 -0.65012487762E-01  0.94030620105E-01  0.88258696171E-01  0.89177238045E+00  0.88000000000E+00 0. -1.
        -11    1    4    4    0    0  0.43432313624E-02 -0.25240512068E-01 -0.16265423682E-01  0.30344229051E-01  0.51100000000E-03 0. -1.
         11    1    4    4    0    0  0.39443296194E-01 -0.60518240641E-01 -0.66924951395E-01  0.98475587356E-01  0.51100000000E-03 0.  1.
</event>
<event>
 8    1  0.1170483E+005  0.1043930E+01  0.7957747E-01            NaN
         13   -1    0    0    0    0  0.00000000000E+00  0.00000000000E+00  0.74505805969E-08  0.10566000000E+00  0.10566000000E+00 0.  1.
     999900   -1    0    0    0    0 -0.00000000000E+00 -0.00000000000E+00 -0.74505805969E-08  0.93827000000E+00  0.93827000000E+00 0. -1.
     999902    2    1    2    0    0  0.14784953757E-01 -0.12802288708E-01  0.12787098661E-01  0.10205632855E+01  0.10202957495E+01 0.  0.
     999903    2    3    3    0    0  0.12097641217E-01  0.12581297638E+00  0.20821733450E-01  0.12967273740E+00  0.20154808163E-01 0.  0.
         14    1    1    2    0    0 -0.14784953757E-01  0.12802288708E-01 -0.12787098661E-01  0.23366714487E-01  0.00000000000E+00 0.  1.
     999901    1    3    3    0    0  0.26873125395E-02 -0.13861526509E+00 -0.80346347887E-02  0.89089054811E+00  0.88000000000E+00 0. -1.
        -11    1    4    4    0    0  0.12784709611E-01  0.36587913848E-01  0.64442928402E-02  0.39292674519E-01  0.51100000000E-03 0. -1.
         11    1    4    4    0    0 -0.68706839439E-03  0.89225062531E-01  0.14377440609E-01  0.90380062880E-01  0.51100000000E-03 0.  1.
</event>
<event>
 8    1  0.1170483E+005  0.1043930E+01  0.7957747E-01            NaN
         13   -1    0    0    0    0  0.00000000000E+00  0.00000000000E+00  0.74505805969E-08  0.10566000000E+00  0.10566000000E+00 0. -1.
     999900   -1    0    0    0    0 -0.00000000000E+00 -0.00000000000E+00 -0.74505805969E-08  0.93827000000E+00  0.93827000000E+00 0.  1.
     999902    2    1    2    0    0  0.10780035465E-01  0.22311015122E-01  0.10550871802E-01  0.10169983930E+01  0.10166417363E+01 0.  0.
     999903    2    3    3    0    0 -0.11215551856E+00 -0.43568473197E-01  0.30883078269E-01  0.12578200173E+00  0.19755384991E-01 0.  0.
         14    1    1    2    0    0 -0.10780035465E-01 -0.22311015122E-01 -0.10550871802E-01  0.26931607011E-01  0.00000000000E+00 0.  1.
     999901    1    3    3    0    0  0.12293555403E+00  0.65879488319E-01 -0.20332206467E-01  0.89121639126E+00  0.88000000000E+00 0.  1.
        -11    1    4    4    0    0 -0.41805703609E-01 -0.11974955897E-01  0.23521616410E-02  0.43553532674E-01  0.51100000000E-03 0.  1.
         11    1    4    4    0    0 -0.70349814952E-01 -0.31593517300E-01  0.28530916628E-01  0.82228469059E-01  0.51100000000E-03 0. -1.
</event>
<event>
 8    1  0.1170483E+005  0.1043930E+01  0.7957747E-01            NaN
         13   -1    0    0    0    0  0.00000000000E+00  0.00000000000E+00  0.74505805969E-08  0.10566000000E+00  0.10566000000E+00 0.  1.
     999900   -1    0    0    0    0 -0.00000000000E+00 -0.00000000000E+00 -0.74505805969E-08  0.93827000000E+00  0.93827000000E+00 0. -1.
     999902    2    1    2    0    0 -0.10625854206E-01 -0.10257093059E-01  0.18285257860E-01  0.10204253751E+01  0.10201546348E+01 0.  0.
     999903    2    3    3    0    0 -0.32831311152E-01 -0.11059576942E+00 -0.58399717738E-01  0.13113266866E+00  0.21815832598E-01 0.  0.
         14    1    1    2    0    0  0.10625854206E-01  0.10257093059E-01 -0.18285257860E-01  0.23504624877E-01  0.00000000000E+00 0. -1.
     999901    1    3    3    0    0  0.22205456947E-01  0.10033867636E+00  0.76684975598E-01  0.88929270647E+00  0.88000000000E+00 0.  1.
        -11    1    4    4    0    0 -0.19312820274E-01 -0.42296901662E-01 -0.32994402270E-01  0.57016704739E-01  0.51100000000E-03 0. -1.
         11    1    4    4    0    0 -0.13518490878E-01 -0.68298867756E-01 -0.25405315468E-01  0.74115963918E-01  0.51100000000E-03 0.  1.
</event>
<event>
 8    1  0.1170483E+005  0.1043930E+01  0.7957747E-01            NaN
         13   -1    0    0    0    0  0.00000000000E+00  0.00000000000E+00  0.74505805969E-08  0.10566000000E+00  0.10566000000E+00 0. -1.
     999900   -1    0    0    0    0 -0.00000000000E+00 -0.00000000000E+00 -0.74505805969E-08  0.93827000000E+00  0.93827000000E+00 0. -1.
     999902    2    1    2    0    0 -0.30681607492E-02  0.75514971969E-02 -0.18376277091E-01  0.10238271077E+01  0.10236297280E+01 0.  0.
     999903    2    3    3    0    0  0.36504758019E-02  0.10433940424E+00  0.80067082164E-01  0.13303861762E+00  0.19710374943E-01 0.  0.
         14    1    1    2    0    0  0.30681607492E-02 -0.75514971969E-02  0.18376277091E-01  0.20102892330E-01  0.00000000000E+00 0. -1.
     999901    1    3    3    0    0 -0.67186365511E-02 -0.96787907045E-01 -0.98443359255E-01  0.89078849005E+00  0.88000000000E+00 0. -1.
        -11    1    4    4    0    0  0.13412462122E-02  0.50473387142E-01  0.51071398949E-01  0.71818595521E-01  0.51100000000E-03 0. -1.
         11    1    4    4    0    0  0.23092295897E-02  0.53866017099E-01  0.28995683215E-01  0.61220022097E-01  0.51100000000E-03 0.  1.
</event>
<event>
 8    1  0.1170483E+005  0.1043930E+01  0.7957747E-01            NaN
         13   -1    0    0    0    0  0.00000000000E+00  0.00000000000E+00  0.74505805969E-08  0.10566000000E+00  0.10566000000E+00 0. -1.
     999900   -1    0    0    0    0 -0.00000000000E+00 -0.00000000000E+00 -0.74505805969E-08  0.93827000000E+00  0.93827000000E+00 0. -1.
     999902    2    1    2    0    0 -0.27671493612E-02  0.12513167036E-01  0.17892794400E-01  0.10219211709E+01  0.10216841445E+01 0.  0.
     999903    2    3    3    0    0  0.85431641910E-01  0.58073128732E-01 -0.78380244415E-01  0.13112195962E+00  0.19453839233E-01 0.  0.
         14    1    1    2    0    0  0.27671493612E-02 -0.12513167036E-01 -0.17892794400E-01  0.22008829053E-01  0.00000000000E+00 0.  1.
     999901    1    3    3    0    0 -0.88198791271E-01 -0.45559961696E-01  0.96273038815E-01  0.89079921132E+00  0.88000000000E+00 0.  1.
        -11    1    4    4    0    0  0.33530933967E-01  0.17942102932E-01 -0.39616310664E-01  0.54917718288E-01  0.51100000000E-03 0. -1.
         11    1    4    4    0    0  0.51900707942E-01  0.40131025800E-01 -0.38763933751E-01  0.76204241335E-01  0.51100000000E-03 0.  1.
</event>
<event>
 8    1  0.1170483E+005  0.1043930E+01  0.7957747E-01            NaN
         13   -1    0    0    0    0  0.00000000000E+00  0.00000000000E+00  0.74505805969E-08  0.10566000000E+00  0.10566000000E+00 0.  1.
     999900   -1    0    0    0    0 -0.00000000000E+00 -0.00000000000E+00 -0.74505805969E-08  0.93827000000E+00  0.93827000000E+00 0. -1.
     999902    2    1    2    0    0 -0.93550974012E-02 -0.19923810297E-01  0.62040377601E-02  0.10210615469E+01  0.10208054253E+01 0.  0.
     999903    2    3    3    0    0 -0.38006384201E-01 -0.10328857641E+00  0.73926143346E-01  0.13406838790E+00  0.19905846107E-01 0.  0.
         14    1    1    2    0    0  0.93550974012E-02  0.19923810297E-01 -0.62040377601E-02  0.22868453132E-01  0.00000000000E+00 0. -1.
     999901    1    3    3    0    0  0.28651286800E-01  0.83364766109E-01 -0.67722105586E-01  0.88699315896E+00  0.88000000000E+00 0.  1.
        -11    1    4    4    0    0 -0.28885548539E-01 -0.86899757798E-01  0.69024083943E-01  0.11467575204E+00  0.51100000000E-03 0. -1.
         11    1    4    4    0    0 -0.91208356623E-02 -0.16388818608E-01  0.49020594025E-02  0.19392635868E-01  0.51100000000E-03 0.  1.
</event>
<event>
 8    1  0.1170483E+005  0.1043930E+01  0.7957747E-01            NaN
         13   -1    0    0    0    0  0.00000000000E+00  0.00000000000E+00  0.74505805969E-08  0.10566000000E+00  0.10566000000E+00 0.  1.
     999900   -1    0    0    0    0 -0.00000000000E+00 -0.00000000000E+00 -0.74505805969E-08  0.93827000000E+00  0.93827000000E+00 0. -1.
     999902    2    1    2    0    0 -0.19410361451E-01  0.73870081240E-02  0.84863587649E-02  0.10214945748E+01  0.10212481667E+01 0.  0.
     999903    2    3    3    0    0 -0.10573334587E+00 -0.69992729537E-02  0.79987552689E-01  0.13426797267E+00  0.20033712798E-01 0.  0.
         14    1    1    2    0    0  0.19410361451E-01 -0.73870081240E-02 -0.84863587649E-02  0.22435425242E-01  0.00000000000E+00 0. -1.
     999901    1    3    3    0    0  0.86322984420E-01  0.14386281078E-01 -0.71501193924E-01  0.88722660209E+00  0.88000000000E+00 0. -1.
        -11    1    4    4    0    0 -0.24250661070E-01 -0.10069273792E-01  0.21006117724E-01  0.33630387150E-01  0.51100000000E-03 0. -1.
         11    1    4    4    0    0 -0.81482684801E-01  0.30700008380E-02  0.58981434965E-01  0.10063758552E+00  0.51100000000E-03 0.  1.
</event>
<event>
 8    1  0.1170483E+005  0.1043930E+01  0.7957747E-01            NaN
         13   -1    0    0    0    0  0.00000000000E+00  0.00000000000E+00  0.74505805969E-08  0.10566000000E+00  0.10566000000E+00 0.  1.
     999900   -1    0    0    0    0 -0.00000000000E+00 -0.00000000000E+00 -0.74505805969E-08  0.93827000000E+00  0.93827000000E+00 0. -1.
     999902    2    1    2    0    0  0.17585330752E-01 -0.99254681241E-02 -0.12670940656E-01  0.10200907149E+01  0.10198121176E+01 0.  0.
     999903    2    3    3    0    0 -0.77965208835E-01 -0.93284230702E-01 -0.43246773261E-01  0.13047648930E+00  0.19321215724E-01 0.  0.
         14    1    1    2    0    0 -0.17585330752E-01  0.99254681241E-02  0.12670940656E-01  0.23839285061E-01  0.00000000000E+00 0.  1.
     999901    1    3    3    0    0  0.95550539587E-01  0.83358762577E-01  0.30575832605E-01  0.88961422564E+00  0.88000000000E+00 0.  1.
        -11    1    4    4    0    0 -0.59457050843E-01 -0.59939912871E-01 -0.35334637623E-01  0.91524487362E-01  0.51100000000E-03 0. -1.
         11    1    4    4    0    0 -0.18508157991E-01 -0.33344317831E-01 -0.79121356383E-02  0.38952001941E-01  0.51100000000E-03 0.  1.
</event>
<event>
 8    1  0.1170483E+005  0.1043930E+01  0.7957747E-01            NaN
         13   -1    0    0    0    0  0.00000000000E+00  0.00000000000E+00  0.74505805969E-08  0.10566000000E+00  0.10566000000E+00 0. -1.
     999900   -1    0    0    0    0 -0.00000000000E+00 -0.00000000000E+00 -0.74505805969E-08  0.93827000000E+00  0.93827000000E+00 0.  1.
     999902    2    1    2    0    0 -0.17683557699E-01 -0.58541239793E-03 -0.15602131874E-01  0.10203402260E+01  0.10200674974E+01 0.  0.
     999903    2    3    3    0    0 -0.94419350840E-01  0.22128865527E-01  0.85627927300E-01  0.13092927186E+00  0.20140302748E-01 0.  0.
         14    1    1    2    0    0  0.17683557699E-01  0.58541239793E-03  0.15602131874E-01  0.23589774047E-01  0.00000000000E+00 0.  1.
     999901    1    3    3    0    0  0.76735793141E-01 -0.22714277925E-01 -0.10123005917E+00  0.88941095409E+00  0.88000000000E+00 0.  1.
        -11    1    4    4    0    0 -0.65986207081E-01  0.11736828324E-01  0.47052889816E-01  0.81891197483E-01  0.51100000000E-03 0.  1.
         11    1    4    4    0    0 -0.28433143759E-01  0.10392037203E-01  0.38575037484E-01  0.49038074382E-01  0.51100000000E-03 0. -1.
</event>
<event>
 8    1  0.1170483E+005  0.1043930E+01  0.7957747E-01            NaN
         13   -1    0    0    0    0  0.00000000000E+00  0.00000000000E+00  0.74505805969E-08  0.10566000000E+00  0.10566000000E+00 0. -1.
     999900   -1    0    0    0    0 -0.00000000000E+00 -0.00000000000E+00 -0.74505805969E-08  0.93827000000E+00  0.93827000000E+00 0.  1.
     999902    2    1    2    0    0 -0.22794950475E-01 -0.54013275334E-02  0.58942966457E-02  0.10197736998E+01  0.10194875536E+01 0.  0.
     999903    2    3    3    0    0  0.67001507514E-01  0.99651967418E-01  0.40822594531E-01  0.12830323779E+00  0.19378338006E-01 0.  0.
         14    1    1    2    0    0  0.22794950475E-01  0.54013275334E-02 -0.58942966457E-02  0.24156300197E-01  0.00000000000E+00 0. -1.
     999901    1    3    3    0    0 -0.89796457989E-01 -0.10505329495E+00 -0.34928297885E-01  0.89147046201E+00  0.88000000000E+00 0.  1.
        -11    1    4    4    0    0  0.33284791538E-01  0.40339611694E-01  0.92036648277E-02  0.53104897953E-01  0.51100000000E-03 0.  1.
         11    1    4    4    0    0  0.33716715976E-01  0.59312355724E-01  0.31618929703E-01  0.75198339838E-01  0.51100000000E-03 0. -1.
</event>
<event>
 8    1  0.1170483E+005  0.1043930E+01  0.7957747E-01            NaN
         13   -1    0    0    0    0  0.00000000000E+00  0.00000000000E+00  0.74505805969E-08  0.10566000000E+00  0.10566000000E+00 0.  1.
     999900   -1    0    0    0    0 -0.00000000000E+00 -0.00000000000E+00 -0.74505805969E-08  0.93827000000E+00  0.93827000000E+00 0. -1.
     999902    2    1    2    0    0  0.20241810754E-01  0.47785847887E-02  0.10935771369E-01  0.10204319816E+01  0.10201613951E+01 0.  0.
     999903    2    3    3    0    0  0.36230495821E-01  0.23999921563E-02  0.12630949606E+00  0.13275389120E+00  0.18737610421E-01 0.  0.
         14    1    1    2    0    0 -0.20241810754E-01 -0.47785847887E-02 -0.10935771369E-01  0.23498018440E-01  0.00000000000E+00 0. -1.
     999901    1    3    3    0    0 -0.15988685067E-01  0.23785926323E-02 -0.11537372469E+00  0.88767809036E+00  0.88000000000E+00 0. -1.
        -11    1    4    4    0    0  0.23401060751E-01  0.44046378408E-02  0.10599874636E+00  0.10864163948E+00  0.51100000000E-03 0.  1.
         11    1    4    4    0    0  0.12829435070E-01 -0.20046456845E-02  0.20310749704E-01  0.24112251721E-01  0.51100000000E-03 0. -1.
</event>
<event>
 8    1  0.1170483E+005  0.1043930E+01  0.7957747E-01            NaN
         13   -1    0    0    0    0  0.00000000000E+00  0.00000000000E+00  0.74505805969E-08  0.10566000000E+00  0.10566000000E+00 0.  1.
     999900   -1    0    0    0    0 -0.00000000000E+00 -0.00000000000E+00 -0.74505805969E-08  0.93827000000E+00  0.93827000000E+00 0. -1.
     999902    2    1    2    0    0  0.20802847912E-01 -0.85853781642E-03 -0.10047868738E-01  0.10208117121E+01  0.10205498990E+01 0.  0.
     999903    2    3    3    0    0 -0.97347822536E-01  0.55367232600E-01 -0.61102048348E-01  0.12967342462E+00  0.23229458505E-01 0.  0.
         14    1    1    2    0    0 -0.20802847912E-01  0.85853781642E-03  0.10047868738E-01  0.23118287882E-01  0.00000000000E+00 0.  1.
     999901    1    3    3    0    0  0.11815067045E+00 -0.56225770416E-01  0.51054179611E-01  0.89113828750E+00  0.88000000000E+00 0. -1.
        -11    1    4    4    0    0 -0.29396627787E-01  0.29526364978E-01 -0.21584716155E-01  0.46926847823E-01  0.51100000000E-03 0.  1.
         11    1    4    4    0    0 -0.67951194749E-01  0.25840867621E-01 -0.39517332193E-01  0.82746576799E-01  0.51100000000E-03 0. -1.
</event>
<event>
 8    1  0.1170483E+005  0.1043930E+01  0.7957747E-01            NaN
         13   -1    0    0    0    0  0.00000000000E+00  0.00000000000E+00  0.74505805969E-08  0.10566000000E+00  0.10566000000E+00 0. -1.
     999900   -1    0    0    0    0 -0.00000000000E+00 -0.00000000000E+00 -0.74505805969E-08  0.93827000000E+00  0.93827000000E+00 0. -1.
     999902    2    1    2    0    0 -0.56395239296E-02  0.88609962328E-02 -0.21846125415E-01  0.10196900602E+01  0.10194019052E+01 0.  0.
     999903    2    3    3    0    0 -0.10691112545E+00 -0.19845164500E-01 -0.71864408356E-01  0.13200666534E+00  0.20915238590E-01 0.  0.
         14    1    1    2    0    0  0.56395239296E-02 -0.88609962328E-02  0.21846125415E-01  0.24239939770E-01  0.00000000000E+00 0. -1.
     999901    1    3    3    0    0  0.10127160152E+00  0.28706160733E-01  0.50018282941E-01  0.88768339489E+00  0.88000000000E+00 0. -1.
        -11    1    4    4    0    0 -0.54794105424E-01 -0.15212501877E-01 -0.48334849171E-01  0.74634663314E-01  0.51100000000E-03 0.  1.
         11    1    4    4    0    0 -0.52117020030E-01 -0.46326626228E-02 -0.23529559186E-01  0.57372002024E-01  0.51100000000E-03 0. -1.
</event>
<event>
 8    1  0.1170483E+005  0.1043930E+01  0.7957747E-01            NaN
         13   -1    0    0    0    0  0.00000000000E+00  0.00000000000E+00  0.74505805969E-08  0.10566000000E+00  0.10566000000E+00 0.  1.
     999900   -1    0    0    0    0 -0.00000000000E+00 -0.00000000000E+00 -0.74505805969E-08  0.93827000000E+00  0.93827000000E+00 0. -1.
     999902    2    1    2    0    0 -0.65739983014E-02  0.15000051861E-02 -0.24777356588E-01  0.10182515096E+01  0.10179276752E+01 0.  0.
     999903    2    3    3    0    0 -0.11523939486E+00 -0.55508801514E-01 -0.62693295339E-03  0.12940877019E+00  0.19618653998E-01 0.  0.
         14    1    1    2    0    0  0.65739983014E-02 -0.15000051861E-02  0.24777356588E-01  0.25678490390E-01  0.00000000000E+00 0.  1.
     999901    1    3    3    0    0  0.10866539656E+00  0.57008806700E-01 -0.24150423634E-01  0.88884273942E+00  0.88000000000E+00 0.  1.
        -11    1    4    4    0    0 -0.89621542899E-01 -0.36595072159E-01 -0.64994303897E-02  0.97024347328E-01  0.51100000000E-03 0. -1.
         11    1    4    4    0    0 -0.25617851962E-01 -0.18913729354E-01  0.58724974363E-02  0.32384422867E-01  0.51100000000E-03 0.  1.
</event>
<event>
 8    1  0.1170483E+005  0.1043930E+01  0.7957747E-01            NaN
         13   -1    0    0    0    0  0.00000000000E+00  0.00000000000E+00  0.74505805969E-08  0.10566000000E+00  0.10566000000E+00 0.  1.
     999900   -1    0    0    0    0 -0.00000000000E+00 -0.00000000000E+00 -0.74505805969E-08  0.93827000000E+00  0.93827000000E+00 0.  1.
     999902    2    1    2    0    0 -0.17419210155E-01  0.16553274194E-01  0.16575466430E-02  0.10198429240E+01  0.10195584350E+01 0.  0.
     999903    2    3    3    0    0  0.10410088870E+00 -0.68690433254E-01 -0.15822257334E-01  0.12724045503E+00  0.19606603982E-01 0.  0.
         14    1    1    2    0    0  0.17419210155E-01 -0.16553274194E-01 -0.16575466430E-02  0.24087075991E-01  0.00000000000E+00 0.  1.
     999901    1    3    3    0    0 -0.12152009885E+00  0.85243707448E-01  0.17479803977E-01  0.89260246898E+00  0.88000000000E+00 0. -1.
        -11    1    4    4    0    0  0.80553722229E-01 -0.54312313984E-01 -0.20388179081E-01  0.99270683399E-01  0.51100000000E-03 0.  1.
         11    1    4    4    0    0  0.23547166470E-01 -0.14378119271E-01  0.45659217472E-02  0.27969771628E-01  0.51100000000E-03 0. -1.
</event>
<event>
 7    1  0.1170483E+005  0.1043930E+01  0.7957747E-01            NaN
         13   -1    0    0    0    0  0.00000000000E+00  0.00000000000E+00  0.74505805969E-08  0.10566000000E+00  0.10566000000E+00 0.  1.
     999900   -1    0    0    0    0 -0.00000000000E+00 -0.00000000000E+00 -0.74505805969E-08  0.93827000000E+00  0.93827000000E+00 0.  1.
     999903    2    1    2    0    0 -0.93367659478E-03  0.79906825466E-01 -0.27685293653E-01  0.86928712655E-01  0.20103559170E-01 0.  0.
         14    1    1    2    0    0 -0.92934316017E-02 -0.69422596213E-01 -0.27274915833E-01  0.75165056839E-01  0.00000000000E+00 0.  1.
     999901    1    1    2    0    0  0.10227108197E-01 -0.10484229252E-01  0.54960209486E-01  0.88183623051E+00  0.88000000000E+00 0. -1.
        -11    1    3    3    0    0 -0.54672037376E-04  0.48628191372E-01 -0.27005679289E-01  0.55626179268E-01  0.51100000000E-03 0.  1.
         11    1    3    3    0    0 -0.87900455740E-03  0.31278634094E-01 -0.67961436436E-03  0.31302533387E-01  0.51100000000E-03 0. -1.
</event>
<event>
 8    1  0.1170483E+005  0.1043930E+01  0.7957747E-01            NaN
         13   -1    0    0    0    0  0.00000000000E+00  0.00000000000E+00  0.74505805969E-08  0.10566000000E+00  0.10566000000E+00 0.  1.
     999900   -1    0    0    0    0 -0.00000000000E+00 -0.00000000000E+00 -0.74505805969E-08  0.93827000000E+00  0.93827000000E+00 0. -1.
     999902    2    1    2    0    0  0.29088322510E-02 -0.68646666185E-02  0.23685559503E-01  0.10190987559E+01  0.10187961934E+01 0.  0.
     999903    2    3    3    0    0  0.11509861065E+00 -0.47871535196E-01  0.34650209886E-01  0.13096119159E+00  0.20268759242E-01 0.  0.
         14    1    1    2    0    0 -0.29088322510E-02  0.68646666185E-02 -0.23685559503E-01  0.24831244065E-01  0.00000000000E+00 0. -1.
     999901    1    3    3    0    0 -0.11218977840E+00  0.41006868577E-01 -0.10964650384E-01  0.88813756435E+00  0.88000000000E+00 0.  1.
        -11    1    4    4    0    0  0.73829350044E-01 -0.20154986454E-01  0.19276186775E-01  0.78922930157E-01  0.51100000000E-03 0. -1.
         11    1    4    4    0    0  0.41269260606E-01 -0.27716548741E-01  0.15374023111E-01  0.52038261430E-01  0.51100000000E-03 0.  1.
</event>
<event>
 8    1  0.1170483E+005  0.1043930E+01  0.7957747E-01            NaN
         13   -1    0    0    0    0  0.00000000000E+00  0.00000000000E+00  0.74505805969E-08  0.10566000000E+00  0.10566000000E+00 0. -1.
     999900   -1    0    0    0    0 -0.00000000000E+00 -0.00000000000E+00 -0.74505805969E-08  0.93827000000E+00  0.93827000000E+00 0. -1.
     999902    2    1    2    0    0 -0.13871641140E-01  0.50968232482E-02  0.18759137705E-01  0.10200489346E+01  0.10197693483E+01 0.  0.
     999903    2    3    3    0    0 -0.10523727047E-02  0.10396249696E+00  0.79282288478E-01  0.13235427607E+00  0.20558814787E-01 0.  0.
         14    1    1    2    0    0  0.13871641140E-01 -0.50968232482E-02 -0.18759137705E-01  0.23881065357E-01  0.00000000000E+00 0.  1.
     999901    1    3    3    0    0 -0.12819268435E-01 -0.98865673709E-01 -0.60523150773E-01  0.88769465857E+00  0.88000000000E+00 0. -1.
        -11    1    4    4    0    0  0.68518693227E-02  0.13584201578E-01  0.10245519453E-01  0.18349671267E-01  0.51100000000E-03 0. -1.
         11    1    4    4    0    0 -0.79042420274E-02  0.90378295379E-01  0.69036769025E-01  0.11400460480E+00  0.51100000000E-03 0.  1.
</event>
<event>
 8    1  0.1170483E+005  0.1043930E+01  0.7957747E-01            NaN
         13   -1    0    0    0    0  0.00000000000E+00  0.00000000000E+00  0.74505805969E-08  0.10566000000E+00  0.10566000000E+00 0. -1.
     999900   -1    0    0    0    0 -0.00000000000E+00 -0.00000000000E+00 -0.74505805969E-08  0.93827000000E+00  0.93827000000E+00 0.  1.
     999902    2    1    2    0    0 -0.36460987454E-02  0.12552319123E-01 -0.20994955174E-01  0.10191985849E+01  0.10188984800E+01 0.  0.
     999903    2    3    3    0    0  0.70268225387E-01  0.44117182457E-01  0.95452719708E-01  0.12789631914E+00  0.19034113159E-01 0.  0.
         14    1    1    2    0    0  0.36460987454E-02 -0.12552319123E-01  0.20994955174E-01  0.24731415127E-01  0.00000000000E+00 0. -1.
     999901    1    3    3    0    0 -0.73914324133E-01 -0.31564863335E-01 -0.11644767488E+00  0.89130226573E+00  0.88000000000E+00 0.  1.
        -11    1    4    4    0    0  0.29247535030E-01  0.25895474513E-01  0.55043936291E-01  0.67498814426E-01  0.51100000000E-03 0.  1.
         11    1    4    4    0    0  0.41020690357E-01  0.18221707944E-01  0.40408783418E-01  0.60397504717E-01  0.51100000000E-03 0. -1.
</event>
<event>
 8    1  0.1170483E+005  0.1043930E+01  0.7957747E-01            NaN
         13   -1    0    0    0    0  0.00000000000E+00  0.00000000000E+00  0.74505805969E-08  0.10566000000E+00  0.10566000000E+00 0. -1.
     999900   -1    0    0    0    0 -0.00000000000E+00 -0.00000000000E+00 -0.74505805969E-08  0.93827000000E+00  0.93827000000E+00 0. -1.
     999902    2    1    2    0    0 -0.18936193768E-01 -0.55732667598E-02 -0.12991655438E-01  0.10202990066E+01  0.10200253130E+01 0.  0.
     999903    2    3    3    0    0 -0.11312542916E+00  0.37594706448E-01  0.52486519064E-01  0.13180450619E+00  0.20170981460E-01 0.  0.
         14    1    1    2    0    0  0.18936193768E-01  0.55732667598E-02  0.12991655438E-01  0.23630993374E-01  0.00000000000E+00 0.  1.
     999901    1    3    3    0    0  0.94189235389E-01 -0.43167973208E-01 -0.65478174503E-01  0.88849450044E+00  0.88000000000E+00 0.  1.
        -11    1    4    4    0    0 -0.89215254596E-01  0.20971174290E-01  0.42408400277E-01  0.10098457971E+00  0.51100000000E-03 0. -1.
         11    1    4    4    0    0 -0.23910174561E-01  0.16623532158E-01  0.10078118787E-01  0.30819926479E-01  0.51100000000E-03 0.  1.
</event>
<event>
 8    1  0.1170483E+005  0.1043930E+01  0.7957747E-01            NaN
         13   -1    0    0    0    0  0.00000000000E+00  0.00000000000E+00  0.74505805969E-08  0.10566000000E+00  0.10566000000E+00 0. -1.
     999900   -1    0    0    0    0 -0.00000000000E+00 -0.00000000000E+00 -0.74505805969E-08  0.93827000000E+00  0.93827000000E+00 0. -1.
     999902    2    1    2    0    0 -0.18035133620E-01  0.15035797468E-01 -0.69446501083E-03  0.10204390755E+01  0.10201686544E+01 0.  0.
     999903    2    3    3    0    0 -0.33902057098E-01  0.10171190197E+00 -0.76013425797E-01  0.13283699566E+00  0.19312328662E-01 0.  0.
         14    1    1    2    0    0  0.18035133620E-01 -0.15035797468E-01  0.69446501083E-03  0.23490924456E-01  0.00000000000E+00 0.  1.
     999901    1    3    3    0    0  0.15866923479E-01 -0.86676104500E-01  0.75318960786E-01  0.88760207988E+00  0.88000000000E+00 0.  1.
        -11    1    4    4    0    0 -0.34375770100E-01  0.84510521009E-01 -0.68319609345E-01  0.11398048900E+00  0.51100000000E-03 0. -1.
         11    1    4    4    0    0  0.47371300180E-03  0.17201380959E-01 -0.76938164526E-02  0.18856506662E-01  0.51100000000E-03 0.  1.
</event>
<event>
 7    1  0.1170483E+005  0.1043930E+01  0.7957747E-01            NaN
         13   -1    0    0    0    0  0.00000000000E+00  0.00000000000E+00  0.74505805969E-08  0.10566000000E+00  0.10566000000E+00 0. -1.
     999900   -1    0    0    0    0 -0.00000000000E+00 -0.00000000000E+00 -0.74505805969E-08  0.93827000000E+00  0.93827000000E+00 0.  1.
     999902    2    1    2    0    0  0.75913525691E-02 -0.21564574772E-01  0.84660536212E-03  0.10210525819E+01  0.10207962572E+01 0.  0.
         14    1    1    2    0    0 -0.75913525691E-02  0.21564574772E-01 -0.84660536212E-03  0.22877418114E-01  0.00000000000E+00 0.  1.
     999901    1    3    3    0    0 -0.10159834737E+00 -0.62714461940E-01  0.16376659420E-01  0.88821366962E+00  0.88000000000E+00 0. -1.
        -11    1    3    3    0    0  0.34935490089E-02 -0.14464597843E-03 -0.18982653533E-01  0.19308756130E-01  0.51100000000E-03 0.  1.
         11    1    3    3    0    0  0.10569615093E+00  0.41294533147E-01  0.34525994752E-02  0.11353015614E+00  0.51100000000E-03 0. -1.
</event>
<event>
 8    1  0.1170483E+005  0.1043930E+01  0.7957747E-01            NaN
         13   -1    0    0    0    0  0.00000000000E+00  0.00000000000E+00  0.74505805969E-08  0.10566000000E+00  0.10566000000E+00 0. -1.
     999900   -1    0    0    0    0 -0.00000000000E+00 -0.00000000000E+00 -0.74505805969E-08  0.93827000000E+00  0.93827000000E+00 0.  1.
     999902    2    1    2    0    0  0.58289469530E-02 -0.17620234106E-01 -0.24650724928E-01  0.10130737606E+01  0.10126037413E+01 0.  0.
     999903    2    3    3    0    0  0.11887333234E+00 -0.32873522007E-01 -0.13191611492E-01  0.12563756165E+00  0.19981008301E-01 0.  0.
         14    1    1    2    0    0 -0.58289469530E-02  0.17620234106E-01  0.24650724928E-01  0.30856239434E-01  0.00000000000E+00 0. -1.
     999901    1    3    3    0    0 -0.11304438539E+00  0.15253287901E-01 -0.11459113436E-01  0.88743619891E+00  0.88000000000E+00 0. -1.
        -11    1    4    4    0    0  0.30617000551E-01 -0.10282347811E-03 -0.61192417107E-02  0.31226872010E-01  0.51100000000E-03 0.  1.
         11    1    4    4    0    0  0.88256331792E-01 -0.32770698529E-01 -0.70723697813E-02  0.94410689642E-01  0.51100000000E-03 0. -1.
</event>
<event>
 8    1  0.1170483E+005  0.1043930E+01  0.7957747E-01            NaN
         13   -1    0    0    0    0  0.00000000000E+00  0.00000000000E+00  0.74505805969E-08  0.10566000000E+00  0.10566000000E+00 0. -1.
     999900   -1    0    0    0    0 -0.00000000000E+00 -0.00000000000E+00 -0.74505805969E-08  0.93827000000E+00  0.93827000000E+00 0. -1.
     999902    2    1    2    0    0 -0.20072830842E-01 -0.15337808805E-02  0.12347112187E-01  0.10203138572E+01  0.10200405114E+01 0.  0.
     999903    2    3    3    0    0 -0.82689525477E-02  0.12569948707E+00  0.30606067523E-01  0.13089774228E+00  0.18131490251E-01 0.  0.
         14    1    1    2    0    0  0.20072830842E-01  0.15337808805E-02 -0.12347112187E-01  0.23616142809E-01  0.00000000000E+00 0. -1.
     999901    1    3    3    0    0 -0.11803878294E-01 -0.12723326795E+00 -0.18258955336E-01  0.88941611491E+00  0.88000000000E+00 0. -1.
        -11    1    4    4    0    0 -0.11791624381E-01  0.58235002640E-01  0.18748595921E-01  0.62306732446E-01  0.51100000000E-03 0.  1.
         11    1    4    4    0    0  0.35226718331E-02  0.67464484429E-01  0.11857471601E-01  0.68591009833E-01  0.51100000000E-03 0. -1.
</event>
<event>
 8    1  0.1170483E+005  0.1043930E+01  0.7957747E-01            NaN
         13   -1    0    0    0    0  0.00000000000E+00  0.00000000000E+00  0.74505805969E-08  0.10566000000E+00  0.10566000000E+00 0.  1.
     999900   -1    0    0    0    0 -0.00000000000E+00 -0.00000000000E+00 -0.74505805969E-08  0.93827000000E+00  0.93827000000E+00 0.  1.
     999902    2    1    2    0    0 -0.14824486302E-01 -0.14310003520E-01  0.89446901429E-02  0.10214678301E+01  0.10212208277E+01 0.  0.
     999903    2    3    3    0    0  0.62878949993E-01 -0.38963707738E-01  0.10765791307E+00  0.13220412932E+00  0.20390504865E-01 0.  0.
         14    1    1    2    0    0  0.14824486302E-01  0.14310003520E-01 -0.89446901429E-02  0.22462169900E-01  0.00000000000E+00 0. -1.
     999901    1    3    3    0    0 -0.77703436295E-01  0.24653704218E-01 -0.98713222931E-01  0.88926370078E+00  0.88000000000E+00 0. -1.
        -11    1    4    4    0    0  0.21518329083E-01 -0.61036553257E-02  0.20831806054E-01  0.30569893021E-01  0.51100000000E-03 0.  1.
         11    1    4    4    0    0  0.41360620910E-01 -0.32860052412E-01  0.86826107020E-01  0.10163423630E+00  0.51100000000E-03 0. -1.
</event>
<event>
 8    1  0.1170483E+005  0.1043930E+01  0.7957747E-01            NaN
         13   -1    0    0    0    0  0.00000000000E+00  0.00000000000E+00  0.74505805969E-08  0.10566000000E+00  0.10566000000E+00 0. -1.
     999900   -1    0    0    0    0 -0.00000000000E+00 -0.00000000000E+00 -0.74505805969E-08  0.93827000000E+00  0.93827000000E+00 0.  1.
     999902    2    1    2    0    0 -0.26988828792E-02 -0.25531295529E-01  0.48111193927E-02  0.10178095503E+01  0.10174743254E+01 0.  0.
     999903    2    3    3    0    0 -0.12390263625E+00  0.23715755943E-01 -0.13044330907E-01  0.12795875442E+00  0.16999644503E-01 0.  0.
         14    1    1    2    0    0  0.26988828792E-02  0.25531295529E-01 -0.48111193927E-02  0.26120449651E-01  0.00000000000E+00 0.  1.
     999901    1    3    3    0    0  0.12120375337E+00 -0.49247051472E-01  0.17855450300E-01  0.88985079593E+00  0.88000000000E+00 0. -1.
        -11    1    4    4    0    0 -0.60660925296E-01  0.41177037248E-02 -0.10473674233E-01  0.61698154873E-01  0.51100000000E-03 0.  1.
         11    1    4    4    0    0 -0.63241710957E-01  0.19598052218E-01 -0.25706566748E-02  0.66260599547E-01  0.51100000000E-03 0. -1.
</event>
<event>
 7    1  0.1170483E+005  0.1043930E+01  0.7957747E-01            NaN
         13   -1    0    0    0    0  0.00000000000E+00  0.00000000000E+00  0.74505805969E-08  0.10566000000E+00  0.10566000000E+00 0.  1.
     999900   -1    0    0    0    0 -0.00000000000E+00 -0.00000000000E+00 -0.74505805969E-08  0.93827000000E+00  0.93827000000E+00 0.  1.
     999903    2    1    2    0    0  0.89156531874E-01 -0.18123178104E-01  0.73102889535E-01  0.11834173747E+00  0.19580541569E-01 0.  0.
         14    1    1    2    0    0 -0.22541916627E-01 -0.30629891996E-01  0.46392335397E-02  0.38312540725E-01  0.00000000000E+00 0. -1.
     999901    1    1    2    0    0 -0.66614615247E-01  0.48753070101E-01 -0.77742123074E-01  0.88727572181E+00  0.88000000000E+00 0.  1.
        -11    1    3    3    0    0  0.87944219989E-01 -0.15348565328E-01  0.72910910147E-01  0.11526502603E+00  0.51100000000E-03 0. -1.
         11    1    3    3    0    0  0.12123118856E-02 -0.27746127759E-02  0.19197938763E-03  0.30767114342E-02  0.51100000000E-03 0.  1.
</event>
<event>
 8    1  0.1170483E+005  0.1043930E+01  0.7957747E-01            NaN
         13   -1    0    0    0    0  0.00000000000E+00  0.00000000000E+00  0.74505805969E-08  0.10566000000E+00  0.10566000000E+00 0.  1.
     999900   -1    0    0    0    0 -0.00000000000E+00 -0.00000000000E+00 -0.74505805969E-08  0.93827000000E+00  0.93827000000E+00 0.  1.
     999902    2    1    2    0    0  0.24360916231E-01 -0.66353392237E-02 -0.17863568827E-02  0.10186184801E+01  0.10183039502E+01 0.  0.
     999903    2    3    3    0    0  0.42586761874E-01 -0.56466827233E-01 -0.10806774094E+00  0.13063701005E+00  0.19627962161E-01 0.  0.
         14    1    1    2    0    0 -0.24360916231E-01  0.66353392237E-02  0.17863568827E-02  0.25311519850E-01  0.00000000000E+00 0. -1.
     999901    1    3    3    0    0 -0.18225845643E-01  0.49831488009E-01  0.10628138405E+00  0.88798147010E+00  0.88000000000E+00 0. -1.
        -11    1    4    4    0    0  0.28267960525E-01 -0.45734516611E-01 -0.92112877709E-01  0.10665724055E+00  0.51100000000E-03 0. -1.
         11    1    4    4    0    0  0.14318801349E-01 -0.10732310622E-01 -0.15954863227E-01  0.23979769494E-01  0.51100000000E-03 0.  1.
</event>
<event>
 8    1  0.1170483E+005  0.1043930E+01  0.7957747E-01            NaN
         13   -1    0    0    0    0  0.00000000000E+00  0.00000000000E+00  0.74505805969E-08  0.10566000000E+00  0.10566000000E+00 0.  1.
     999900   -1    0    0    0    0 -0.00000000000E+00 -0.00000000000E+00 -0.74505805969E-08  0.93827000000E+00  0.93827000000E+00 0. -1.
     999902    2    1    2    0    0  0.70915317344E-02 -0.13984771864E-01  0.25209157458E-01  0.10142422031E+01  0.10138076155E+01 0.  0.
     999903    2    3    3    0    0 -0.33321166436E-02  0.21528341935E-01  0.12442296275E+00  0.12789395726E+00  0.20030430247E-01 0.  0.
         14    1    1    2    0    0 -0.70915317344E-02  0.13984771864E-01 -0.25209157458E-01  0.29687796924E-01  0.00000000000E+00 0. -1.
     999901    1    3    3    0    0  0.10423648378E-01 -0.35513113799E-01 -0.99213805295E-01  0.88634824581E+00  0.88000000000E+00 0.  1.
        -11    1    4    4    0    0  0.37611734400E-02 -0.14213597642E-02  0.74718361033E-02  0.85003614617E-02  0.51100000000E-03 0. -1.
         11    1    4    4    0    0 -0.70932900837E-02  0.22949701699E-01  0.11695112665E+00  0.11939359580E+00  0.51100000000E-03 0.  1.
</event>
<event>
 8    1  0.1170483E+005  0.1043930E+01  0.7957747E-01            NaN
         13   -1    0    0    0    0  0.00000000000E+00  0.00000000000E+00  0.74505805969E-08  0.10566000000E+00  0.10566000000E+00 0.  1.
     999900   -1    0    0    0    0 -0.00000000000E+00 -0.00000000000E+00 -0.74505805969E-08  0.93827000000E+00  0.93827000000E+00 0. -1.
     999902    2    1    2    0    0  0.13270141254E-01 -0.12818322030E-01  0.14057251983E-01  0.10207349065E+01  0.10204713308E+01 0.  0.
     999903    2    3    3    0    0  0.51420624353E-01 -0.80632156947E-01  0.91622286713E-01  0.13390318055E+00  0.19743175920E-01 0.  0.
         14    1    1    2    0    0 -0.13270141254E-01  0.12818322030E-01 -0.14057251983E-01  0.23195093487E-01  0.00000000000E+00 0. -1.
     999901    1    3    3    0    0 -0.38150483100E-01  0.67813834917E-01 -0.77565034730E-01  0.88683172597E+00  0.88000000000E+00 0. -1.
        -11    1    4    4    0    0  0.20716922770E-01 -0.36305274588E-01  0.53351008651E-01  0.67777983866E-01  0.51100000000E-03 0. -1.
         11    1    4    4    0    0  0.30703701583E-01 -0.44326882359E-01  0.38271278063E-01  0.66125196681E-01  0.51100000000E-03 0.  1.
</event>
<event>
 8    1  0.1170483E+005  0.1043930E+01  0.7957747E-01            NaN
         13   -1    0    0    0    0  0.00000000000E+00  0.00000000000E+00  0.74505805969E-08  0.10566000000E+00  0.10566000000E+00 0.  1.
     999900   -1    0    0    0    0 -0.00000000000E+00 -0.00000000000E+00 -0.74505805969E-08  0.93827000000E+00  0.93827000000E+00 0.  1.
     999902    2    1    2    0    0 -0.34354410599E-02 -0.86861661492E-02 -0.17395150026E-01  0.10241855582E+01  0.10239952220E+01 0.  0.
     999903    2    3    3    0    0 -0.12022739467E+00  0.44194047767E-01  0.32131032533E-01  0.13351753912E+00  0.19666970103E-01 0.  0.
         14    1    1    2    0    0  0.34354410599E-02  0.86861661492E-02  0.17395150026E-01  0.19744441802E-01  0.00000000000E+00 0.  1.
     999901    1    3    3    0    0  0.11679195361E+00 -0.52880213916E-01 -0.49526182559E-01  0.89066801908E+00  0.88000000000E+00 0.  1.
        -11    1    4    4    0    0 -0.64601441658E-01  0.19197704688E-01  0.25949988950E-01  0.72218842258E-01  0.51100000000E-03 0. -1.
         11    1    4    4    0    0 -0.55625953014E-01  0.24996343079E-01  0.61810435827E-02  0.61298696860E-01  0.51100000000E-03 0.  1.
</event>
<event>
 8    1  0.1170483E+005  0.1043930E+01  0.7957747E-01            NaN
         13   -1    0    0    0    0  0.00000000000E+00  0.00000000000E+00  0.74505805969E-08  0.10566000000E+00  0.10566000000E+00 0. -1.
     999900   -1    0    0    0    0 -0.00000000000E+00 -0.00000000000E+00 -0.74505805969E-08  0.93827000000E+00  0.93827000000E+00 0. -1.
     999902    2    1    2    0    0 -0.21653318125E-01 -0.25472586479E-02 -0.10488339616E-01  0.10197357862E+01  0.10194487303E+01 0.  0.
     999903    2    3    3    0    0  0.86320262009E-01  0.92155234615E-01 -0.93083333127E-02  0.12809222030E+00  0.19421558433E-01 0.  0.
         14    1    1    2    0    0  0.21653318125E-01  0.25472586479E-02  0.10488339616E-01  0.24194213778E-01  0.00000000000E+00 0. -1.
     999901    1    3    3    0    0 -0.10797358013E+00 -0.94702493262E-01 -0.11800063033E-02  0.89164356592E+00  0.88000000000E+00 0.  1.
        -11    1    4    4    0    0  0.62644836661E-01  0.74771936070E-01 -0.13285722007E-01  0.98447902538E-01  0.51100000000E-03 0. -1.
         11    1    4    4    0    0  0.23675425347E-01  0.17383298545E-01  0.39773886943E-02  0.29644317761E-01  0.51100000000E-03 0.  1.
</event>
<event>
 8    1  0.1170483E+005  0.1043930E+01  0.7957747E-01            NaN
         13   -1    0    0    0    0  0.00000000000E+00  0.00000000000E+00  0.74505805969E-08  0.10566000000E+00  0.10566000000E+00 0. -1.
     999900   -1    0    0    0    0 -0.00000000000E+00 -0.00000000000E+00 -0.74505805969E-08  0.93827000000E+00  0.93827000000E+00 0. -1.
     999902    2    1    2    0    0  0.10612894144E-01  0.12452293121E-01 -0.16050380729E-01  0.10210104047E+01  0.10207531233E+01 0.  0.
     999903    2    3    3    0    0 -0.12437171925E+00  0.31352972356E-01  0.93319262692E-02  0.13015556636E+00  0.20051263813E-01 0.  0.
         14    1    1    2    0    0 -0.10612894144E-01 -0.12452293121E-01  0.16050380729E-01  0.22919595276E-01  0.00000000000E+00 0. -1.
     999901    1    3    3    0    0  0.13498461340E+00 -0.18900679235E-01 -0.25382306998E-01  0.89085483836E+00  0.88000000000E+00 0. -1.
        -11    1    4    4    0    0 -0.53944269974E-01  0.76099890461E-02 -0.40723415428E-02  0.54632785788E-01  0.51100000000E-03 0.  1.
         11    1    4    4    0    0 -0.70427449280E-01  0.23742983310E-01  0.13404267812E-01  0.75522780571E-01  0.51100000000E-03 0. -1.
</event>
<event>
 8    1  0.1170483E+005  0.1043930E+01  0.7957747E-01            NaN
         13   -1    0    0    0    0  0.00000000000E+00  0.00000000000E+00  0.74505805969E-08  0.10566000000E+00  0.10566000000E+00 0. -1.
     999900   -1    0    0    0    0 -0.00000000000E+00 -0.00000000000E+00 -0.74505805969E-08  0.93827000000E+00  0.93827000000E+00 0.  1.
     999902    2    1    2    0    0  0.84634150106E-02  0.74048016099E-02 -0.20478331664E-01  0.10205671545E+01  0.10202997081E+01 0.  0.
     999903    2    3    3    0    0  0.98712796909E-01 -0.83159583906E-01  0.66597124441E-02  0.13091366452E+00  0.20839940479E-01 0.  0.
         14    1    1    2    0    0 -0.84634150106E-02 -0.74048016099E-02  0.20478331664E-01  0.23362845466E-01  0.00000000000E+00 0. -1.
     999901    1    3    3    0    0 -0.90249381899E-01  0.90564385516E-01 -0.27138044108E-01  0.88965349001E+00  0.88000000000E+00 0.  1.
        -11    1    4    4    0    0  0.84945327420E-01 -0.65873891187E-01 -0.10574742109E-02  0.10750096541E+00  0.51100000000E-03 0.  1.
         11    1    4    4    0    0  0.13767469489E-01 -0.17285692719E-01  0.77171866550E-02  0.23412699113E-01  0.51100000000E-03 0. -1.
</event>
<event>
 8    1  0.1170483E+005  0.1043930E+01  0.7957747E-01            NaN
         13   -1    0    0    0    0  0.00000000000E+00  0.00000000000E+00  0.74505805969E-08  0.10566000000E+00  0.10566000000E+00 0.  1.
     999900   -1    0    0    0    0 -0.00000000000E+00 -0.00000000000E+00 -0.74505805969E-08  0.93827000000E+00  0.93827000000E+00 0.  1.
     999902    2    1    2    0    0 -0.22565783639E-01  0.37447347197E-02 -0.66943263481E-02  0.10200961662E+01  0.10198176977E+01 0.  0.
     999903    2    3    3    0    0  0.42174179668E-01  0.21910387831E-01  0.11788789359E+00  0.12878141631E+00  0.20697130404E-01 0.  0.
         14    1    1    2    0    0  0.22565783639E-01 -0.37447347197E-02  0.66943263481E-02  0.23833833822E-01  0.00000000000E+00 0. -1.
     999901    1    3    3    0    0 -0.64739963307E-01 -0.18165653112E-01 -0.12458221994E+00  0.89131474986E+00  0.88000000000E+00 0.  1.
        -11    1    4    4    0    0  0.14309156715E-01  0.17388020358E-01  0.65572942584E-01  0.69333737372E-01  0.51100000000E-03 0.  1.
         11    1    4    4    0    0  0.27865022952E-01  0.45223674736E-02  0.52314951007E-01  0.59447678941E-01  0.51100000000E-03 0. -1.
</event>
<event>
 8    1  0.1170483E+005  0.1043930E+01  0.7957747E-01            NaN
         13   -1    0    0    0    0  0.00000000000E+00  0.00000000000E+00  0.74505805969E-08  0.10566000000E+00  0.10566000000E+00 0. -1.
     999900   -1    0    0    0    0 -0.00000000000E+00 -0.00000000000E+00 -0.74505805969E-08  0.93827000000E+00  0.93827000000E+00 0.  1.
     999902    2    1    2    0    0  0.38557725017E-02 -0.21008496011E-01  0.10374865041E-01  0.10201842275E+01  0.10199078372E+01 0.  0.
     999903    2    3    3    0    0  0.54378460815E-01  0.10348437332E-01 -0.11505119358E+00  0.12930404731E+00  0.20460995822E-01 0.  0.
         14    1    1    2    0    0 -0.38557725017E-02  0.21008496011E-01 -0.10374865041E-01  0.23745772484E-01  0.00000000000E+00 0. -1.
     999901    1    3    3    0    0 -0.50522688313E-01 -0.31356933343E-01  0.12542605862E+00  0.89088018021E+00  0.88000000000E+00 0. -1.
        -11    1    4    4    0    0  0.12087730880E-01 -0.61941591733E-02 -0.25560384479E-01  0.28949528863E-01  0.51100000000E-03 0.  1.
         11    1    4    4    0    0  0.42290729935E-01  0.16542596505E-01 -0.89490809104E-01  0.10035451845E+00  0.51100000000E-03 0. -1.
</event>
<event>
 8    1  0.1170483E+005  0.1043930E+01  0.7957747E-01            NaN
         13   -1    0    0    0    0  0.00000000000E+00  0.00000000000E+00  0.74505805969E-08  0.10566000000E+00  0.10566000000E+00 0.  1.
     999900   -1    0    0    0    0 -0.00000000000E+00 -0.00000000000E+00 -0.74505805969E-08  0.93827000000E+00  0.93827000000E+00 0. -1.
     999902    2    1    2    0    0 -0.96748290858E-02 -0.43259128669E-02 -0.21175807919E-01  0.10202502474E+01  0.10199754099E+01 0.  0.
     999903    2    3    3    0    0  0.67142740212E-01 -0.83513740319E-01  0.68683773434E-01  0.12882083615E+00  0.19865918233E-01 0.  0.
         14    1    1    2    0    0  0.96748290858E-02  0.43259128669E-02  0.21175807919E-01  0.23679752553E-01  0.00000000000E+00 0.  1.
     999901    1    3    3    0    0 -0.76817569298E-01  0.79187827452E-01 -0.89859581352E-01  0.89142941130E+00  0.88000000000E+00 0. -1.
        -11    1    4    4    0    0  0.79116415464E-02 -0.19495487848E-02  0.57294511469E-02  0.99740936364E-02  0.51100000000E-03 0. -1.
         11    1    4    4    0    0  0.59231098666E-01 -0.81564191534E-01  0.62954322287E-01  0.11884674251E+00  0.51100000000E-03 0.  1.
</event>
<event>
 8    1  0.1170483E+005  0.1043930E+01  0.7957747E-01            NaN
         13   -1    0    0    0    0  0.00000000000E+00  0.00000000000E+00  0.74505805969E-08  0.10566000000E+00  0.10566000000E+00 0. -1.
     999900   -1    0    0    0    0 -0.00000000000E+00 -0.00000000000E+00 -0.74505805969E-08  0.93827000000E+00  0.93827000000E+00 0.  1.
     999902    2    1    2    0    0  0.73242858179E-02 -0.22144752090E-01  0.87220387696E-02  0.10190280088E+01  0.10187236983E+01 0.  0.
     999903    2    3    3    0    0  0.29551445635E-01  0.83130822580E-01  0.91503310322E-01  0.12861814123E+00  0.19640490116E-01 0.  0.
         14    1    1    2    0    0 -0.73242858179E-02  0.22144752090E-01 -0.87220387696E-02  0.24901991249E-01  0.00000000000E+00 0. -1.
     999901    1    3    3    0    0 -0.22227159817E-01 -0.10527557467E+00 -0.82781271552E-01  0.89040986752E+00  0.88000000000E+00 0.  1.
        -11    1    4    4    0    0  0.11037461132E-01  0.52349217958E-01  0.45384807529E-01  0.70159162228E-01  0.51100000000E-03 0.  1.
         11    1    4    4    0    0  0.18513984503E-01  0.30781604622E-01  0.46118502793E-01  0.58458979003E-01  0.51100000000E-03 0. -1.
</event>
<event>
 8    1  0.1170483E+005  0.1043930E+01  0.7957747E-01            NaN
         13   -1    0    0    0    0  0.00000000000E+00  0.00000000000E+00  0.74505805969E-08  0.10566000000E+00  0.10566000000E+00 0. -1.
     999900   -1    0    0    0    0 -0.00000000000E+00 -0.00000000000E+00 -0.74505805969E-08  0.93827000000E+00  0.93827000000E+00 0. -1.
     999902    2    1    2    0    0 -0.16799690079E-01  0.14725571629E-01  0.11678425015E-01  0.10187217145E+01  0.10184097770E+01 0.  0.
     999903    2    3    3    0    0  0.36380380155E-01  0.11504038083E-02 -0.12001762062E+00  0.12723068624E+00  0.21414078812E-01 0.  0.
         14    1    1    2    0    0  0.16799690079E-01 -0.14725571629E-01 -0.11678425015E-01  0.25208285491E-01  0.00000000000E+00 0.  1.
     999901    1    3    3    0    0 -0.53180070235E-01  0.13575167820E-01  0.13169604564E+00  0.89149102827E+00  0.88000000000E+00 0.  1.
        -11    1    4    4    0    0  0.19881675482E-01 -0.18428918077E-02 -0.32710265896E-01  0.38326229741E-01  0.51100000000E-03 0.  1.
         11    1    4    4    0    0  0.16498704673E-01  0.29932956160E-02 -0.87307354727E-01  0.88904456497E-01  0.51100000000E-03 0. -1.
</event>
<event>
 7    1  0.1170483E+005  0.1043930E+01  0.7957747E-01            NaN
         13   -1    0    0    0    0  0.00000000000E+00  0.00000000000E+00  0.74505805969E-08  0.10566000000E+00  0.10566000000E+00 0. -1.
     999900   -1    0    0    0    0 -0.00000000000E+00 -0.00000000000E+00 -0.74505805969E-08  0.93827000000E+00  0.93827000000E+00 0.  1.
     999903    2    1    2    0    0  0.76168178886E-01  0.45644782386E-01  0.36681136853E-01  0.98456353979E-01  0.21519995451E-01 0.  0.
         14    1    1    2    0    0 -0.11496213177E-01 -0.16690465597E-01 -0.58958473867E-01  0.62344496149E-01  0.00000000000E+00 0.  1.
     999901    1    1    2    0    0 -0.64671965709E-01 -0.28954316789E-01  0.22277337015E-01  0.88312914987E+00  0.88000000000E+00 0. -1.
        -11    1    3    3    0    0  0.41132061070E-01  0.27301758145E-01  0.90089353838E-02  0.50186198137E-01  0.51100000000E-03 0.  1.
         11    1    3    3    0    0  0.35036117816E-01  0.18343024241E-01  0.27672201469E-01  0.48270155843E-01  0.51100000000E-03 0. -1.
</event>
<event>
 8    1  0.1170483E+005  0.1043930E+01  0.7957747E-01            NaN
         13   -1    0    0    0    0  0.00000000000E+00  0.00000000000E+00  0.74505805969E-08  0.10566000000E+00  0.10566000000E+00 0. -1.
     999900   -1    0    0    0    0 -0.00000000000E+00 -0.00000000000E+00 -0.74505805969E-08  0.93827000000E+00  0.93827000000E+00 0.  1.
     999902    2    1    2    0    0  0.22351911489E-01  0.58771715956E-03  0.68111276137E-02  0.10205559798E+01  0.10202882746E+01 0.  0.
     999903    2    3    3    0    0  0.83424987546E-01 -0.79334602003E-01  0.63539637345E-01  0.13301126462E+00  0.20025068767E-01 0.  0.
         14    1    1    2    0    0 -0.22351911489E-01 -0.58771715956E-03 -0.68111276137E-02  0.23374020152E-01  0.00000000000E+00 0.  1.
     999901    1    3    3    0    0 -0.61073076056E-01  0.79922319162E-01 -0.56728509731E-01  0.88754471523E+00  0.88000000000E+00 0.  1.
        -11    1    4    4    0    0  0.29157304071E-01 -0.40665677877E-01  0.30866279716E-01  0.58794847413E-01  0.51100000000E-03 0.  1.
         11    1    4    4    0    0  0.54267683475E-01 -0.38668924126E-01  0.32673357629E-01  0.74216417203E-01  0.51100000000E-03 0. -1.
</event>
<event>
 8    1  0.1170483E+005  0.1043930E+01  0.7957747E-01            NaN
         13   -1    0    0    0    0  0.00000000000E+00  0.00000000000E+00  0.74505805969E-08  0.10566000000E+00  0.10566000000E+00 0.  1.
     999900   -1    0    0    0    0 -0.00000000000E+00 -0.00000000000E+00 -0.74505805969E-08  0.93827000000E+00  0.93827000000E+00 0.  1.
     999902    2    1    2    0    0 -0.23827894242E-01 -0.42258080245E-02  0.40311254380E-02  0.10193968394E+01  0.10191015848E+01 0.  0.
     999903    2    3    3    0    0  0.89933503638E-01  0.56958297268E-01 -0.66806228929E-01  0.12715075160E+00  0.19286230977E-01 0.  0.
         14    1    1    2    0    0  0.23827894242E-01  0.42258080245E-02 -0.40311254380E-02  0.24533160615E-01  0.00000000000E+00 0.  1.
     999901    1    3    3    0    0 -0.11376139788E+00 -0.61184105292E-01  0.70837354367E-01  0.89224608778E+00  0.88000000000E+00 0. -1.
        -11    1    4    4    0    0  0.17620856531E-01  0.28220817610E-02 -0.10963721919E-01  0.20950490439E-01  0.51100000000E-03 0. -1.
         11    1    4    4    0    0  0.72312647107E-01  0.54136215507E-01 -0.55842507010E-01  0.10620026116E+00  0.51100000000E-03 0.  1.
</event>
<event>
 8    1  0.1170483E+005  0.1043930E+01  0.7957747E-01            NaN
         13   -1    0    0    0    0  0.00000000000E+00  0.00000000000E+00  0.74505805969E-08  0.10566000000E+00  0.10566000000E+00 0. -1.
     999900   -1    0    0    0    0 -0.00000000000E+00 -0.00000000000E+00 -0.74505805969E-08  0.93827000000E+00  0.93827000000E+00 0.  1.
     999902    2    1    2    0    0 -0.79922456644E-02  0.17003287117E-01  0.55106461344E-02  0.10243505469E+01  0.10241634088E+01 0.  0.
     999903    2    3    3    0    0 -0.13322325453E+00 -0.46479895631E-02 -0.87738199484E-02  0.13510613204E+00  0.20165506257E-01 0.  0.
         14    1    1    2    0    0  0.79922456644E-02 -0.17003287117E-01 -0.55106461344E-02  0.19579453117E-01  0.00000000000E+00 0. -1.
     999901    1    3    3    0    0  0.12523100887E+00  0.21651276680E-01  0.14284466083E-01  0.88924441485E+00  0.88000000000E+00 0. -1.
        -11    1    4    4    0    0 -0.75760442468E-01  0.67674521961E-02 -0.83093857699E-02  0.76516338550E-01  0.51100000000E-03 0.  1.
         11    1    4    4    0    0 -0.57462812063E-01 -0.11415441759E-01 -0.46443417845E-03  0.58589793487E-01  0.51100000000E-03 0. -1.
</event>
<event>
 8    1  0.1170483E+005  0.1043930E+01  0.7957747E-01            NaN
         13   -1    0    0    0    0  0.00000000000E+00  0.00000000000E+00  0.74505805969E-08  0.10566000000E+00  0.10566000000E+00 0.  1.
     999900   -1    0    0    0    0 -0.00000000000E+00 -0.00000000000E+00 -0.74505805969E-08  0.93827000000E+00  0.93827000000E+00 0. -1.
     999902    2    1    2    0    0 -0.12998606588E-01  0.17321367457E-01  0.94052167632E-02  0.10203195861E+01  0.10200463745E+01 0.  0.
     999903    2    3    3    0    0  0.20565535869E-01 -0.86592286802E-01 -0.89965715135E-01  0.12801964697E+00  0.19339977041E-01 0.  0.
         14    1    1    2    0    0  0.12998606588E-01 -0.17321367457E-01 -0.94052167632E-02  0.23610413935E-01  0.00000000000E+00 0. -1.
     999901    1    3    3    0    0 -0.33564142457E-01  0.10391365426E+00  0.99370931898E-01  0.89229993909E+00  0.88000000000E+00 0.  1.
        -11    1    4    4    0    0  0.27079541988E-02 -0.49962730760E-01 -0.54591535603E-01  0.74054738953E-01  0.51100000000E-03 0.  1.
         11    1    4    4    0    0  0.17857581670E-01 -0.36629556041E-01 -0.35374179532E-01  0.53964908018E-01  0.51100000000E-03 0. -1.
</event>
<event>
 8    1  0.1170483E+005  0.1043930E+01  0.7957747E-01            NaN
         13   -1    0    0    0    0  0.00000000000E+00  0.00000000000E+00  0.74505805969E-08  0.10566000000E+00  0.10566000000E+00 0.  1.
     999900   -1    0    0    0    0 -0.00000000000E+00 -0.00000000000E+00 -0.74505805969E-08  0.93827000000E+00  0.93827000000E+00 0.  1.
     999902    2    1    2    0    0  0.60619768113E-03 -0.88746676914E-02 -0.23406331770E-01  0.10188903600E+01  0.10185826340E+01 0.  0.
     999903    2    3    3    0    0  0.12223848052E-01 -0.12349089733E+00  0.31365203197E-01  0.12969309794E+00  0.20906924622E-01 0.  0.
         14    1    1    2    0    0 -0.60619768113E-03  0.88746676914E-02  0.23406331770E-01  0.25039639957E-01  0.00000000000E+00 0.  1.
     999901    1    3    3    0    0 -0.11617650371E-01  0.11461622963E+00 -0.54771534967E-01  0.88919726211E+00  0.88000000000E+00 0.  1.
        -11    1    4    4    0    0 -0.48422193055E-02 -0.56142608401E-01  0.14903382624E-01  0.58290749700E-01  0.51100000000E-03 0. -1.
         11    1    4    4    0    0  0.17066067358E-01 -0.67348288924E-01  0.16461820573E-01  0.71402348236E-01  0.51100000000E-03 0.  1.
</event>
<event>
 8    1  0.1170483E+005  0.1043930E+01  0.7957747E-01            NaN
         13   -1    0    0    0    0  0.00000000000E+00  0.00000000000E+00  0.74505805969E-08  0.10566000000E+00  0.10566000000E+00 0.  1.
     999900   -1    0    0    0    0 -0.00000000000E+00 -0.00000000000E+00 -0.74505805969E-08  0.93827000000E+00  0.93827000000E+00 0.  1.
     999902    2    1    2    0    0 -0.22618194492E-01  0.23129849794E-02  0.77557049781E-02  0.10199074360E+01  0.10196244870E+01 0.  0.
     999903    2    3    3    0    0  0.20823290205E-01 -0.12600661866E+00  0.98865012560E-02  0.12953806121E+00  0.19263671349E-01 0.  0.
         14    1    1    2    0    0  0.22618194492E-01 -0.23129849794E-02 -0.77557049781E-02  0.24022564003E-01  0.00000000000E+00 0.  1.
     999901    1    3    3    0    0 -0.43441484697E-01  0.12831960364E+00 -0.21307962779E-02  0.89036937479E+00  0.88000000000E+00 0. -1.
        -11    1    4    4    0    0 -0.27050641114E-02 -0.36755797918E-01  0.27643515241E-02  0.36962262008E-01  0.51100000000E-03 0.  1.
         11    1    4    4    0    0  0.23528354317E-01 -0.89250820739E-01  0.71221497319E-02  0.92575799199E-01  0.51100000000E-03 0. -1.
</event>
<event>
 8    1  0.1170483E+005  0.1043930E+01  0.7957747E-01            NaN
         13   -1    0    0    0    0  0.00000000000E+00  0.00000000000E+00  0.74505805969E-08  0.10566000000E+00  0.10566000000E+00 0.  1.
     999900   -1    0    0    0    0 -0.00000000000E+00 -0.00000000000E+00 -0.74505805969E-08  0.93827000000E+00  0.93827000000E+00 0.  1.
     999902    2    1    2    0    0  0.23107399720E-01  0.28164778727E-02  0.34501232701E-02  0.10203973032E+01  0.10201259082E+01 0.  0.
     999903    2    3    3    0    0  0.10505532742E+00 -0.59930006152E-01  0.51613850727E-01  0.13305727322E+00  0.20298298266E-01 0.  0.
         14    1    1    2    0    0 -0.23107399720E-01 -0.28164778727E-02 -0.34501232701E-02  0.23532696828E-01  0.00000000000E+00 0. -1.
     999901    1    3    3    0    0 -0.81947927704E-01  0.62746484024E-01 -0.48163727457E-01  0.88734002995E+00  0.88000000000E+00 0.  1.
        -11    1    4    4    0    0  0.53931461796E-01 -0.42349449277E-01  0.29035031260E-01  0.74467258489E-01  0.51100000000E-03 0. -1.
         11    1    4    4    0    0  0.51123865628E-01 -0.17580556874E-01  0.22578819466E-01  0.58590014731E-01  0.51100000000E-03 0.  1.
</event>
<event>
 8    1  0.1170483E+005  0.1043930E+01  0.7957747E-01            NaN
         13   -1    0    0    0    0  0.00000000000E+00  0.00000000000E+00  0.74505805969E-08  0.10566000000E+00  0.10566000000E+00 0.  1.
     999900   -1    0    0    0    0 -0.00000000000E+00 -0.00000000000E+00 -0.74505805969E-08  0.93827000000E+00  0.93827000000E+00 0. -1.
     999902    2    1    2    0    0  0.13754558613E-01  0.97385173651E-02 -0.14912161677E-01  0.10214266854E+01  0.10211787671E+01 0.  0.
     999903    2    3    3    0    0  0.21496313995E-01 -0.12431001926E+00 -0.29821302079E-01  0.13111706091E+00  0.19679969546E-01 0.  0.
         14    1    1    2    0    0 -0.13754558613E-01 -0.97385173651E-02  0.14912161677E-01  0.22503314623E-01  0.00000000000E+00 0.  1.
     999901    1    3    3    0    0 -0.77417553816E-02  0.13404853662E+00  0.14909140402E-01  0.89030962446E+00  0.88000000000E+00 0.  1.
        -11    1    4    4    0    0  0.13407309425E-01 -0.69406818894E-01 -0.26582084024E-01  0.75524372007E-01  0.51100000000E-03 0.  1.
         11    1    4    4    0    0  0.80890045705E-02 -0.54903200364E-01 -0.32392180554E-02  0.55592688906E-01  0.51100000000E-03 0. -1.
</event>
<event>
 8    1  0.1170483E+005  0.1043930E+01  0.7957747E-01            NaN
         13   -1    0    0    0    0  0.00000000000E+00  0.00000000000E+00  0.74505805969E-08  0.10566000000E+00  0.10566000000E+00 0.  1.
     999900   -1    0    0    0    0 -0.00000000000E+00 -0.00000000000E+00 -0.74505805969E-08  0.93827000000E+00  0.93827000000E+00 0.  1.
     999902    2    1    2    0    0 -0.56566120368E-04 -0.24483157820E-01  0.33832454175E-02  0.10192141232E+01  0.10189143999E+01 0.  0.
     999903    2    3    3    0    0 -0.95285462842E-01  0.66265880443E-01  0.49205179205E-01  0.12825756964E+00  0.23629815245E-01 0.  0.
         14    1    1    2    0    0  0.56566120368E-04  0.24483157820E-01 -0.33832454175E-02  0.24715876803E-01  0.00000000000E+00 0. -1.
     999901    1    3    3    0    0  0.95228896722E-01 -0.90749038263E-01 -0.45821933788E-01  0.89095655356E+00  0.88000000000E+00 0.  1.
        -11    1    4    4    0    0 -0.17131285080E-01  0.24280122643E-01  0.12817204353E-01  0.32365832795E-01  0.51100000000E-03 0. -1.
         11    1    4    4    0    0 -0.78154177762E-01  0.41985757800E-01  0.36387974852E-01  0.95891736842E-01  0.51100000000E-03 0.  1.
</event>
<event>
 8    1  0.1170483E+005  0.1043930E+01  0.7957747E-01            NaN
         13   -1    0    0    0    0  0.00000000000E+00  0.00000000000E+00  0.74505805969E-08  0.10566000000E+00  0.10566000000E+00 0. -1.
     999900   -1    0    0    0    0 -0.00000000000E+00 -0.00000000000E+00 -0.74505805969E-08  0.93827000000E+00  0.93827000000E+00 0.  1.
     999902    2    1    2    0    0 -0.19963452048E-01  0.98597331731E-02 -0.58802905927E-02  0.10209010709E+01  0.10206413009E+01 0.  0.
     999903    2    3    3    0    0 -0.27064987133E-02 -0.12155213751E+00  0.40384850647E-01  0.12977406233E+00  0.20691153256E-01 0.  0.
         14    1    1    2    0    0  0.19963452048E-01 -0.98597331731E-02  0.58802905927E-02  0.23028929054E-01  0.00000000000E+00 0. -1.
     999901    1    3    3    0    0 -0.17256953335E-01  0.13141187068E+00 -0.46265141239E-01  0.89112700862E+00  0.88000000000E+00 0.  1.
        -11    1    4    4    0    0 -0.90589157566E-02 -0.45476523674E-01  0.21590244050E-01  0.51152496706E-01  0.51100000000E-03 0. -1.
         11    1    4    4    0    0  0.63524170433E-02 -0.76075613835E-01  0.18794606596E-01  0.78621565622E-01  0.51100000000E-03 0.  1.
</event>
<event>
 8    1  0.1170483E+005  0.1043930E+01  0.7957747E-01            NaN
         13   -1    0    0    0    0  0.00000000000E+00  0.00000000000E+00  0.74505805969E-08  0.10566000000E+00  0.10566000000E+00 0. -1.
     999900   -1    0    0    0    0 -0.00000000000E+00 -0.00000000000E+00 -0.74505805969E-08  0.93827000000E+00  0.93827000000E+00 0. -1.
     999902    2    1    2    0    0  0.89300517256E-02  0.20694809977E-01 -0.10689661896E-01  0.10189842618E+01  0.10186788679E+01 0.  0.
     999903    2    3    3    0    0 -0.11835788990E+00 -0.28682292998E-02  0.43990987996E-01  0.12783477355E+00  0.19740958999E-01 0.  0.
         14    1    1    2    0    0 -0.89300517256E-02 -0.20694809977E-01  0.10689661896E-01  0.24945738218E-01  0.00000000000E+00 0.  1.
     999901    1    3    3    0    0  0.12728794163E+00  0.23563039277E-01 -0.54680649892E-01  0.89114948823E+00  0.88000000000E+00 0.  1.
        -11    1    4    4    0    0 -0.55212198915E-01 -0.10843833142E-01  0.17933262434E-01  0.59057926214E-01  0.51100000000E-03 0.  1.
         11    1    4    4    0    0 -0.63145690987E-01  0.79756038419E-02  0.26057725562E-01  0.68776847335E-01  0.51100000000E-03 0. -1.
</event>
<event>
 8    1  0.1170483E+005  0.1043930E+01  0.7957747E-01            NaN
         13   -1    0    0    0    0  0.00000000000E+00  0.00000000000E+00  0.74505805969E-08  0.10566000000E+00  0.10566000000E+00 0.  1.
     999900   -1    0    0    0    0 -0.00000000000E+00 -0.00000000000E+00 -0.74505805969E-08  0.93827000000E+00  0.93827000000E+00 0.  1.
     999902    2    1    2    0    0  0.47095514418E-02  0.17148744905E-01  0.15199890222E-01  0.10205356419E+01  0.10202674652E+01 0.  0.
     999903    2    3    3    0    0 -0.11442709709E+00  0.35612109971E-01  0.48369041507E-01  0.13169671982E+00  0.25351112573E-01 0.  0.
         14    1    1    2    0    0 -0.47095514418E-02 -0.17148744905E-01 -0.15199890222E-01  0.23394358067E-01  0.00000000000E+00 0. -1.
     999901    1    3    3    0    0  0.11913664853E+00 -0.18463365066E-01 -0.33169151285E-01  0.88883892212E+00  0.88000000000E+00 0. -1.
        -11    1    4    4    0    0 -0.29803354156E-01  0.39187160961E-02  0.20042415030E-02  0.30130953516E-01  0.51100000000E-03 0.  1.
         11    1    4    4    0    0 -0.84623742935E-01  0.31693393875E-01  0.46364800004E-01  0.10156576630E+00  0.51100000000E-03 0. -1.
</event>
<event>
 8    1  0.1170483E+005  0.1043930E+01  0.7957747E-01            NaN
         13   -1    0    0    0    0  0.00000000000E+00  0.00000000000E+00  0.74505805969E-08  0.10566000000E+00  0.10566000000E+00 0.  1.
     999900   -1    0    0    0    0 -0.00000000000E+00 -0.00000000000E+00 -0.74505805969E-08  0.93827000000E+00  0.93827000000E+00 0. -1.
     999902    2    1    2    0    0 -0.19455529914E-01 -0.20464599847E-01 -0.72816373580E-02  0.10147694147E+01  0.10143503464E+01 0.  0.
     999903    2    3    3    0    0  0.27844255940E-01 -0.11368766409E+00 -0.46513694976E-01  0.12771419446E+00  0.21147200577E-01 0.  0.
         14    1    1    2    0    0  0.19455529914E-01  0.20464599847E-01  0.72816373580E-02  0.29160585278E-01  0.00000000000E+00 0.  1.
     999901    1    3    3    0    0 -0.47299785854E-01  0.93223064240E-01  0.39232057618E-01  0.88705522026E+00  0.88000000000E+00 0.  1.
        -11    1    4    4    0    0  0.12939535670E-01 -0.57589054019E-01 -0.34719847306E-01  0.68481089682E-01  0.51100000000E-03 0. -1.
         11    1    4    4    0    0  0.14904720271E-01 -0.56098610068E-01 -0.11793847670E-01  0.59233104779E-01  0.51100000000E-03 0.  1.
</event>
<event>
 8    1  0.1170483E+005  0.1043930E+01  0.7957747E-01            NaN
         13   -1    0    0    0    0  0.00000000000E+00  0.00000000000E+00  0.74505805969E-08  0.10566000000E+00  0.10566000000E+00 0. -1.
     999900   -1    0    0    0    0 -0.00000000000E+00 -0.00000000000E+00 -0.74505805969E-08  0.93827000000E+00  0.93827000000E+00 0. -1.
     999902    2    1    2    0    0 -0.52899732679E-02 -0.18202635107E-01  0.14948715290E-01  0.10197890839E+01  0.10195033064E+01 0.  0.
     999903    2    3    3    0    0 -0.90797616664E-01  0.23920635270E-01 -0.85943793234E-01  0.12891017783E+00  0.20373864835E-01 0.  0.
         14    1    1    2    0    0  0.52899732679E-02  0.18202635107E-01 -0.14948715290E-01  0.24140916114E-01  0.00000000000E+00 0.  1.
     999901    1    3    3    0    0  0.85507643396E-01 -0.42123270377E-01  0.10089250852E+00  0.89087890606E+00  0.88000000000E+00 0.  1.
        -11    1    4    4    0    0 -0.40252473628E-01  0.48625727315E-03 -0.33074748962E-01  0.52102765946E-01  0.51100000000E-03 0.  1.
         11    1    4    4    0    0 -0.50545143035E-01  0.23434377997E-01 -0.52869044271E-01  0.76807411880E-01  0.51100000000E-03 0. -1.
</event>
<event>
 8    1  0.1170483E+005  0.1043930E+01  0.7957747E-01            NaN
         13   -1    0    0    0    0  0.00000000000E+00  0.00000000000E+00  0.74505805969E-08  0.10566000000E+00  0.10566000000E+00 0.  1.
     999900   -1    0    0    0    0 -0.00000000000E+00 -0.00000000000E+00 -0.74505805969E-08  0.93827000000E+00  0.93827000000E+00 0. -1.
     999902    2    1    2    0    0  0.12601759375E-02 -0.19134121587E-01  0.13405582000E-01  0.10205331566E+01  0.10202649222E+01 0.  0.
     999903    2    3    3    0    0 -0.31037738465E-01 -0.11906967523E+00 -0.44458571928E-01  0.13240111098E+00  0.20311592773E-01 0.  0.
         14    1    1    2    0    0 -0.12601759375E-02  0.19134121587E-01 -0.13405582000E-01  0.23396843399E-01  0.00000000000E+00 0.  1.
     999901    1    3    3    0    0  0.32297914403E-01  0.99935553644E-01  0.57864153928E-01  0.88813204563E+00  0.88000000000E+00 0.  1.
        -11    1    4    4    0    0  0.24319243722E-02 -0.17877830716E-01 -0.81216314173E-02  0.19792753854E-01  0.51100000000E-03 0.  1.
         11    1    4    4    0    0 -0.33469662837E-01 -0.10119184452E+00 -0.36336940510E-01  0.11260835712E+00  0.51100000000E-03 0. -1.
</event>
<event>
 8    1  0.1170483E+005  0.1043930E+01  0.7957747E-01            NaN
         13   -1    0    0    0    0  0.00000000000E+00  0.00000000000E+00  0.74505805969E-08  0.10566000000E+00  0.10566000000E+00 0. -1.
     999900   -1    0    0    0    0 -0.00000000000E+00 -0.00000000000E+00 -0.74505805969E-08  0.93827000000E+00  0.93827000000E+00 0.  1.
     999902    2    1    2    0    0  0.22959231128E-01  0.20513148926E-02 -0.83730868370E-03  0.10208641102E+01  0.10206034961E+01 0.  0.
     999903    2    3    3    0    0  0.46882950204E-01 -0.20650952492E-01  0.12010922011E+00  0.13197952820E+00  0.19180673816E-01 0.  0.
         14    1    1    2    0    0 -0.22959231128E-01 -0.20513148926E-02  0.83730868370E-03  0.23065889808E-01  0.00000000000E+00 0.  1.
     999901    1    3    3    0    0 -0.23923719076E-01  0.22702267385E-01 -0.12094652880E+00  0.88888458199E+00  0.88000000000E+00 0.  1.
        -11    1    4    4    0    0  0.34596716528E-01 -0.20234253660E-01  0.72893751399E-01  0.83187246196E-01  0.51100000000E-03 0. -1.
         11    1    4    4    0    0  0.12286233677E-01 -0.41669883182E-03  0.47215468716E-01  0.48792282002E-01  0.51100000000E-03 0.  1.
</event>
<event>
 8    1  0.1389901E+005  0.1043930E+01  0.7957747E-01            NaN
         13   -1    0    0    0    0  0.00000000000E+00  0.00000000000E+00  0.74505805969E-08  0.10566000000E+00  0.10566000000E+00 0. -1.
     999900   -1    0    0    0    0 -0.00000000000E+00 -0.00000000000E+00 -0.74505805969E-08  0.93827000000E+00  0.93827000000E+00 0. -1.
     999902    2    1    2    0    0 -0.22139963782E-01  0.53775838323E-02  0.58894882528E-02  0.10203974167E+01  0.10201260244E+01 0.  0.
     999903    2    3    3    0    0 -0.50593723446E-01  0.55495220396E-01 -0.10602018444E+00  0.13144006747E+00  0.19919023272E-01 0.  0.
         14    1    1    2    0    0  0.22139963782E-01 -0.53775838323E-02 -0.58894882528E-02  0.23532583284E-01  0.00000000000E+00 0. -1.
     999901    1    3    3    0    0  0.28453759663E-01 -0.50117636564E-01  0.11190967270E+00  0.88895734925E+00  0.88000000000E+00 0.  1.
        -11    1    4    4    0    0 -0.13655410150E-01  0.28914940444E-01 -0.48457110276E-01  0.58059423563E-01  0.51100000000E-03 0. -1.
         11    1    4    4    0    0 -0.36938313296E-01  0.26580279952E-01 -0.57563074168E-01  0.73380643907E-01  0.51100000000E-03 0.  1.
</event>
<event>
 8    1  0.1170483E+005  0.1043930E+01  0.7957747E-01            NaN
         13   -1    0    0    0    0  0.00000000000E+00  0.00000000000E+00  0.74505805969E-08  0.10566000000E+00  0.10566000000E+00 0.  1.
     999900   -1    0    0    0    0 -0.00000000000E+00 -0.00000000000E+00 -0.74505805969E-08  0.93827000000E+00  0.93827000000E+00 0.  1.
     999902    2    1    2    0    0 -0.97718007107E-02 -0.87733875189E-02 -0.19865500951E-01  0.10201161690E+01  0.10198381733E+01 0.  0.
     999903    2    3    3    0    0 -0.12491224111E+00  0.30584635503E-01  0.15462296535E-01  0.13104112817E+00  0.19854640547E-01 0.  0.
         14    1    1    2    0    0  0.97718007107E-02  0.87733875189E-02  0.19865500951E-01  0.23813830975E-01  0.00000000000E+00 0.  1.
     999901    1    3    3    0    0  0.11514044040E+00 -0.39358023022E-01 -0.35327797486E-01  0.88907504085E+00  0.88000000000E+00 0. -1.
        -11    1    4    4    0    0 -0.80598611496E-01  0.28581766784E-01  0.63518715488E-02  0.85753489496E-01  0.51100000000E-03 0.  1.
         11    1    4    4    0    0 -0.44313629612E-01  0.20028687186E-02  0.91104249864E-02  0.45287638677E-01  0.51100000000E-03 0. -1.
</event>
<event>
 8    1  0.1170483E+005  0.1043930E+01  0.7957747E-01            NaN
         13   -1    0    0    0    0  0.00000000000E+00  0.00000000000E+00  0.74505805969E-08  0.10566000000E+00  0.10566000000E+00 0. -1.
     999900   -1    0    0    0    0 -0.00000000000E+00 -0.00000000000E+00 -0.74505805969E-08  0.93827000000E+00  0.93827000000E+00 0. -1.
     999902    2    1    2    0    0 -0.10626791152E-01 -0.16523717259E-01  0.11006789046E-01  0.10214108675E+01  0.10211625967E+01 0.  0.
     999903    2    3    3    0    0 -0.16440212060E-01  0.42296445029E-01  0.12273485874E+00  0.13237950199E+00  0.20030405949E-01 0.  0.
         14    1    1    2    0    0  0.10626791152E-01  0.16523717259E-01 -0.11006789046E-01  0.22519132473E-01  0.00000000000E+00 0.  1.
     999901    1    3    3    0    0  0.58134209078E-02 -0.58820162288E-01 -0.11172806969E+00  0.88903136554E+00  0.88000000000E+00 0. -1.
        -11    1    4    4    0    0 -0.14833399375E-01  0.12280319181E-01  0.41275876970E-01  0.45549918956E-01  0.51100000000E-03 0. -1.
         11    1    4    4    0    0 -0.16068126850E-02  0.30016125848E-01  0.81458981768E-01  0.86829583032E-01  0.51100000000E-03 0.  1.
</event>
<event>
 8    1  0.1170483E+005  0.1043930E+01  0.7957747E-01            NaN
         13   -1    0    0    0    0  0.00000000000E+00  0.00000000000E+00  0.74505805969E-08  0.10566000000E+00  0.10566000000E+00 0.  1.
     999900   -1    0    0    0    0 -0.00000000000E+00 -0.00000000000E+00 -0.74505805969E-08  0.93827000000E+00  0.93827000000E+00 0.  1.
     999902    2    1    2    0    0 -0.29738462605E-02 -0.18558593097E-01 -0.91170668753E-02  0.10230401449E+01  0.10228268436E+01 0.  0.
     999903    2    3    3    0    0  0.15801502977E-01 -0.59046129614E-01  0.11595658002E+00  0.13307656611E+00  0.22963254964E-01 0.  0.
         14    1    1    2    0    0  0.29738462605E-02  0.18558593097E-01  0.91170668753E-02  0.20889855139E-01  0.00000000000E+00 0. -1.
     999901    1    3    3    0    0 -0.18775349237E-01  0.40487536518E-01 -0.12507364690E+00  0.88996357875E+00  0.88000000000E+00 0.  1.
        -11    1    4    4    0    0  0.10573931763E-01 -0.16375640528E-01  0.56007896122E-01  0.59305271138E-01  0.51100000000E-03 0. -1.
         11    1    4    4    0    0  0.52275712130E-02 -0.42670489087E-01  0.59948683901E-01  0.73771294974E-01  0.51100000000E-03 0.  1.
</event>
<event>
 8    1  0.1170483E+005  0.1043930E+01  0.7957747E-01            NaN
         13   -1    0    0    0    0  0.00000000000E+00  0.00000000000E+00  0.74505805969E-08  0.10566000000E+00  0.10566000000E+00 0. -1.
     999900   -1    0    0    0    0 -0.00000000000E+00 -0.00000000000E+00 -0.74505805969E-08  0.93827000000E+00  0.93827000000E+00 0. -1.
     999902    2    1    2    0    0 -0.12479105962E-01 -0.15694252727E-01 -0.10229848369E-01  0.10214202809E+01  0.10211722200E+01 0.  0.
     999903    2    3    3    0    0 -0.43557454337E-01  0.82295637004E-01 -0.91077848404E-01  0.13175501730E+00  0.19859164526E-01 0.  0.
         14    1    1    2    0    0  0.12479105962E-01  0.15694252727E-01  0.10229848369E-01  0.22509719055E-01  0.00000000000E+00 0.  1.
     999901    1    3    3    0    0  0.31078348375E-01 -0.97989889731E-01  0.80848000034E-01  0.88966526365E+00  0.88000000000E+00 0. -1.
        -11    1    4    4    0    0 -0.32889811014E-01  0.53391739483E-01 -0.72139672596E-01  0.95586667464E-01  0.51100000000E-03 0.  1.
         11    1    4    4    0    0 -0.10667643323E-01  0.28903897521E-01 -0.18938175808E-01  0.36168349836E-01  0.51100000000E-03 0. -1.
</event>
<event>
 8    1  0.1170483E+005  0.1043930E+01  0.7957747E-01            NaN
         13   -1    0    0    0    0  0.00000000000E+00  0.00000000000E+00  0.74505805969E-08  0.10566000000E+00  0.10566000000E+00 0.  1.
     999900   -1    0    0    0    0 -0.00000000000E+00 -0.00000000000E+00 -0.74505805969E-08  0.93827000000E+00  0.93827000000E+00 0. -1.
     999902    2    1    2    0    0  0.53701574787E-02 -0.13600197310E-01 -0.18420128917E-01  0.10204118133E+01  0.10201407567E+01 0.  0.
     999903    2    3    3    0    0 -0.38016491359E-01 -0.33190002855E-01 -0.12157955197E+00  0.13310801616E+00  0.19731360940E-01 0.  0.
         14    1    1    2    0    0 -0.53701574787E-02  0.13600197310E-01  0.18420128917E-01  0.23518186740E-01  0.00000000000E+00 0.  1.
     999901    1    3    3    0    0  0.43386648838E-01  0.19589805545E-01  0.10315942305E+00  0.88730379710E+00  0.88000000000E+00 0.  1.
        -11    1    4    4    0    0 -0.12582413925E-01 -0.21806191558E-01 -0.44302018872E-01  0.50958386234E-01  0.51100000000E-03 0. -1.
         11    1    4    4    0    0 -0.25434077434E-01 -0.11383811297E-01 -0.77277533099E-01  0.82149629929E-01  0.51100000000E-03 0.  1.
</event>
<event>
 8    1  0.1170483E+005  0.1043930E+01  0.7957747E-01            NaN
         13   -1    0    0    0    0  0.00000000000E+00  0.00000000000E+00  0.74505805969E-08  0.10566000000E+00  0.10566000000E+00 0.  1.
     999900   -1    0    0    0    0 -0.00000000000E+00 -0.00000000000E+00 -0.74505805969E-08  0.93827000000E+00  0.93827000000E+00 0.  1.
     999902    2    1    2    0    0 -0.17430402996E-01 -0.47016097926E-02 -0.13731802523E-01  0.10212477055E+01  0.10209957833E+01 0.  0.
     999903    2    3    3    0    0  0.35952963284E-01  0.14765280905E-01 -0.12496312229E+00  0.13242761677E+00  0.20264813409E-01 0.  0.
         14    1    1    2    0    0  0.17430402996E-01  0.47016097926E-02  0.13731802523E-01  0.22682294500E-01  0.00000000000E+00 0.  1.
     999901    1    3    3    0    0 -0.53383366280E-01 -0.19466890698E-01  0.11123131977E+00  0.88882008873E+00  0.88000000000E+00 0. -1.
        -11    1    4    4    0    0  0.20248955297E-01  0.85679718253E-02 -0.99290396244E-01  0.10169697262E+00  0.51100000000E-03 0. -1.
         11    1    4    4    0    0  0.15704007987E-01  0.61973090800E-02 -0.25672726046E-01  0.30730644157E-01  0.51100000000E-03 0.  1.
</event>
<event>
 8    1  0.1170483E+005  0.1043930E+01  0.7957747E-01            NaN
         13   -1    0    0    0    0  0.00000000000E+00  0.00000000000E+00  0.74505805969E-08  0.10566000000E+00  0.10566000000E+00 0.  1.
     999900   -1    0    0    0    0 -0.00000000000E+00 -0.00000000000E+00 -0.74505805969E-08  0.93827000000E+00  0.93827000000E+00 0.  1.
     999902    2    1    2    0    0  0.65077783729E-02  0.66437823400E-02 -0.22157853846E-01  0.10198995712E+01  0.10196164346E+01 0.  0.
     999903    2    3    3    0    0 -0.26404381369E-01 -0.44599195813E-01  0.11450018361E+00  0.12727172470E+00  0.20037969958E-01 0.  0.
         14    1    1    2    0    0 -0.65077783729E-02 -0.66437823400E-02  0.22157853846E-01  0.24030428839E-01  0.00000000000E+00 0.  1.
     999901    1    3    3    0    0  0.32912159742E-01  0.51242978153E-01 -0.13665803746E+00  0.89262784646E+00  0.88000000000E+00 0.  1.
        -11    1    4    4    0    0 -0.23431259413E-01 -0.24589929311E-01  0.84625287549E-01  0.91188754543E-01  0.51100000000E-03 0.  1.
         11    1    4    4    0    0 -0.29731219553E-02 -0.20009266502E-01  0.29874896060E-01  0.36082970161E-01  0.51100000000E-03 0. -1.
</event>
<event>
 8    1  0.1170483E+005  0.1043930E+01  0.7957747E-01            NaN
         13   -1    0    0    0    0  0.00000000000E+00  0.00000000000E+00  0.74505805969E-08  0.10566000000E+00  0.10566000000E+00 0.  1.
     999900   -1    0    0    0    0 -0.00000000000E+00 -0.00000000000E+00 -0.74505805969E-08  0.93827000000E+00  0.93827000000E+00 0.  1.
     999902    2    1    2    0    0  0.21728173931E-01  0.18952488967E-02 -0.30943156690E-03  0.10221171309E+01  0.10218843516E+01 0.  0.
     999903    2    3    3    0    0 -0.34156589645E-01 -0.12171025019E+00  0.28809678262E-01  0.13124713546E+00  0.20390080652E-01 0.  0.
         14    1    1    2    0    0 -0.21728173931E-01 -0.18952488967E-02  0.30943156690E-03  0.21812869106E-01  0.00000000000E+00 0.  1.
     999901    1    3    3    0    0  0.55884763575E-01  0.12360549908E+00 -0.29119109829E-01  0.89086999543E+00  0.88000000000E+00 0. -1.
        -11    1    4    4    0    0  0.19661237792E-02 -0.13944754943E-01  0.60266446107E-02  0.15326558629E-01  0.51100000000E-03 0.  1.
         11    1    4    4    0    0 -0.36122713424E-01 -0.10776549524E+00  0.22783033651E-01  0.11592057683E+00  0.51100000000E-03 0. -1.
</event>
<event>
 8    1  0.1170483E+005  0.1043930E+01  0.7957747E-01            NaN
         13   -1    0    0    0    0  0.00000000000E+00  0.00000000000E+00  0.74505805969E-08  0.10566000000E+00  0.10566000000E+00 0.  1.
     999900   -1    0    0    0    0 -0.00000000000E+00 -0.00000000000E+00 -0.74505805969E-08  0.93827000000E+00  0.93827000000E+00 0. -1.
     999902    2    1    2    0    0 -0.63332033174E-03 -0.23463091241E-01 -0.31591839861E-02  0.10202467108E+01  0.10199717901E+01 0.  0.
     999903    2    3    3    0    0  0.67448151602E-01 -0.89234831213E-01 -0.68401363055E-01  0.13276851356E+00  0.20895537050E-01 0.  0.
         14    1    1    2    0    0  0.63332033174E-03  0.23463091241E-01  0.31591839861E-02  0.23683289228E-01  0.00000000000E+00 0. -1.
     999901    1    3    3    0    0 -0.68081471934E-01  0.65771739972E-01  0.65242179069E-01  0.88747819721E+00  0.88000000000E+00 0. -1.
        -11    1    4    4    0    0  0.39701047309E-01 -0.60482352974E-01 -0.54044105092E-01  0.90306780448E-01  0.51100000000E-03 0.  1.
         11    1    4    4    0    0  0.27747104293E-01 -0.28752478239E-01 -0.14357257963E-01  0.42461733110E-01  0.51100000000E-03 0. -1.
</event>
<event>
 8    1  0.1170483E+005  0.1043930E+01  0.7957747E-01            NaN
         13   -1    0    0    0    0  0.00000000000E+00  0.00000000000E+00  0.74505805969E-08  0.10566000000E+00  0.10566000000E+00 0.  1.
     999900   -1    0    0    0    0 -0.00000000000E+00 -0.00000000000E+00 -0.74505805969E-08  0.93827000000E+00  0.93827000000E+00 0. -1.
     999902    2    1    2    0    0 -0.11534736135E-02  0.28512288572E-02 -0.23580601716E-01  0.10201496555E+01  0.10198724503E+01 0.  0.
     999903    2    3    3    0    0  0.10502923745E+00 -0.51028876447E-01 -0.57573930532E-01  0.13148021173E+00  0.18363051178E-01 0.  0.
         14    1    1    2    0    0  0.11534736135E-02 -0.28512288572E-02  0.23580601716E-01  0.23780344503E-01  0.00000000000E+00 0.  1.
     999901    1    3    3    0    0 -0.10618271107E+00  0.53880105304E-01  0.33993328816E-01  0.88866944376E+00  0.88000000000E+00 0.  1.
        -11    1    4    4    0    0  0.38312396542E-01 -0.11759473548E-01 -0.26560540671E-01  0.48081684545E-01  0.51100000000E-03 0. -1.
         11    1    4    4    0    0  0.66716840912E-01 -0.39269402899E-01 -0.31013389861E-01  0.83398527188E-01  0.51100000000E-03 0.  1.
</event>
<event>
 8    1  0.1170483E+005  0.1043930E+01  0.7957747E-01            NaN
         13   -1    0    0    0    0  0.00000000000E+00  0.00000000000E+00  0.74505805969E-08  0.10566000000E+00  0.10566000000E+00 0. -1.
     999900   -1    0    0    0    0 -0.00000000000E+00 -0.00000000000E+00 -0.74505805969E-08  0.93827000000E+00  0.93827000000E+00 0. -1.
     999902    2    1    2    0    0  0.64200021052E-02  0.12156410990E-02 -0.21330462516E-01  0.10216211936E+01  0.10213775896E+01 0.  0.
     999903    2    3    3    0    0 -0.12714869032E-01  0.72767095390E-01 -0.10966697682E+00  0.13410269036E+00  0.22359957296E-01 0.  0.
         14    1    1    2    0    0 -0.64200021052E-02 -0.12156410990E-02  0.21330462516E-01  0.22308806365E-01  0.00000000000E+00 0. -1.
     999901    1    3    3    0    0  0.19134871137E-01 -0.71551454291E-01  0.88336514302E-01  0.88751850328E+00  0.88000000000E+00 0.  1.
        -11    1    4    4    0    0 -0.14432875521E-01  0.57945111105E-01 -0.99481826023E-01  0.11602947310E+00  0.51100000000E-03 0. -1.
         11    1    4    4    0    0  0.17180064894E-02  0.14821984285E-01 -0.10185150794E-01  0.18073217260E-01  0.51100000000E-03 0.  1.
</event>
<event>
 8    1  0.1170483E+005  0.1043930E+01  0.7957747E-01            NaN
         13   -1    0    0    0    0  0.00000000000E+00  0.00000000000E+00  0.74505805969E-08  0.10566000000E+00  0.10566000000E+00 0.  1.
     999900   -1    0    0    0    0 -0.00000000000E+00 -0.00000000000E+00 -0.74505805969E-08  0.93827000000E+00  0.93827000000E+00 0.  1.
     999902    2    1    2    0    0 -0.53929735996E-02  0.25016789096E-01 -0.24317907342E-02  0.10182232401E+01  0.10178986831E+01 0.  0.
     999903    2    3    3    0    0  0.84646459074E-01 -0.86577607895E-01  0.27693531962E-01  0.12610892902E+00  0.21813414308E-01 0.  0.
         14    1    1    2    0    0  0.53929735996E-02 -0.25016789096E-01  0.24317907342E-02  0.25706759949E-01  0.00000000000E+00 0. -1.
     999901    1    3    3    0    0 -0.90039432673E-01  0.11159439699E+00 -0.30125322696E-01  0.89211431103E+00  0.88000000000E+00 0.  1.
        -11    1    4    4    0    0  0.28685468302E-01 -0.32443530203E-01  0.20499698377E-01  0.47915942006E-01  0.51100000000E-03 0. -1.
         11    1    4    4    0    0  0.55960990771E-01 -0.54134077692E-01  0.71938335842E-02  0.78192987015E-01  0.51100000000E-03 0.  1.
</event>
<event>
 8    1  0.1170483E+005  0.1043930E+01  0.7957747E-01            NaN
         13   -1    0    0    0    0  0.00000000000E+00  0.00000000000E+00  0.74505805969E-08  0.10566000000E+00  0.10566000000E+00 0.  1.
     999900   -1    0    0    0    0 -0.00000000000E+00 -0.00000000000E+00 -0.74505805969E-08  0.93827000000E+00  0.93827000000E+00 0. -1.
     999902    2    1    2    0    0  0.21184172084E-01 -0.67646528316E-02 -0.92765006638E-02  0.10198347071E+01  0.10195500217E+01 0.  0.
     999903    2    3    3    0    0 -0.72262098976E-01 -0.40600227055E-01  0.95603401556E-01  0.12805174834E+00  0.19673598545E-01 0.  0.
         14    1    1    2    0    0 -0.21184172084E-01  0.67646528316E-02  0.92765006638E-02  0.24095292889E-01  0.00000000000E+00 0.  1.
     999901    1    3    3    0    0  0.93446271060E-01  0.33835574223E-01 -0.10487990222E+00  0.89178295877E+00  0.88000000000E+00 0.  1.
        -11    1    4    4    0    0 -0.48824611566E-01 -0.21500713956E-01  0.48642299128E-01  0.72197353003E-01  0.51100000000E-03 0. -1.
         11    1    4    4    0    0 -0.23437487409E-01 -0.19099513099E-01  0.46961102428E-01  0.55854395341E-01  0.51100000000E-03 0.  1.
</event>
<event>
 8    1  0.1170483E+005  0.1043930E+01  0.7957747E-01            NaN
         13   -1    0    0    0    0  0.00000000000E+00  0.00000000000E+00  0.74505805969E-08  0.10566000000E+00  0.10566000000E+00 0.  1.
     999900   -1    0    0    0    0 -0.00000000000E+00 -0.00000000000E+00 -0.74505805969E-08  0.93827000000E+00  0.93827000000E+00 0.  1.
     999902    2    1    2    0    0  0.14758485999E-01  0.13067123841E-01  0.11605376475E-01  0.10210553984E+01  0.10207991376E+01 0.  0.
     999903    2    3    3    0    0 -0.46530886360E-01  0.11241713678E+00 -0.44945488923E-01  0.13154721261E+00  0.21950766393E-01 0.  0.
         14    1    1    2    0    0 -0.14758485999E-01 -0.13067123841E-01 -0.11605376475E-01  0.22874601583E-01  0.00000000000E+00 0.  1.
     999901    1    3    3    0    0  0.61289372359E-01 -0.99350012936E-01  0.56550865397E-01  0.88950818580E+00  0.88000000000E+00 0. -1.
        -11    1    4    4    0    0 -0.21271894427E-01  0.76481565047E-01 -0.33409491222E-01  0.86130009342E-01  0.51100000000E-03 0. -1.
         11    1    4    4    0    0 -0.25258991933E-01  0.35935571730E-01 -0.11535997701E-01  0.45417203272E-01  0.51100000000E-03 0.  1.
</event>
<event>
 8    1  0.1170483E+005  0.1043930E+01  0.7957747E-01            NaN
         13   -1    0    0    0    0  0.00000000000E+00  0.00000000000E+00  0.74505805969E-08  0.10566000000E+00  0.10566000000E+00 0. -1.
     999900   -1    0    0    0    0 -0.00000000000E+00 -0.00000000000E+00 -0.74505805969E-08  0.93827000000E+00  0.93827000000E+00 0. -1.
     999902    2    1    2    0    0  0.20204477776E-01  0.55226590716E-02 -0.11674254189E-01  0.10199506569E+01  0.10196687372E+01 0.  0.
     999903    2    3    3    0    0 -0.83871392023E-01  0.84986061489E-01 -0.46290037456E-01  0.12958866789E+00  0.19834672418E-01 0.  0.
         14    1    1    2    0    0 -0.20204477776E-01 -0.55226590716E-02  0.11674254189E-01  0.23979343116E-01  0.00000000000E+00 0.  1.
     999901    1    3    3    0    0  0.10407586980E+00 -0.79463402417E-01  0.34615783268E-01  0.89036198900E+00  0.88000000000E+00 0.  1.
        -11    1    4    4    0    0 -0.67341644359E-01  0.73986602842E-01 -0.31712915323E-01  0.10495182030E+00  0.51100000000E-03 0.  1.
         11    1    4    4    0    0 -0.16529747663E-01  0.10999458647E-01 -0.14577122133E-01  0.24636847587E-01  0.51100000000E-03 0. -1.
</event>
<event>
 8    1  0.1170483E+005  0.1043930E+01  0.7957747E-01            NaN
         13   -1    0    0    0    0  0.00000000000E+00  0.00000000000E+00  0.74505805969E-08  0.10566000000E+00  0.10566000000E+00 0.  1.
     999900   -1    0    0    0    0 -0.00000000000E+00 -0.00000000000E+00 -0.74505805969E-08  0.93827000000E+00  0.93827000000E+00 0. -1.
     999902    2    1    2    0    0  0.19306410630E-01  0.10806572412E-01 -0.79028388279E-02  0.10204358654E+01  0.10201653695E+01 0.  0.
     999903    2    3    3    0    0 -0.22463290332E-01  0.23384237806E-01 -0.12591316880E+00  0.13148741720E+00  0.19580419157E-01 0.  0.
         14    1    1    2    0    0 -0.19306410630E-01 -0.10806572412E-01  0.79028388279E-02  0.23494134592E-01  0.00000000000E+00 0.  1.
     999901    1    3    3    0    0  0.41769700962E-01 -0.12577665395E-01  0.11801032997E+00  0.88894844820E+00  0.88000000000E+00 0.  1.
        -11    1    4    4    0    0 -0.12006477327E-01  0.10382789927E-01 -0.28250728099E-01  0.32408680683E-01  0.51100000000E-03 0. -1.
         11    1    4    4    0    0 -0.10456813005E-01  0.13001447879E-01 -0.97662440704E-01  0.99078736520E-01  0.51100000000E-03 0.  1.
</event>
<event>
 8    1  0.1170483E+005  0.1043930E+01  0.7957747E-01            NaN
         13   -1    0    0    0    0  0.00000000000E+00  0.00000000000E+00  0.74505805969E-08  0.10566000000E+00  0.10566000000E+00 0. -1.
     999900   -1    0    0    0    0 -0.00000000000E+00 -0.00000000000E+00 -0.74505805969E-08  0.93827000000E+00  0.93827000000E+00 0. -1.
     999902    2    1    2    0    0  0.21993175334E-01 -0.27142189598E-01  0.20722589401E-02  0.10089343935E+01  0.10083272871E+01 0.  0.
     999903    2    3    3    0    0 -0.10593927354E+00  0.21501616312E-01  0.41537813998E-01  0.11748026604E+00  0.19767997729E-01 0.  0.
         14    1    1    2    0    0 -0.21993175334E-01  0.27142189598E-01 -0.20722589401E-02  0.34995606504E-01  0.00000000000E+00 0.  1.
     999901    1    3    3    0    0  0.12793244887E+00 -0.48643805910E-01 -0.39465555058E-01  0.89145412746E+00  0.88000000000E+00 0. -1.
        -11    1    4    4    0    0 -0.99323887795E-01  0.14881019503E-01  0.39257903723E-01  0.10783377743E+00  0.51100000000E-03 0.  1.
         11    1    4    4    0    0 -0.66153857450E-02  0.66205968096E-02  0.22799102752E-02  0.96464886116E-02  0.51100000000E-03 0. -1.
</event>
<event>
 8    1  0.1170483E+005  0.1043930E+01  0.7957747E-01            NaN
         13   -1    0    0    0    0  0.00000000000E+00  0.00000000000E+00  0.74505805969E-08  0.10566000000E+00  0.10566000000E+00 0. -1.
     999900   -1    0    0    0    0 -0.00000000000E+00 -0.00000000000E+00 -0.74505805969E-08  0.93827000000E+00  0.93827000000E+00 0. -1.
     999902    2    1    2    0    0  0.20629546353E-02 -0.18952533311E-01  0.14020758980E-01  0.10202649206E+01  0.10199904275E+01 0.  0.
     999903    2    3    3    0    0 -0.87848237397E-01  0.54481380651E-01 -0.73683861275E-01  0.12831836245E+00  0.18728509790E-01 0.  0.
         14    1    1    2    0    0 -0.20629546353E-02  0.18952533311E-01 -0.14020758980E-01  0.23665079402E-01  0.00000000000E+00 0.  1.
     999901    1    3    3    0    0  0.89911192032E-01 -0.73433913962E-01  0.87704620255E-01  0.89194655814E+00  0.88000000000E+00 0.  1.
        -11    1    4    4    0    0 -0.28367111090E-01  0.21885687961E-01 -0.35687990157E-01  0.50572424220E-01  0.51100000000E-03 0.  1.
         11    1    4    4    0    0 -0.59481126307E-01  0.32595692690E-01 -0.37995871118E-01  0.77745938233E-01  0.51100000000E-03 0. -1.
</event>
<event>
 8    1  0.1170483E+005  0.1043930E+01  0.7957747E-01            NaN
         13   -1    0    0    0    0  0.00000000000E+00  0.00000000000E+00  0.74505805969E-08  0.10566000000E+00  0.10566000000E+00 0.  1.
     999900   -1    0    0    0    0 -0.00000000000E+00 -0.00000000000E+00 -0.74505805969E-08  0.93827000000E+00  0.93827000000E+00 0. -1.
     999902    2    1    2    0    0  0.14067162350E-01 -0.21806052632E-02  0.18939670129E-01  0.10202371487E+01  0.10199620035E+01 0.  0.
     999903    2    3    3    0    0  0.34334810538E-01 -0.92506119094E-02 -0.12215424174E+00  0.12873938962E+00  0.19690572106E-01 0.  0.
         14    1    1    2    0    0 -0.14067162350E-01  0.21806052632E-02 -0.18939670129E-01  0.23692851253E-01  0.00000000000E+00 0. -1.
     999901    1    3    3    0    0 -0.20267648188E-01  0.70700066462E-02  0.14109391187E+00  0.89149775912E+00  0.88000000000E+00 0.  1.
        -11    1    4    4    0    0  0.28979664025E-01 -0.14269452666E-01 -0.86548641121E-01  0.92381635660E-01  0.51100000000E-03 0.  1.
         11    1    4    4    0    0  0.53551465132E-02  0.50188407568E-02 -0.35605600620E-01  0.36357753962E-01  0.51100000000E-03 0. -1.
</event>
<event>
 8    1  0.1170483E+005  0.1043930E+01  0.7957747E-01            NaN
         13   -1    0    0    0    0  0.00000000000E+00  0.00000000000E+00  0.74505805969E-08  0.10566000000E+00  0.10566000000E+00 0.  1.
     999900   -1    0    0    0    0 -0.00000000000E+00 -0.00000000000E+00 -0.74505805969E-08  0.93827000000E+00  0.93827000000E+00 0.  1.
     999902    2    1    2    0    0 -0.12137443210E-01  0.91921035710E-03  0.18699622482E-01  0.10216177084E+01  0.10213740274E+01 0.  0.
     999903    2    3    3    0    0  0.19775392168E-01  0.48182588397E-01  0.12199476421E+00  0.13374263708E+00  0.17080471863E-01 0.  0.
         14    1    1    2    0    0  0.12137443210E-01 -0.91921035710E-03 -0.18699622482E-01  0.22312291597E-01  0.00000000000E+00 0.  1.
     999901    1    3    3    0    0 -0.31912835378E-01 -0.47263378040E-01 -0.10329514173E+00  0.88787507132E+00  0.88000000000E+00 0.  1.
        -11    1    4    4    0    0  0.75215584304E-02  0.33125742946E-01  0.91351217654E-01  0.97463812643E-01  0.51100000000E-03 0. -1.
         11    1    4    4    0    0  0.12253833738E-01  0.15056845451E-01  0.30643546557E-01  0.36278824441E-01  0.51100000000E-03 0.  1.
</event>
<event>
 8    1  0.1170483E+005  0.1043930E+01  0.7957747E-01            NaN
         13   -1    0    0    0    0  0.00000000000E+00  0.00000000000E+00  0.74505805969E-08  0.10566000000E+00  0.10566000000E+00 0. -1.
     999900   -1    0    0    0    0 -0.00000000000E+00 -0.00000000000E+00 -0.74505805969E-08  0.93827000000E+00  0.93827000000E+00 0.  1.
     999902    2    1    2    0    0 -0.50928652679E-02  0.23565209238E-01  0.54118095179E-02  0.10192208105E+01  0.10189212514E+01 0.  0.
     999903    2    3    3    0    0 -0.12774294263E+00 -0.26405383145E-02 -0.14356986366E-01  0.13010856339E+00  0.19921932032E-01 0.  0.
         14    1    1    2    0    0  0.50928652679E-02 -0.23565209238E-01 -0.54118095179E-02  0.24709189491E-01  0.00000000000E+00 0.  1.
     999901    1    3    3    0    0  0.12265007736E+00  0.26205747552E-01  0.19768795884E-01  0.88911224712E+00  0.88000000000E+00 0. -1.
        -11    1    4    4    0    0 -0.10693915474E+00 -0.95954889043E-02 -0.12224482182E-01  0.10806366323E+00  0.51100000000E-03 0.  1.
         11    1    4    4    0    0 -0.20803787888E-01  0.69549505898E-02 -0.21325041839E-02  0.22044900165E-01  0.51100000000E-03 0. -1.
</event>
<event>
 8    1  0.1170483E+005  0.1043930E+01  0.7957747E-01            NaN
         13   -1    0    0    0    0  0.00000000000E+00  0.00000000000E+00  0.74505805969E-08  0.10566000000E+00  0.10566000000E+00 0.  1.
     999900   -1    0    0    0    0 -0.00000000000E+00 -0.00000000000E+00 -0.74505805969E-08  0.93827000000E+00  0.93827000000E+00 0. -1.
     999902    2    1    2    0    0  0.72149581070E-02  0.21285915818E-01 -0.52652153709E-02  0.10208460591E+01  0.10205850323E+01 0.  0.
     999903    2    3    3    0    0  0.12380560736E+00  0.42679248090E-01 -0.12389901402E-01  0.13286981210E+00  0.18749151429E-01 0.  0.
         14    1    1    2    0    0 -0.72149581070E-02 -0.21285915818E-01  0.52652153709E-02  0.23083940859E-01  0.00000000000E+00 0.  1.
     999901    1    3    3    0    0 -0.11659064925E+00 -0.21393332272E-01  0.71246860313E-02  0.88797624704E+00  0.88000000000E+00 0. -1.
        -11    1    4    4    0    0  0.90389313877E-01  0.31147654930E-01 -0.17354605855E-01  0.97169171738E-01  0.51100000000E-03 0.  1.
         11    1    4    4    0    0  0.33416293482E-01  0.11531593160E-01  0.49647044529E-02  0.35700640361E-01  0.51100000000E-03 0. -1.
</event>
<event>
 8    1  0.1170483E+005  0.1043930E+01  0.7957747E-01            NaN
         13   -1    0    0    0    0  0.00000000000E+00  0.00000000000E+00  0.74505805969E-08  0.10566000000E+00  0.10566000000E+00 0.  1.
     999900   -1    0    0    0    0 -0.00000000000E+00 -0.00000000000E+00 -0.74505805969E-08  0.93827000000E+00  0.93827000000E+00 0. -1.
     999902    2    1    2    0    0 -0.17688079253E-01  0.82243714293E-02  0.43874020943E-03  0.10244184412E+01  0.10242326112E+01 0.  0.
     999903    2    3    3    0    0 -0.17217042284E-01 -0.12715159526E+00 -0.31392127310E-01  0.13349752534E+00  0.19291679317E-01 0.  0.
         14    1    1    2    0    0  0.17688079253E-01 -0.82243714293E-02 -0.43874020943E-03  0.19511558780E-01  0.00000000000E+00 0.  1.
     999901    1    3    3    0    0 -0.47103696864E-03  0.13537596669E+00  0.31830867519E-01  0.89092091588E+00  0.88000000000E+00 0.  1.
        -11    1    4    4    0    0 -0.87894612147E-02 -0.72823888172E-01 -0.27643446544E-01  0.78390015785E-01  0.51100000000E-03 0.  1.
         11    1    4    4    0    0 -0.84275810692E-02 -0.54327707091E-01 -0.37486807661E-02  0.55107509551E-01  0.51100000000E-03 0. -1.
</event>
<event>
 8    1  0.1170483E+005  0.1043930E+01  0.7957747E-01            NaN
         13   -1    0    0    0    0  0.00000000000E+00  0.00000000000E+00  0.74505805969E-08  0.10566000000E+00  0.10566000000E+00 0. -1.
     999900   -1    0    0    0    0 -0.00000000000E+00 -0.00000000000E+00 -0.74505805969E-08  0.93827000000E+00  0.93827000000E+00 0. -1.
     999902    2    1    2    0    0 -0.18434428999E-01 -0.10591314334E-03 -0.40477919578E-02  0.10250561024E+01  0.10248823294E+01 0.  0.
     999903    2    3    3    0    0 -0.68442634115E-01  0.98468398243E-01 -0.61279153074E-01  0.13629677384E+00  0.21006102456E-01 0.  0.
         14    1    1    2    0    0  0.18434428999E-01  0.10591314334E-03  0.40477919578E-02  0.18873897580E-01  0.00000000000E+00 0. -1.
     999901    1    3    3    0    0  0.50008205115E-01 -0.98574311387E-01  0.57231361116E-01  0.88875932858E+00  0.88000000000E+00 0. -1.
        -11    1    4    4    0    0 -0.32368332306E-01  0.64483750969E-01 -0.34913100838E-01  0.80156402155E-01  0.51100000000E-03 0.  1.
         11    1    4    4    0    0 -0.36074301809E-01  0.33984647274E-01 -0.26366052236E-01  0.56140371684E-01  0.51100000000E-03 0. -1.
</event>
<event>
 7    1  0.1170483E+005  0.1043930E+01  0.7957747E-01            NaN
         13   -1    0    0    0    0  0.00000000000E+00  0.00000000000E+00  0.74505805969E-08  0.10566000000E+00  0.10566000000E+00 0.  1.
     999900   -1    0    0    0    0 -0.00000000000E+00 -0.00000000000E+00 -0.74505805969E-08  0.93827000000E+00  0.93827000000E+00 0.  1.
     999902    2    1    2    0    0  0.22398790730E-01 -0.69735436003E-02 -0.51724905253E-02  0.10199072859E+01  0.10196243332E+01 0.  0.
         14    1    1    2    0    0 -0.22398790730E-01  0.69735436003E-02  0.51724905253E-02  0.24022714142E-01  0.00000000000E+00 0. -1.
     999901    1    3    3    0    0 -0.66100757182E-01  0.19341889997E-01 -0.91874070965E-01  0.88745944343E+00  0.88000000000E+00 0.  1.
        -11    1    3    3    0    0  0.71298270346E-01 -0.20812734651E-01  0.86980220839E-01  0.11437846483E+00  0.51100000000E-03 0.  1.
         11    1    3    3    0    0  0.17201277566E-01 -0.55026989464E-02 -0.27864039942E-03  0.18069377606E-01  0.51100000000E-03 0. -1.
</event>
<event>
 8    1  0.1170483E+005  0.1043930E+01  0.7957747E-01            NaN
         13   -1    0    0    0    0  0.00000000000E+00  0.00000000000E+00  0.74505805969E-08  0.10566000000E+00  0.10566000000E+00 0.  1.
     999900   -1    0    0    0    0 -0.00000000000E+00 -0.00000000000E+00 -0.74505805969E-08  0.93827000000E+00  0.93827000000E+00 0. -1.
     999902    2    1    2    0    0 -0.95709609873E-02 -0.12894332407E-01  0.17920962655E-01  0.10198669993E+01  0.10195830855E+01 0.  0.
     999903    2    3    3    0    0 -0.43130706962E-01 -0.60542534204E-01 -0.10416612529E+00  0.12952893721E+00  0.20037654163E-01 0.  0.
         14    1    1    2    0    0  0.95709609873E-02  0.12894332407E-01 -0.17920962655E-01  0.24063000747E-01  0.00000000000E+00 0.  1.
     999901    1    3    3    0    0  0.33559745975E-01  0.47648201797E-01  0.12208708795E+00  0.89033806205E+00  0.88000000000E+00 0.  1.
        -11    1    4    4    0    0 -0.25332029812E-01 -0.50605513389E-01 -0.76081734595E-01  0.94822577373E-01  0.51100000000E-03 0. -1.
         11    1    4    4    0    0 -0.17798677150E-01 -0.99370208152E-02 -0.28084390699E-01  0.34706359834E-01  0.51100000000E-03 0.  1.
</event>
<event>
 8    1  0.1170483E+005  0.1043930E+01  0.7957747E-01            NaN
         13   -1    0    0    0    0  0.00000000000E+00  0.00000000000E+00  0.74505805969E-08  0.10566000000E+00  0.10566000000E+00 0. -1.
     999900   -1    0    0    0    0 -0.00000000000E+00 -0.00000000000E+00 -0.74505805969E-08  0.93827000000E+00  0.93827000000E+00 0. -1.
     999902    2    1    2    0    0  0.15110166974E-02  0.26124053393E-01 -0.75627036856E-02  0.10166913542E+01  0.10163264072E+01 0.  0.
     999903    2    3    3    0    0 -0.10364432637E+00 -0.65872122402E-01  0.16033418937E-01  0.12535655767E+00  0.19388479270E-01 0.  0.
         14    1    1    2    0    0 -0.15110166974E-02 -0.26124053393E-01  0.75627036856E-02  0.27238645784E-01  0.00000000000E+00 0. -1.
     999901    1    3    3    0    0  0.10515534307E+00  0.91996175795E-01 -0.23596122623E-01  0.89133479655E+00  0.88000000000E+00 0. -1.
        -11    1    4    4    0    0 -0.49824795699E-01 -0.34581065342E-01  0.17354135289E-01  0.63085556819E-01  0.51100000000E-03 0. -1.
         11    1    4    4    0    0 -0.53819530673E-01 -0.31291057060E-01 -0.13207163520E-02  0.62271000847E-01  0.51100000000E-03 0.  1.
</event>
<event>
 8    1  0.1170483E+005  0.1043930E+01  0.7957747E-01            NaN
         13   -1    0    0    0    0  0.00000000000E+00  0.00000000000E+00  0.74505805969E-08  0.10566000000E+00  0.10566000000E+00 0. -1.
     999900   -1    0    0    0    0 -0.00000000000E+00 -0.00000000000E+00 -0.74505805969E-08  0.93827000000E+00  0.93827000000E+00 0. -1.
     999902    2    1    2    0    0 -0.83955856663E-02  0.20525252455E-01  0.88745446619E-02  0.10200442429E+01  0.10197645455E+01 0.  0.
     999903    2    3    3    0    0 -0.64638917618E-01  0.96772612565E-01  0.62054012971E-01  0.13336220966E+00  0.19790154748E-01 0.  0.
         14    1    1    2    0    0  0.83955856663E-02 -0.20525252455E-01 -0.88745446619E-02  0.23885757053E-01  0.00000000000E+00 0. -1.
     999901    1    3    3    0    0  0.56243331952E-01 -0.76247360110E-01 -0.53179468309E-01  0.88668203329E+00  0.88000000000E+00 0. -1.
        -11    1    4    4    0    0 -0.57589471765E-01  0.77666142827E-01  0.57475025474E-01  0.11248207268E+00  0.51100000000E-03 0. -1.
         11    1    4    4    0    0 -0.70494458529E-02  0.19106469739E-01  0.45789874971E-02  0.20880136978E-01  0.51100000000E-03 0.  1.
</event>
<event>
 8    1  0.1170483E+005  0.1043930E+01  0.7957747E-01            NaN
         13   -1    0    0    0    0  0.00000000000E+00  0.00000000000E+00  0.74505805969E-08  0.10566000000E+00  0.10566000000E+00 0. -1.
     999900   -1    0    0    0    0 -0.00000000000E+00 -0.00000000000E+00 -0.74505805969E-08  0.93827000000E+00  0.93827000000E+00 0. -1.
     999902    2    1    2    0    0  0.35356918958E-03  0.22868778767E-01 -0.15108522805E-02  0.10210086404E+01  0.10207513189E+01 0.  0.
     999903    2    3    3    0    0  0.65488416558E-01  0.11227256367E+00  0.24225556828E-01  0.13371052368E+00  0.19944053817E-01 0.  0.
         14    1    1    2    0    0 -0.35356918958E-03 -0.22868778767E-01  0.15108522805E-02  0.22921359647E-01  0.00000000000E+00 0. -1.
     999901    1    3    3    0    0 -0.65134847369E-01 -0.89403784904E-01 -0.25736409109E-01  0.88729811667E+00  0.88000000000E+00 0. -1.
        -11    1    4    4    0    0  0.24210546586E-01  0.37643146332E-01 -0.10052315025E-02  0.44770845906E-01  0.51100000000E-03 0.  1.
         11    1    4    4    0    0  0.41277869973E-01  0.74629417338E-01  0.25230788331E-01  0.88939677774E-01  0.51100000000E-03 0. -1.
</event>
<event>
 8    1  0.1170483E+005  0.1043930E+01  0.7957747E-01            NaN
         13   -1    0    0    0    0  0.00000000000E+00  0.00000000000E+00  0.74505805969E-08  0.10566000000E+00  0.10566000000E+00 0. -1.
     999900   -1    0    0    0    0 -0.00000000000E+00 -0.00000000000E+00 -0.74505805969E-08  0.93827000000E+00  0.93827000000E+00 0.  1.
     999902    2    1    2    0    0 -0.18403877324E-01 -0.10579292790E-01 -0.10383194995E-01  0.10202987733E+01  0.10200250742E+01 0.  0.
     999903    2    3    3    0    0  0.40538912749E-01  0.79155188284E-02  0.12006012870E+00  0.12854108691E+00  0.20057857201E-01 0.  0.
         14    1    1    2    0    0  0.18403877324E-01  0.10579292790E-01  0.10383194995E-01  0.23631226689E-01  0.00000000000E+00 0.  1.
     999901    1    3    3    0    0 -0.58942790073E-01 -0.18494811619E-01 -0.13044332369E+00  0.89175768640E+00  0.88000000000E+00 0.  1.
        -11    1    4    4    0    0  0.39572537276E-01  0.79621483117E-02  0.92089739385E-01  0.10054930499E+00  0.51100000000E-03 0. -1.
         11    1    4    4    0    0  0.96637547239E-03 -0.46629483335E-04  0.27970389315E-01  0.27991781924E-01  0.51100000000E-03 0.  1.
</event>
<event>
 8    1  0.1170483E+005  0.1043930E+01  0.7957747E-01            NaN
         13   -1    0    0    0    0  0.00000000000E+00  0.00000000000E+00  0.74505805969E-08  0.10566000000E+00  0.10566000000E+00 0. -1.
     999900   -1    0    0    0    0 -0.00000000000E+00 -0.00000000000E+00 -0.74505805969E-08  0.93827000000E+00  0.93827000000E+00 0.  1.
     999902    2    1    2    0    0  0.11690082122E-01 -0.18413089843E-01  0.68640732379E-02  0.10210648431E+01  0.10208087962E+01 0.  0.
     999903    2    3    3    0    0 -0.34682495551E-01  0.12208532145E+00  0.86993091264E-02  0.12871200504E+00  0.19580629539E-01 0.  0.
         14    1    1    2    0    0 -0.11690082122E-01  0.18413089843E-01 -0.68640732379E-02  0.22865156877E-01  0.00000000000E+00 0.  1.
     999901    1    3    3    0    0  0.46372577674E-01 -0.14049841129E+00 -0.18352358885E-02  0.89235283808E+00  0.88000000000E+00 0. -1.
        -11    1    4    4    0    0 -0.19338591085E-01  0.80770140097E-01 -0.30054647733E-02  0.83108907922E-01  0.51100000000E-03 0. -1.
         11    1    4    4    0    0 -0.15343904466E-01  0.41315181349E-01  0.11704773900E-01  0.45603097123E-01  0.51100000000E-03 0.  1.
</event>
<event>
 8    1  0.1170483E+005  0.1043930E+01  0.7957747E-01            NaN
         13   -1    0    0    0    0  0.00000000000E+00  0.00000000000E+00  0.74505805969E-08  0.10566000000E+00  0.10566000000E+00 0. -1.
     999900   -1    0    0    0    0 -0.00000000000E+00 -0.00000000000E+00 -0.74505805969E-08  0.93827000000E+00  0.93827000000E+00 0. -1.
     999902    2    1    2    0    0 -0.13692137722E-01  0.12055237263E-01  0.15302952981E-01  0.10201185794E+01  0.10198406406E+01 0.  0.
     999903    2    3    3    0    0 -0.72810834710E-01  0.10843183287E+00  0.14484550502E-01  0.13288459770E+00  0.19739150711E-01 0.  0.
         14    1    1    2    0    0  0.13692137722E-01 -0.12055237263E-01 -0.15302952981E-01  0.23811420596E-01  0.00000000000E+00 0.  1.
     999901    1    3    3    0    0  0.59118696988E-01 -0.96376595608E-01  0.81840247860E-03  0.88723398171E+00  0.88000000000E+00 0.  1.
        -11    1    4    4    0    0 -0.36880778958E-01  0.53761738446E-01  0.17124087588E-01  0.67409286260E-01  0.51100000000E-03 0.  1.
         11    1    4    4    0    0 -0.35930055752E-01  0.54670094424E-01 -0.26395370855E-02  0.65475311436E-01  0.51100000000E-03 0. -1.
</event>
<event>
 8    1  0.1170483E+005  0.1043930E+01  0.7957747E-01            NaN
         13   -1    0    0    0    0  0.00000000000E+00  0.00000000000E+00  0.74505805969E-08  0.10566000000E+00  0.10566000000E+00 0. -1.
     999900   -1    0    0    0    0 -0.00000000000E+00 -0.00000000000E+00 -0.74505805969E-08  0.93827000000E+00  0.93827000000E+00 0. -1.
     999902    2    1    2    0    0  0.21348776633E-01 -0.82270906496E-02  0.51021527255E-02  0.10204888557E+01  0.10202195927E+01 0.  0.
     999903    2    3    3    0    0  0.97614446817E-01 -0.88241904023E-01 -0.10137751774E-01  0.13344258998E+00  0.19721484674E-01 0.  0.
         14    1    1    2    0    0 -0.21348776633E-01  0.82270906496E-02 -0.51021527255E-02  0.23441144313E-01  0.00000000000E+00 0. -1.
     999901    1    3    3    0    0 -0.76265670184E-01  0.80014813373E-01  0.15239904500E-01  0.88704626570E+00  0.88000000000E+00 0. -1.
        -11    1    4    4    0    0  0.41842856185E-02 -0.23850678475E-02 -0.42063049102E-02  0.64148980329E-02  0.51100000000E-03 0. -1.
         11    1    4    4    0    0  0.93430161198E-01 -0.85856836175E-01 -0.59314468641E-02  0.12702769195E+00  0.51100000000E-03 0.  1.
</event>
<event>
 7    1  0.1170483E+005  0.1043930E+01  0.7957747E-01            NaN
         13   -1    0    0    0    0  0.00000000000E+00  0.00000000000E+00  0.74505805969E-08  0.10566000000E+00  0.10566000000E+00 0.  1.
     999900   -1    0    0    0    0 -0.00000000000E+00 -0.00000000000E+00 -0.74505805969E-08  0.93827000000E+00  0.93827000000E+00 0.  1.
     999903    2    1    2    0    0  0.93765675747E-01 -0.17249272264E-01  0.19939738556E-02  0.97373974739E-01  0.19702174570E-01 0.  0.
         14    1    1    2    0    0 -0.60425209864E-02 -0.49216646261E-01 -0.32307349002E-01  0.59182388669E-01  0.00000000000E+00 0. -1.
     999901    1    1    2    0    0 -0.87723154760E-01  0.66465918525E-01  0.30313375146E-01  0.88737363659E+00  0.88000000000E+00 0. -1.
        -11    1    3    3    0    0  0.29850574327E-01  0.23573263588E-02 -0.41565682549E-02  0.30234945938E-01  0.51100000000E-03 0. -1.
         11    1    3    3    0    0  0.63915101419E-01 -0.19606598622E-01  0.61505421105E-02  0.67139028800E-01  0.51100000000E-03 0.  1.
</event>
<event>
 8    1  0.1170483E+005  0.1043930E+01  0.7957747E-01            NaN
         13   -1    0    0    0    0  0.00000000000E+00  0.00000000000E+00  0.74505805969E-08  0.10566000000E+00  0.10566000000E+00 0.  1.
     999900   -1    0    0    0    0 -0.00000000000E+00 -0.00000000000E+00 -0.74505805969E-08  0.93827000000E+00  0.93827000000E+00 0.  1.
     999902    2    1    2    0    0 -0.58814114361E-02  0.17976191885E-01  0.14227132710E-01  0.10202626009E+01  0.10199880534E+01 0.  0.
     999903    2    3    3    0    0 -0.48672990267E-01 -0.13070061166E-02 -0.11793349826E+00  0.12915688701E+00  0.20060488624E-01 0.  0.
         14    1    1    2    0    0  0.58814114361E-02 -0.17976191885E-01 -0.14227132710E-01  0.23667399103E-01  0.00000000000E+00 0. -1.
     999901    1    3    3    0    0  0.42791578831E-01  0.19283198001E-01  0.13216063097E+00  0.89110571389E+00  0.88000000000E+00 0. -1.
        -11    1    4    4    0    0 -0.18843363687E-01  0.92555070119E-02 -0.45665650324E-01  0.50262804395E-01  0.51100000000E-03 0.  1.
         11    1    4    4    0    0 -0.29829626580E-01 -0.10562513128E-01 -0.72267847935E-01  0.78894082615E-01  0.51100000000E-03 0. -1.
</event>
<event>
 8    1  0.1170483E+005  0.1043930E+01  0.7957747E-01            NaN
         13   -1    0    0    0    0  0.00000000000E+00  0.00000000000E+00  0.74505805969E-08  0.10566000000E+00  0.10566000000E+00 0.  1.
     999900   -1    0    0    0    0 -0.00000000000E+00 -0.00000000000E+00 -0.74505805969E-08  0.93827000000E+00  0.93827000000E+00 0. -1.
     999902    2    1    2    0    0 -0.17664576888E-01  0.10340345400E-02 -0.16584243031E-01  0.10196783275E+01  0.10193898900E+01 0.  0.
     999903    2    3    3    0    0  0.12330050637E-01  0.12677325167E+00 -0.18085096482E-01  0.13023339889E+00  0.20252900598E-01 0.  0.
         14    1    1    2    0    0  0.17664576888E-01 -0.10340345400E-02  0.16584243031E-01  0.24251672540E-01  0.00000000000E+00 0. -1.
     999901    1    3    3    0    0 -0.29994627525E-01 -0.12573921713E+00  0.15008534509E-02  0.88944492857E+00  0.88000000000E+00 0.  1.
        -11    1    4    4    0    0 -0.17164562179E-02  0.49091050476E-01  0.52247123403E-03  0.49126485280E-01  0.51100000000E-03 0.  1.
         11    1    4    4    0    0  0.14046506855E-01  0.77682201196E-01 -0.18607567716E-01  0.81106913606E-01  0.51100000000E-03 0. -1.
</event>
<event>
 8    1  0.1170483E+005  0.1043930E+01  0.7957747E-01            NaN
         13   -1    0    0    0    0  0.00000000000E+00  0.00000000000E+00  0.74505805969E-08  0.10566000000E+00  0.10566000000E+00 0. -1.
     999900   -1    0    0    0    0 -0.00000000000E+00 -0.00000000000E+00 -0.74505805969E-08  0.93827000000E+00  0.93827000000E+00 0. -1.
     999902    2    1    2    0    0  0.12372667065E-02 -0.71984964623E-02 -0.21910344734E-01  0.10208342777E+01  0.10205729813E+01 0.  0.
     999903    2    3    3    0    0  0.54053983473E-01  0.11182156940E+00  0.31396831124E-01  0.12965694598E+00  0.19981644702E-01 0.  0.
         14    1    1    2    0    0 -0.12372667065E-02  0.71984964623E-02  0.21910344734E-01  0.23095722257E-01  0.00000000000E+00 0. -1.
     999901    1    3    3    0    0 -0.52816716766E-01 -0.11902006586E+00 -0.53307175857E-01  0.89117733176E+00  0.88000000000E+00 0. -1.
        -11    1    4    4    0    0  0.43009359276E-01  0.88949883883E-01  0.16396247740E-01  0.10015480462E+00  0.51100000000E-03 0. -1.
         11    1    4    4    0    0  0.11044624197E-01  0.22871685514E-01  0.15000583384E-01  0.29502141359E-01  0.51100000000E-03 0.  1.
</event>
<event>
 8    1  0.1170483E+005  0.1043930E+01  0.7957747E-01            NaN
         13   -1    0    0    0    0  0.00000000000E+00  0.00000000000E+00  0.74505805969E-08  0.10566000000E+00  0.10566000000E+00 0. -1.
     999900   -1    0    0    0    0 -0.00000000000E+00 -0.00000000000E+00 -0.74505805969E-08  0.93827000000E+00  0.93827000000E+00 0. -1.
     999902    2    1    2    0    0 -0.70765502564E-04 -0.19998727710E-01  0.13851287689E-01  0.10196028076E+01  0.10193125492E+01 0.  0.
     999903    2    3    3    0    0  0.11755017201E-01  0.38070294281E-01 -0.11961223767E+00  0.12756896688E+00  0.19473730365E-01 0.  0.
         14    1    1    2    0    0  0.70765502564E-04  0.19998727710E-01 -0.13851287689E-01  0.24327192366E-01  0.00000000000E+00 0. -1.
     999901    1    3    3    0    0 -0.11825782704E-01 -0.58069021990E-01  0.13346352536E+00  0.89203384076E+00  0.88000000000E+00 0.  1.
        -11    1    4    4    0    0  0.57729516717E-02  0.34139583513E-01 -0.11142590492E+00  0.11668261028E+00  0.51100000000E-03 0.  1.
         11    1    4    4    0    0  0.59820655297E-02  0.39307107678E-02 -0.81863327526E-02  0.10886356603E-01  0.51100000000E-03 0. -1.
</event>
<event>
 8    1  0.1170483E+005  0.1043930E+01  0.7957747E-01            NaN
         13   -1    0    0    0    0  0.00000000000E+00  0.00000000000E+00  0.74505805969E-08  0.10566000000E+00  0.10566000000E+00 0.  1.
     999900   -1    0    0    0    0 -0.00000000000E+00 -0.00000000000E+00 -0.74505805969E-08  0.93827000000E+00  0.93827000000E+00 0.  1.
     999902    2    1    2    0    0  0.76135432817E-02  0.17543641033E-01 -0.13492248269E-01  0.10205251683E+01  0.10202567486E+01 0.  0.
     999903    2    3    3    0    0 -0.95808995072E-01  0.84376612172E-01  0.21456381878E-01  0.13126464733E+00  0.21708410726E-01 0.  0.
         14    1    1    2    0    0 -0.76135432817E-02 -0.17543641033E-01  0.13492248269E-01  0.23404831667E-01  0.00000000000E+00 0. -1.
     999901    1    3    3    0    0  0.10342253835E+00 -0.66832971139E-01 -0.34948630147E-01  0.88926052101E+00  0.88000000000E+00 0.  1.
        -11    1    4    4    0    0 -0.75722017316E-01  0.54954608933E-01  0.19556848193E-01  0.95585377447E-01  0.51100000000E-03 0. -1.
         11    1    4    4    0    0 -0.20086977756E-01  0.29422003239E-01  0.18995336850E-02  0.35679269880E-01  0.51100000000E-03 0.  1.
</event>
<event>
 8    1  0.1170483E+005  0.1043930E+01  0.7957747E-01            NaN
         13   -1    0    0    0    0  0.00000000000E+00  0.00000000000E+00  0.74505805969E-08  0.10566000000E+00  0.10566000000E+00 0.  1.
     999900   -1    0    0    0    0 -0.00000000000E+00 -0.00000000000E+00 -0.74505805969E-08  0.93827000000E+00  0.93827000000E+00 0. -1.
     999902    2    1    2    0    0 -0.12679647066E-01  0.35405571297E-02 -0.19642502583E-01  0.10202839242E+01  0.10200098769E+01 0.  0.
     999903    2    3    3    0    0 -0.10847835047E+00 -0.57861325960E-01 -0.42543425632E-01  0.13266236342E+00  0.25959083990E-01 0.  0.
         14    1    1    2    0    0  0.12679647066E-01 -0.35405571297E-02  0.19642502583E-01  0.23646075832E-01  0.00000000000E+00 0.  1.
     999901    1    3    3    0    0  0.95798703406E-01  0.61401883090E-01  0.22900923049E-01  0.88762156074E+00  0.88000000000E+00 0. -1.
        -11    1    4    4    0    0 -0.10380726959E-01  0.39961598160E-03  0.11978445254E-02  0.10469724812E-01  0.51100000000E-03 0.  1.
         11    1    4    4    0    0 -0.98097623513E-01 -0.58260941942E-01 -0.43741270157E-01  0.12219263861E+00  0.51100000000E-03 0. -1.
</event>
<event>
 8    1  0.1170483E+005  0.1043930E+01  0.7957747E-01            NaN
         13   -1    0    0    0    0  0.00000000000E+00  0.00000000000E+00  0.74505805969E-08  0.10566000000E+00  0.10566000000E+00 0.  1.
     999900   -1    0    0    0    0 -0.00000000000E+00 -0.00000000000E+00 -0.74505805969E-08  0.93827000000E+00  0.93827000000E+00 0.  1.
     999902    2    1    2    0    0 -0.18441386738E-01  0.61964273804E-02 -0.10931017727E-01  0.10216148122E+01  0.10213710672E+01 0.  0.
     999903    2    3    3    0    0 -0.11732303255E+00  0.48503854269E-01  0.36914954964E-01  0.13377657507E+00  0.20399516909E-01 0.  0.
         14    1    1    2    0    0  0.18441386738E-01 -0.61964273804E-02  0.10931017727E-01  0.22315187780E-01  0.00000000000E+00 0.  1.
     999901    1    3    3    0    0  0.98881645816E-01 -0.42307426888E-01 -0.47845972691E-01  0.88783823715E+00  0.88000000000E+00 0. -1.
        -11    1    4    4    0    0 -0.89066204406E-01  0.30833736099E-01  0.19810370115E-01  0.96313134796E-01  0.51100000000E-03 0. -1.
         11    1    4    4    0    0 -0.28256828148E-01  0.17670118170E-01  0.17104584848E-01  0.37463440271E-01  0.51100000000E-03 0.  1.
</event>
<event>
 8    1  0.1170483E+005  0.1043930E+01  0.7957747E-01            NaN
         13   -1    0    0    0    0  0.00000000000E+00  0.00000000000E+00  0.74505805969E-08  0.10566000000E+00  0.10566000000E+00 0. -1.
     999900   -1    0    0    0    0 -0.00000000000E+00 -0.00000000000E+00 -0.74505805969E-08  0.93827000000E+00  0.93827000000E+00 0.  1.
     999902    2    1    2    0    0 -0.23037792965E-01  0.27711021266E-02  0.25448390807E-02  0.10205870114E+01  0.10203200246E+01 0.  0.
     999903    2    3    3    0    0 -0.56527299724E-01 -0.11646624402E+00 -0.95415133198E-02  0.13183216797E+00  0.22999096143E-01 0.  0.
         14    1    1    2    0    0  0.23037792965E-01 -0.27711021266E-02 -0.25448390807E-02  0.23342988618E-01  0.00000000000E+00 0. -1.
     999901    1    3    3    0    0  0.33489506760E-01  0.11923734615E+00  0.12086352401E-01  0.88875484342E+00  0.88000000000E+00 0.  1.
        -11    1    4    4    0    0 -0.36978185693E-01 -0.57924750895E-01 -0.13290953635E-01  0.69996953883E-01  0.51100000000E-03 0.  1.
         11    1    4    4    0    0 -0.19549114031E-01 -0.58541493128E-01  0.37494403156E-02  0.61835214083E-01  0.51100000000E-03 0. -1.
</event>
<event>
 8    1  0.1170483E+005  0.1043930E+01  0.7957747E-01            NaN
         13   -1    0    0    0    0  0.00000000000E+00  0.00000000000E+00  0.74505805969E-08  0.10566000000E+00  0.10566000000E+00 0. -1.
     999900   -1    0    0    0    0 -0.00000000000E+00 -0.00000000000E+00 -0.74505805969E-08  0.93827000000E+00  0.93827000000E+00 0.  1.
     999902    2    1    2    0    0  0.17545652728E-01 -0.15062395421E-01 -0.53513271128E-02  0.10201947438E+01  0.10199186011E+01 0.  0.
     999903    2    3    3    0    0 -0.74993991446E-01  0.62999690951E-01  0.79625193950E-01  0.12785048051E+00  0.20310441719E-01 0.  0.
         14    1    1    2    0    0 -0.17545652728E-01  0.15062395421E-01  0.53513271128E-02  0.23735256209E-01  0.00000000000E+00 0. -1.
     999901    1    3    3    0    0  0.92539644173E-01 -0.78062086373E-01 -0.84976521063E-01  0.89234426328E+00  0.88000000000E+00 0.  1.
        -11    1    4    4    0    0 -0.23717350544E-01  0.24778480650E-01  0.16791846344E-01  0.38193102058E-01  0.51100000000E-03 0. -1.
         11    1    4    4    0    0 -0.51276640902E-01  0.38221210302E-01  0.62833347606E-01  0.89657378455E-01  0.51100000000E-03 0.  1.
</event>
<event>
 8    1  0.1170483E+005  0.1043930E+01  0.7957747E-01            NaN
         13   -1    0    0    0    0  0.00000000000E+00  0.00000000000E+00  0.74505805969E-08  0.10566000000E+00  0.10566000000E+00 0. -1.
     999900   -1    0    0    0    0 -0.00000000000E+00 -0.00000000000E+00 -0.74505805969E-08  0.93827000000E+00  0.93827000000E+00 0.  1.
     999902    2    1    2    0    0  0.12466682832E-01  0.11642859076E-01 -0.15957002588E-01  0.10205719119E+01  0.10203045756E+01 0.  0.
     999903    2    3    3    0    0  0.72859461429E-01 -0.94073353280E-01 -0.53663936101E-01  0.13138969317E+00  0.15004549861E-01 0.  0.
         14    1    1    2    0    0 -0.12466682832E-01 -0.11642859076E-01  0.15957002588E-01  0.23358088105E-01  0.00000000000E+00 0. -1.
     999901    1    3    3    0    0 -0.60392778596E-01  0.10571621236E+00  0.37706933512E-01  0.88918221872E+00  0.88000000000E+00 0. -1.
        -11    1    4    4    0    0  0.34677413657E-01 -0.32890290494E-01 -0.20460779242E-01  0.51992295919E-01  0.51100000000E-03 0. -1.
         11    1    4    4    0    0  0.38182047772E-01 -0.61183062786E-01 -0.33203156858E-01  0.79397397252E-01  0.51100000000E-03 0.  1.
</event>
<event>
 8    1  0.1170483E+005  0.1043930E+01  0.7957747E-01            NaN
         13   -1    0    0    0    0  0.00000000000E+00  0.00000000000E+00  0.74505805969E-08  0.10566000000E+00  0.10566000000E+00 0.  1.
     999900   -1    0    0    0    0 -0.00000000000E+00 -0.00000000000E+00 -0.74505805969E-08  0.93827000000E+00  0.93827000000E+00 0. -1.
     999902    2    1    2    0    0  0.14536175108E-01 -0.15882849525E-01  0.11797193977E-01  0.10193792550E+01  0.10190835718E+01 0.  0.
     999903    2    3    3    0    0  0.12699378730E+00  0.22088329519E-01 -0.13591478947E-01  0.13104761099E+00  0.19324381869E-01 0.  0.
         14    1    1    2    0    0 -0.14536175108E-01  0.15882849525E-01 -0.11797193977E-01  0.24550745030E-01  0.00000000000E+00 0. -1.
     999901    1    3    3    0    0 -0.11245761219E+00 -0.37971179043E-01  0.25388672925E-01  0.88833164398E+00  0.88000000000E+00 0. -1.
        -11    1    4    4    0    0  0.43851898035E-01  0.11199630075E-02  0.19108380982E-02  0.43910769769E-01  0.51100000000E-03 0. -1.
         11    1    4    4    0    0  0.83141889260E-01  0.20968366511E-01 -0.15502317045E-01  0.87136841225E-01  0.51100000000E-03 0.  1.
</event>
<event>
 8    1  0.1170483E+005  0.1043930E+01  0.7957747E-01            NaN
         13   -1    0    0    0    0  0.00000000000E+00  0.00000000000E+00  0.74505805969E-08  0.10566000000E+00  0.10566000000E+00 0. -1.
     999900   -1    0    0    0    0 -0.00000000000E+00 -0.00000000000E+00 -0.74505805969E-08  0.93827000000E+00  0.93827000000E+00 0. -1.
     999902    2    1    2    0    0 -0.22327818658E-01 -0.28510600825E-02  0.78331656530E-02  0.10200968610E+01  0.10198184090E+01 0.  0.
     999903    2    3    3    0    0  0.81520260107E-01  0.91936745995E-01 -0.30203561428E-01  0.12812379850E+00  0.20137888369E-01 0.  0.
         14    1    1    2    0    0  0.22327818658E-01  0.28510600825E-02 -0.78331656530E-02  0.23833138982E-01  0.00000000000E+00 0.  1.
     999901    1    3    3    0    0 -0.10384807876E+00 -0.94787806077E-01  0.38036727081E-01  0.89197306251E+00  0.88000000000E+00 0. -1.
        -11    1    4    4    0    0  0.23655722163E-01  0.31704412520E-01 -0.18878676974E-01  0.43834102359E-01  0.51100000000E-03 0.  1.
         11    1    4    4    0    0  0.57864537944E-01  0.60232333475E-01 -0.11324884454E-01  0.84289696145E-01  0.51100000000E-03 0. -1.
</event>
<event>
 8    1  0.1170483E+005  0.1043930E+01  0.7957747E-01            NaN
         13   -1    0    0    0    0  0.00000000000E+00  0.00000000000E+00  0.74505805969E-08  0.10566000000E+00  0.10566000000E+00 0. -1.
     999900   -1    0    0    0    0 -0.00000000000E+00 -0.00000000000E+00 -0.74505805969E-08  0.93827000000E+00  0.93827000000E+00 0.  1.
     999902    2    1    2    0    0 -0.74765337159E-02 -0.54829388748E-02  0.17838399201E-01  0.10238260287E+01  0.10236286277E+01 0.  0.
     999903    2    3    3    0    0 -0.53860108987E-01  0.10648987728E+00  0.58761978053E-01  0.13457685840E+00  0.20419487012E-01 0.  0.
         14    1    1    2    0    0  0.74765337159E-02  0.54829388748E-02 -0.17838399201E-01  0.20103971279E-01  0.00000000000E+00 0.  1.
     999901    1    3    3    0    0  0.46383575271E-01 -0.11197281615E+00 -0.40923578852E-01  0.88924917032E+00  0.88000000000E+00 0.  1.
        -11    1    4    4    0    0 -0.49434863096E-02  0.28110678950E-01  0.11246619932E-01  0.30682175751E-01  0.51100000000E-03 0. -1.
         11    1    4    4    0    0 -0.48916622678E-01  0.78379198325E-01  0.47515358121E-01  0.10389468265E+00  0.51100000000E-03 0.  1.
</event>
<event>
 8    1  0.1170483E+005  0.1043930E+01  0.7957747E-01            NaN
         13   -1    0    0    0    0  0.00000000000E+00  0.00000000000E+00  0.74505805969E-08  0.10566000000E+00  0.10566000000E+00 0. -1.
     999900   -1    0    0    0    0 -0.00000000000E+00 -0.00000000000E+00 -0.74505805969E-08  0.93827000000E+00  0.93827000000E+00 0.  1.
     999902    2    1    2    0    0 -0.14148266351E-01 -0.10215079597E-01  0.16733361729E-01  0.10197530133E+01  0.10194663709E+01 0.  0.
     999903    2    3    3    0    0  0.11422579569E+00  0.41260732313E-01 -0.33200829576E-01  0.12755175657E+00  0.20424864460E-01 0.  0.
         14    1    1    2    0    0  0.14148266351E-01  0.10215079597E-01 -0.16733361729E-01  0.24176986716E-01  0.00000000000E+00 0.  1.
     999901    1    3    3    0    0 -0.12837406204E+00 -0.51475811910E-01  0.49934191306E-01  0.89220125671E+00  0.88000000000E+00 0. -1.
        -11    1    4    4    0    0  0.31058763270E-01  0.20549298283E-01 -0.13430434874E-01  0.39592400000E-01  0.51100000000E-03 0. -1.
         11    1    4    4    0    0  0.83167032419E-01  0.20711434029E-01 -0.19770394702E-01  0.87959356573E-01  0.51100000000E-03 0.  1.
</event>
<event>
 8    1  0.1170483E+005  0.1043930E+01  0.7957747E-01            NaN
         13   -1    0    0    0    0  0.00000000000E+00  0.00000000000E+00  0.74505805969E-08  0.10566000000E+00  0.10566000000E+00 0.  1.
     999900   -1    0    0    0    0 -0.00000000000E+00 -0.00000000000E+00 -0.74505805969E-08  0.93827000000E+00  0.93827000000E+00 0.  1.
     999902    2    1    2    0    0 -0.28129584468E-01  0.12492104544E-02 -0.10046873171E-01  0.10140339516E+01  0.10135931537E+01 0.  0.
     999903    2    3    3    0    0 -0.57838697778E-01  0.10991227586E+00 -0.16124280420E-01  0.12683204219E+00  0.20008777080E-01 0.  0.
         14    1    1    2    0    0  0.28129584468E-01 -0.12492104544E-02  0.10046873171E-01  0.29896048395E-01  0.00000000000E+00 0. -1.
     999901    1    3    3    0    0  0.29709113310E-01 -0.10866306541E+00  0.60774072489E-02  0.88720190942E+00  0.88000000000E+00 0.  1.
        -11    1    4    4    0    0 -0.57358639465E-02  0.94010422619E-02  0.42195255743E-02  0.11804458814E-01  0.51100000000E-03 0. -1.
         11    1    4    4    0    0 -0.52102833832E-01  0.10051123360E+00 -0.20343805994E-01  0.11502758337E+00  0.51100000000E-03 0.  1.
</event>
<event>
 8    1  0.1170483E+005  0.1043930E+01  0.7957747E-01            NaN
         13   -1    0    0    0    0  0.00000000000E+00  0.00000000000E+00  0.74505805969E-08  0.10566000000E+00  0.10566000000E+00 0.  1.
     999900   -1    0    0    0    0 -0.00000000000E+00 -0.00000000000E+00 -0.74505805969E-08  0.93827000000E+00  0.93827000000E+00 0. -1.
     999902    2    1    2    0    0 -0.10062533827E-01  0.53491361532E-02  0.20360894963E-01  0.10205968929E+01  0.10203301347E+01 0.  0.
     999903    2    3    3    0    0  0.91803689806E-01  0.77270699214E-01 -0.44670888668E-01  0.12942992107E+00  0.18919242961E-01 0.  0.
         14    1    1    2    0    0  0.10062533827E-01 -0.53491361532E-02 -0.20360894963E-01  0.23333107129E-01  0.00000000000E+00 0. -1.
     999901    1    3    3    0    0 -0.10186622363E+00 -0.71921563060E-01  0.65031783631E-01  0.89116697180E+00  0.88000000000E+00 0.  1.
        -11    1    4    4    0    0  0.36219339049E-01  0.24296732731E-01 -0.24549699535E-01  0.50051179914E-01  0.51100000000E-03 0. -1.
         11    1    4    4    0    0  0.55584350757E-01  0.52973966483E-01 -0.20121189134E-01  0.79378741154E-01  0.51100000000E-03 0.  1.
</event>
<event>
 8    1  0.1170483E+005  0.1043930E+01  0.7957747E-01            NaN
         13   -1    0    0    0    0  0.00000000000E+00  0.00000000000E+00  0.74505805969E-08  0.10566000000E+00  0.10566000000E+00 0.  1.
     999900   -1    0    0    0    0 -0.00000000000E+00 -0.00000000000E+00 -0.74505805969E-08  0.93827000000E+00  0.93827000000E+00 0. -1.
     999902    2    1    2    0    0  0.44414163071E-02  0.22115423144E-01  0.25794779230E-02  0.10212259954E+01  0.10209735853E+01 0.  0.
     999903    2    3    3    0    0  0.56961971523E-02 -0.76742095519E-01  0.10366443401E+00  0.12993897549E+00  0.14697842857E-01 0.  0.
         14    1    1    2    0    0 -0.44414163071E-02 -0.22115423144E-01 -0.25794779230E-02  0.22704004625E-01  0.00000000000E+00 0. -1.
     999901    1    3    3    0    0 -0.12547808451E-02  0.98857518663E-01 -0.10108495609E+00  0.89128701989E+00  0.88000000000E+00 0. -1.
        -11    1    4    4    0    0  0.44680651389E-02 -0.22390648744E-01  0.21171790660E-01  0.31141782190E-01  0.51100000000E-03 0. -1.
         11    1    4    4    0    0  0.12281320134E-02 -0.54351446775E-01  0.82492643355E-01  0.98797193297E-01  0.51100000000E-03 0.  1.
</event>
<event>
 8    1  0.1170483E+005  0.1043930E+01  0.7957747E-01            NaN
         13   -1    0    0    0    0  0.00000000000E+00  0.00000000000E+00  0.74505805969E-08  0.10566000000E+00  0.10566000000E+00 0.  1.
     999900   -1    0    0    0    0 -0.00000000000E+00 -0.00000000000E+00 -0.74505805969E-08  0.93827000000E+00  0.93827000000E+00 0.  1.
     999902    2    1    2    0    0 -0.10291005659E-01  0.15520076665E-01 -0.14932799938E-01  0.10200602264E+01  0.10197809076E+01 0.  0.
     999903    2    3    3    0    0 -0.56991560448E-01 -0.10574950365E+00  0.40942600782E-01  0.12876380359E+00  0.21744541229E-01 0.  0.
         14    1    1    2    0    0  0.10291005659E-01 -0.15520076665E-01  0.14932799938E-01  0.23869773588E-01  0.00000000000E+00 0. -1.
     999901    1    3    3    0    0  0.46700554789E-01  0.12126958031E+00 -0.55875400719E-01  0.89129642282E+00  0.88000000000E+00 0.  1.
        -11    1    4    4    0    0 -0.16738888232E-01 -0.25794915781E-01  0.10822199350E-02  0.30773371287E-01  0.51100000000E-03 0.  1.
         11    1    4    4    0    0 -0.40252672216E-01 -0.79954587865E-01  0.39860380847E-01  0.97990432305E-01  0.51100000000E-03 0. -1.
</event>
<event>
 8    1  0.1170483E+005  0.1043930E+01  0.7957747E-01            NaN
         13   -1    0    0    0    0  0.00000000000E+00  0.00000000000E+00  0.74505805969E-08  0.10566000000E+00  0.10566000000E+00 0. -1.
     999900   -1    0    0    0    0 -0.00000000000E+00 -0.00000000000E+00 -0.74505805969E-08  0.93827000000E+00  0.93827000000E+00 0. -1.
     999902    2    1    2    0    0 -0.61957979336E-02 -0.94144026378E-02  0.25069209747E-01  0.10164439278E+01  0.10160722288E+01 0.  0.
     999903    2    3    3    0    0  0.92156816934E-02  0.23256207249E-01  0.12589775448E+00  0.12995011624E+00  0.20273336284E-01 0.  0.
         14    1    1    2    0    0  0.61957979336E-02  0.94144026378E-02 -0.25069209747E-01  0.27486072226E-01  0.00000000000E+00 0.  1.
     999901    1    3    3    0    0 -0.15411479627E-01 -0.32670609887E-01 -0.10082854473E+00  0.88649381153E+00  0.88000000000E+00 0. -1.
        -11    1    4    4    0    0  0.84796518649E-02  0.21898927848E-01  0.66435512877E-01  0.70465637221E-01  0.51100000000E-03 0. -1.
         11    1    4    4    0    0  0.73602982848E-03  0.13572794007E-02  0.59462241599E-01  0.59484479020E-01  0.51100000000E-03 0.  1.
</event>
<event>
 8    1  0.1170483E+005  0.1043930E+01  0.7957747E-01            NaN
         13   -1    0    0    0    0  0.00000000000E+00  0.00000000000E+00  0.74505805969E-08  0.10566000000E+00  0.10566000000E+00 0. -1.
     999900   -1    0    0    0    0 -0.00000000000E+00 -0.00000000000E+00 -0.74505805969E-08  0.93827000000E+00  0.93827000000E+00 0. -1.
     999902    2    1    2    0    0  0.14899667533E-02 -0.11611145369E-01 -0.21019938571E-01  0.10198701472E+01  0.10195863086E+01 0.  0.
     999903    2    3    3    0    0  0.23875026779E-01 -0.10023866631E+00  0.76169177306E-01  0.12981304085E+00  0.20781599425E-01 0.  0.
         14    1    1    2    0    0 -0.14899667533E-02  0.11611145369E-01  0.21019938571E-01  0.24059852768E-01  0.00000000000E+00 0. -1.
     999901    1    3    3    0    0 -0.22385060026E-01  0.88627520944E-01 -0.97189115877E-01  0.89005710638E+00  0.88000000000E+00 0. -1.
        -11    1    4    4    0    0  0.27721561169E-01 -0.89432007604E-01  0.67496811470E-01  0.11542378272E+00  0.51100000000E-03 0.  1.
         11    1    4    4    0    0 -0.38465343900E-02 -0.10806658709E-01  0.86723658360E-02  0.14389258127E-01  0.51100000000E-03 0. -1.
</event>
<event>
 8    1  0.1170483E+005  0.1043930E+01  0.7957747E-01            NaN
         13   -1    0    0    0    0  0.00000000000E+00  0.00000000000E+00  0.74505805969E-08  0.10566000000E+00  0.10566000000E+00 0. -1.
     999900   -1    0    0    0    0 -0.00000000000E+00 -0.00000000000E+00 -0.74505805969E-08  0.93827000000E+00  0.93827000000E+00 0.  1.
     999902    2    1    2    0    0 -0.22391118334E-01 -0.70938505770E-02  0.49474934488E-02  0.10199266130E+01  0.10196441209E+01 0.  0.
     999903    2    3    3    0    0  0.56783647800E-01  0.87476987537E-03 -0.11339056003E+00  0.12844692315E+00  0.20397183208E-01 0.  0.
         14    1    1    2    0    0  0.22391118334E-01  0.70938505770E-02 -0.49474934488E-02  0.24003387004E-01  0.00000000000E+00 0.  1.
     999901    1    3    3    0    0 -0.79174766134E-01 -0.79686204524E-02  0.11833805348E+00  0.89147968984E+00  0.88000000000E+00 0.  1.
        -11    1    4    4    0    0  0.17584627274E-01 -0.79264243326E-02 -0.47545208085E-01  0.51311355974E-01  0.51100000000E-03 0.  1.
         11    1    4    4    0    0  0.39199020526E-01  0.88011942080E-02 -0.65845351947E-01  0.77135567177E-01  0.51100000000E-03 0. -1.
</event>
<event>
 8    1  0.1170483E+005  0.1043930E+01  0.7957747E-01            NaN
         13   -1    0    0    0    0  0.00000000000E+00  0.00000000000E+00  0.74505805969E-08  0.10566000000E+00  0.10566000000E+00 0. -1.
     999900   -1    0    0    0    0 -0.00000000000E+00 -0.00000000000E+00 -0.74505805969E-08  0.93827000000E+00  0.93827000000E+00 0.  1.
     999902    2    1    2    0    0  0.84654152858E-02 -0.17970709912E-01  0.69480027287E-02  0.10228851809E+01  0.10226686701E+01 0.  0.
     999903    2    3    3    0    0  0.23732717565E-01  0.82827219358E-01 -0.96523919620E-01  0.13097725300E+00  0.20361325969E-01 0.  0.
         14    1    1    2    0    0 -0.84654152858E-02  0.17970709912E-01 -0.69480027287E-02  0.21044819140E-01  0.00000000000E+00 0.  1.
     999901    1    3    3    0    0 -0.15267302279E-01 -0.10079792927E+00  0.10347192235E+00  0.89190792786E+00  0.88000000000E+00 0. -1.
        -11    1    4    4    0    0  0.22208422636E-01  0.42725750359E-01 -0.57463081129E-01  0.74973132478E-01  0.51100000000E-03 0.  1.
         11    1    4    4    0    0  0.15242949292E-02  0.40101468999E-01 -0.39060838491E-01  0.56004120523E-01  0.51100000000E-03 0. -1.
</event>
<event>
 8    1  0.1170483E+005  0.1043930E+01  0.7957747E-01            NaN
         13   -1    0    0    0    0  0.00000000000E+00  0.00000000000E+00  0.74505805969E-08  0.10566000000E+00  0.10566000000E+00 0.  1.
     999900   -1    0    0    0    0 -0.00000000000E+00 -0.00000000000E+00 -0.74505805969E-08  0.93827000000E+00  0.93827000000E+00 0.  1.
     999902    2    1    2    0    0 -0.92540466787E-02  0.19699810073E-01 -0.82445408991E-02  0.10206557148E+01  0.10203903154E+01 0.  0.
     999903    2    3    3    0    0  0.12249003750E+00  0.28347317044E-01  0.25978024447E-01  0.13014885516E+00  0.21365558109E-01 0.  0.
         14    1    1    2    0    0  0.92540466787E-02 -0.19699810073E-01  0.82445408991E-02  0.23274285198E-01  0.00000000000E+00 0.  1.
     999901    1    3    3    0    0 -0.13174408418E+00 -0.86475069708E-02 -0.34222565346E-01  0.89050685964E+00  0.88000000000E+00 0.  1.
        -11    1    4    4    0    0  0.54734922669E-01  0.11686021415E-01  0.22384163911E-01  0.60280898891E-01  0.51100000000E-03 0.  1.
         11    1    4    4    0    0  0.67755114835E-01  0.16661295629E-01  0.35938605362E-02  0.69867956267E-01  0.51100000000E-03 0. -1.
</event>
<event>
 8    1  0.1170483E+005  0.1043930E+01  0.7957747E-01            NaN
         13   -1    0    0    0    0  0.00000000000E+00  0.00000000000E+00  0.74505805969E-08  0.10566000000E+00  0.10566000000E+00 0. -1.
     999900   -1    0    0    0    0 -0.00000000000E+00 -0.00000000000E+00 -0.74505805969E-08  0.93827000000E+00  0.93827000000E+00 0.  1.
     999902    2    1    2    0    0  0.16625204312E-01  0.89506387904E-02 -0.13789121981E-01  0.10205494261E+01  0.10202815689E+01 0.  0.
     999903    2    3    3    0    0 -0.48912341391E-01  0.11825931888E+00  0.18064467625E-01  0.13079765808E+00  0.20100217049E-01 0.  0.
         14    1    1    2    0    0 -0.16625204312E-01 -0.89506387904E-02  0.13789121981E-01  0.23380573949E-01  0.00000000000E+00 0. -1.
     999901    1    3    3    0    0  0.65537545703E-01 -0.10930868009E+00 -0.31853589606E-01  0.88975176797E+00  0.88000000000E+00 0. -1.
        -11    1    4    4    0    0 -0.27138133328E-01  0.43048448191E-01  0.11835292171E-01  0.52249233812E-01  0.51100000000E-03 0.  1.
         11    1    4    4    0    0 -0.21774208063E-01  0.75210870691E-01  0.62291754539E-02  0.78548424266E-01  0.51100000000E-03 0. -1.
</event>
<event>
 8    1  0.1170483E+005  0.1043930E+01  0.7957747E-01            NaN
         13   -1    0    0    0    0  0.00000000000E+00  0.00000000000E+00  0.74505805969E-08  0.10566000000E+00  0.10566000000E+00 0.  1.
     999900   -1    0    0    0    0 -0.00000000000E+00 -0.00000000000E+00 -0.74505805969E-08  0.93827000000E+00  0.93827000000E+00 0. -1.
     999902    2    1    2    0    0  0.14386209862E-01  0.13743312105E-01 -0.13220867732E-01  0.10200420741E+01  0.10197623252E+01 0.  0.
     999903    2    3    3    0    0  0.99839748949E-01  0.68791956969E-01  0.45993628024E-01  0.13221381525E+00  0.25783140046E-01 0.  0.
         14    1    1    2    0    0 -0.14386209862E-01 -0.13743312105E-01  0.13220867732E-01  0.23887925933E-01  0.00000000000E+00 0. -1.
     999901    1    3    3    0    0 -0.85453539087E-01 -0.55048644863E-01 -0.59214495756E-01  0.88782825882E+00  0.88000000000E+00 0. -1.
        -11    1    4    4    0    0  0.46141703777E-01  0.40660382001E-01  0.34475979776E-01  0.70506579795E-01  0.51100000000E-03 0. -1.
         11    1    4    4    0    0  0.53698045172E-01  0.28131574968E-01  0.11517648249E-01  0.61707235456E-01  0.51100000000E-03 0.  1.
</event>
<event>
 8    1  0.1170483E+005  0.1043930E+01  0.7957747E-01            NaN
         13   -1    0    0    0    0  0.00000000000E+00  0.00000000000E+00  0.74505805969E-08  0.10566000000E+00  0.10566000000E+00 0.  1.
     999900   -1    0    0    0    0 -0.00000000000E+00 -0.00000000000E+00 -0.74505805969E-08  0.93827000000E+00  0.93827000000E+00 0.  1.
     999902    2    1    2    0    0 -0.22101552033E-01  0.83327399520E-02 -0.72459246754E-02  0.10192233899E+01  0.10189238941E+01 0.  0.
     999903    2    3    3    0    0 -0.22046788882E-01  0.12214038737E+00 -0.36824096560E-01  0.13140186964E+00  0.22496713792E-01 0.  0.
         14    1    1    2    0    0  0.22101552033E-01 -0.83327399520E-02  0.72459246754E-02  0.24706610083E-01  0.00000000000E+00 0. -1.
     999901    1    3    3    0    0 -0.54763151718E-04 -0.11380764742E+00  0.29578171885E-01  0.88782152027E+00  0.88000000000E+00 0. -1.
        -11    1    4    4    0    0 -0.31991084635E-02  0.54827399157E-01 -0.68712565645E-02  0.55351181388E-01  0.51100000000E-03 0.  1.
         11    1    4    4    0    0 -0.18847680418E-01  0.67312988212E-01 -0.29952839995E-01  0.76050688254E-01  0.51100000000E-03 0. -1.
</event>
<event>
 8    1  0.1170483E+005  0.1043930E+01  0.7957747E-01            NaN
         13   -1    0    0    0    0  0.00000000000E+00  0.00000000000E+00  0.74505805969E-08  0.10566000000E+00  0.10566000000E+00 0.  1.
     999900   -1    0    0    0    0 -0.00000000000E+00 -0.00000000000E+00 -0.74505805969E-08  0.93827000000E+00  0.93827000000E+00 0.  1.
     999902    2    1    2    0    0 -0.20132774099E-01  0.10549377512E-01 -0.14087351313E-02  0.10211571545E+01  0.10209031941E+01 0.  0.
     999903    2    3    3    0    0 -0.12883432746E+00 -0.27779063243E-01  0.67560544088E-02  0.13360334717E+00  0.20838661547E-01 0.  0.
         14    1    1    2    0    0  0.20132774099E-01 -0.10549377512E-01  0.14087351313E-02  0.22772845529E-01  0.00000000000E+00 0.  1.
     999901    1    3    3    0    0  0.10870155336E+00  0.38328440755E-01 -0.81647895401E-02  0.88755380731E+00  0.88000000000E+00 0.  1.
        -11    1    4    4    0    0 -0.28543146569E-01 -0.81447349931E-02  0.10084229954E-01  0.31352842597E-01  0.51100000000E-03 0.  1.
         11    1    4    4    0    0 -0.10029118089E+00 -0.19634328250E-01 -0.33281755449E-02  0.10225050457E+00  0.51100000000E-03 0. -1.
</event>
<event>
 8    1  0.1170483E+005  0.1043930E+01  0.7957747E-01            NaN
         13   -1    0    0    0    0  0.00000000000E+00  0.00000000000E+00  0.74505805969E-08  0.10566000000E+00  0.10566000000E+00 0.  1.
     999900   -1    0    0    0    0 -0.00000000000E+00 -0.00000000000E+00 -0.74505805969E-08  0.93827000000E+00  0.93827000000E+00 0. -1.
     999902    2    1    2    0    0 -0.13769147865E-01  0.16949156209E-01 -0.66528436538E-02  0.10211018670E+01  0.10208466580E+01 0.  0.
     999903    2    3    3    0    0  0.69487620320E-01  0.97632366069E-01  0.51960089645E-01  0.13156437717E+00  0.15771053941E-01 0.  0.
         14    1    1    2    0    0  0.13769147865E-01 -0.16949156209E-01  0.66528436538E-02  0.22828133034E-01  0.00000000000E+00 0.  1.
     999901    1    3    3    0    0 -0.83256768185E-01 -0.80683209860E-01 -0.58612933298E-01  0.88953748980E+00  0.88000000000E+00 0. -1.
        -11    1    4    4    0    0  0.43998027686E-01  0.67285050457E-01  0.27396495787E-01  0.84934878335E-01  0.51100000000E-03 0.  1.
         11    1    4    4    0    0  0.25489592633E-01  0.30347315612E-01  0.24563593858E-01  0.46629498836E-01  0.51100000000E-03 0. -1.
</event>
<event>
 8    1  0.1170483E+005  0.1043930E+01  0.7957747E-01            NaN
         13   -1    0    0    0    0  0.00000000000E+00  0.00000000000E+00  0.74505805969E-08  0.10566000000E+00  0.10566000000E+00 0.  1.
     999900   -1    0    0    0    0 -0.00000000000E+00 -0.00000000000E+00 -0.74505805969E-08  0.93827000000E+00  0.93827000000E+00 0.  1.
     999902    2    1    2    0    0  0.11155331580E-01  0.48470425426E-02  0.24173719387E-01  0.10168688849E+01  0.10165087432E+01 0.  0.
     999903    2    3    3    0    0 -0.11993649358E+00  0.23924090935E-01 -0.21266809661E-01  0.12579434135E+00  0.20366995454E-01 0.  0.
         14    1    1    2    0    0 -0.11155331580E-01 -0.48470425426E-02 -0.24173719387E-01  0.27061115148E-01  0.00000000000E+00 0.  1.
     999901    1    3    3    0    0  0.13109182516E+00 -0.19077048393E-01  0.45440529048E-01  0.89107454350E+00  0.88000000000E+00 0.  1.
        -11    1    4    4    0    0 -0.25287292293E-01  0.12734693497E-01 -0.89404998453E-03  0.28331608079E-01  0.51100000000E-03 0. -1.
         11    1    4    4    0    0 -0.94649201284E-01  0.11189397438E-01 -0.20372759676E-01  0.97462733270E-01  0.51100000000E-03 0.  1.
</event>
<event>
 8    1  0.1170483E+005  0.1043930E+01  0.7957747E-01            NaN
         13   -1    0    0    0    0  0.00000000000E+00  0.00000000000E+00  0.74505805969E-08  0.10566000000E+00  0.10566000000E+00 0.  1.
     999900   -1    0    0    0    0 -0.00000000000E+00 -0.00000000000E+00 -0.74505805969E-08  0.93827000000E+00  0.93827000000E+00 0. -1.
     999902    2    1    2    0    0 -0.77538723849E-02 -0.22889154433E-01 -0.76025895368E-03  0.10197512093E+01  0.10194645236E+01 0.  0.
     999903    2    3    3    0    0  0.38057127039E-01 -0.60541264550E-01 -0.10826305280E+00  0.13122817650E+00  0.19655942485E-01 0.  0.
         14    1    1    2    0    0  0.77538723849E-02  0.22889154433E-01  0.76025895368E-03  0.24178790733E-01  0.00000000000E+00 0. -1.
     999901    1    3    3    0    0 -0.45810999424E-01  0.37652110117E-01  0.10750279385E+00  0.88852303276E+00  0.88000000000E+00 0.  1.
        -11    1    4    4    0    0  0.19127460330E-01 -0.46938555714E-01 -0.70102403042E-01  0.86508356732E-01  0.51100000000E-03 0.  1.
         11    1    4    4    0    0  0.18929666709E-01 -0.13602708835E-01 -0.38160649760E-01  0.44719819772E-01  0.51100000000E-03 0. -1.
</event>
<event>
 8    1  0.1170483E+005  0.1043930E+01  0.7957747E-01            NaN
         13   -1    0    0    0    0  0.00000000000E+00  0.00000000000E+00  0.74505805969E-08  0.10566000000E+00  0.10566000000E+00 0.  1.
     999900   -1    0    0    0    0 -0.00000000000E+00 -0.00000000000E+00 -0.74505805969E-08  0.93827000000E+00  0.93827000000E+00 0.  1.
     999902    2    1    2    0    0  0.76430067990E-03 -0.17633718131E-01  0.14957685479E-01  0.10207942155E+01  0.10205320014E+01 0.  0.
     999903    2    3    3    0    0 -0.67228898323E-01 -0.17106763106E-01 -0.10768922024E+00  0.12969062090E+00  0.20256428078E-01 0.  0.
         14    1    1    2    0    0 -0.76430067990E-03  0.17633718131E-01 -0.14957685479E-01  0.23135784524E-01  0.00000000000E+00 0. -1.
     999901    1    3    3    0    0  0.67993199003E-01 -0.52695502503E-03  0.12264690572E+00  0.89110359458E+00  0.88000000000E+00 0. -1.
        -11    1    4    4    0    0 -0.32684457129E-02  0.36184389357E-02 -0.94445303091E-02  0.10641245767E-01  0.51100000000E-03 0. -1.
         11    1    4    4    0    0 -0.63960452610E-01 -0.20725202042E-01 -0.98244689931E-01  0.11904937513E+00  0.51100000000E-03 0.  1.
</event>
<event>
 8    1  0.1170483E+005  0.1043930E+01  0.7957747E-01            NaN
         13   -1    0    0    0    0  0.00000000000E+00  0.00000000000E+00  0.74505805969E-08  0.10566000000E+00  0.10566000000E+00 0.  1.
     999900   -1    0    0    0    0 -0.00000000000E+00 -0.00000000000E+00 -0.74505805969E-08  0.93827000000E+00  0.93827000000E+00 0.  1.
     999902    2    1    2    0    0 -0.67457621628E-02  0.18781777497E-01 -0.14276653577E-01  0.10193926140E+01  0.10190972565E+01 0.  0.
     999903    2    3    3    0    0  0.52536902896E-02 -0.32312163411E-01  0.12194642876E+00  0.12736609771E+00  0.16718677928E-01 0.  0.
         14    1    1    2    0    0  0.67457621628E-02 -0.18781777497E-01  0.14276653577E-01  0.24537385974E-01  0.00000000000E+00 0.  1.
     999901    1    3    3    0    0 -0.11999452452E-01  0.51093940908E-01 -0.13622308234E+00  0.89202651632E+00  0.88000000000E+00 0.  1.
        -11    1    4    4    0    0  0.10855628196E-02 -0.31858166666E-01  0.98155160310E-01  0.10320279961E+00  0.51100000000E-03 0. -1.
         11    1    4    4    0    0  0.41681274700E-02 -0.45399674539E-03  0.23791268449E-01  0.24163298100E-01  0.51100000000E-03 0.  1.
</event>
<event>
 8    1  0.1170483E+005  0.1043930E+01  0.7957747E-01            NaN
         13   -1    0    0    0    0  0.00000000000E+00  0.00000000000E+00  0.74505805969E-08  0.10566000000E+00  0.10566000000E+00 0.  1.
     999900   -1    0    0    0    0 -0.00000000000E+00 -0.00000000000E+00 -0.74505805969E-08  0.93827000000E+00  0.93827000000E+00 0. -1.
     999902    2    1    2    0    0  0.82440620492E-02 -0.53093435426E-03  0.22797593524E-01  0.10196817687E+01  0.10193934141E+01 0.  0.
     999903    2    3    3    0    0 -0.93167452908E-01  0.86431979216E-01 -0.81386010048E-02  0.12906182067E+00  0.20977497864E-01 0.  0.
         14    1    1    2    0    0 -0.82440620492E-02  0.53093435426E-03 -0.22797593524E-01  0.24248231293E-01  0.00000000000E+00 0. -1.
     999901    1    3    3    0    0  0.10141151496E+00 -0.86962913570E-01  0.30936194529E-01  0.89061994803E+00  0.88000000000E+00 0. -1.
        -11    1    4    4    0    0 -0.40203811176E-01  0.51529045041E-01 -0.31950482191E-02  0.65437438596E-01  0.51100000000E-03 0. -1.
         11    1    4    4    0    0 -0.52963641732E-01  0.34902934175E-01 -0.49435527856E-02  0.63624382078E-01  0.51100000000E-03 0.  1.
</event>
<event>
 8    1  0.1170483E+005  0.1043930E+01  0.7957747E-01            NaN
         13   -1    0    0    0    0  0.00000000000E+00  0.00000000000E+00  0.74505805969E-08  0.10566000000E+00  0.10566000000E+00 0. -1.
     999900   -1    0    0    0    0 -0.00000000000E+00 -0.00000000000E+00 -0.74505805969E-08  0.93827000000E+00  0.93827000000E+00 0.  1.
     999902    2    1    2    0    0  0.30336292758E-02  0.21273098103E-01 -0.10631437102E-01  0.10199555331E+01  0.10196737294E+01 0.  0.
     999903    2    3    3    0    0 -0.90767115760E-01 -0.65321971230E-01  0.59126184338E-01  0.12801191852E+00  0.19634571022E-01 0.  0.
         14    1    1    2    0    0 -0.30336292758E-02 -0.21273098103E-01  0.10631437102E-01  0.23974466925E-01  0.00000000000E+00 0. -1.
     999901    1    3    3    0    0  0.93800745036E-01  0.86595069333E-01 -0.69757621440E-01  0.89194361456E+00  0.88000000000E+00 0. -1.
        -11    1    4    4    0    0 -0.62194151078E-01 -0.34381081688E-01  0.32195149888E-01  0.78018972075E-01  0.51100000000E-03 0. -1.
         11    1    4    4    0    0 -0.28572964682E-01 -0.30940889542E-01  0.26931034450E-01  0.49992946442E-01  0.51100000000E-03 0.  1.
</event>
<event>
 8    1  0.1170483E+005  0.1043930E+01  0.7957747E-01            NaN
         13   -1    0    0    0    0  0.00000000000E+00  0.00000000000E+00  0.74505805969E-08  0.10566000000E+00  0.10566000000E+00 0. -1.
     999900   -1    0    0    0    0 -0.00000000000E+00 -0.00000000000E+00 -0.74505805969E-08  0.93827000000E+00  0.93827000000E+00 0. -1.
     999902    2    1    2    0    0  0.19693782909E-01  0.23620413016E-02  0.13629294060E-01  0.10198638000E+01  0.10195798098E+01 0.  0.
     999903    2    3    3    0    0 -0.92443497817E-01 -0.76553469840E-01 -0.38911055366E-01  0.12769626198E+00  0.19647673189E-01 0.  0.
         14    1    1    2    0    0 -0.19693782909E-01 -0.23620413016E-02 -0.13629294060E-01  0.24066199969E-01  0.00000000000E+00 0.  1.
     999901    1    3    3    0    0  0.11213728073E+00  0.78915511141E-01  0.52540349426E-01  0.89216753805E+00  0.88000000000E+00 0. -1.
        -11    1    4    4    0    0 -0.56631975260E-01 -0.36691711792E-01 -0.27715459309E-01  0.72951149010E-01  0.51100000000E-03 0. -1.
         11    1    4    4    0    0 -0.35811522557E-01 -0.39861758047E-01 -0.11195596058E-01  0.54745112974E-01  0.51100000000E-03 0.  1.
</event>
<event>
 8    1  0.1170483E+005  0.1043930E+01  0.7957747E-01            NaN
         13   -1    0    0    0    0  0.00000000000E+00  0.00000000000E+00  0.74505805969E-08  0.10566000000E+00  0.10566000000E+00 0. -1.
     999900   -1    0    0    0    0 -0.00000000000E+00 -0.00000000000E+00 -0.74505805969E-08  0.93827000000E+00  0.93827000000E+00 0. -1.
     999902    2    1    2    0    0  0.78873832997E-02 -0.59176561642E-02 -0.20504436628E-01  0.10211778267E+01  0.10209243323E+01 0.  0.
     999903    2    3    3    0    0 -0.40708786401E-01 -0.31251430781E-01 -0.12179029809E+00  0.13367446691E+00  0.20053158854E-01 0.  0.
         14    1    1    2    0    0 -0.78873832997E-02  0.59176561642E-02  0.20504436628E-01  0.22752173330E-01  0.00000000000E+00 0. -1.
     999901    1    3    3    0    0  0.48596169701E-01  0.25333774617E-01  0.10128586146E+00  0.88750335976E+00  0.88000000000E+00 0.  1.
        -11    1    4    4    0    0 -0.63904404747E-02 -0.14548569225E-01 -0.48510328379E-01  0.51049110437E-01  0.51100000000E-03 0.  1.
         11    1    4    4    0    0 -0.34318345927E-01 -0.16702861556E-01 -0.73279969711E-01  0.82625356478E-01  0.51100000000E-03 0. -1.
</event>
<event>
 8    1  0.1170483E+005  0.1043930E+01  0.7957747E-01            NaN
         13   -1    0    0    0    0  0.00000000000E+00  0.00000000000E+00  0.74505805969E-08  0.10566000000E+00  0.10566000000E+00 0. -1.
     999900   -1    0    0    0    0 -0.00000000000E+00 -0.00000000000E+00 -0.74505805969E-08  0.93827000000E+00  0.93827000000E+00 0.  1.
     999902    2    1    2    0    0 -0.71027579966E-02  0.17445799499E-01  0.18485740628E-01  0.10175381888E+01  0.10171958700E+01 0.  0.
     999903    2    3    3    0    0 -0.35608372720E-02 -0.30487946009E-01 -0.11989065927E+00  0.12542932930E+00  0.20409606920E-01 0.  0.
         14    1    1    2    0    0  0.71027579966E-02 -0.17445799499E-01 -0.18485740628E-01  0.26391811190E-01  0.00000000000E+00 0.  1.
     999901    1    3    3    0    0 -0.35419207245E-02  0.47933745507E-01  0.13837639990E+00  0.89210885951E+00  0.88000000000E+00 0. -1.
        -11    1    4    4    0    0 -0.44447295338E-02 -0.33182232467E-02 -0.54125628957E-02  0.77668001289E-02  0.51100000000E-03 0.  1.
         11    1    4    4    0    0  0.88389226174E-03 -0.27169722762E-01 -0.11447809638E+00  0.11766252917E+00  0.51100000000E-03 0. -1.
</event>
<event>
 8    1  0.1170483E+005  0.1043930E+01  0.7957747E-01            NaN
         13   -1    0    0    0    0  0.00000000000E+00  0.00000000000E+00  0.74505805969E-08  0.10566000000E+00  0.10566000000E+00 0.  1.
     999900   -1    0    0    0    0 -0.00000000000E+00 -0.00000000000E+00 -0.74505805969E-08  0.93827000000E+00  0.93827000000E+00 0. -1.
     999902    2    1    2    0    0 -0.96257210848E-02 -0.11003726297E-01 -0.17926664417E-01  0.10207977326E+01  0.10205355991E+01 0.  0.
     999903    2    3    3    0    0 -0.12138649294E+00  0.43276240383E-01  0.16188635273E-01  0.13141556580E+00  0.20011630983E-01 0.  0.
         14    1    1    2    0    0  0.96257210848E-02  0.11003726297E-01  0.17926664417E-01  0.23132267419E-01  0.00000000000E+00 0.  1.
     999901    1    3    3    0    0  0.11176077185E+00 -0.54279966681E-01 -0.34115299690E-01  0.88938216678E+00  0.88000000000E+00 0. -1.
        -11    1    4    4    0    0 -0.84860169187E-01  0.22725161094E-01  0.48044788008E-02  0.87983097233E-01  0.51100000000E-03 0. -1.
         11    1    4    4    0    0 -0.36526323749E-01  0.20551079290E-01  0.11384156472E-01  0.43432468571E-01  0.51100000000E-03 0.  1.
</event>
<event>
 8    1  0.1170483E+005  0.1043930E+01  0.7957747E-01            NaN
         13   -1    0    0    0    0  0.00000000000E+00  0.00000000000E+00  0.74505805969E-08  0.10566000000E+00  0.10566000000E+00 0.  1.
     999900   -1    0    0    0    0 -0.00000000000E+00 -0.00000000000E+00 -0.74505805969E-08  0.93827000000E+00  0.93827000000E+00 0.  1.
     999902    2    1    2    0    0  0.31576652178E-02 -0.27136698622E-03 -0.22475910141E-01  0.10212317396E+01  0.10209794586E+01 0.  0.
     999903    2    3    3    0    0 -0.10024943770E+00 -0.68266998997E-01  0.42956369984E-01  0.13016618745E+00  0.19688923813E-01 0.  0.
         14    1    1    2    0    0 -0.31576652178E-02  0.27136698622E-03  0.22475910141E-01  0.22698260425E-01  0.00000000000E+00 0.  1.
     999901    1    3    3    0    0  0.10340710292E+00  0.67995632011E-01 -0.65432280125E-01  0.89106555213E+00  0.88000000000E+00 0.  1.
        -11    1    4    4    0    0 -0.62234972821E-01 -0.42683984414E-01  0.16490471440E-01  0.77248373037E-01  0.51100000000E-03 0.  1.
         11    1    4    4    0    0 -0.38014464880E-01 -0.25583014583E-01  0.26465898544E-01  0.52917814410E-01  0.51100000000E-03 0. -1.
</event>
<event>
 8    1  0.1170483E+005  0.1043930E+01  0.7957747E-01            NaN
         13   -1    0    0    0    0  0.00000000000E+00  0.00000000000E+00  0.74505805969E-08  0.10566000000E+00  0.10566000000E+00 0.  1.
     999900   -1    0    0    0    0 -0.00000000000E+00 -0.00000000000E+00 -0.74505805969E-08  0.93827000000E+00  0.93827000000E+00 0.  1.
     999902    2    1    2    0    0 -0.29620337404E-02  0.17724462464E-01  0.18938953705E-01  0.10178222582E+01  0.10174873636E+01 0.  0.
     999903    2    3    3    0    0 -0.12210014655E+00 -0.25917185698E-01  0.23464213101E-01  0.12871092585E+00  0.20875507966E-01 0.  0.
         14    1    1    2    0    0  0.29620337404E-02 -0.17724462464E-01 -0.18938953705E-01  0.26107741782E-01  0.00000000000E+00 0. -1.
     999901    1    3    3    0    0  0.11913811281E+00  0.43641648163E-01 -0.45252593965E-02  0.88911133237E+00  0.88000000000E+00 0.  1.
        -11    1    4    4    0    0 -0.53689403133E-01 -0.11816736978E-02  0.12524166412E-01  0.55145845055E-01  0.51100000000E-03 0.  1.
         11    1    4    4    0    0 -0.68410743421E-01 -0.24735512001E-01  0.10940046689E-01  0.73565080791E-01  0.51100000000E-03 0. -1.
</event>
<event>
 8    1  0.1170483E+005  0.1043930E+01  0.7957747E-01            NaN
         13   -1    0    0    0    0  0.00000000000E+00  0.00000000000E+00  0.74505805969E-08  0.10566000000E+00  0.10566000000E+00 0. -1.
     999900   -1    0    0    0    0 -0.00000000000E+00 -0.00000000000E+00 -0.74505805969E-08  0.93827000000E+00  0.93827000000E+00 0.  1.
     999902    2    1    2    0    0 -0.70455208913E-02  0.29725941503E-02  0.21430083329E-01  0.10211764475E+01  0.10209229220E+01 0.  0.
     999903    2    3    3    0    0 -0.12454997927E+00 -0.35857196399E-01  0.18352702428E-01  0.13251198851E+00  0.20595376751E-01 0.  0.
         14    1    1    2    0    0  0.70455208913E-02 -0.29725941503E-02 -0.21430083329E-01  0.22753552516E-01  0.00000000000E+00 0.  1.
     999901    1    3    3    0    0  0.11750445837E+00  0.38829790549E-01  0.30773809012E-02  0.88866445897E+00  0.88000000000E+00 0. -1.
        -11    1    4    4    0    0 -0.20010328939E-01 -0.75420362623E-02 -0.44044918718E-02  0.21839327940E-01  0.51100000000E-03 0.  1.
         11    1    4    4    0    0 -0.10453965033E+00 -0.28315160136E-01  0.22757194300E-01  0.11067266057E+00  0.51100000000E-03 0. -1.
</event>
<event>
 8    1  0.1170483E+005  0.1043930E+01  0.7957747E-01            NaN
         13   -1    0    0    0    0  0.00000000000E+00  0.00000000000E+00  0.74505805969E-08  0.10566000000E+00  0.10566000000E+00 0. -1.
     999900   -1    0    0    0    0 -0.00000000000E+00 -0.00000000000E+00 -0.74505805969E-08  0.93827000000E+00  0.93827000000E+00 0. -1.
     999902    2    1    2    0    0 -0.20686688353E-01  0.13868106979E-01  0.93245444320E-03  0.10190074613E+01  0.10187026422E+01 0.  0.
     999903    2    3    3    0    0 -0.12487869206E+00  0.14212964398E-01 -0.35700685940E-01  0.13210381399E+00  0.19498271852E-01 0.  0.
         14    1    1    2    0    0  0.20686688353E-01 -0.13868106979E-01 -0.93245444320E-03  0.24922538744E-01  0.00000000000E+00 0.  1.
     999901    1    3    3    0    0  0.10419200371E+00 -0.34485741910E-03  0.36633140383E-01  0.88690364727E+00  0.88000000000E+00 0. -1.
        -11    1    4    4    0    0 -0.10805188994E+00  0.60711220989E-02 -0.33414355396E-01  0.11326451214E+00  0.51100000000E-03 0.  1.
         11    1    4    4    0    0 -0.16826802126E-01  0.81418422987E-02 -0.22863305439E-02  0.18839301849E-01  0.51100000000E-03 0. -1.
</event>
<event>
 8    1  0.1170483E+005  0.1043930E+01  0.7957747E-01            NaN
         13   -1    0    0    0    0  0.00000000000E+00  0.00000000000E+00  0.74505805969E-08  0.10566000000E+00  0.10566000000E+00 0. -1.
     999900   -1    0    0    0    0 -0.00000000000E+00 -0.00000000000E+00 -0.74505805969E-08  0.93827000000E+00  0.93827000000E+00 0.  1.
     999902    2    1    2    0    0 -0.16636855454E-01 -0.15347567535E-01  0.87726480281E-02  0.10196546598E+01  0.10193656523E+01 0.  0.
     999903    2    3    3    0    0  0.56283515755E-02  0.61300345695E-01  0.11276340302E+00  0.12994419050E+00  0.19506328760E-01 0.  0.
         14    1    1    2    0    0  0.16636855454E-01  0.15347567535E-01 -0.87726480281E-02  0.24275340206E-01  0.00000000000E+00 0. -1.
     999901    1    3    3    0    0 -0.22265207030E-01 -0.76647913231E-01 -0.10399075499E+00  0.88971046929E+00  0.88000000000E+00 0.  1.
        -11    1    4    4    0    0 -0.64396570852E-02  0.15606981870E-01  0.23500743997E-01  0.28941201701E-01  0.51100000000E-03 0.  1.
         11    1    4    4    0    0  0.12068008661E-01  0.45693363825E-01  0.89262659018E-01  0.10100298880E+00  0.51100000000E-03 0. -1.
</event>
<event>
 8    1  0.1170483E+005  0.1043930E+01  0.7957747E-01            NaN
         13   -1    0    0    0    0  0.00000000000E+00  0.00000000000E+00  0.74505805969E-08  0.10566000000E+00  0.10566000000E+00 0.  1.
     999900   -1    0    0    0    0 -0.00000000000E+00 -0.00000000000E+00 -0.74505805969E-08  0.93827000000E+00  0.93827000000E+00 0. -1.
     999902    2    1    2    0    0 -0.17518624827E-01  0.14759295077E-02 -0.16272977402E-01  0.10199739908E+01  0.10196926260E+01 0.  0.
     999903    2    3    3    0    0  0.12102653168E+00  0.35057695453E-01 -0.15553329295E-01  0.12850160575E+00  0.19856818688E-01 0.  0.
         14    1    1    2    0    0  0.17518624827E-01 -0.14759295077E-02  0.16272977402E-01  0.23956009210E-01  0.00000000000E+00 0.  1.
     999901    1    3    3    0    0 -0.13854515650E+00 -0.33581765946E-01 -0.71964810643E-03  0.89147238504E+00  0.88000000000E+00 0. -1.
        -11    1    4    4    0    0  0.67522374418E-01  0.28707769895E-01 -0.46003398364E-02  0.73517558086E-01  0.51100000000E-03 0. -1.
         11    1    4    4    0    0  0.53504157258E-01  0.63499255582E-02 -0.10952989459E-01  0.54984047664E-01  0.51100000000E-03 0.  1.
</event>
<event>
 8    1  0.1170483E+005  0.1043930E+01  0.7957747E-01            NaN
         13   -1    0    0    0    0  0.00000000000E+00  0.00000000000E+00  0.74505805969E-08  0.10566000000E+00  0.10566000000E+00 0. -1.
     999900   -1    0    0    0    0 -0.00000000000E+00 -0.00000000000E+00 -0.74505805969E-08  0.93827000000E+00  0.93827000000E+00 0. -1.
     999902    2    1    2    0    0 -0.28156158588E-02 -0.22387857104E-01  0.65830648274E-02  0.10204250945E+01  0.10201543476E+01 0.  0.
     999903    2    3    3    0    0  0.11037633510E+00 -0.46462876686E-01  0.51168614796E-01  0.13172947983E+00  0.19816519785E-01 0.  0.
         14    1    1    2    0    0  0.28156158588E-02  0.22387857104E-01 -0.65830648274E-02  0.23504905464E-01  0.00000000000E+00 0.  1.
     999901    1    3    3    0    0 -0.11319195096E+00  0.24075019582E-01 -0.44585549969E-01  0.88869561470E+00  0.88000000000E+00 0. -1.
        -11    1    4    4    0    0  0.10140677155E+00 -0.36694933064E-01  0.42714147588E-01  0.11599401258E+00  0.51100000000E-03 0.  1.
         11    1    4    4    0    0  0.89695635470E-02 -0.97679436215E-02  0.84544672081E-02  0.15735467250E-01  0.51100000000E-03 0. -1.
</event>
<event>
 8    1  0.1170483E+005  0.1043930E+01  0.7957747E-01            NaN
         13   -1    0    0    0    0  0.00000000000E+00  0.00000000000E+00  0.74505805969E-08  0.10566000000E+00  0.10566000000E+00 0.  1.
     999900   -1    0    0    0    0 -0.00000000000E+00 -0.00000000000E+00 -0.74505805969E-08  0.93827000000E+00  0.93827000000E+00 0.  1.
     999902    2    1    2    0    0  0.45406788190E-02 -0.71039123162E-02  0.23952721162E-01  0.10185367689E+01  0.10182201792E+01 0.  0.
     999903    2    3    3    0    0 -0.39937319222E-01  0.10766400986E+00 -0.49783599633E-01  0.12691632652E+00  0.21043256859E-01 0.  0.
         14    1    1    2    0    0 -0.45406788190E-02  0.71039123162E-02 -0.23952721162E-01  0.25393231094E-01  0.00000000000E+00 0. -1.
     999901    1    3    3    0    0  0.44477998041E-01 -0.11476792218E+00  0.73736320795E-01  0.89162044238E+00  0.88000000000E+00 0. -1.
        -11    1    4    4    0    0 -0.64189972490E-02  0.25694244421E-01 -0.20978826299E-01  0.33790087244E-01  0.51100000000E-03 0.  1.
         11    1    4    4    0    0 -0.33518321974E-01  0.81969765441E-01 -0.28804773334E-01  0.93126239279E-01  0.51100000000E-03 0. -1.
</event>
<event>
 8    1  0.1170483E+005  0.1043930E+01  0.7957747E-01            NaN
         13   -1    0    0    0    0  0.00000000000E+00  0.00000000000E+00  0.74505805969E-08  0.10566000000E+00  0.10566000000E+00 0.  1.
     999900   -1    0    0    0    0 -0.00000000000E+00 -0.00000000000E+00 -0.74505805969E-08  0.93827000000E+00  0.93827000000E+00 0.  1.
     999902    2    1    2    0    0  0.10844447062E-02 -0.23805854205E-01  0.10659563964E-02  0.10200756298E+01  0.10197966756E+01 0.  0.
     999903    2    3    3    0    0  0.24788864814E-01 -0.12430509272E+00  0.36263499841E-01  0.13333955658E+00  0.19953747346E-01 0.  0.
         14    1    1    2    0    0 -0.10844447062E-02  0.23805854205E-01 -0.10659563964E-02  0.23854370203E-01  0.00000000000E+00 0. -1.
     999901    1    3    3    0    0 -0.23704420108E-01  0.10049923852E+00 -0.35197543445E-01  0.88673607321E+00  0.88000000000E+00 0.  1.
        -11    1    4    4    0    0  0.62239802865E-02 -0.77865082473E-01  0.25566441387E-01  0.82192536433E-01  0.51100000000E-03 0. -1.
         11    1    4    4    0    0  0.18564884527E-01 -0.46440010250E-01  0.10697058454E-01  0.51147020149E-01  0.51100000000E-03 0.  1.
</event>
<event>
 8    1  0.1170483E+005  0.1043930E+01  0.7957747E-01            NaN
         13   -1    0    0    0    0  0.00000000000E+00  0.00000000000E+00  0.74505805969E-08  0.10566000000E+00  0.10566000000E+00 0. -1.
     999900   -1    0    0    0    0 -0.00000000000E+00 -0.00000000000E+00 -0.74505805969E-08  0.93827000000E+00  0.93827000000E+00 0.  1.
     999902    2    1    2    0    0 -0.13406405815E-01  0.19361340030E-01  0.32599717777E-03  0.10203779411E+01  0.10201060941E+01 0.  0.
     999903    2    3    3    0    0 -0.81066913589E-01  0.14444900809E-01  0.10223692324E+00  0.13190286967E+00  0.12863860831E-01 0.  0.
         14    1    1    2    0    0  0.13406405815E-01 -0.19361340030E-01 -0.32599717777E-03  0.23552058908E-01  0.00000000000E+00 0.  1.
     999901    1    3    3    0    0  0.67660507774E-01  0.49164392208E-02 -0.10191092606E+00  0.88847507142E+00  0.88000000000E+00 0.  1.
        -11    1    4    4    0    0 -0.56874093981E-01  0.59204157366E-02  0.63642004846E-01  0.85558633641E-01  0.51100000000E-03 0. -1.
         11    1    4    4    0    0 -0.24192819608E-01  0.85244850729E-02  0.38594918394E-01  0.46344236030E-01  0.51100000000E-03 0.  1.
</event>
<event>
 8    1  0.1170483E+005  0.1043930E+01  0.7957747E-01            NaN
         13   -1    0    0    0    0  0.00000000000E+00  0.00000000000E+00  0.74505805969E-08  0.10566000000E+00  0.10566000000E+00 0.  1.
     999900   -1    0    0    0    0 -0.00000000000E+00 -0.00000000000E+00 -0.74505805969E-08  0.93827000000E+00  0.93827000000E+00 0. -1.
     999902    2    1    2    0    0 -0.28003191986E-02 -0.19301643508E-01  0.12939583981E-01  0.10205242729E+01  0.10202558323E+01 0.  0.
     999903    2    3    3    0    0  0.91939726951E-01 -0.92254768673E-01 -0.10595878167E-01  0.13212585278E+00  0.19522105488E-01 0.  0.
         14    1    1    2    0    0  0.28003191986E-02  0.19301643508E-01 -0.12939583981E-01  0.23405727148E-01  0.00000000000E+00 0. -1.
     999901    1    3    3    0    0 -0.94740046150E-01  0.72953125165E-01  0.23535462148E-01  0.88839842008E+00  0.88000000000E+00 0.  1.
        -11    1    4    4    0    0  0.66455942686E-01 -0.72301114705E-01 -0.45884739733E-03  0.98205474225E-01  0.51100000000E-03 0. -1.
         11    1    4    4    0    0  0.25483784266E-01 -0.19953653968E-01 -0.10137030769E-01  0.33920378550E-01  0.51100000000E-03 0.  1.
</event>
<event>
 8    1  0.1170483E+005  0.1043930E+01  0.7957747E-01            NaN
         13   -1    0    0    0    0  0.00000000000E+00  0.00000000000E+00  0.74505805969E-08  0.10566000000E+00  0.10566000000E+00 0. -1.
     999900   -1    0    0    0    0 -0.00000000000E+00 -0.00000000000E+00 -0.74505805969E-08  0.93827000000E+00  0.93827000000E+00 0. -1.
     999902    2    1    2    0    0  0.83895079321E-02 -0.62331108427E-02  0.21289169605E-01  0.10202136711E+01  0.10199379738E+01 0.  0.
     999903    2    3    3    0    0  0.14340614886E-01 -0.76583881255E-01  0.10631672141E+00  0.13330086189E+00  0.19877887874E-01 0.  0.
         14    1    1    2    0    0 -0.83895079321E-02  0.62331108427E-02 -0.21289169605E-01  0.23716328902E-01  0.00000000000E+00 0.  1.
     999901    1    3    3    0    0 -0.59511069541E-02  0.70350770412E-01 -0.85027551803E-01  0.88691280921E+00  0.88000000000E+00 0. -1.
        -11    1    4    4    0    0  0.11809009938E-01 -0.58666435750E-01  0.65918315168E-01  0.89031953786E-01  0.51100000000E-03 0.  1.
         11    1    4    4    0    0  0.25316049482E-02 -0.17917445505E-01  0.40398406239E-01  0.44268908104E-01  0.51100000000E-03 0. -1.
</event>
<event>
 8    1  0.1557319E+005  0.1043930E+01  0.7957747E-01            NaN
         13   -1    0    0    0    0  0.00000000000E+00  0.00000000000E+00  0.74505805969E-08  0.10566000000E+00  0.10566000000E+00 0. -1.
     999900   -1    0    0    0    0 -0.00000000000E+00 -0.00000000000E+00 -0.74505805969E-08  0.93827000000E+00  0.93827000000E+00 0. -1.
     999902    2    1    2    0    0 -0.19170957313E-01 -0.48921129135E-02 -0.11489451113E-01  0.10210506237E+01  0.10207942546E+01 0.  0.
     999903    2    3    3    0    0 -0.29371626268E-01 -0.16248009437E-02 -0.12826080196E+00  0.13327234206E+00  0.21103351139E-01 0.  0.
         14    1    1    2    0    0  0.19170957313E-01  0.48921129135E-02  0.11489451113E-01  0.22879376302E-01  0.00000000000E+00 0. -1.
     999901    1    3    3    0    0  0.10200668955E-01 -0.32673119699E-02  0.11677135085E+00  0.88777828164E+00  0.88000000000E+00 0.  1.
        -11    1    4    4    0    0 -0.21444392217E-01 -0.10769182975E-01 -0.80742687493E-01  0.84234671983E-01  0.51100000000E-03 0.  1.
         11    1    4    4    0    0 -0.79272340512E-02  0.91443820315E-02 -0.47518114471E-01  0.49037670074E-01  0.51100000000E-03 0. -1.
</event>
<event>
 8    1  0.1170483E+005  0.1043930E+01  0.7957747E-01            NaN
         13   -1    0    0    0    0  0.00000000000E+00  0.00000000000E+00  0.74505805969E-08  0.10566000000E+00  0.10566000000E+00 0. -1.
     999900   -1    0    0    0    0 -0.00000000000E+00 -0.00000000000E+00 -0.74505805969E-08  0.93827000000E+00  0.93827000000E+00 0. -1.
     999902    2    1    2    0    0 -0.19547922820E-01 -0.32782094598E-02 -0.12937856836E-01  0.10202602707E+01  0.10199856685E+01 0.  0.
     999903    2    3    3    0    0  0.12482084778E+00 -0.19267918027E-01  0.56632965518E-02  0.12815937083E+00  0.21006063351E-01 0.  0.
         14    1    1    2    0    0  0.19547922820E-01  0.32782094598E-02  0.12937856836E-01  0.23669729262E-01  0.00000000000E+00 0. -1.
     999901    1    3    3    0    0 -0.14436877060E+00  0.15989708567E-01 -0.18601153388E-01  0.89210089991E+00  0.88000000000E+00 0.  1.
        -11    1    4    4    0    0  0.49545469748E-01 -0.15975594304E-02 -0.60952736414E-02  0.49947164589E-01  0.51100000000E-03 0. -1.
         11    1    4    4    0    0  0.75275378036E-01 -0.17670358596E-01  0.11758570193E-01  0.78212206243E-01  0.51100000000E-03 0.  1.
</event>
<event>
 8    1  0.1170483E+005  0.1043930E+01  0.7957747E-01            NaN
         13   -1    0    0    0    0  0.00000000000E+00  0.00000000000E+00  0.74505805969E-08  0.10566000000E+00  0.10566000000E+00 0.  1.
     999900   -1    0    0    0    0 -0.00000000000E+00 -0.00000000000E+00 -0.74505805969E-08  0.93827000000E+00  0.93827000000E+00 0.  1.
     999902    2    1    2    0    0  0.19766086047E-01 -0.71631469655E-02 -0.73390167841E-02  0.10216618613E+01  0.10214191544E+01 0.  0.
     999903    2    3    3    0    0  0.26211493610E-01  0.67397908052E-01  0.10742334179E+00  0.13106021461E+00  0.20186259863E-01 0.  0.
         14    1    1    2    0    0 -0.19766086047E-01  0.71631469655E-02  0.73390167841E-02  0.22268138661E-01  0.00000000000E+00 0. -1.
     999901    1    3    3    0    0 -0.64454075632E-02 -0.74561055017E-01 -0.11476235857E+00  0.89060164672E+00  0.88000000000E+00 0.  1.
        -11    1    4    4    0    0  0.21944894250E-01  0.52565052639E-01  0.67919787623E-01  0.88645483891E-01  0.51100000000E-03 0. -1.
         11    1    4    4    0    0  0.42665993599E-02  0.14832855413E-01  0.39503554163E-01  0.42414730723E-01  0.51100000000E-03 0.  1.
</event>
<event>
 8    1  0.1170483E+005  0.1043930E+01  0.7957747E-01            NaN
         13   -1    0    0    0    0  0.00000000000E+00  0.00000000000E+00  0.74505805969E-08  0.10566000000E+00  0.10566000000E+00 0.  1.
     999900   -1    0    0    0    0 -0.00000000000E+00 -0.00000000000E+00 -0.74505805969E-08  0.93827000000E+00  0.93827000000E+00 0.  1.
     999902    2    1    2    0    0 -0.54002220162E-03 -0.58400832653E-02  0.21525422910E-01  0.10216198671E+01  0.10213762338E+01 0.  0.
     999903    2    3    3    0    0  0.85608046493E-01  0.66657831125E-01  0.74061663452E-01  0.13289184694E+00  0.20077572433E-01 0.  0.
         14    1    1    2    0    0  0.54002220162E-03  0.58400832653E-02 -0.21525422910E-01  0.22310132854E-01  0.00000000000E+00 0. -1.
     999901    1    3    3    0    0 -0.86148068695E-01 -0.72497914390E-01 -0.52536240542E-01  0.88872802021E+00  0.88000000000E+00 0.  1.
        -11    1    4    4    0    0  0.32481554882E-01  0.23615705570E-01  0.16153910767E-01  0.43289293263E-01  0.51100000000E-03 0. -1.
         11    1    4    4    0    0  0.53126491611E-01  0.43042125555E-01  0.57907752685E-01  0.89602553676E-01  0.51100000000E-03 0.  1.
</event>
<event>
 8    1  0.1170483E+005  0.1043930E+01  0.7957747E-01            NaN
         13   -1    0    0    0    0  0.00000000000E+00  0.00000000000E+00  0.74505805969E-08  0.10566000000E+00  0.10566000000E+00 0.  1.
     999900   -1    0    0    0    0 -0.00000000000E+00 -0.00000000000E+00 -0.74505805969E-08  0.93827000000E+00  0.93827000000E+00 0.  1.
     999902    2    1    2    0    0  0.18255180377E-01 -0.12263729563E-01 -0.83219978591E-02  0.10204160399E+01  0.10201450819E+01 0.  0.
     999903    2    3    3    0    0 -0.67725241465E-01 -0.58551518569E-01 -0.93215086140E-01  0.13095438875E+00  0.21095283586E-01 0.  0.
         14    1    1    2    0    0 -0.18255180377E-01  0.12263729563E-01  0.83219978591E-02  0.23513960147E-01  0.00000000000E+00 0.  1.
     999901    1    3    3    0    0  0.85980421842E-01  0.46287789006E-01  0.84893088281E-01  0.88946165111E+00  0.88000000000E+00 0. -1.
        -11    1    4    4    0    0 -0.18891879137E-01 -0.11157996307E-01 -0.35437713246E-01  0.41683289458E-01  0.51100000000E-03 0. -1.
         11    1    4    4    0    0 -0.48833362328E-01 -0.47393522262E-01 -0.57777372894E-01  0.89271099289E-01  0.51100000000E-03 0.  1.
</event>
<event>
 7    1  0.1170483E+005  0.1043930E+01  0.7957747E-01            NaN
         13   -1    0    0    0    0  0.00000000000E+00  0.00000000000E+00  0.74505805969E-08  0.10566000000E+00  0.10566000000E+00 0.  1.
     999900   -1    0    0    0    0 -0.00000000000E+00 -0.00000000000E+00 -0.74505805969E-08  0.93827000000E+00  0.93827000000E+00 0.  1.
     999903    2    1    2    0    0 -0.80563479136E-01  0.64016733131E-02  0.15795792607E-01  0.84554213313E-01  0.19195112222E-01 0.  0.
         14    1    1    2    0    0  0.61795088695E-01  0.30475431649E-01  0.34327071943E-01  0.76978781422E-01  0.00000000000E+00 0. -1.
     999901    1    1    2    0    0  0.18768390441E-01 -0.36877104962E-01 -0.50122864549E-01  0.88239700527E+00  0.88000000000E+00 0.  1.
        -11    1    3    3    0    0 -0.30891200558E-01  0.11084261632E-01  0.25037815491E-02  0.32918948509E-01  0.51100000000E-03 0. -1.
         11    1    3    3    0    0 -0.49672278578E-01 -0.46825883191E-02  0.13292011058E-01  0.51635264805E-01  0.51100000000E-03 0.  1.
</event>
<event>
 8    1  0.1170483E+005  0.1043930E+01  0.7957747E-01            NaN
         13   -1    0    0    0    0  0.00000000000E+00  0.00000000000E+00  0.74505805969E-08  0.10566000000E+00  0.10566000000E+00 0.  1.
     999900   -1    0    0    0    0 -0.00000000000E+00 -0.00000000000E+00 -0.74505805969E-08  0.93827000000E+00  0.93827000000E+00 0.  1.
     999902    2    1    2    0    0 -0.13755157594E-01 -0.11160222767E-01 -0.14675982874E-01  0.10209269696E+01  0.10206677902E+01 0.  0.
     999903    2    3    3    0    0 -0.77960148112E-01 -0.60210038989E-01  0.84982885740E-01  0.13162384057E+00  0.19992774901E-01 0.  0.
         14    1    1    2    0    0  0.13755157594E-01  0.11160222767E-01  0.14675982874E-01  0.23003030364E-01  0.00000000000E+00 0.  1.
     999901    1    3    3    0    0  0.64204990518E-01  0.49049816222E-01 -0.99658868613E-01  0.88930312907E+00  0.88000000000E+00 0.  1.
        -11    1    4    4    0    0 -0.74292584527E-01 -0.50232058883E-01  0.73362765986E-01  0.11586632129E+00  0.51100000000E-03 0. -1.
         11    1    4    4    0    0 -0.36675635842E-02 -0.99779801057E-02  0.11620119753E-01  0.15757519275E-01  0.51100000000E-03 0.  1.
</event>
<event>
 8    1  0.1170483E+005  0.1043930E+01  0.7957747E-01            NaN
         13   -1    0    0    0    0  0.00000000000E+00  0.00000000000E+00  0.74505805969E-08  0.10566000000E+00  0.10566000000E+00 0.  1.
     999900   -1    0    0    0    0 -0.00000000000E+00 -0.00000000000E+00 -0.74505805969E-08  0.93827000000E+00  0.93827000000E+00 0. -1.
     999902    2    1    2    0    0  0.97128875279E-02 -0.18877181251E-01  0.79938511758E-02  0.10212454279E+01  0.10209934545E+01 0.  0.
     999903    2    3    3    0    0  0.24354732493E-01 -0.12832746356E+00 -0.14932170110E-01  0.13404795810E+00  0.26168577841E-01 0.  0.
         14    1    1    2    0    0 -0.97128875279E-02  0.18877181251E-01 -0.79938511758E-02  0.22684572130E-01  0.00000000000E+00 0. -1.
     999901    1    3    3    0    0 -0.14641844965E-01  0.10945028231E+00  0.22926021285E-01  0.88719746977E+00  0.88000000000E+00 0. -1.
        -11    1    4    4    0    0  0.26488847418E-01 -0.91276316281E-01 -0.18264353178E-01  0.96782605201E-01  0.51100000000E-03 0.  1.
         11    1    4    4    0    0 -0.21341149254E-02 -0.37051147281E-01  0.33321830687E-02  0.37265352895E-01  0.51100000000E-03 0. -1.
</event>
<event>
 8    1  0.1170483E+005  0.1043930E+01  0.7957747E-01            NaN
         13   -1    0    0    0    0  0.00000000000E+00  0.00000000000E+00  0.74505805969E-08  0.10566000000E+00  0.10566000000E+00 0.  1.
     999900   -1    0    0    0    0 -0.00000000000E+00 -0.00000000000E+00 -0.74505805969E-08  0.93827000000E+00  0.93827000000E+00 0.  1.
     999902    2    1    2    0    0  0.17449504435E-01  0.63038723778E-02 -0.14508084948E-01  0.10203777487E+01  0.10201058972E+01 0.  0.
     999903    2    3    3    0    0 -0.47282737741E-01 -0.11209981644E+00 -0.39606678428E-01  0.12973773383E+00  0.21474740281E-01 0.  0.
         14    1    1    2    0    0 -0.17449504435E-01 -0.63038723778E-02  0.14508084948E-01  0.23552251290E-01  0.00000000000E+00 0. -1.
     999901    1    3    3    0    0  0.64732242176E-01  0.11840368882E+00  0.25098593480E-01  0.89064001488E+00  0.88000000000E+00 0. -1.
        -11    1    4    4    0    0 -0.30891948940E-01 -0.60044711285E-01 -0.31675633150E-01  0.74587443441E-01  0.51100000000E-03 0. -1.
         11    1    4    4    0    0 -0.16390788800E-01 -0.52055105155E-01 -0.79310452776E-02  0.55150290393E-01  0.51100000000E-03 0.  1.
</event>
<event>
 8    1  0.1170483E+005  0.1043930E+01  0.7957747E-01            NaN
         13   -1    0    0    0    0  0.00000000000E+00  0.00000000000E+00  0.74505805969E-08  0.10566000000E+00  0.10566000000E+00 0.  1.
     999900   -1    0    0    0    0 -0.00000000000E+00 -0.00000000000E+00 -0.74505805969E-08  0.93827000000E+00  0.93827000000E+00 0. -1.
     999902    2    1    2    0    0  0.54833881117E-02  0.15070467375E-01 -0.20094854722E-01  0.10182202797E+01  0.10178956470E+01 0.  0.
     999903    2    3    3    0    0 -0.52407489486E-02  0.12843507600E+00  0.89021354568E-02  0.13040984551E+00  0.20110832753E-01 0.  0.
         14    1    1    2    0    0 -0.54833881117E-02 -0.15070467375E-01  0.20094854722E-01  0.25709720309E-01  0.00000000000E+00 0.  1.
     999901    1    3    3    0    0  0.10724137060E-01 -0.11336460862E+00 -0.28996990179E-01  0.88781043418E+00  0.88000000000E+00 0. -1.
        -11    1    4    4    0    0  0.69838299646E-02  0.60157885133E-01  0.76026371032E-03  0.60568838081E-01  0.51100000000E-03 0.  1.
         11    1    4    4    0    0 -0.12224578913E-01  0.68277190864E-01  0.81418717465E-02  0.69841007427E-01  0.51100000000E-03 0. -1.
</event>
<event>
 8    1  0.1170483E+005  0.1043930E+01  0.7957747E-01            NaN
         13   -1    0    0    0    0  0.00000000000E+00  0.00000000000E+00  0.74505805969E-08  0.10566000000E+00  0.10566000000E+00 0.  1.
     999900   -1    0    0    0    0 -0.00000000000E+00 -0.00000000000E+00 -0.74505805969E-08  0.93827000000E+00  0.93827000000E+00 0.  1.
     999902    2    1    2    0    0 -0.75344298042E-02  0.11102919978E-01 -0.19607823709E-01  0.10201705973E+01  0.10198938859E+01 0.  0.
     999903    2    3    3    0    0 -0.71407257351E-01 -0.10641688927E+00  0.14240783166E-02  0.12981505904E+00  0.20648748878E-01 0.  0.
         14    1    1    2    0    0  0.75344298042E-02 -0.11102919978E-01  0.19607823709E-01  0.23759402667E-01  0.00000000000E+00 0.  1.
     999901    1    3    3    0    0  0.63872827547E-01  0.11751980925E+00 -0.21031902025E-01  0.89035553829E+00  0.88000000000E+00 0. -1.
        -11    1    4    4    0    0 -0.52270687479E-01 -0.91996581111E-01  0.22407333919E-02  0.10583419916E+00  0.51100000000E-03 0.  1.
         11    1    4    4    0    0 -0.19136569872E-01 -0.14420308160E-01 -0.81665507530E-03  0.23980859876E-01  0.51100000000E-03 0. -1.
</event>
<event>
 8    1  0.1170483E+005  0.1043930E+01  0.7957747E-01            NaN
         13   -1    0    0    0    0  0.00000000000E+00  0.00000000000E+00  0.74505805969E-08  0.10566000000E+00  0.10566000000E+00 0.  1.
     999900   -1    0    0    0    0 -0.00000000000E+00 -0.00000000000E+00 -0.74505805969E-08  0.93827000000E+00  0.93827000000E+00 0.  1.
     999902    2    1    2    0    0 -0.12391676004E-01  0.19807585785E-01 -0.37362164238E-02  0.10202687785E+01  0.10199943760E+01 0.  0.
     999903    2    3    3    0    0 -0.54599349222E-01 -0.49865315097E-01 -0.10614302291E+00  0.13059302027E+00  0.17904106993E-01 0.  0.
         14    1    1    2    0    0  0.12391676004E-01 -0.19807585785E-01  0.37362164238E-02  0.23661221481E-01  0.00000000000E+00 0.  1.
     999901    1    3    3    0    0  0.42207673218E-01  0.69672900882E-01  0.10240680648E+00  0.88967575825E+00  0.88000000000E+00 0. -1.
        -11    1    4    4    0    0 -0.37222878388E-01 -0.22986563836E-01 -0.67122730653E-01  0.80122698930E-01  0.51100000000E-03 0. -1.
         11    1    4    4    0    0 -0.17376470833E-01 -0.26878751260E-01 -0.39020292254E-01  0.50470321343E-01  0.51100000000E-03 0.  1.
</event>
<event>
 8    1  0.1170483E+005  0.1043930E+01  0.7957747E-01            NaN
         13   -1    0    0    0    0  0.00000000000E+00  0.00000000000E+00  0.74505805969E-08  0.10566000000E+00  0.10566000000E+00 0.  1.
     999900   -1    0    0    0    0 -0.00000000000E+00 -0.00000000000E+00 -0.74505805969E-08  0.93827000000E+00  0.93827000000E+00 0. -1.
     999902    2    1    2    0    0  0.25928005691E-01  0.72586858257E-02 -0.31656012668E-02  0.10168196509E+01  0.10164581798E+01 0.  0.
     999903    2    3    3    0    0 -0.75163846154E-01  0.85286697151E-01  0.50502415368E-01  0.12598398191E+00  0.19951071681E-01 0.  0.
         14    1    1    2    0    0 -0.25928005691E-01 -0.72586858257E-02  0.31656012668E-02  0.27110349138E-01  0.00000000000E+00 0. -1.
     999901    1    3    3    0    0  0.10109185184E+00 -0.78028011325E-01 -0.53668016635E-01  0.89083566895E+00  0.88000000000E+00 0.  1.
        -11    1    4    4    0    0 -0.72046172852E-01  0.83804022331E-01  0.44703458352E-01  0.11921587768E+00  0.51100000000E-03 0. -1.
         11    1    4    4    0    0 -0.31176733027E-02  0.14826748199E-02  0.57989570159E-02  0.67681042335E-02  0.51100000000E-03 0.  1.
</event>
<event>
 8    1  0.1170483E+005  0.1043930E+01  0.7957747E-01            NaN
         13   -1    0    0    0    0  0.00000000000E+00  0.00000000000E+00  0.74505805969E-08  0.10566000000E+00  0.10566000000E+00 0. -1.
     999900   -1    0    0    0    0 -0.00000000000E+00 -0.00000000000E+00 -0.74505805969E-08  0.93827000000E+00  0.93827000000E+00 0.  1.
     999902    2    1    2    0    0 -0.21364078382E-01  0.72201650268E-03  0.98890588251E-02  0.10203771098E+01  0.10201052434E+01 0.  0.
     999903    2    3    3    0    0  0.11727133530E+00  0.46949682276E-02  0.48947616023E-01  0.12865903037E+00  0.19561906140E-01 0.  0.
         14    1    1    2    0    0  0.21364078382E-01 -0.72201650268E-03 -0.98890588251E-02  0.23552890213E-01  0.00000000000E+00 0. -1.
     999901    1    3    3    0    0 -0.13863541368E+00 -0.39729517249E-02 -0.39058557198E-01  0.89171807942E+00  0.88000000000E+00 0.  1.
        -11    1    4    4    0    0  0.82235505078E-01  0.90999024925E-02  0.41514175267E-01  0.92569835205E-01  0.51100000000E-03 0.  1.
         11    1    4    4    0    0  0.35035830220E-01 -0.44049342649E-02  0.74334407564E-02  0.36089195164E-01  0.51100000000E-03 0. -1.
</event>
<event>
 8    1  0.1170483E+005  0.1043930E+01  0.7957747E-01            NaN
         13   -1    0    0    0    0  0.00000000000E+00  0.00000000000E+00  0.74505805969E-08  0.10566000000E+00  0.10566000000E+00 0.  1.
     999900   -1    0    0    0    0 -0.00000000000E+00 -0.00000000000E+00 -0.74505805969E-08  0.93827000000E+00  0.93827000000E+00 0.  1.
     999902    2    1    2    0    0 -0.74308570711E-02  0.27884790487E-01 -0.97794742903E-03  0.10150555206E+01  0.10146447528E+01 0.  0.
     999903    2    3    3    0    0 -0.35246235265E-01  0.68462734983E-01  0.10060387209E+00  0.12784690317E+00  0.17153669854E-01 0.  0.
         14    1    1    2    0    0  0.74308570711E-02 -0.27884790487E-01  0.97794742903E-03  0.28874479363E-01  0.00000000000E+00 0.  1.
     999901    1    3    3    0    0  0.27815378194E-01 -0.40577944496E-01 -0.10158181952E+00  0.88720861746E+00  0.88000000000E+00 0.  1.
        -11    1    4    4    0    0 -0.82084112205E-02  0.31840691683E-01  0.35340993795E-01  0.48274782496E-01  0.51100000000E-03 0.  1.
         11    1    4    4    0    0 -0.27037824045E-01  0.36622043300E-01  0.65262878297E-01  0.79572120678E-01  0.51100000000E-03 0. -1.
</event>
<event>
 7    1  0.1170483E+005  0.1043930E+01  0.7957747E-01            NaN
         13   -1    0    0    0    0  0.00000000000E+00  0.00000000000E+00  0.74505805969E-08  0.10566000000E+00  0.10566000000E+00 0. -1.
     999900   -1    0    0    0    0 -0.00000000000E+00 -0.00000000000E+00 -0.74505805969E-08  0.93827000000E+00  0.93827000000E+00 0.  1.
     999902    2    1    2    0    0 -0.16420542525E-02  0.21265601023E-01  0.10931629574E-01  0.10199628839E+01  0.10196812550E+01 0.  0.
         14    1    1    2    0    0  0.16420542525E-02 -0.21265601023E-01 -0.10931629574E-01  0.23967116101E-01  0.00000000000E+00 0.  1.
     999901    1    3    3    0    0  0.65559167694E-01  0.56032087061E-01 -0.84013721458E-01  0.88819812240E+00  0.88000000000E+00 0.  1.
        -11    1    3    3    0    0 -0.36452655819E-01 -0.41906776715E-01  0.40190667518E-01  0.68560374324E-01  0.51100000000E-03 0. -1.
         11    1    3    3    0    0 -0.30748566127E-01  0.71402906777E-02  0.54754683515E-01  0.63204387171E-01  0.51100000000E-03 0.  1.
</event>
<event>
 8    1  0.1170483E+005  0.1043930E+01  0.7957747E-01            NaN
         13   -1    0    0    0    0  0.00000000000E+00  0.00000000000E+00  0.74505805969E-08  0.10566000000E+00  0.10566000000E+00 0. -1.
     999900   -1    0    0    0    0 -0.00000000000E+00 -0.00000000000E+00 -0.74505805969E-08  0.93827000000E+00  0.93827000000E+00 0. -1.
     999902    2    1    2    0    0  0.10055720986E-01 -0.14242951512E-01 -0.16166703990E-01  0.10201530887E+01  0.10198759645E+01 0.  0.
     999903    2    3    3    0    0  0.34124579082E-03  0.64638855994E-01  0.10835541397E+00  0.12784010078E+00  0.20588770673E-01 0.  0.
         14    1    1    2    0    0 -0.10055720986E-01  0.14242951512E-01  0.16166703990E-01  0.23776911284E-01  0.00000000000E+00 0. -1.
     999901    1    3    3    0    0  0.97144751952E-02 -0.78881807505E-01 -0.12452211796E+00  0.89231298794E+00  0.88000000000E+00 0. -1.
        -11    1    4    4    0    0 -0.98328259461E-02  0.39615267508E-01  0.65591551526E-01  0.77256499005E-01  0.51100000000E-03 0. -1.
         11    1    4    4    0    0  0.10174071737E-01  0.25023588485E-01  0.42763862441E-01  0.50583601772E-01  0.51100000000E-03 0.  1.
</event>
<event>
 8    1  0.1170483E+005  0.1043930E+01  0.7957747E-01            NaN
         13   -1    0    0    0    0  0.00000000000E+00  0.00000000000E+00  0.74505805969E-08  0.10566000000E+00  0.10566000000E+00 0. -1.
     999900   -1    0    0    0    0 -0.00000000000E+00 -0.00000000000E+00 -0.74505805969E-08  0.93827000000E+00  0.93827000000E+00 0. -1.
     999902    2    1    2    0    0 -0.58591130807E-02  0.18857427129E-01 -0.13857495423E-01  0.10198061126E+01  0.10195207430E+01 0.  0.
     999903    2    3    3    0    0 -0.53725795874E-01  0.13229911604E-02  0.11542806498E+00  0.12890015129E+00  0.20084804467E-01 0.  0.
         14    1    1    2    0    0  0.58591130807E-02 -0.18857427129E-01  0.13857495423E-01  0.24123887402E-01  0.00000000000E+00 0. -1.
     999901    1    3    3    0    0  0.47866682793E-01  0.17534435968E-01 -0.12928556040E+00  0.89090596131E+00  0.88000000000E+00 0. -1.
        -11    1    4    4    0    0 -0.40137645889E-01  0.97338968395E-02  0.80101137913E-01  0.90123430811E-01  0.51100000000E-03 0.  1.
         11    1    4    4    0    0 -0.13588149985E-01 -0.84109056791E-02  0.35326927063E-01  0.38776720479E-01  0.51100000000E-03 0. -1.
</event>
<event>
 8    1  0.1170483E+005  0.1043930E+01  0.7957747E-01            NaN
         13   -1    0    0    0    0  0.00000000000E+00  0.00000000000E+00  0.74505805969E-08  0.10566000000E+00  0.10566000000E+00 0. -1.
     999900   -1    0    0    0    0 -0.00000000000E+00 -0.00000000000E+00 -0.74505805969E-08  0.93827000000E+00  0.93827000000E+00 0.  1.
     999902    2    1    2    0    0  0.52312386627E-02 -0.84639421206E-02 -0.21371160536E-01  0.10203560594E+01  0.10200837011E+01 0.  0.
     999903    2    3    3    0    0  0.11073905675E+00 -0.65007026320E-01  0.18843190965E-01  0.13134187832E+00  0.20163605687E-01 0.  0.
         14    1    1    2    0    0 -0.52312386627E-02  0.84639421206E-02  0.21371160536E-01  0.23573940630E-01  0.00000000000E+00 0. -1.
     999901    1    3    3    0    0 -0.10550781808E+00  0.56543084199E-01 -0.40214351501E-01  0.88901418105E+00  0.88000000000E+00 0. -1.
        -11    1    4    4    0    0  0.56377119266E-01 -0.24587872689E-01  0.20212054642E-02  0.61540957521E-01  0.51100000000E-03 0.  1.
         11    1    4    4    0    0  0.54361937480E-01 -0.40419153631E-01  0.16821985501E-01  0.69800920796E-01  0.51100000000E-03 0. -1.
</event>
<event>
 8    1  0.1170483E+005  0.1043930E+01  0.7957747E-01            NaN
         13   -1    0    0    0    0  0.00000000000E+00  0.00000000000E+00  0.74505805969E-08  0.10566000000E+00  0.10566000000E+00 0. -1.
     999900   -1    0    0    0    0 -0.00000000000E+00 -0.00000000000E+00 -0.74505805969E-08  0.93827000000E+00  0.93827000000E+00 0.  1.
     999902    2    1    2    0    0 -0.14370729876E-01 -0.76027629093E-03  0.19606497225E-02  0.10294062249E+01  0.10293037626E+01 0.  0.
     999903    2    3    3    0    0  0.74967004389E-01  0.88551184344E-01  0.70320126982E-01  0.13776123614E+00  0.23913885680E-01 0.  0.
         14    1    1    2    0    0  0.14370729876E-01  0.76027629093E-03 -0.19606497225E-02  0.14523775148E-01  0.00000000000E+00 0.  1.
     999901    1    3    3    0    0 -0.89337734265E-01 -0.89311460635E-01 -0.68359477259E-01  0.89164498871E+00  0.88000000000E+00 0.  1.
        -11    1    4    4    0    0  0.38364103500E-01  0.37334352012E-01  0.19929106146E-01  0.57123451141E-01  0.51100000000E-03 0.  1.
         11    1    4    4    0    0  0.36602900889E-01  0.51216832332E-01  0.50391020836E-01  0.80637784998E-01  0.51100000000E-03 0. -1.
</event>
<event>
 8    1  0.1170483E+005  0.1043930E+01  0.7957747E-01            NaN
         13   -1    0    0    0    0  0.00000000000E+00  0.00000000000E+00  0.74505805969E-08  0.10566000000E+00  0.10566000000E+00 0. -1.
     999900   -1    0    0    0    0 -0.00000000000E+00 -0.00000000000E+00 -0.74505805969E-08  0.93827000000E+00  0.93827000000E+00 0.  1.
     999902    2    1    2    0    0 -0.47789481141E-02  0.20236758342E-01  0.11287532800E-01  0.10202704749E+01  0.10199961121E+01 0.  0.
     999903    2    3    3    0    0  0.76845598826E-01 -0.97526866874E-01  0.26537998002E-01  0.12855111610E+00  0.20109408060E-01 0.  0.
         14    1    1    2    0    0  0.47789481141E-02 -0.20236758342E-01 -0.11287532800E-01  0.23659525142E-01  0.00000000000E+00 0.  1.
     999901    1    3    3    0    0 -0.81624546940E-01  0.11776362522E+00 -0.15250465202E-01  0.89171935875E+00  0.88000000000E+00 0. -1.
        -11    1    4    4    0    0  0.72711233920E-01 -0.88548174512E-01  0.29320495966E-01  0.11826941850E+00  0.51100000000E-03 0.  1.
         11    1    4    4    0    0  0.41343649060E-02 -0.89786923612E-02 -0.27824979647E-02  0.10281697604E-01  0.51100000000E-03 0. -1.
</event>
<event>
 8    1  0.1170483E+005  0.1043930E+01  0.7957747E-01            NaN
         13   -1    0    0    0    0  0.00000000000E+00  0.00000000000E+00  0.74505805969E-08  0.10566000000E+00  0.10566000000E+00 0.  1.
     999900   -1    0    0    0    0 -0.00000000000E+00 -0.00000000000E+00 -0.74505805969E-08  0.93827000000E+00  0.93827000000E+00 0. -1.
     999902    2    1    2    0    0 -0.30342469929E-02  0.12865610859E-01  0.19135833711E-01  0.10206725124E+01  0.10204075004E+01 0.  0.
     999903    2    3    3    0    0 -0.55943554524E-01 -0.26241444340E-01  0.11606614428E+00  0.13290889426E+00  0.19368263524E-01 0.  0.
         14    1    1    2    0    0  0.30342469929E-02 -0.12865610859E-01 -0.19135833711E-01  0.23257487598E-01  0.00000000000E+00 0. -1.
     999901    1    3    3    0    0  0.52909307531E-01  0.39107055199E-01 -0.96930310567E-01  0.88776361814E+00  0.88000000000E+00 0. -1.
        -11    1    4    4    0    0 -0.30319972173E-01 -0.15697532011E-01  0.43982127938E-01  0.55681252884E-01  0.51100000000E-03 0.  1.
         11    1    4    4    0    0 -0.25623582351E-01 -0.10543912329E-01  0.72084016340E-01  0.77227641376E-01  0.51100000000E-03 0. -1.
</event>
<event>
 8    1  0.1170483E+005  0.1043930E+01  0.7957747E-01            NaN
         13   -1    0    0    0    0  0.00000000000E+00  0.00000000000E+00  0.74505805969E-08  0.10566000000E+00  0.10566000000E+00 0. -1.
     999900   -1    0    0    0    0 -0.00000000000E+00 -0.00000000000E+00 -0.74505805969E-08  0.93827000000E+00  0.93827000000E+00 0. -1.
     999902    2    1    2    0    0 -0.90157470131E-02  0.94257310648E-02 -0.19680984170E-01  0.10203192135E+01  0.10200459932E+01 0.  0.
     999903    2    3    3    0    0 -0.11682330724E+00  0.16762410305E-01  0.52597437610E-01  0.13076850268E+00  0.20130755943E-01 0.  0.
         14    1    1    2    0    0  0.90157470131E-02 -0.94257310648E-02  0.19680984170E-01  0.23610786480E-01  0.00000000000E+00 0. -1.
     999901    1    3    3    0    0  0.10780756023E+00 -0.73366792397E-02 -0.72278421780E-01  0.88955071084E+00  0.88000000000E+00 0. -1.
        -11    1    4    4    0    0 -0.17496046133E-01  0.99849944448E-02  0.81220275863E-02  0.21726486082E-01  0.51100000000E-03 0. -1.
         11    1    4    4    0    0 -0.99327261111E-01  0.67774158597E-02  0.44475410024E-01  0.10904201660E+00  0.51100000000E-03 0.  1.
</event>
<event>
 8    1  0.1170483E+005  0.1043930E+01  0.7957747E-01            NaN
         13   -1    0    0    0    0  0.00000000000E+00  0.00000000000E+00  0.74505805969E-08  0.10566000000E+00  0.10566000000E+00 0.  1.
     999900   -1    0    0    0    0 -0.00000000000E+00 -0.00000000000E+00 -0.74505805969E-08  0.93827000000E+00  0.93827000000E+00 0.  1.
     999902    2    1    2    0    0  0.21106630199E-01 -0.10413297627E-01 -0.33607960339E-02  0.10201556113E+01  0.10198785466E+01 0.  0.
     999903    2    3    3    0    0  0.53095025456E-01  0.17307114795E-01 -0.11764322613E+00  0.13175696630E+00  0.20033760602E-01 0.  0.
         14    1    1    2    0    0 -0.21106630199E-01  0.10413297627E-01  0.33607960339E-02  0.23774388653E-01  0.00000000000E+00 0. -1.
     999901    1    3    3    0    0 -0.31988395257E-01 -0.27720412422E-01  0.11428243009E+00  0.88839864505E+00  0.88000000000E+00 0. -1.
        -11    1    4    4    0    0  0.32162338609E-01  0.14494182390E-01 -0.52336285777E-01  0.63117709701E-01  0.51100000000E-03 0. -1.
         11    1    4    4    0    0  0.20932686847E-01  0.28129324040E-02 -0.65306940350E-01  0.68639256598E-01  0.51100000000E-03 0.  1.
</event>
<event>
 8    1  0.1170483E+005  0.1043930E+01  0.7957747E-01            NaN
         13   -1    0    0    0    0  0.00000000000E+00  0.00000000000E+00  0.74505805969E-08  0.10566000000E+00  0.10566000000E+00 0. -1.
     999900   -1    0    0    0    0 -0.00000000000E+00 -0.00000000000E+00 -0.74505805969E-08  0.93827000000E+00  0.93827000000E+00 0. -1.
     999902    2    1    2    0    0 -0.14197025202E-01  0.14012176901E-01  0.12481681714E-01  0.10203994028E+01  0.10201280568E+01 0.  0.
     999903    2    3    3    0    0 -0.88671475017E-01 -0.42548178044E-01 -0.82879443100E-01  0.13032116941E+00  0.21014927366E-01 0.  0.
         14    1    1    2    0    0  0.14197025202E-01 -0.14012176901E-01 -0.12481681714E-01  0.23530597198E-01  0.00000000000E+00 0.  1.
     999901    1    3    3    0    0  0.74474449815E-01  0.56560354945E-01  0.95361124814E-01  0.89007823339E+00  0.88000000000E+00 0.  1.
        -11    1    4    4    0    0 -0.41459430994E-01 -0.29191028578E-01 -0.33929370339E-01  0.61011997676E-01  0.51100000000E-03 0. -1.
         11    1    4    4    0    0 -0.47212044023E-01 -0.13357149466E-01 -0.48950072761E-01  0.69309171738E-01  0.51100000000E-03 0.  1.
</event>
<event>
 8    1  0.1170483E+005  0.1043930E+01  0.7957747E-01            NaN
         13   -1    0    0    0    0  0.00000000000E+00  0.00000000000E+00  0.74505805969E-08  0.10566000000E+00  0.10566000000E+00 0. -1.
     999900   -1    0    0    0    0 -0.00000000000E+00 -0.00000000000E+00 -0.74505805969E-08  0.93827000000E+00  0.93827000000E+00 0. -1.
     999902    2    1    2    0    0 -0.93252830075E-02 -0.61884118951E-02  0.21337359067E-01  0.10198355974E+01  0.10195509332E+01 0.  0.
     999903    2    3    3    0    0 -0.48589560700E-01  0.45168455151E-01  0.11322365324E+00  0.13269282289E+00  0.19663540983E-01 0.  0.
         14    1    1    2    0    0  0.93252830075E-02  0.61884118951E-02 -0.21337359067E-01  0.24094402605E-01  0.00000000000E+00 0. -1.
     999901    1    3    3    0    0  0.39264277692E-01 -0.51356867046E-01 -0.91886294175E-01  0.88714277450E+00  0.88000000000E+00 0. -1.
        -11    1    4    4    0    0 -0.36479202810E-01  0.30410362172E-01  0.62539714322E-01  0.78530244833E-01  0.51100000000E-03 0. -1.
         11    1    4    4    0    0 -0.12110357890E-01  0.14758092979E-01  0.50683938919E-01  0.54162578059E-01  0.51100000000E-03 0.  1.
</event>
<event>
 8    1  0.1170483E+005  0.1043930E+01  0.7957747E-01            NaN
         13   -1    0    0    0    0  0.00000000000E+00  0.00000000000E+00  0.74505805969E-08  0.10566000000E+00  0.10566000000E+00 0.  1.
     999900   -1    0    0    0    0 -0.00000000000E+00 -0.00000000000E+00 -0.74505805969E-08  0.93827000000E+00  0.93827000000E+00 0. -1.
     999902    2    1    2    0    0  0.22701138696E-01  0.61487181893E-02 -0.60008415502E-03  0.10204032379E+01  0.10201319814E+01 0.  0.
     999903    2    3    3    0    0  0.61372476547E-01  0.99279718208E-01  0.59856457076E-01  0.13258352146E+00  0.19301590211E-01 0.  0.
         14    1    1    2    0    0 -0.22701138696E-01 -0.61487181893E-02  0.60008415502E-03  0.23526762090E-01  0.00000000000E+00 0. -1.
     999901    1    3    3    0    0 -0.38671337851E-01 -0.93131000019E-01 -0.60456541231E-01  0.88781971645E+00  0.88000000000E+00 0. -1.
        -11    1    4    4    0    0  0.52287669153E-01  0.69285674271E-01  0.40932760739E-01  0.95970084023E-01  0.51100000000E-03 0. -1.
         11    1    4    4    0    0  0.90848073938E-02  0.29994043936E-01  0.18923696337E-01  0.36613437439E-01  0.51100000000E-03 0.  1.
</event>
<event>
 8    1  0.1170483E+005  0.1043930E+01  0.7957747E-01            NaN
         13   -1    0    0    0    0  0.00000000000E+00  0.00000000000E+00  0.74505805969E-08  0.10566000000E+00  0.10566000000E+00 0.  1.
     999900   -1    0    0    0    0 -0.00000000000E+00 -0.00000000000E+00 -0.74505805969E-08  0.93827000000E+00  0.93827000000E+00 0. -1.
     999902    2    1    2    0    0  0.10143408190E-01  0.19484344929E-01 -0.16324634573E-01  0.10165617315E+01  0.10161932552E+01 0.  0.
     999903    2    3    3    0    0  0.35367571690E-02  0.80291514102E-01 -0.10094190278E+00  0.13038948992E+00  0.18786044204E-01 0.  0.
         14    1    1    2    0    0 -0.10143408190E-01 -0.19484344929E-01  0.16324634573E-01  0.27368268505E-01  0.00000000000E+00 0.  1.
     999901    1    3    3    0    0  0.66066510207E-02 -0.60807169173E-01  0.84617268205E-01  0.88617224158E+00  0.88000000000E+00 0.  1.
        -11    1    4    4    0    0 -0.31894974400E-02  0.28200827126E-01 -0.48309424328E-01  0.56031429969E-01  0.51100000000E-03 0.  1.
         11    1    4    4    0    0  0.67262546090E-02  0.52090686976E-01 -0.52632478450E-01  0.74358059950E-01  0.51100000000E-03 0. -1.
</event>
<event>
 8    1  0.1170483E+005  0.1043930E+01  0.7957747E-01            NaN
         13   -1    0    0    0    0  0.00000000000E+00  0.00000000000E+00  0.74505805969E-08  0.10566000000E+00  0.10566000000E+00 0. -1.
     999900   -1    0    0    0    0 -0.00000000000E+00 -0.00000000000E+00 -0.74505805969E-08  0.93827000000E+00  0.93827000000E+00 0.  1.
     999902    2    1    2    0    0 -0.74403271463E-02 -0.94380842004E-02  0.20238504471E-01  0.10203920952E+01  0.10201205786E+01 0.  0.
     999903    2    3    3    0    0 -0.56010359906E-01 -0.10413581423E+00 -0.53318125795E-01  0.13093311014E+00  0.17866968735E-01 0.  0.
         14    1    1    2    0    0  0.74403271463E-02  0.94380842004E-02 -0.20238504471E-01  0.23537904848E-01  0.00000000000E+00 0.  1.
     999901    1    3    3    0    0  0.48570032760E-01  0.94697730028E-01  0.73556630266E-01  0.88945898501E+00  0.88000000000E+00 0. -1.
        -11    1    4    4    0    0 -0.18222004455E-01 -0.52621753409E-01 -0.24194881331E-01  0.60718562087E-01  0.51100000000E-03 0. -1.
         11    1    4    4    0    0 -0.37788355451E-01 -0.51514060819E-01 -0.29123244464E-01  0.70214548057E-01  0.51100000000E-03 0.  1.
</event>
<event>
 8    1  0.1170483E+005  0.1043930E+01  0.7957747E-01            NaN
         13   -1    0    0    0    0  0.00000000000E+00  0.00000000000E+00  0.74505805969E-08  0.10566000000E+00  0.10566000000E+00 0.  1.
     999900   -1    0    0    0    0 -0.00000000000E+00 -0.00000000000E+00 -0.74505805969E-08  0.93827000000E+00  0.93827000000E+00 0. -1.
     999902    2    1    2    0    0  0.17559021316E-01  0.13481757254E-01 -0.91854103867E-02  0.10199623390E+01  0.10196806972E+01 0.  0.
     999903    2    3    3    0    0  0.21919006201E-01 -0.34714197964E-03 -0.12843592317E+00  0.13180079251E+00  0.19877102546E-01 0.  0.
         14    1    1    2    0    0 -0.17559021316E-01 -0.13481757254E-01  0.91854103867E-02  0.23967660967E-01  0.00000000000E+00 0.  1.
     999901    1    3    3    0    0 -0.43599848850E-02  0.13828899234E-01  0.11925051278E+00  0.88816154652E+00  0.88000000000E+00 0.  1.
        -11    1    4    4    0    0  0.74811532849E-02 -0.20627196274E-02 -0.95237762673E-01  0.95554775008E-01  0.51100000000E-03 0. -1.
         11    1    4    4    0    0  0.14437852916E-01  0.17155776478E-02 -0.33198160497E-01  0.36246017503E-01  0.51100000000E-03 0.  1.
</event>
<event>
 8    1  0.1267226E+005  0.1043930E+01  0.7957747E-01            NaN
         13   -1    0    0    0    0  0.00000000000E+00  0.00000000000E+00  0.74505805969E-08  0.10566000000E+00  0.10566000000E+00 0.  1.
     999900   -1    0    0    0    0 -0.00000000000E+00 -0.00000000000E+00 -0.74505805969E-08  0.93827000000E+00  0.93827000000E+00 0. -1.
     999902    2    1    2    0    0  0.24394711501E-01  0.15080638126E-02  0.59152564685E-02  0.10187831023E+01  0.10184727012E+01 0.  0.
     999903    2    3    3    0    0  0.64114862491E-01  0.72805237954E-01  0.86368929296E-01  0.13135210727E+00  0.19556734681E-01 0.  0.
         14    1    1    2    0    0 -0.24394711501E-01 -0.15080638126E-02 -0.59152564685E-02  0.25146897716E-01  0.00000000000E+00 0.  1.
     999901    1    3    3    0    0 -0.39720150990E-01 -0.71297174142E-01 -0.80453672827E-01  0.88743099501E+00  0.88000000000E+00 0. -1.
        -11    1    4    4    0    0  0.13070709255E-01  0.20990185395E-01  0.32498127230E-01  0.40838960782E-01  0.51100000000E-03 0. -1.
         11    1    4    4    0    0  0.51044153236E-01  0.51815052560E-01  0.53870802066E-01  0.90513146490E-01  0.51100000000E-03 0.  1.
</event>
<event>
 8    1  0.1170483E+005  0.1043930E+01  0.7957747E-01            NaN
         13   -1    0    0    0    0  0.00000000000E+00  0.00000000000E+00  0.74505805969E-08  0.10566000000E+00  0.10566000000E+00 0.  1.
     999900   -1    0    0    0    0 -0.00000000000E+00 -0.00000000000E+00 -0.74505805969E-08  0.93827000000E+00  0.93827000000E+00 0. -1.
     999902    2    1    2    0    0  0.20881574278E-02 -0.22738606675E-01 -0.24976079288E-02  0.10209595259E+01  0.10207010879E+01 0.  0.
     999903    2    3    3    0    0  0.34695005773E-01 -0.11781271943E+00  0.48915938878E-01  0.13374723661E+00  0.20297141129E-01 0.  0.
         14    1    1    2    0    0 -0.20881574278E-02  0.22738606675E-01  0.24976079288E-02  0.22970474099E-01  0.00000000000E+00 0. -1.
     999901    1    3    3    0    0 -0.32606848345E-01  0.95074112759E-01 -0.51413546807E-01  0.88721228929E+00  0.88000000000E+00 0.  1.
        -11    1    4    4    0    0  0.33563573657E-01 -0.82632007204E-01  0.32783258527E-01  0.95024024603E-01  0.51100000000E-03 0.  1.
         11    1    4    4    0    0  0.11314321155E-02 -0.35180712231E-01  0.16132680351E-01  0.38723212005E-01  0.51100000000E-03 0. -1.
</event>
<event>
 8    1  0.1170483E+005  0.1043930E+01  0.7957747E-01            NaN
         13   -1    0    0    0    0  0.00000000000E+00  0.00000000000E+00  0.74505805969E-08  0.10566000000E+00  0.10566000000E+00 0. -1.
     999900   -1    0    0    0    0 -0.00000000000E+00 -0.00000000000E+00 -0.74505805969E-08  0.93827000000E+00  0.93827000000E+00 0. -1.
     999902    2    1    2    0    0  0.20260334248E-01 -0.63615474834E-02  0.85628302164E-02  0.10210330026E+01  0.10207762340E+01 0.  0.
     999903    2    3    3    0    0 -0.84913747478E-01  0.29548851615E-01  0.91690632422E-01  0.13015625703E+00  0.21213204103E-01 0.  0.
         14    1    1    2    0    0 -0.20260334248E-01  0.63615474834E-02 -0.85628302164E-02  0.22896997435E-01  0.00000000000E+00 0.  1.
     999901    1    3    3    0    0  0.10517408173E+00 -0.35910399099E-01 -0.83127802206E-01  0.89087674553E+00  0.88000000000E+00 0. -1.
        -11    1    4    4    0    0 -0.45679637804E-01  0.20349778918E-01  0.64164712377E-01  0.81351793142E-01  0.51100000000E-03 0.  1.
         11    1    4    4    0    0 -0.39234109673E-01  0.91990726977E-02  0.27525920045E-01  0.48804463891E-01  0.51100000000E-03 0. -1.
</event>
<event>
 8    1  0.1170483E+005  0.1043930E+01  0.7957747E-01            NaN
         13   -1    0    0    0    0  0.00000000000E+00  0.00000000000E+00  0.74505805969E-08  0.10566000000E+00  0.10566000000E+00 0. -1.
     999900   -1    0    0    0    0 -0.00000000000E+00 -0.00000000000E+00 -0.74505805969E-08  0.93827000000E+00  0.93827000000E+00 0. -1.
     999902    2    1    2    0    0 -0.15518897082E-01 -0.15535977278E-01  0.64010807903E-02  0.10210569462E+01  0.10208007204E+01 0.  0.
     999903    2    3    3    0    0 -0.10206539578E+00 -0.86346704456E-01 -0.29257632956E-02  0.13393156295E+00  0.74836538964E-02 0.  0.
         14    1    1    2    0    0  0.15518897082E-01  0.15535977278E-01 -0.64010807903E-02  0.22873053839E-01  0.00000000000E+00 0.  1.
     999901    1    3    3    0    0  0.86546498702E-01  0.70810727178E-01  0.93268440860E-02  0.88712538321E+00  0.88000000000E+00 0. -1.
        -11    1    4    4    0    0 -0.33745970227E-01 -0.25359948051E-01 -0.33549342613E-02  0.42348957208E-01  0.51100000000E-03 0.  1.
         11    1    4    4    0    0 -0.68319425558E-01 -0.60986756405E-01  0.42917096565E-03  0.91582605740E-01  0.51100000000E-03 0. -1.
</event>
<event>
 8    1  0.1170483E+005  0.1043930E+01  0.7957747E-01            NaN
         13   -1    0    0    0    0  0.00000000000E+00  0.00000000000E+00  0.74505805969E-08  0.10566000000E+00  0.10566000000E+00 0.  1.
     999900   -1    0    0    0    0 -0.00000000000E+00 -0.00000000000E+00 -0.74505805969E-08  0.93827000000E+00  0.93827000000E+00 0. -1.
     999902    2    1    2    0    0  0.16446694661E-01 -0.46367971670E-02 -0.16370840536E-01  0.10202657216E+01  0.10199912473E+01 0.  0.
     999903    2    3    3    0    0  0.16962523488E-01  0.89988235324E-01 -0.92715594396E-01  0.13190617483E+00  0.20431539721E-01 0.  0.
         14    1    1    2    0    0 -0.16446694661E-01  0.46367971670E-02  0.16370840536E-01  0.23664278419E-01  0.00000000000E+00 0.  1.
     999901    1    3    3    0    0 -0.51582882739E-03 -0.94625032491E-01  0.76344753860E-01  0.88835954675E+00  0.88000000000E+00 0.  1.
        -11    1    4    4    0    0  0.96445891304E-02  0.30361118779E-01 -0.20143063251E-01  0.37693762762E-01  0.51100000000E-03 0. -1.
         11    1    4    4    0    0  0.73179343580E-02  0.59627116545E-01 -0.72572531145E-01  0.94212412073E-01  0.51100000000E-03 0.  1.
</event>
<event>
 8    1  0.1170483E+005  0.1043930E+01  0.7957747E-01            NaN
         13   -1    0    0    0    0  0.00000000000E+00  0.00000000000E+00  0.74505805969E-08  0.10566000000E+00  0.10566000000E+00 0.  1.
     999900   -1    0    0    0    0 -0.00000000000E+00 -0.00000000000E+00 -0.74505805969E-08  0.93827000000E+00  0.93827000000E+00 0. -1.
     999902    2    1    2    0    0  0.18513746882E-01 -0.21686374815E-02  0.15522257459E-01  0.10196729951E+01  0.10193844292E+01 0.  0.
     999903    2    3    3    0    0 -0.10582452247E+00 -0.45865894016E-01  0.54062450589E-01  0.12902446621E+00  0.20543965720E-01 0.  0.
         14    1    1    2    0    0 -0.18513746882E-01  0.21686374815E-02 -0.15522257459E-01  0.24257004942E-01  0.00000000000E+00 0. -1.
     999901    1    3    3    0    0  0.12433826935E+00  0.43697256534E-01 -0.38540193130E-01  0.89064852885E+00  0.88000000000E+00 0.  1.
        -11    1    4    4    0    0 -0.35577321519E-01 -0.78034872057E-02  0.24178550394E-01  0.43720746096E-01  0.51100000000E-03 0.  1.
         11    1    4    4    0    0 -0.70247200949E-01 -0.38062406810E-01  0.29883900196E-01  0.85303720114E-01  0.51100000000E-03 0. -1.
</event>
<event>
 8    1  0.1170483E+005  0.1043930E+01  0.7957747E-01            NaN
         13   -1    0    0    0    0  0.00000000000E+00  0.00000000000E+00  0.74505805969E-08  0.10566000000E+00  0.10566000000E+00 0.  1.
     999900   -1    0    0    0    0 -0.00000000000E+00 -0.00000000000E+00 -0.74505805969E-08  0.93827000000E+00  0.93827000000E+00 0.  1.
     999902    2    1    2    0    0  0.21341095837E-01 -0.10800625051E-01  0.64720452358E-02  0.10191513148E+01  0.10188500474E+01 0.  0.
     999903    2    3    3    0    0 -0.61329814096E-01  0.10915320184E+00  0.94599227556E-02  0.12716906866E+00  0.20167159335E-01 0.  0.
         14    1    1    2    0    0 -0.21341095837E-01  0.10800625051E-01 -0.64720452358E-02  0.24778685247E-01  0.00000000000E+00 0. -1.
     999901    1    3    3    0    0  0.82670909933E-01 -0.11995382689E+00 -0.29878775198E-02  0.89198224609E+00  0.88000000000E+00 0.  1.
        -11    1    4    4    0    0  0.25869962489E-03  0.79775516854E-02 -0.17647022263E-02  0.81904548919E-02  0.51100000000E-03 0.  1.
         11    1    4    4    0    0 -0.61588513720E-01  0.10117565016E+00  0.11224624982E-01  0.11897861377E+00  0.51100000000E-03 0. -1.
</event>
<event>
 8    1  0.1170483E+005  0.1043930E+01  0.7957747E-01            NaN
         13   -1    0    0    0    0  0.00000000000E+00  0.00000000000E+00  0.74505805969E-08  0.10566000000E+00  0.10566000000E+00 0. -1.
     999900   -1    0    0    0    0 -0.00000000000E+00 -0.00000000000E+00 -0.74505805969E-08  0.93827000000E+00  0.93827000000E+00 0. -1.
     999902    2    1    2    0    0  0.81442161732E-02 -0.80468393697E-02 -0.19545786551E-01  0.10212778996E+01  0.10210266552E+01 0.  0.
     999903    2    3    3    0    0 -0.54799559265E-01 -0.26784320865E-02 -0.11974942430E+00  0.13334124212E+00  0.20731534813E-01 0.  0.
         14    1    1    2    0    0 -0.81442161732E-02  0.80468393697E-02  0.19545786551E-01  0.22652100406E-01  0.00000000000E+00 0. -1.
     999901    1    3    3    0    0  0.62943775438E-01 -0.53684072832E-02  0.10020363775E+00  0.88793665747E+00  0.88000000000E+00 0. -1.
        -11    1    4    4    0    0 -0.31773112264E-01  0.13971808107E-02 -0.45656316210E-01  0.55643895514E-01  0.51100000000E-03 0.  1.
         11    1    4    4    0    0 -0.23026447001E-01 -0.40756128972E-02 -0.74093108094E-01  0.77697346608E-01  0.51100000000E-03 0. -1.
</event>
<event>
 8    1  0.1170483E+005  0.1043930E+01  0.7957747E-01            NaN
         13   -1    0    0    0    0  0.00000000000E+00  0.00000000000E+00  0.74505805969E-08  0.10566000000E+00  0.10566000000E+00 0. -1.
     999900   -1    0    0    0    0 -0.00000000000E+00 -0.00000000000E+00 -0.74505805969E-08  0.93827000000E+00  0.93827000000E+00 0.  1.
     999902    2    1    2    0    0 -0.11393059267E-01 -0.18583046708E-02 -0.20648454503E-01  0.10202738429E+01  0.10199995592E+01 0.  0.
     999903    2    3    3    0    0 -0.10753758340E+00  0.73011471900E-01  0.56608742069E-02  0.13148734787E+00  0.19022888333E-01 0.  0.
         14    1    1    2    0    0  0.11393059267E-01  0.18583046708E-02  0.20648454503E-01  0.23656157107E-01  0.00000000000E+00 0. -1.
     999901    1    3    3    0    0  0.96144524129E-01 -0.74869776571E-01 -0.26309328710E-01  0.88878649503E+00  0.88000000000E+00 0. -1.
        -11    1    4    4    0    0 -0.53243353312E-01  0.27655441428E-01 -0.37474618279E-02  0.60116409604E-01  0.51100000000E-03 0.  1.
         11    1    4    4    0    0 -0.54294230084E-01  0.45356030472E-01  0.94083360348E-02  0.71370938263E-01  0.51100000000E-03 0. -1.
</event>
<event>
 8    1  0.1170483E+005  0.1043930E+01  0.7957747E-01            NaN
         13   -1    0    0    0    0  0.00000000000E+00  0.00000000000E+00  0.74505805969E-08  0.10566000000E+00  0.10566000000E+00 0.  1.
     999900   -1    0    0    0    0 -0.00000000000E+00 -0.00000000000E+00 -0.74505805969E-08  0.93827000000E+00  0.93827000000E+00 0.  1.
     999902    2    1    2    0    0  0.85536231585E-02  0.20460079621E-02  0.20819030696E-01  0.10213294987E+01  0.10210794104E+01 0.  0.
     999903    2    3    3    0    0 -0.45217009569E-01 -0.11730506078E+00  0.32934912811E-01  0.13156393797E+00  0.20476963953E-01 0.  0.
         14    1    1    2    0    0 -0.85536231585E-02 -0.20460079621E-02 -0.20819030696E-01  0.22600501252E-01  0.00000000000E+00 0. -1.
     999901    1    3    3    0    0  0.53770632727E-01  0.11935106874E+00 -0.12115882115E-01  0.88976556078E+00  0.88000000000E+00 0.  1.
        -11    1    4    4    0    0 -0.30438549412E-01 -0.10005337617E+00  0.28724297304E-01  0.10845519697E+00  0.51100000000E-03 0. -1.
         11    1    4    4    0    0 -0.14778460156E-01 -0.17251684605E-01  0.42106155072E-02  0.23108740993E-01  0.51100000000E-03 0.  1.
</event>
<event>
 8    1  0.1170483E+005  0.1043930E+01  0.7957747E-01            NaN
         13   -1    0    0    0    0  0.00000000000E+00  0.00000000000E+00  0.74505805969E-08  0.10566000000E+00  0.10566000000E+00 0.  1.
     999900   -1    0    0    0    0 -0.00000000000E+00 -0.00000000000E+00 -0.74505805969E-08  0.93827000000E+00  0.93827000000E+00 0. -1.
     999902    2    1    2    0    0 -0.19832533956E-01 -0.15516916452E-01 -0.13188873443E-01  0.10155037712E+01  0.10151058363E+01 0.  0.
     999903    2    3    3    0    0  0.32207934468E-01  0.13650500557E-01 -0.12039674812E+00  0.12699238866E+00  0.20199074514E-01 0.  0.
         14    1    1    2    0    0  0.19832533956E-01  0.15516916452E-01  0.13188873443E-01  0.28426228769E-01  0.00000000000E+00 0.  1.
     999901    1    3    3    0    0 -0.52040468424E-01 -0.29167417009E-01  0.10720787468E+00  0.88851138257E+00  0.88000000000E+00 0.  1.
        -11    1    4    4    0    0  0.31282638226E-01  0.55406957390E-02 -0.10258133166E+00  0.10738944775E+00  0.51100000000E-03 0. -1.
         11    1    4    4    0    0  0.92529624212E-03  0.81098048178E-02 -0.17815416463E-01  0.19602940904E-01  0.51100000000E-03 0.  1.
</event>
<event>
 8    1  0.1170483E+005  0.1043930E+01  0.7957747E-01            NaN
         13   -1    0    0    0    0  0.00000000000E+00  0.00000000000E+00  0.74505805969E-08  0.10566000000E+00  0.10566000000E+00 0.  1.
     999900   -1    0    0    0    0 -0.00000000000E+00 -0.00000000000E+00 -0.74505805969E-08  0.93827000000E+00  0.93827000000E+00 0.  1.
     999902    2    1    2    0    0 -0.93792380326E-02  0.21779153592E-01 -0.72515233402E-02  0.10191331004E+01  0.10188313846E+01 0.  0.
     999903    2    3    3    0    0  0.87773736283E-01 -0.18226332427E-01  0.88908792675E-01  0.12768150573E+00  0.19009616388E-01 0.  0.
         14    1    1    2    0    0  0.93792380326E-02 -0.21779153592E-01  0.72515233402E-02  0.24796899565E-01  0.00000000000E+00 0.  1.
     999901    1    3    3    0    0 -0.97152974316E-01  0.40005486020E-01 -0.96160316015E-01  0.89145159471E+00  0.88000000000E+00 0.  1.
        -11    1    4    4    0    0  0.28809897737E-01 -0.12389658524E-01  0.22027635957E-01  0.38327427683E-01  0.51100000000E-03 0. -1.
         11    1    4    4    0    0  0.58963838547E-01 -0.58366739039E-02  0.66881156717E-01  0.89354078045E-01  0.51100000000E-03 0.  1.
</event>
<event>
 8    1  0.1185589E+005  0.1043930E+01  0.7957747E-01            NaN
         13   -1    0    0    0    0  0.00000000000E+00  0.00000000000E+00  0.74505805969E-08  0.10566000000E+00  0.10566000000E+00 0.  1.
     999900   -1    0    0    0    0 -0.00000000000E+00 -0.00000000000E+00 -0.74505805969E-08  0.93827000000E+00  0.93827000000E+00 0. -1.
     999902    2    1    2    0    0  0.14034067449E-01 -0.16718900802E-01  0.11238010397E-01  0.10193786340E+01  0.10190829358E+01 0.  0.
     999903    2    3    3    0    0 -0.22355198738E-01 -0.12812463448E+00  0.89733708448E-03  0.13154850067E+00  0.19711061420E-01 0.  0.
         14    1    1    2    0    0 -0.14034067449E-01  0.16718900802E-01 -0.11238010397E-01  0.24551365968E-01  0.00000000000E+00 0.  1.
     999901    1    3    3    0    0  0.36389266188E-01  0.11140573368E+00  0.10340673312E-01  0.88783013337E+00  0.88000000000E+00 0. -1.
        -11    1    4    4    0    0 -0.69513347788E-02 -0.54611252652E-01  0.97706870914E-02  0.55914554623E-01  0.51100000000E-03 0. -1.
         11    1    4    4    0    0 -0.15403863960E-01 -0.73513381828E-01 -0.88733500070E-02  0.75633946043E-01  0.51100000000E-03 0.  1.
</event>
<event>
 8    1  0.1170483E+005  0.1043930E+01  0.7957747E-01            NaN
         13   -1    0    0    0    0  0.00000000000E+00  0.00000000000E+00  0.74505805969E-08  0.10566000000E+00  0.10566000000E+00 0.  1.
     999900   -1    0    0    0    0 -0.00000000000E+00 -0.00000000000E+00 -0.74505805969E-08  0.93827000000E+00  0.93827000000E+00 0. -1.
     999902    2    1    2    0    0  0.90719635088E-02 -0.19293789007E-01  0.99150208302E-02  0.10204170577E+01  0.10201461235E+01 0.  0.
     999903    2    3    3    0    0  0.98537162190E-01  0.52288548415E-01 -0.60729396638E-01  0.13018187165E+00  0.28558632038E-01 0.  0.
         14    1    1    2    0    0 -0.90719635088E-02  0.19293789007E-01 -0.99150208302E-02  0.23512942271E-01  0.00000000000E+00 0.  1.
     999901    1    3    3    0    0 -0.89465198681E-01 -0.71582337422E-01  0.70644417468E-01  0.89023518607E+00  0.88000000000E+00 0.  1.
        -11    1    4    4    0    0  0.57709249001E-01  0.38713244762E-01 -0.23730570668E-01  0.73433465433E-01  0.51100000000E-03 0.  1.
         11    1    4    4    0    0  0.40827913188E-01  0.13575303653E-01 -0.36998825969E-01  0.56748406222E-01  0.51100000000E-03 0. -1.
</event>
<event>
 8    1  0.1170483E+005  0.1043930E+01  0.7957747E-01            NaN
         13   -1    0    0    0    0  0.00000000000E+00  0.00000000000E+00  0.74505805969E-08  0.10566000000E+00  0.10566000000E+00 0. -1.
     999900   -1    0    0    0    0 -0.00000000000E+00 -0.00000000000E+00 -0.74505805969E-08  0.93827000000E+00  0.93827000000E+00 0. -1.
     999902    2    1    2    0    0  0.12605908294E-01 -0.19950499578E-01 -0.41578560026E-02  0.10199671303E+01  0.10196856024E+01 0.  0.
     999903    2    3    3    0    0 -0.94160319040E-01  0.76496995983E-01  0.35482803711E-01  0.12740199061E+00  0.15946215115E-01 0.  0.
         14    1    1    2    0    0 -0.12605908294E-01  0.19950499578E-01  0.41578560026E-02  0.23962869692E-01  0.00000000000E+00 0. -1.
     999901    1    3    3    0    0  0.10676622733E+00 -0.96447495561E-01 -0.39640659714E-01  0.89256513970E+00  0.88000000000E+00 0. -1.
        -11    1    4    4    0    0 -0.65877175341E-01  0.43925807093E-01  0.24530127890E-01  0.82893106197E-01  0.51100000000E-03 0.  1.
         11    1    4    4    0    0 -0.28283143699E-01  0.32571188890E-01  0.10952675821E-01  0.44508884415E-01  0.51100000000E-03 0. -1.
</event>
<event>
 8    1  0.1170483E+005  0.1043930E+01  0.7957747E-01            NaN
         13   -1    0    0    0    0  0.00000000000E+00  0.00000000000E+00  0.74505805969E-08  0.10566000000E+00  0.10566000000E+00 0. -1.
     999900   -1    0    0    0    0 -0.00000000000E+00 -0.00000000000E+00 -0.74505805969E-08  0.93827000000E+00  0.93827000000E+00 0. -1.
     999902    2    1    2    0    0 -0.18475695533E-01 -0.17642146168E-01  0.97946265701E-02  0.10165706989E+01  0.10162024673E+01 0.  0.
     999903    2    3    3    0    0 -0.11587857695E+00 -0.27239204464E-01 -0.46571175343E-01  0.12935227683E+00  0.19832253875E-01 0.  0.
         14    1    1    2    0    0  0.18475695533E-01  0.17642146168E-01 -0.97946265701E-02  0.27359301096E-01  0.00000000000E+00 0. -1.
     999901    1    3    3    0    0  0.97402881415E-01  0.95970582964E-02  0.56365801913E-01  0.88721842207E+00  0.88000000000E+00 0.  1.
        -11    1    4    4    0    0 -0.98571860411E-01 -0.23742687950E-01 -0.46834738302E-01  0.11168652886E+00  0.51100000000E-03 0.  1.
         11    1    4    4    0    0 -0.17306716537E-01 -0.34965165145E-02  0.26356295864E-03  0.17665747973E-01  0.51100000000E-03 0. -1.
</event>
<event>
 8    1  0.1170483E+005  0.1043930E+01  0.7957747E-01            NaN
         13   -1    0    0    0    0  0.00000000000E+00  0.00000000000E+00  0.74505805969E-08  0.10566000000E+00  0.10566000000E+00 0.  1.
     999900   -1    0    0    0    0 -0.00000000000E+00 -0.00000000000E+00 -0.74505805969E-08  0.93827000000E+00  0.93827000000E+00 0. -1.
     999902    2    1    2    0    0  0.23851403247E-01 -0.17400514857E-03 -0.21481126769E-02  0.10199814280E+01  0.10197002399E+01 0.  0.
     999903    2    3    3    0    0  0.12097216357E+00 -0.13204385266E-01  0.49708721326E-01  0.13302519222E+00  0.20399133318E-01 0.  0.
         14    1    1    2    0    0 -0.23851403247E-01  0.17400514857E-03  0.21481126769E-02  0.23948572039E-01  0.00000000000E+00 0.  1.
     999901    1    3    3    0    0 -0.97120760322E-01  0.13030380118E-01 -0.51856834003E-01  0.88695623574E+00  0.88000000000E+00 0. -1.
        -11    1    4    4    0    0  0.20133611792E-01 -0.92583139179E-02  0.12630980037E-01  0.25512378918E-01  0.51100000000E-03 0. -1.
         11    1    4    4    0    0  0.10083855178E+00 -0.39460713482E-02  0.37077741289E-01  0.10751281330E+00  0.51100000000E-03 0.  1.
</event>
<event>
 8    1  0.1170483E+005  0.1043930E+01  0.7957747E-01            NaN
         13   -1    0    0    0    0  0.00000000000E+00  0.00000000000E+00  0.74505805969E-08  0.10566000000E+00  0.10566000000E+00 0.  1.
     999900   -1    0    0    0    0 -0.00000000000E+00 -0.00000000000E+00 -0.74505805969E-08  0.93827000000E+00  0.93827000000E+00 0.  1.
     999902    2    1    2    0    0  0.21550368157E-01  0.27932205865E-02  0.10997183470E-01  0.10195751546E+01  0.10192842280E+01 0.  0.
     999903    2    3    3    0    0  0.20901269493E-01  0.12388331803E+00  0.31718746254E-01  0.13104118443E+00  0.19539027618E-01 0.  0.
         14    1    1    2    0    0 -0.21550368157E-01 -0.27932205865E-02 -0.10997183470E-01  0.24354845375E-01  0.00000000000E+00 0.  1.
     999901    1    3    3    0    0  0.64909866371E-03 -0.12109009744E+00 -0.20721562784E-01  0.88853397020E+00  0.88000000000E+00 0.  1.
        -11    1    4    4    0    0  0.17139125050E-01  0.55061648993E-01  0.20516507152E-01  0.61210480998E-01  0.51100000000E-03 0. -1.
         11    1    4    4    0    0  0.37621444434E-02  0.68821669037E-01  0.11202239102E-01  0.69830703432E-01  0.51100000000E-03 0.  1.
</event>
<event>
 8    1  0.1170483E+005  0.1043930E+01  0.7957747E-01            NaN
         13   -1    0    0    0    0  0.00000000000E+00  0.00000000000E+00  0.74505805969E-08  0.10566000000E+00  0.10566000000E+00 0. -1.
     999900   -1    0    0    0    0 -0.00000000000E+00 -0.00000000000E+00 -0.74505805969E-08  0.93827000000E+00  0.93827000000E+00 0.  1.
     999902    2    1    2    0    0 -0.74447078738E-02 -0.22692530410E-01  0.73678530108E-02  0.10189368035E+01  0.10186302321E+01 0.  0.
     999903    2    3    3    0    0  0.55034641849E-01 -0.11611256516E+00  0.20697872349E-01  0.13168900193E+00  0.20066183446E-01 0.  0.
         14    1    1    2    0    0  0.74447078738E-02  0.22692530410E-01 -0.73678530108E-02  0.24993196469E-01  0.00000000000E+00 0.  1.
     999901    1    3    3    0    0 -0.62479349723E-01  0.93420034748E-01 -0.13330019338E-01  0.88724780160E+00  0.88000000000E+00 0.  1.
        -11    1    4    4    0    0  0.33727109557E-01 -0.91048910007E-01  0.17124354351E-01  0.98594759320E-01  0.51100000000E-03 0. -1.
         11    1    4    4    0    0  0.21307532292E-01 -0.25063655151E-01  0.35735179979E-02  0.33094242608E-01  0.51100000000E-03 0.  1.
</event>
<event>
 8    1  0.1170483E+005  0.1043930E+01  0.7957747E-01            NaN
         13   -1    0    0    0    0  0.00000000000E+00  0.00000000000E+00  0.74505805969E-08  0.10566000000E+00  0.10566000000E+00 0.  1.
     999900   -1    0    0    0    0 -0.00000000000E+00 -0.00000000000E+00 -0.74505805969E-08  0.93827000000E+00  0.93827000000E+00 0.  1.
     999902    2    1    2    0    0 -0.16885082672E-01  0.11202145855E-01 -0.13713814464E-01  0.10194624134E+01  0.10191687542E+01 0.  0.
     999903    2    3    3    0    0  0.12248329281E+00  0.80159167257E-02  0.27954297834E-01  0.12751514602E+00  0.20304131600E-01 0.  0.
         14    1    1    2    0    0  0.16885082672E-01 -0.11202145855E-01  0.13713814464E-01  0.24467586635E-01  0.00000000000E+00 0.  1.
     999901    1    3    3    0    0 -0.13936837548E+00  0.31862291298E-02 -0.41668112298E-01  0.89194726734E+00  0.88000000000E+00 0. -1.
        -11    1    4    4    0    0  0.11749810551E+00  0.11633433684E-01  0.25122866401E-01  0.12071686342E+00  0.51100000000E-03 0.  1.
         11    1    4    4    0    0  0.49851872956E-02 -0.36175169585E-02  0.28314314324E-02  0.67982825974E-02  0.51100000000E-03 0. -1.
</event>
<event>
 8    1  0.1170483E+005  0.1043930E+01  0.7957747E-01            NaN
         13   -1    0    0    0    0  0.00000000000E+00  0.00000000000E+00  0.74505805969E-08  0.10566000000E+00  0.10566000000E+00 0.  1.
     999900   -1    0    0    0    0 -0.00000000000E+00 -0.00000000000E+00 -0.74505805969E-08  0.93827000000E+00  0.93827000000E+00 0.  1.
     999902    2    1    2    0    0  0.13968003385E-01 -0.71281458461E-02 -0.18146549947E-01  0.10199464044E+01  0.10196643835E+01 0.  0.
     999903    2    3    3    0    0 -0.11350897891E+00 -0.39092252827E-01 -0.45046960139E-01  0.12978028666E+00  0.20030019068E-01 0.  0.
         14    1    1    2    0    0 -0.13968003385E-01  0.71281458461E-02  0.18146549947E-01  0.23983595576E-01  0.00000000000E+00 0.  1.
     999901    1    3    3    0    0  0.12747698229E+00  0.31964106981E-01  0.26900410191E-01  0.89016611777E+00  0.88000000000E+00 0. -1.
        -11    1    4    4    0    0 -0.40483302455E-01 -0.45336988916E-02 -0.18455782996E-01  0.44725040529E-01  0.51100000000E-03 0. -1.
         11    1    4    4    0    0 -0.73025676451E-01 -0.34558553936E-01 -0.26591177142E-01  0.85055246129E-01  0.51100000000E-03 0.  1.
</event>
<event>
 8    1  0.1170483E+005  0.1043930E+01  0.7957747E-01            NaN
         13   -1    0    0    0    0  0.00000000000E+00  0.00000000000E+00  0.74505805969E-08  0.10566000000E+00  0.10566000000E+00 0.  1.
     999900   -1    0    0    0    0 -0.00000000000E+00 -0.00000000000E+00 -0.74505805969E-08  0.93827000000E+00  0.93827000000E+00 0. -1.
     999902    2    1    2    0    0  0.14509766144E-02 -0.24048070805E-02  0.23032818574E-01  0.10207265700E+01  0.10204628027E+01 0.  0.
     999903    2    3    3    0    0 -0.10885562048E+00  0.67040211179E-01 -0.15832237143E-01  0.13027688114E+00  0.19428587206E-01 0.  0.
         14    1    1    2    0    0 -0.14509766144E-02  0.24048070805E-02 -0.23032818574E-01  0.23203429955E-01  0.00000000000E+00 0. -1.
     999901    1    3    3    0    0  0.11030659709E+00 -0.69445018259E-01  0.38865055717E-01  0.89044968891E+00  0.88000000000E+00 0.  1.
        -11    1    4    4    0    0 -0.47997355896E-01  0.36508854562E-01 -0.15165249335E-01  0.62184311067E-01  0.51100000000E-03 0.  1.
         11    1    4    4    0    0 -0.60858264583E-01  0.30531356616E-01 -0.66698780832E-03  0.68092570069E-01  0.51100000000E-03 0. -1.
</event>
<event>
 8    1  0.1170483E+005  0.1043930E+01  0.7957747E-01            NaN
         13   -1    0    0    0    0  0.00000000000E+00  0.00000000000E+00  0.74505805969E-08  0.10566000000E+00  0.10566000000E+00 0. -1.
     999900   -1    0    0    0    0 -0.00000000000E+00 -0.00000000000E+00 -0.74505805969E-08  0.93827000000E+00  0.93827000000E+00 0.  1.
     999902    2    1    2    0    0 -0.21487944846E-01  0.87674977739E-02  0.87253098910E-02  0.10191362140E+01  0.10188345748E+01 0.  0.
     999903    2    3    3    0    0 -0.26389767775E-02  0.78683983800E-01 -0.10160484986E+00  0.12929558628E+00  0.13988195392E-01 0.  0.
         14    1    1    2    0    0  0.21487944846E-01 -0.87674977739E-02 -0.87253098910E-02  0.24793785988E-01  0.00000000000E+00 0.  1.
     999901    1    3    3    0    0 -0.18848968069E-01 -0.69916486026E-01  0.11033015975E+00  0.88984062773E+00  0.88000000000E+00 0. -1.
        -11    1    4    4    0    0 -0.17870845961E-02  0.85336695066E-02 -0.19049069574E-01  0.20955795362E-01  0.51100000000E-03 0. -1.
         11    1    4    4    0    0 -0.85189218136E-03  0.70150314293E-01 -0.82555780287E-01  0.10833979092E+00  0.51100000000E-03 0.  1.
</event>
<event>
 8    1  0.1170483E+005  0.1043930E+01  0.7957747E-01            NaN
         13   -1    0    0    0    0  0.00000000000E+00  0.00000000000E+00  0.74505805969E-08  0.10566000000E+00  0.10566000000E+00 0.  1.
     999900   -1    0    0    0    0 -0.00000000000E+00 -0.00000000000E+00 -0.74505805969E-08  0.93827000000E+00  0.93827000000E+00 0.  1.
     999902    2    1    2    0    0  0.17312899328E-01 -0.15778079920E-01 -0.13993795853E-03  0.10205055710E+01  0.10202366964E+01 0.  0.
     999903    2    3    3    0    0 -0.47864206275E-01 -0.67766690265E-01  0.99265925127E-01  0.13099312239E+00  0.20546719214E-01 0.  0.
         14    1    1    2    0    0 -0.17312899328E-01  0.15778079920E-01  0.13993795853E-03  0.23424428952E-01  0.00000000000E+00 0. -1.
     999901    1    3    3    0    0  0.65177105603E-01  0.51988610344E-01 -0.99405863085E-01  0.88951244866E+00  0.88000000000E+00 0.  1.
        -11    1    4    4    0    0 -0.28003743291E-01 -0.23010139855E-01  0.37260222106E-01  0.51983280455E-01  0.51100000000E-03 0.  1.
         11    1    4    4    0    0 -0.19860462984E-01 -0.44756550410E-01  0.62005703021E-01  0.79009841935E-01  0.51100000000E-03 0. -1.
</event>
<event>
 8    1  0.1170483E+005  0.1043930E+01  0.7957747E-01            NaN
         13   -1    0    0    0    0  0.00000000000E+00  0.00000000000E+00  0.74505805969E-08  0.10566000000E+00  0.10566000000E+00 0. -1.
     999900   -1    0    0    0    0 -0.00000000000E+00 -0.00000000000E+00 -0.74505805969E-08  0.93827000000E+00  0.93827000000E+00 0.  1.
     999902    2    1    2    0    0 -0.22433886080E-01 -0.28571433843E-02  0.56631824826E-02  0.10206166101E+01  0.10203503078E+01 0.  0.
     999903    2    3    3    0    0 -0.83120571700E-01 -0.33284566757E-01 -0.93270532381E-01  0.13247440198E+00  0.28864912003E-01 0.  0.
         14    1    1    2    0    0  0.22433886080E-01  0.28571433843E-02 -0.56631824826E-02  0.23313389904E-01  0.00000000000E+00 0.  1.
     999901    1    3    3    0    0  0.60686685620E-01  0.30427423373E-01  0.98933714863E-01  0.88814220812E+00  0.88000000000E+00 0. -1.
        -11    1    4    4    0    0 -0.10551176387E-01  0.41925102614E-02 -0.18665726953E-01  0.21853488260E-01  0.51100000000E-03 0. -1.
         11    1    4    4    0    0 -0.72569395313E-01 -0.37477077019E-01 -0.74604805427E-01  0.11062091372E+00  0.51100000000E-03 0.  1.
</event>
<event>
 8    1  0.1170483E+005  0.1043930E+01  0.7957747E-01            NaN
         13   -1    0    0    0    0  0.00000000000E+00  0.00000000000E+00  0.74505805969E-08  0.10566000000E+00  0.10566000000E+00 0.  1.
     999900   -1    0    0    0    0 -0.00000000000E+00 -0.00000000000E+00 -0.74505805969E-08  0.93827000000E+00  0.93827000000E+00 0. -1.
     999902    2    1    2    0    0  0.31044324435E-03  0.13161525252E-01 -0.19389518988E-01  0.10204933712E+01  0.10202242132E+01 0.  0.
     999903    2    3    3    0    0 -0.10662086591E+00 -0.10035369219E-01 -0.74548162776E-01  0.13200314799E+00  0.19967093484E-01 0.  0.
         14    1    1    2    0    0 -0.31044324435E-03 -0.13161525252E-01  0.19389518988E-01  0.23436628780E-01  0.00000000000E+00 0.  1.
     999901    1    3    3    0    0  0.10693130916E+00  0.23196894471E-01  0.55158643788E-01  0.88849022323E+00  0.88000000000E+00 0.  1.
        -11    1    4    4    0    0 -0.71390289731E-01  0.16932744136E-02 -0.54258871205E-01  0.89686826634E-01  0.51100000000E-03 0. -1.
         11    1    4    4    0    0 -0.35230576182E-01 -0.11728643633E-01 -0.20289291571E-01  0.42316321356E-01  0.51100000000E-03 0.  1.
</event>
<event>
 8    1  0.1170483E+005  0.1043930E+01  0.7957747E-01            NaN
         13   -1    0    0    0    0  0.00000000000E+00  0.00000000000E+00  0.74505805969E-08  0.10566000000E+00  0.10566000000E+00 0.  1.
     999900   -1    0    0    0    0 -0.00000000000E+00 -0.00000000000E+00 -0.74505805969E-08  0.93827000000E+00  0.93827000000E+00 0.  1.
     999902    2    1    2    0    0  0.19629431802E-01  0.18604350660E-01  0.15613448561E-02  0.10168398864E+01  0.10164789621E+01 0.  0.
     999903    2    3    3    0    0 -0.89492083560E-01 -0.79082164442E-01  0.29043509530E-01  0.12431233517E+00  0.18633557840E-01 0.  0.
         14    1    1    2    0    0 -0.19629431802E-01 -0.18604350660E-01 -0.15613448561E-02  0.27090113586E-01  0.00000000000E+00 0. -1.
     999901    1    3    3    0    0  0.10912151536E+00  0.97686515102E-01 -0.27482164674E-01  0.89252755124E+00  0.88000000000E+00 0. -1.
        -11    1    4    4    0    0 -0.32667738221E-01 -0.21136442870E-01  0.27939647310E-02  0.39012788898E-01  0.51100000000E-03 0.  1.
         11    1    4    4    0    0 -0.56824345339E-01 -0.57945721572E-01  0.26249544799E-01  0.85299546276E-01  0.51100000000E-03 0. -1.
</event>
<event>
 8    1  0.1170483E+005  0.1043930E+01  0.7957747E-01            NaN
         13   -1    0    0    0    0  0.00000000000E+00  0.00000000000E+00  0.74505805969E-08  0.10566000000E+00  0.10566000000E+00 0. -1.
     999900   -1    0    0    0    0 -0.00000000000E+00 -0.00000000000E+00 -0.74505805969E-08  0.93827000000E+00  0.93827000000E+00 0. -1.
     999902    2    1    2    0    0  0.27731582539E-02 -0.23429247251E-02  0.22083547099E-01  0.10215500367E+01  0.10213048589E+01 0.  0.
     999903    2    3    3    0    0 -0.23194070540E-01 -0.12818447169E+00  0.65071815224E-02  0.13208220985E+00  0.20836099859E-01 0.  0.
         14    1    1    2    0    0 -0.27731582539E-02  0.23429247251E-02 -0.22083547099E-01  0.22379963258E-01  0.00000000000E+00 0.  1.
     999901    1    3    3    0    0  0.25967228794E-01  0.12584154696E+00  0.15576365577E-01  0.88946782689E+00  0.88000000000E+00 0.  1.
        -11    1    4    4    0    0 -0.72307034622E-02 -0.24873331024E-01  0.92444992025E-02  0.27507954400E-01  0.51100000000E-03 0.  1.
         11    1    4    4    0    0 -0.15963367078E-01 -0.10331114066E+00 -0.27373176801E-02  0.10457425545E+00  0.51100000000E-03 0. -1.
</event>
<event>
 8    1  0.1170483E+005  0.1043930E+01  0.7957747E-01            NaN
         13   -1    0    0    0    0  0.00000000000E+00  0.00000000000E+00  0.74505805969E-08  0.10566000000E+00  0.10566000000E+00 0. -1.
     999900   -1    0    0    0    0 -0.00000000000E+00 -0.00000000000E+00 -0.74505805969E-08  0.93827000000E+00  0.93827000000E+00 0. -1.
     999902    2    1    2    0    0  0.13736199578E-01 -0.99018006467E-02 -0.17217895308E-01  0.10197807815E+01  0.10194948051E+01 0.  0.
     999903    2    3    3    0    0  0.83076669707E-01 -0.10007071775E+00 -0.14622092717E-01  0.13245599734E+00  0.20369193316E-01 0.  0.
         14    1    1    2    0    0 -0.13736199578E-01  0.99018006467E-02  0.17217895308E-01  0.24149218491E-01  0.00000000000E+00 0. -1.
     999901    1    3    3    0    0 -0.69340470128E-01  0.90168917099E-01 -0.25958025906E-02  0.88732478417E+00  0.88000000000E+00 0. -1.
        -11    1    4    4    0    0  0.68666036008E-01 -0.68770572979E-01 -0.10991390728E-01  0.97803312828E-01  0.51100000000E-03 0. -1.
         11    1    4    4    0    0  0.14410633698E-01 -0.31300144767E-01 -0.36307019897E-02  0.34652684513E-01  0.51100000000E-03 0.  1.
</event>
<event>
 8    1  0.1170483E+005  0.1043930E+01  0.7957747E-01            NaN
         13   -1    0    0    0    0  0.00000000000E+00  0.00000000000E+00  0.74505805969E-08  0.10566000000E+00  0.10566000000E+00 0. -1.
     999900   -1    0    0    0    0 -0.00000000000E+00 -0.00000000000E+00 -0.74505805969E-08  0.93827000000E+00  0.93827000000E+00 0.  1.
     999902    2    1    2    0    0 -0.38599170300E-02 -0.11272979834E-01  0.19623375588E-01  0.10209723019E+01  0.10207141545E+01 0.  0.
     999903    2    3    3    0    0 -0.97668892842E-01 -0.97312693746E-02  0.88094741319E-01  0.13334015467E+00  0.19621497599E-01 0.  0.
         14    1    1    2    0    0  0.38599170300E-02  0.11272979834E-01 -0.19623375588E-01  0.22957698127E-01  0.00000000000E+00 0.  1.
     999901    1    3    3    0    0  0.93808975812E-01 -0.15417104595E-02 -0.68471365731E-01  0.88763214720E+00  0.88000000000E+00 0.  1.
        -11    1    4    4    0    0 -0.52719402856E-01  0.17536749668E-02  0.55948769668E-01  0.76895622514E-01  0.51100000000E-03 0. -1.
         11    1    4    4    0    0 -0.44949489986E-01 -0.11484944341E-01  0.32145971651E-01  0.56444532161E-01  0.51100000000E-03 0.  1.
</event>
<event>
 8    1  0.1170483E+005  0.1043930E+01  0.7957747E-01            NaN
         13   -1    0    0    0    0  0.00000000000E+00  0.00000000000E+00  0.74505805969E-08  0.10566000000E+00  0.10566000000E+00 0.  1.
     999900   -1    0    0    0    0 -0.00000000000E+00 -0.00000000000E+00 -0.74505805969E-08  0.93827000000E+00  0.93827000000E+00 0. -1.
     999902    2    1    2    0    0 -0.21894977473E-01 -0.69934410587E-02  0.69152946215E-02  0.10199275094E+01  0.10196450386E+01 0.  0.
     999903    2    3    3    0    0 -0.11218424114E+00 -0.62028610841E-01 -0.28513211882E-01  0.13288962962E+00  0.20342022666E-01 0.  0.
         14    1    1    2    0    0  0.21894977473E-01  0.69934410587E-02 -0.69152946215E-02  0.24002490622E-01  0.00000000000E+00 0.  1.
     999901    1    3    3    0    0  0.90289263669E-01  0.55035169782E-01  0.35428506503E-01  0.88703787975E+00  0.88000000000E+00 0.  1.
        -11    1    4    4    0    0 -0.95317180391E-01 -0.52468279033E-01 -0.16429583889E-01  0.11003852748E+00  0.51100000000E-03 0. -1.
         11    1    4    4    0    0 -0.16867060751E-01 -0.95603318075E-02 -0.12083627993E-01  0.22851102142E-01  0.51100000000E-03 0.  1.
</event>
<event>
 8    1  0.1170483E+005  0.1043930E+01  0.7957747E-01            NaN
         13   -1    0    0    0    0  0.00000000000E+00  0.00000000000E+00  0.74505805969E-08  0.10566000000E+00  0.10566000000E+00 0.  1.
     999900   -1    0    0    0    0 -0.00000000000E+00 -0.00000000000E+00 -0.74505805969E-08  0.93827000000E+00  0.93827000000E+00 0.  1.
     999902    2    1    2    0    0  0.47023080088E-02 -0.49381644905E-02 -0.23170395789E-01  0.10197770621E+01  0.10194909965E+01 0.  0.
     999903    2    3    3    0    0  0.15216602095E-01  0.79717772170E-01 -0.10244740181E+00  0.13210481306E+00  0.19228710781E-01 0.  0.
         14    1    1    2    0    0 -0.47023080088E-02  0.49381644905E-02  0.23170395789E-01  0.24152937920E-01  0.00000000000E+00 0.  1.
     999901    1    3    3    0    0 -0.10514294086E-01 -0.84655936661E-01  0.79277006018E-01  0.88767224902E+00  0.88000000000E+00 0. -1.
        -11    1    4    4    0    0  0.19736052820E-01  0.68408666619E-01 -0.86607552296E-01  0.11211773582E+00  0.51100000000E-03 0. -1.
         11    1    4    4    0    0 -0.45194507248E-02  0.11309105551E-01 -0.15839849511E-01  0.19987077244E-01  0.51100000000E-03 0.  1.
</event>
<event>
 8    1  0.1170483E+005  0.1043930E+01  0.7957747E-01            NaN
         13   -1    0    0    0    0  0.00000000000E+00  0.00000000000E+00  0.74505805969E-08  0.10566000000E+00  0.10566000000E+00 0.  1.
     999900   -1    0    0    0    0 -0.00000000000E+00 -0.00000000000E+00 -0.74505805969E-08  0.93827000000E+00  0.93827000000E+00 0.  1.
     999902    2    1    2    0    0 -0.10681954484E-01  0.17612904278E-01 -0.13264460442E-01  0.10194297049E+01  0.10191352505E+01 0.  0.
     999903    2    3    3    0    0 -0.45736865309E-01  0.12024070392E+00 -0.26103065889E-01  0.13267937826E+00  0.19306984188E-01 0.  0.
         14    1    1    2    0    0  0.10681954484E-01 -0.17612904278E-01  0.13264460442E-01  0.24500295090E-01  0.00000000000E+00 0.  1.
     999901    1    3    3    0    0  0.35054910825E-01 -0.10262779964E+00  0.12838605447E-01  0.88675032665E+00  0.88000000000E+00 0.  1.
        -11    1    4    4    0    0 -0.18516934040E-01  0.35527200062E-01 -0.15937542901E-01  0.43119893149E-01  0.51100000000E-03 0. -1.
         11    1    4    4    0    0 -0.27219931269E-01  0.84713503856E-01 -0.10165522988E-01  0.89559485106E-01  0.51100000000E-03 0.  1.
</event>
<event>
 8    1  0.1170483E+005  0.1043930E+01  0.7957747E-01            NaN
         13   -1    0    0    0    0  0.00000000000E+00  0.00000000000E+00  0.74505805969E-08  0.10566000000E+00  0.10566000000E+00 0. -1.
     999900   -1    0    0    0    0 -0.00000000000E+00 -0.00000000000E+00 -0.74505805969E-08  0.93827000000E+00  0.93827000000E+00 0. -1.
     999902    2    1    2    0    0 -0.43768932616E-02 -0.17227906976E-02  0.23791485484E-01  0.10196779901E+01  0.10193895445E+01 0.  0.
     999903    2    3    3    0    0  0.73827886531E-01 -0.87778522229E-01  0.54804216123E-01  0.13148692622E+00  0.33610770096E-01 0.  0.
         14    1    1    2    0    0  0.43768932616E-02  0.17227906976E-02 -0.23791485484E-01  0.24252009895E-01  0.00000000000E+00 0.  1.
     999901    1    3    3    0    0 -0.78204779792E-01  0.86055731531E-01 -0.31012730638E-01  0.88819106389E+00  0.88000000000E+00 0. -1.
        -11    1    4    4    0    0  0.16690971257E-01 -0.23447530846E-01  0.30801620172E-01  0.42158939153E-01  0.51100000000E-03 0.  1.
         11    1    4    4    0    0  0.57136915273E-01 -0.64330991383E-01  0.24002595951E-01  0.89327987062E-01  0.51100000000E-03 0. -1.
</event>
<event>
 8    1  0.1170483E+005  0.1043930E+01  0.7957747E-01            NaN
         13   -1    0    0    0    0  0.00000000000E+00  0.00000000000E+00  0.74505805969E-08  0.10566000000E+00  0.10566000000E+00 0.  1.
     999900   -1    0    0    0    0 -0.00000000000E+00 -0.00000000000E+00 -0.74505805969E-08  0.93827000000E+00  0.93827000000E+00 0.  1.
     999902    2    1    2    0    0 -0.50509566209E-02 -0.49973365406E-02 -0.22489174656E-01  0.10203450787E+01  0.10200724637E+01 0.  0.
     999903    2    3    3    0    0 -0.91336899299E-01 -0.88416671832E-01 -0.30368949953E-01  0.13216371195E+00  0.19622349623E-01 0.  0.
         14    1    1    2    0    0  0.50509566209E-02  0.49973365406E-02  0.22489174656E-01  0.23584921285E-01  0.00000000000E+00 0.  1.
     999901    1    3    3    0    0  0.86285942678E-01  0.83419335291E-01  0.78797752967E-02  0.88818136676E+00  0.88000000000E+00 0. -1.
        -11    1    4    4    0    0 -0.76180076954E-01 -0.62281112086E-01 -0.22527086650E-01  0.10094588551E+00  0.51100000000E-03 0.  1.
         11    1    4    4    0    0 -0.15156822345E-01 -0.26135559746E-01 -0.78418633029E-02  0.31217826444E-01  0.51100000000E-03 0. -1.
</event>
<event>
 8    1  0.1170483E+005  0.1043930E+01  0.7957747E-01            NaN
         13   -1    0    0    0    0  0.00000000000E+00  0.00000000000E+00  0.74505805969E-08  0.10566000000E+00  0.10566000000E+00 0.  1.
     999900   -1    0    0    0    0 -0.00000000000E+00 -0.00000000000E+00 -0.74505805969E-08  0.93827000000E+00  0.93827000000E+00 0.  1.
     999902    2    1    2    0    0  0.17241341581E-01 -0.12014371185E-01  0.10823547482E-01  0.10202919342E+01  0.10200180748E+01 0.  0.
     999903    2    3    3    0    0 -0.54712960858E-01  0.99480300073E-01 -0.54202325663E-01  0.12797088910E+00  0.23426868358E-01 0.  0.
         14    1    1    2    0    0 -0.17241341581E-01  0.12014371185E-01 -0.10823547482E-01  0.23638065796E-01  0.00000000000E+00 0. -1.
     999901    1    3    3    0    0  0.71954302439E-01 -0.11149467126E+00  0.65025873145E-01  0.89232104510E+00  0.88000000000E+00 0. -1.
        -11    1    4    4    0    0 -0.50114303294E-01  0.70509126425E-01 -0.42538999210E-01  0.96399210985E-01  0.51100000000E-03 0.  1.
         11    1    4    4    0    0 -0.45986575636E-02  0.28971173649E-01 -0.11663326453E-01  0.31571678114E-01  0.51100000000E-03 0. -1.
</event>
<event>
 8    1  0.1170483E+005  0.1043930E+01  0.7957747E-01            NaN
         13   -1    0    0    0    0  0.00000000000E+00  0.00000000000E+00  0.74505805969E-08  0.10566000000E+00  0.10566000000E+00 0.  1.
     999900   -1    0    0    0    0 -0.00000000000E+00 -0.00000000000E+00 -0.74505805969E-08  0.93827000000E+00  0.93827000000E+00 0.  1.
     999902    2    1    2    0    0  0.21198875688E-01  0.40158884055E-02  0.84497990010E-02  0.10207584918E+01  0.10204954580E+01 0.  0.
     999903    2    3    3    0    0  0.12796231117E+00 -0.60026434294E-02  0.33926200248E-01  0.13388316280E+00  0.19061201686E-01 0.  0.
         14    1    1    2    0    0 -0.21198875688E-01 -0.40158884055E-02 -0.84497990010E-02  0.23171508222E-01  0.00000000000E+00 0.  1.
     999901    1    3    3    0    0 -0.10676343548E+00  0.10018531835E-01 -0.25476401247E-01  0.88687532898E+00  0.88000000000E+00 0.  1.
        -11    1    4    4    0    0  0.87240543483E-01 -0.11705188100E-01  0.18392529008E-01  0.89924802474E-01  0.51100000000E-03 0.  1.
         11    1    4    4    0    0  0.40721767684E-01  0.57025446701E-02  0.15533671241E-01  0.43958360322E-01  0.51100000000E-03 0. -1.
</event>
<event>
 8    1  0.1170483E+005  0.1043930E+01  0.7957747E-01            NaN
         13   -1    0    0    0    0  0.00000000000E+00  0.00000000000E+00  0.74505805969E-08  0.10566000000E+00  0.10566000000E+00 0. -1.
     999900   -1    0    0    0    0 -0.00000000000E+00 -0.00000000000E+00 -0.74505805969E-08  0.93827000000E+00  0.93827000000E+00 0. -1.
     999902    2    1    2    0    0 -0.80516981769E-03  0.27506093189E-01 -0.27312903301E-02  0.10162769096E+01  0.10159006170E+01 0.  0.
     999903    2    3    3    0    0  0.10935398380E+00  0.60108290486E-01 -0.24670659404E-01  0.12853861580E+00  0.18499566433E-01 0.  0.
         14    1    1    2    0    0  0.80516981769E-03 -0.27506093189E-01  0.27312903301E-02  0.27653090385E-01  0.00000000000E+00 0.  1.
     999901    1    3    3    0    0 -0.11015915362E+00 -0.32602197297E-01  0.21939369074E-01  0.88773829382E+00  0.88000000000E+00 0.  1.
        -11    1    4    4    0    0  0.36916251848E-01  0.29383937178E-01 -0.51378231943E-02  0.47464552698E-01  0.51100000000E-03 0.  1.
         11    1    4    4    0    0  0.72437731950E-01  0.30724353308E-01 -0.19532836210E-01  0.81074063100E-01  0.51100000000E-03 0. -1.
</event>
<event>
 8    1  0.1170483E+005  0.1043930E+01  0.7957747E-01            NaN
         13   -1    0    0    0    0  0.00000000000E+00  0.00000000000E+00  0.74505805969E-08  0.10566000000E+00  0.10566000000E+00 0.  1.
     999900   -1    0    0    0    0 -0.00000000000E+00 -0.00000000000E+00 -0.74505805969E-08  0.93827000000E+00  0.93827000000E+00 0. -1.
     999902    2    1    2    0    0  0.10914754713E-01 -0.16343631154E-01  0.14011688932E-01  0.10197934390E+01  0.10195077659E+01 0.  0.
     999903    2    3    3    0    0  0.18082462134E-01 -0.12943689531E+00  0.77163090359E-02  0.13250481954E+00  0.20423037771E-01 0.  0.
         14    1    1    2    0    0 -0.10914754713E-01  0.16343631154E-01 -0.14011688932E-01  0.24136560991E-01  0.00000000000E+00 0. -1.
     999901    1    3    3    0    0 -0.71677074206E-02  0.11309326416E+00  0.62953798962E-02  0.88728861947E+00  0.88000000000E+00 0.  1.
        -11    1    4    4    0    0 -0.92014258108E-04 -0.64550599935E-01 -0.98264504089E-03  0.64560166750E-01  0.51100000000E-03 0.  1.
         11    1    4    4    0    0  0.18174476392E-01 -0.64886295378E-01  0.86989540768E-02  0.67944652792E-01  0.51100000000E-03 0. -1.
</event>
<event>
 8    1  0.1170483E+005  0.1043930E+01  0.7957747E-01            NaN
         13   -1    0    0    0    0  0.00000000000E+00  0.00000000000E+00  0.74505805969E-08  0.10566000000E+00  0.10566000000E+00 0.  1.
     999900   -1    0    0    0    0 -0.00000000000E+00 -0.00000000000E+00 -0.74505805969E-08  0.93827000000E+00  0.93827000000E+00 0.  1.
     999902    2    1    2    0    0  0.96635833156E-02  0.20482725885E-01  0.65155344117E-02  0.10203635176E+01  0.10200913337E+01 0.  0.
     999903    2    3    3    0    0 -0.63210906676E-01 -0.84468139971E-01  0.71383992836E-01  0.12877320116E+00  0.18877963654E-01 0.  0.
         14    1    1    2    0    0 -0.96635833156E-02 -0.20482725885E-01 -0.65155344117E-02  0.23566482360E-01  0.00000000000E+00 0.  1.
     999901    1    3    3    0    0  0.72874489991E-01  0.10495086586E+00 -0.64868458425E-01  0.89159031648E+00  0.88000000000E+00 0.  1.
        -11    1    4    4    0    0 -0.24175786365E-01 -0.46764397496E-01  0.30693357963E-01  0.60940305739E-01  0.51100000000E-03 0.  1.
         11    1    4    4    0    0 -0.39035120311E-01 -0.37703742476E-01  0.40690634873E-01  0.67832895425E-01  0.51100000000E-03 0. -1.
</event>
<event>
 8    1  0.1170483E+005  0.1043930E+01  0.7957747E-01            NaN
         13   -1    0    0    0    0  0.00000000000E+00  0.00000000000E+00  0.74505805969E-08  0.10566000000E+00  0.10566000000E+00 0.  1.
     999900   -1    0    0    0    0 -0.00000000000E+00 -0.00000000000E+00 -0.74505805969E-08  0.93827000000E+00  0.93827000000E+00 0. -1.
     999902    2    1    2    0    0  0.11297499266E-01  0.61097116813E-03  0.21609927786E-01  0.10195374652E+01  0.10192456265E+01 0.  0.
     999903    2    3    3    0    0  0.84913988972E-01 -0.91651856403E-01 -0.30495374104E-01  0.13012935898E+00  0.19830126621E-01 0.  0.
         14    1    1    2    0    0 -0.11297499266E-01 -0.61097116813E-03 -0.21609927786E-01  0.24392534808E-01  0.00000000000E+00 0. -1.
     999901    1    3    3    0    0 -0.73616489706E-01  0.92262827572E-01  0.52105301890E-01  0.88940810621E+00  0.88000000000E+00 0. -1.
        -11    1    4    4    0    0  0.74317781718E-01 -0.69889600972E-01 -0.27992770114E-01  0.10579010021E+00  0.51100000000E-03 0.  1.
         11    1    4    4    0    0  0.10596207254E-01 -0.21762255432E-01 -0.25026039900E-02  0.24339258768E-01  0.51100000000E-03 0. -1.
</event>
<event>
 8    1  0.1170483E+005  0.1043930E+01  0.7957747E-01            NaN
         13   -1    0    0    0    0  0.00000000000E+00  0.00000000000E+00  0.74505805969E-08  0.10566000000E+00  0.10566000000E+00 0. -1.
     999900   -1    0    0    0    0 -0.00000000000E+00 -0.00000000000E+00 -0.74505805969E-08  0.93827000000E+00  0.93827000000E+00 0.  1.
     999902    2    1    2    0    0 -0.10158504513E-02  0.13353017905E-02 -0.21794163873E-01  0.10220713504E+01  0.10218375824E+01 0.  0.
     999903    2    3    3    0    0  0.10461295423E+00  0.75494129898E-01 -0.24888443672E-01  0.13265212938E+00  0.18273449604E-01 0.  0.
         14    1    1    2    0    0  0.10158504513E-02 -0.13353017905E-02  0.21794163873E-01  0.21858649591E-01  0.00000000000E+00 0. -1.
     999901    1    3    3    0    0 -0.10562880468E+00 -0.74158828108E-01  0.30942797990E-02  0.88941922103E+00  0.88000000000E+00 0.  1.
        -11    1    4    4    0    0  0.79371392921E-01  0.63971719447E-01 -0.14265788898E-01  0.10293674153E+00  0.51100000000E-03 0.  1.
         11    1    4    4    0    0  0.25241561304E-01  0.11522410451E-01 -0.10622654774E-01  0.29715387851E-01  0.51100000000E-03 0. -1.
</event>
<event>
 8    1  0.1170483E+005  0.1043930E+01  0.7957747E-01            NaN
         13   -1    0    0    0    0  0.00000000000E+00  0.00000000000E+00  0.74505805969E-08  0.10566000000E+00  0.10566000000E+00 0.  1.
     999900   -1    0    0    0    0 -0.00000000000E+00 -0.00000000000E+00 -0.74505805969E-08  0.93827000000E+00  0.93827000000E+00 0.  1.
     999902    2    1    2    0    0 -0.20386984252E-01 -0.19885843629E-02 -0.82326359317E-02  0.10218537710E+01  0.10216152746E+01 0.  0.
     999903    2    3    3    0    0 -0.11495664703E+00 -0.17027955981E-01  0.63050894842E-01  0.13379355589E+00  0.20501665170E-01 0.  0.
         14    1    1    2    0    0  0.20386984252E-01  0.19885843629E-02  0.82326359317E-02  0.22076229050E-01  0.00000000000E+00 0. -1.
     999901    1    3    3    0    0  0.94569662780E-01  0.15039371618E-01 -0.71283530774E-01  0.88806021506E+00  0.88000000000E+00 0.  1.
        -11    1    4    4    0    0 -0.66675872957E-01  0.36956380778E-03  0.35051409988E-01  0.75330412684E-01  0.51100000000E-03 0.  1.
         11    1    4    4    0    0 -0.48280774076E-01 -0.17397519789E-01  0.27999484854E-01  0.58463143204E-01  0.51100000000E-03 0. -1.
</event>
<event>
 8    1  0.1170483E+005  0.1043930E+01  0.7957747E-01            NaN
         13   -1    0    0    0    0  0.00000000000E+00  0.00000000000E+00  0.74505805969E-08  0.10566000000E+00  0.10566000000E+00 0.  1.
     999900   -1    0    0    0    0 -0.00000000000E+00 -0.00000000000E+00 -0.74505805969E-08  0.93827000000E+00  0.93827000000E+00 0. -1.
     999902    2    1    2    0    0  0.16188511254E-01 -0.15457561288E-01 -0.89701909114E-02  0.10198163436E+01  0.10195312189E+01 0.  0.
     999903    2    3    3    0    0  0.13050440272E+00 -0.98854777364E-02 -0.90505829695E-02  0.13240483954E+00  0.17888730600E-01 0.  0.
         14    1    1    2    0    0 -0.16188511254E-01  0.15457561288E-01  0.89701909114E-02  0.24113656351E-01  0.00000000000E+00 0.  1.
     999901    1    3    3    0    0 -0.11431589147E+00 -0.55720835518E-02  0.80392058056E-04  0.88741150411E+00  0.88000000000E+00 0.  1.
        -11    1    4    4    0    0  0.76320198536E-01 -0.14553186009E-01 -0.61582639050E-02  0.77940703506E-01  0.51100000000E-03 0.  1.
         11    1    4    4    0    0  0.54184204186E-01  0.46677082722E-02 -0.28923190645E-02  0.54464136037E-01  0.51100000000E-03 0. -1.
</event>
<event>
 8    1  0.1170483E+005  0.1043930E+01  0.7957747E-01            NaN
         13   -1    0    0    0    0  0.00000000000E+00  0.00000000000E+00  0.74505805969E-08  0.10566000000E+00  0.10566000000E+00 0.  1.
     999900   -1    0    0    0    0 -0.00000000000E+00 -0.00000000000E+00 -0.74505805969E-08  0.93827000000E+00  0.93827000000E+00 0. -1.
     999902    2    1    2    0    0  0.71112792206E-02 -0.18150703477E-01  0.13410208461E-01  0.10202688077E+01  0.10199944059E+01 0.  0.
     999903    2    3    3    0    0  0.12434593116E+00  0.44652729547E-02  0.38735005779E-01  0.13184503983E+00  0.20021603248E-01 0.  0.
         14    1    1    2    0    0 -0.71112792206E-02  0.18150703477E-01 -0.13410208461E-01  0.23661192274E-01  0.00000000000E+00 0.  1.
     999901    1    3    3    0    0 -0.11723465194E+00 -0.22615976432E-01 -0.25324797318E-01  0.88842376790E+00  0.88000000000E+00 0.  1.
        -11    1    4    4    0    0  0.37288532514E-01 -0.54452601163E-02  0.52858687689E-02  0.38056366674E-01  0.51100000000E-03 0.  1.
         11    1    4    4    0    0  0.87057398644E-01  0.99105330710E-02  0.33449137010E-01  0.93788673155E-01  0.51100000000E-03 0. -1.
</event>
<event>
 8    1  0.1170483E+005  0.1043930E+01  0.7957747E-01            NaN
         13   -1    0    0    0    0  0.00000000000E+00  0.00000000000E+00  0.74505805969E-08  0.10566000000E+00  0.10566000000E+00 0. -1.
     999900   -1    0    0    0    0 -0.00000000000E+00 -0.00000000000E+00 -0.74505805969E-08  0.93827000000E+00  0.93827000000E+00 0. -1.
     999902    2    1    2    0    0 -0.25056905337E-01  0.83772931991E-03 -0.97326666426E-02  0.10170362257E+01  0.10166805837E+01 0.  0.
     999903    2    3    3    0    0 -0.87373424311E-01  0.82118695405E-01  0.44596496899E-01  0.12943180820E+00  0.19650700398E-01 0.  0.
         14    1    1    2    0    0  0.25056905337E-01 -0.83772931991E-03  0.97326666426E-02  0.26893774288E-01  0.00000000000E+00 0. -1.
     999901    1    3    3    0    0  0.62316518975E-01 -0.81280966085E-01 -0.54329163541E-01  0.88760441752E+00  0.88000000000E+00 0. -1.
        -11    1    4    4    0    0 -0.46483605554E-01  0.39446992135E-01  0.12717641586E-01  0.62279934989E-01  0.51100000000E-03 0. -1.
         11    1    4    4    0    0 -0.40889818758E-01  0.42671703270E-01  0.31878855313E-01  0.67151873206E-01  0.51100000000E-03 0.  1.
</event>
<event>
 8    1  0.1170483E+005  0.1043930E+01  0.7957747E-01            NaN
         13   -1    0    0    0    0  0.00000000000E+00  0.00000000000E+00  0.74505805969E-08  0.10566000000E+00  0.10566000000E+00 0.  1.
     999900   -1    0    0    0    0 -0.00000000000E+00 -0.00000000000E+00 -0.74505805969E-08  0.93827000000E+00  0.93827000000E+00 0.  1.
     999902    2    1    2    0    0 -0.13989021222E-01  0.86618914327E-02 -0.16590757448E-01  0.10205639068E+01  0.10202963852E+01 0.  0.
     999903    2    3    3    0    0  0.86397508357E-01 -0.93484597352E-01 -0.12068261468E-01  0.12897441974E+00  0.16877755198E-01 0.  0.
         14    1    1    2    0    0  0.13989021222E-01 -0.86618914327E-02  0.16590757448E-01  0.23366093183E-01  0.00000000000E+00 0.  1.
     999901    1    3    3    0    0 -0.10038652958E+00  0.10214648879E+00 -0.45224959797E-02  0.89158948707E+00  0.88000000000E+00 0.  1.
        -11    1    4    4    0    0  0.48055047392E-01 -0.40402892713E-01 -0.89204094647E-02  0.63415425138E-01  0.51100000000E-03 0.  1.
         11    1    4    4    0    0  0.38342460965E-01 -0.53081704639E-01 -0.31478520035E-02  0.65558994604E-01  0.51100000000E-03 0. -1.
</event>
<event>
 8    1  0.1170483E+005  0.1043930E+01  0.7957747E-01            NaN
         13   -1    0    0    0    0  0.00000000000E+00  0.00000000000E+00  0.74505805969E-08  0.10566000000E+00  0.10566000000E+00 0.  1.
     999900   -1    0    0    0    0 -0.00000000000E+00 -0.00000000000E+00 -0.74505805969E-08  0.93827000000E+00  0.93827000000E+00 0. -1.
     999902    2    1    2    0    0 -0.10859623519E-01  0.42575671788E-02  0.25320892571E-01  0.10160515872E+01  0.10156690514E+01 0.  0.
     999903    2    3    3    0    0 -0.88843746648E-01 -0.71360059618E-01  0.56316557450E-01  0.12883105079E+00  0.20986080543E-01 0.  0.
         14    1    1    2    0    0  0.10859623519E-01 -0.42575671788E-02 -0.25320892571E-01  0.27878412828E-01  0.00000000000E+00 0. -1.
     999901    1    3    3    0    0  0.77984123130E-01  0.75617626797E-01 -0.30995664879E-01  0.88722053639E+00  0.88000000000E+00 0.  1.
        -11    1    4    4    0    0 -0.34484815990E-01 -0.15139577859E-01  0.18100265432E-01  0.41788635791E-01  0.51100000000E-03 0. -1.
         11    1    4    4    0    0 -0.54358930658E-01 -0.56220481760E-01  0.38216292018E-01  0.87042414995E-01  0.51100000000E-03 0.  1.
</event>
<event>
 8    1  0.1170483E+005  0.1043930E+01  0.7957747E-01            NaN
         13   -1    0    0    0    0  0.00000000000E+00  0.00000000000E+00  0.74505805969E-08  0.10566000000E+00  0.10566000000E+00 0.  1.
     999900   -1    0    0    0    0 -0.00000000000E+00 -0.00000000000E+00 -0.74505805969E-08  0.93827000000E+00  0.93827000000E+00 0.  1.
     999902    2    1    2    0    0 -0.58743723906E-02 -0.16214250472E-01  0.14914919526E-01  0.10211294519E+01  0.10208748662E+01 0.  0.
     999903    2    3    3    0    0  0.12772054556E+00 -0.18966037431E-01  0.78364851725E-02  0.13101413427E+00  0.20761612286E-01 0.  0.
         14    1    1    2    0    0  0.58743723906E-02  0.16214250472E-01 -0.14914919526E-01  0.22800548103E-01  0.00000000000E+00 0. -1.
     999901    1    3    3    0    0 -0.13359491795E+00  0.27517869588E-02  0.70784343534E-02  0.89011531762E+00  0.88000000000E+00 0.  1.
        -11    1    4    4    0    0  0.37354364934E-01 -0.11410260461E-01 -0.51736358452E-02  0.39402668086E-01  0.51100000000E-03 0.  1.
         11    1    4    4    0    0  0.90366180629E-01 -0.75557769697E-02  0.13010121018E-01  0.91611466188E-01  0.51100000000E-03 0. -1.
</event>
<event>
 8    1  0.1170483E+005  0.1043930E+01  0.7957747E-01            NaN
         13   -1    0    0    0    0  0.00000000000E+00  0.00000000000E+00  0.74505805969E-08  0.10566000000E+00  0.10566000000E+00 0.  1.
     999900   -1    0    0    0    0 -0.00000000000E+00 -0.00000000000E+00 -0.74505805969E-08  0.93827000000E+00  0.93827000000E+00 0. -1.
     999902    2    1    2    0    0  0.13902384974E-01  0.18762187561E-01  0.71113049267E-02  0.10195196201E+01  0.10192273491E+01 0.  0.
     999903    2    3    3    0    0  0.35964169873E-01  0.51813950248E-01 -0.11254771944E+00  0.13053288031E+00  0.19842800643E-01 0.  0.
         14    1    1    2    0    0 -0.13902384974E-01 -0.18762187561E-01 -0.71113049267E-02  0.24410379919E-01  0.00000000000E+00 0. -1.
     999901    1    3    3    0    0 -0.22061784899E-01 -0.33051762687E-01  0.11965902436E+00  0.88898673977E+00  0.88000000000E+00 0.  1.
        -11    1    4    4    0    0  0.22396670830E-01  0.25320227955E-01 -0.41689562668E-01  0.53674999435E-01  0.51100000000E-03 0. -1.
         11    1    4    4    0    0  0.13567499043E-01  0.26493722293E-01 -0.70858156770E-01  0.76857880878E-01  0.51100000000E-03 0.  1.
</event>
<event>
 8    1  0.1170483E+005  0.1043930E+01  0.7957747E-01            NaN
         13   -1    0    0    0    0  0.00000000000E+00  0.00000000000E+00  0.74505805969E-08  0.10566000000E+00  0.10566000000E+00 0. -1.
     999900   -1    0    0    0    0 -0.00000000000E+00 -0.00000000000E+00 -0.74505805969E-08  0.93827000000E+00  0.93827000000E+00 0.  1.
     999902    2    1    2    0    0 -0.60558901239E-02 -0.14821810371E-01 -0.17140179181E-01  0.10204748170E+01  0.10202052276E+01 0.  0.
     999903    2    3    3    0    0  0.55758487327E-02  0.10604286267E+00  0.69160053155E-01  0.12795518323E+00  0.17698506996E-01 0.  0.
         14    1    1    2    0    0  0.60558901239E-02  0.14821810371E-01  0.17140179181E-01  0.23455183014E-01  0.00000000000E+00 0. -1.
     999901    1    3    3    0    0 -0.11631738857E-01 -0.12086467304E+00 -0.86300232336E-01  0.89251963376E+00  0.88000000000E+00 0.  1.
        -11    1    4    4    0    0  0.84743816919E-02  0.55855861108E-01  0.44729125948E-01  0.72060031878E-01  0.51100000000E-03 0.  1.
         11    1    4    4    0    0 -0.28985329591E-02  0.50187001566E-01  0.24430927207E-01  0.55895151352E-01  0.51100000000E-03 0. -1.
</event>
<event>
 8    1  0.1170483E+005  0.1043930E+01  0.7957747E-01            NaN
         13   -1    0    0    0    0  0.00000000000E+00  0.00000000000E+00  0.74505805969E-08  0.10566000000E+00  0.10566000000E+00 0. -1.
     999900   -1    0    0    0    0 -0.00000000000E+00 -0.00000000000E+00 -0.74505805969E-08  0.93827000000E+00  0.93827000000E+00 0.  1.
     999902    2    1    2    0    0  0.22891420892E-02  0.19282408885E-01 -0.13773917950E-01  0.10201230204E+01  0.10198451865E+01 0.  0.
     999903    2    3    3    0    0 -0.10092798633E+00  0.69085250117E-01 -0.45587748025E-01  0.13212177127E+00  0.20461902809E-01 0.  0.
         14    1    1    2    0    0 -0.22891420892E-02 -0.19282408885E-01  0.13773917950E-01  0.23806979640E-01  0.00000000000E+00 0. -1.
     999901    1    3    3    0    0  0.10321712842E+00 -0.49802841232E-01  0.31813830076E-01  0.88800124909E+00  0.88000000000E+00 0. -1.
        -11    1    4    4    0    0 -0.20437568591E-01  0.48246446136E-02 -0.72720821678E-02  0.22228713539E-01  0.51100000000E-03 0.  1.
         11    1    4    4    0    0 -0.80490417737E-01  0.64260605503E-01 -0.38315665858E-01  0.10989305773E+00  0.51100000000E-03 0. -1.
</event>
<event>
 8    1  0.1170483E+005  0.1043930E+01  0.7957747E-01            NaN
         13   -1    0    0    0    0  0.00000000000E+00  0.00000000000E+00  0.74505805969E-08  0.10566000000E+00  0.10566000000E+00 0.  1.
     999900   -1    0    0    0    0 -0.00000000000E+00 -0.00000000000E+00 -0.74505805969E-08  0.93827000000E+00  0.93827000000E+00 0.  1.
     999902    2    1    2    0    0  0.20665813719E-02 -0.16245902751E-01 -0.17000701257E-01  0.10203244083E+01  0.10200513096E+01 0.  0.
     999903    2    3    3    0    0  0.11126445940E+00  0.63914448280E-01 -0.44973125848E-03  0.12980557470E+00  0.19607354252E-01 0.  0.
         14    1    1    2    0    0 -0.20665813719E-02  0.16245902751E-01  0.17000701257E-01  0.23605591668E-01  0.00000000000E+00 0.  1.
     999901    1    3    3    0    0 -0.10919787803E+00 -0.80160351030E-01 -0.16550969999E-01  0.89051883363E+00  0.88000000000E+00 0.  1.
        -11    1    4    4    0    0  0.94483663796E-01  0.45875281545E-01 -0.26337517659E-02  0.10506617891E+00  0.51100000000E-03 0.  1.
         11    1    4    4    0    0  0.16780795604E-01  0.18039166734E-01  0.21840205074E-02  0.24739395792E-01  0.51100000000E-03 0. -1.
</event>
<event>
 8    1  0.1170483E+005  0.1043930E+01  0.7957747E-01            NaN
         13   -1    0    0    0    0  0.00000000000E+00  0.00000000000E+00  0.74505805969E-08  0.10566000000E+00  0.10566000000E+00 0.  1.
     999900   -1    0    0    0    0 -0.00000000000E+00 -0.00000000000E+00 -0.74505805969E-08  0.93827000000E+00  0.93827000000E+00 0. -1.
     999902    2    1    2    0    0 -0.59527807396E-04 -0.18793037343E-01  0.15065386097E-01  0.10198437455E+01  0.10195592762E+01 0.  0.
     999903    2    3    3    0    0 -0.34096865754E-01 -0.48410138980E-01 -0.11325669742E+00  0.12939314600E+00  0.20232867133E-01 0.  0.
         14    1    1    2    0    0  0.59527807396E-04  0.18793037343E-01 -0.15065386097E-01  0.24086254470E-01  0.00000000000E+00 0. -1.
     999901    1    3    3    0    0  0.34037337946E-01  0.29617101637E-01  0.12832208351E+00  0.89045059953E+00  0.88000000000E+00 0.  1.
        -11    1    4    4    0    0 -0.20528506722E-01 -0.17787899476E-01 -0.66850789893E-01  0.72160364372E-01  0.51100000000E-03 0.  1.
         11    1    4    4    0    0 -0.13568359032E-01 -0.30622239504E-01 -0.46405907523E-01  0.57232781630E-01  0.51100000000E-03 0. -1.
</event>
<event>
 8    1  0.1170483E+005  0.1043930E+01  0.7957747E-01            NaN
         13   -1    0    0    0    0  0.00000000000E+00  0.00000000000E+00  0.74505805969E-08  0.10566000000E+00  0.10566000000E+00 0.  1.
     999900   -1    0    0    0    0 -0.00000000000E+00 -0.00000000000E+00 -0.74505805969E-08  0.93827000000E+00  0.93827000000E+00 0.  1.
     999902    2    1    2    0    0  0.77914982113E-02  0.18574309748E-01  0.13790731931E-01  0.10195190042E+01  0.10192267183E+01 0.  0.
     999903    2    3    3    0    0  0.12062870335E+00 -0.16609903062E-02  0.46510652685E-01  0.13148055043E+00  0.23871559771E-01 0.  0.
         14    1    1    2    0    0 -0.77914982113E-02 -0.18574309748E-01 -0.13790731931E-01  0.24410995764E-01  0.00000000000E+00 0. -1.
     999901    1    3    3    0    0 -0.11283720514E+00  0.20235300054E-01 -0.32719920754E-01  0.88803845381E+00  0.88000000000E+00 0.  1.
        -11    1    4    4    0    0  0.62633583792E-01 -0.10135560330E-01  0.32163947553E-01  0.71137023026E-01  0.51100000000E-03 0. -1.
         11    1    4    4    0    0  0.57995119560E-01  0.84745700242E-02  0.14346705132E-01  0.60343527400E-01  0.51100000000E-03 0.  1.
</event>
<event>
 8    1  0.1170483E+005  0.1043930E+01  0.7957747E-01            NaN
         13   -1    0    0    0    0  0.00000000000E+00  0.00000000000E+00  0.74505805969E-08  0.10566000000E+00  0.10566000000E+00 0.  1.
     999900   -1    0    0    0    0 -0.00000000000E+00 -0.00000000000E+00 -0.74505805969E-08  0.93827000000E+00  0.93827000000E+00 0. -1.
     999902    2    1    2    0    0  0.21426870228E-01 -0.14443226923E-02 -0.94481034629E-02  0.10204680415E+01  0.10201982946E+01 0.  0.
     999903    2    3    3    0    0 -0.93883544475E-01  0.68041744706E-01 -0.53473202547E-01  0.12914149383E+00  0.19347948004E-01 0.  0.
         14    1    1    2    0    0 -0.21426870228E-01  0.14443226923E-02  0.94481034629E-02  0.23461958462E-01  0.00000000000E+00 0.  1.
     999901    1    3    3    0    0  0.11531041470E+00 -0.69486067399E-01  0.44025099084E-01  0.89132654771E+00  0.88000000000E+00 0. -1.
        -11    1    4    4    0    0 -0.30250950372E-01  0.33495115327E-01 -0.21202234245E-01  0.49868212392E-01  0.51100000000E-03 0.  1.
         11    1    4    4    0    0 -0.63632594103E-01  0.34546629380E-01 -0.32270968302E-01  0.79273281438E-01  0.51100000000E-03 0. -1.
</event>
<event>
 8    1  0.1170483E+005  0.1043930E+01  0.7957747E-01            NaN
         13   -1    0    0    0    0  0.00000000000E+00  0.00000000000E+00  0.74505805969E-08  0.10566000000E+00  0.10566000000E+00 0.  1.
     999900   -1    0    0    0    0 -0.00000000000E+00 -0.00000000000E+00 -0.74505805969E-08  0.93827000000E+00  0.93827000000E+00 0.  1.
     999902    2    1    2    0    0 -0.11531996015E-01 -0.17938146446E-01 -0.96454829098E-02  0.10205248858E+01  0.10202564595E+01 0.  0.
     999903    2    3    3    0    0  0.11938620875E+00  0.43423613571E-01  0.80907635599E-02  0.12854987698E+00  0.17914613060E-01 0.  0.
         14    1    1    2    0    0  0.11531996015E-01  0.17938146446E-01  0.96454829098E-02  0.23405114197E-01  0.00000000000E+00 0.  1.
     999901    1    3    3    0    0 -0.13091820476E+00 -0.61361760017E-01 -0.17736246470E-01  0.89197500883E+00  0.88000000000E+00 0. -1.
        -11    1    4    4    0    0  0.21704373137E-01  0.54266444897E-02 -0.49777854188E-02  0.22925264499E-01  0.51100000000E-03 0.  1.
         11    1    4    4    0    0  0.97681835611E-01  0.37996969081E-01  0.13068548979E-01  0.10562461248E+00  0.51100000000E-03 0. -1.
</event>
<event>
 8    1  0.1170483E+005  0.1043930E+01  0.7957747E-01            NaN
         13   -1    0    0    0    0  0.00000000000E+00  0.00000000000E+00  0.74505805969E-08  0.10566000000E+00  0.10566000000E+00 0.  1.
     999900   -1    0    0    0    0 -0.00000000000E+00 -0.00000000000E+00 -0.74505805969E-08  0.93827000000E+00  0.93827000000E+00 0. -1.
     999902    2    1    2    0    0  0.19121011193E-01 -0.14319111165E-01 -0.33058209870E-02  0.10198140620E+01  0.10195288827E+01 0.  0.
     999903    2    3    3    0    0  0.19418978257E-01  0.34130206458E-02  0.12711914161E+00  0.13002465536E+00  0.18931175649E-01 0.  0.
         14    1    1    2    0    0 -0.19121011193E-01  0.14319111165E-01  0.33058209870E-02  0.24115938008E-01  0.00000000000E+00 0. -1.
     999901    1    3    3    0    0 -0.29796706437E-03 -0.17732131811E-01 -0.13042496260E+00  0.88978940663E+00  0.88000000000E+00 0. -1.
        -11    1    4    4    0    0  0.79828256014E-02 -0.20796569721E-02  0.96826949568E-01  0.97179060303E-01  0.51100000000E-03 0.  1.
         11    1    4    4    0    0  0.11436152656E-01  0.54926776179E-02  0.30292192044E-01  0.32845595059E-01  0.51100000000E-03 0. -1.
</event>
<event>
 8    1  0.1170483E+005  0.1043930E+01  0.7957747E-01            NaN
         13   -1    0    0    0    0  0.00000000000E+00  0.00000000000E+00  0.74505805969E-08  0.10566000000E+00  0.10566000000E+00 0.  1.
     999900   -1    0    0    0    0 -0.00000000000E+00 -0.00000000000E+00 -0.74505805969E-08  0.93827000000E+00  0.93827000000E+00 0.  1.
     999902    2    1    2    0    0 -0.23303812910E-01 -0.46646833076E-02 -0.45236120633E-02  0.10197372318E+01  0.10194502106E+01 0.  0.
     999903    2    3    3    0    0 -0.24029605117E-01  0.89580798939E-01 -0.89790249517E-01  0.13060668057E+00  0.19841235832E-01 0.  0.
         14    1    1    2    0    0  0.23303812910E-01  0.46646833076E-02  0.45236120633E-02  0.24192768188E-01  0.00000000000E+00 0. -1.
     999901    1    3    3    0    0  0.72579220683E-03 -0.94245482246E-01  0.85266637454E-01  0.88913055125E+00  0.88000000000E+00 0. -1.
        -11    1    4    4    0    0 -0.10805048887E-01  0.62789071102E-01 -0.70570419019E-01  0.95077135489E-01  0.51100000000E-03 0. -1.
         11    1    4    4    0    0 -0.13224556229E-01  0.26791727836E-01 -0.19219830499E-01  0.35529545076E-01  0.51100000000E-03 0.  1.
</event>
<event>
 8    1  0.1170483E+005  0.1043930E+01  0.7957747E-01            NaN
         13   -1    0    0    0    0  0.00000000000E+00  0.00000000000E+00  0.74505805969E-08  0.10566000000E+00  0.10566000000E+00 0.  1.
     999900   -1    0    0    0    0 -0.00000000000E+00 -0.00000000000E+00 -0.74505805969E-08  0.93827000000E+00  0.93827000000E+00 0.  1.
     999902    2    1    2    0    0 -0.92016039218E-02 -0.23027096068E-01  0.21195701429E-02  0.10190420663E+01  0.10187381035E+01 0.  0.
     999903    2    3    3    0    0  0.43207819771E-01  0.50135461422E-01 -0.10758857863E+00  0.12767492226E+00  0.18576957254E-01 0.  0.
         14    1    1    2    0    0  0.92016039218E-02  0.23027096068E-01 -0.21195701429E-02  0.24887933736E-01  0.00000000000E+00 0. -1.
     999901    1    3    3    0    0 -0.52409423693E-01 -0.73162557490E-01  0.10970814877E+00  0.89136714401E+00  0.88000000000E+00 0. -1.
        -11    1    4    4    0    0  0.67604256776E-02  0.20959104175E-01 -0.32903293261E-01  0.39596404276E-01  0.51100000000E-03 0.  1.
         11    1    4    4    0    0  0.36447394094E-01  0.29176357247E-01 -0.74685285366E-01  0.88078517980E-01  0.51100000000E-03 0. -1.
</event>
<event>
 8    1  0.1170483E+005  0.1043930E+01  0.7957747E-01            NaN
         13   -1    0    0    0    0  0.00000000000E+00  0.00000000000E+00  0.74505805969E-08  0.10566000000E+00  0.10566000000E+00 0.  1.
     999900   -1    0    0    0    0 -0.00000000000E+00 -0.00000000000E+00 -0.74505805969E-08  0.93827000000E+00  0.93827000000E+00 0. -1.
     999902    2    1    2    0    0 -0.12362231086E-01 -0.78802174014E-02 -0.15732642529E-01  0.10224256138E+01  0.10221994410E+01 0.  0.
     999903    2    3    3    0    0  0.29755200640E-01  0.12662137397E+00 -0.40965302046E-02  0.13113444073E+00  0.16159074013E-01 0.  0.
         14    1    1    2    0    0  0.12362231086E-01  0.78802174014E-02  0.15732642529E-01  0.21504386173E-01  0.00000000000E+00 0.  1.
     999901    1    3    3    0    0 -0.42117431726E-01 -0.13450159137E+00 -0.11636112325E-01  0.89129117310E+00  0.88000000000E+00 0.  1.
        -11    1    4    4    0    0  0.28926090666E-02  0.45531916634E-01 -0.35484174653E-03  0.45627948159E-01  0.51100000000E-03 0. -1.
         11    1    4    4    0    0  0.26862591574E-01  0.81089457339E-01 -0.37416884580E-02  0.85506492567E-01  0.51100000000E-03 0.  1.
</event>
<event>
 8    1  0.1170483E+005  0.1043930E+01  0.7957747E-01            NaN
         13   -1    0    0    0    0  0.00000000000E+00  0.00000000000E+00  0.74505805969E-08  0.10566000000E+00  0.10566000000E+00 0.  1.
     999900   -1    0    0    0    0 -0.00000000000E+00 -0.00000000000E+00 -0.74505805969E-08  0.93827000000E+00  0.93827000000E+00 0.  1.
     999902    2    1    2    0    0 -0.31393890633E-02  0.16464780789E-01  0.18031157497E-01  0.10193115636E+01  0.10190142277E+01 0.  0.
     999903    2    3    3    0    0  0.12731159526E+00 -0.40327506928E-02  0.13372614686E-01  0.12944679290E+00  0.18792019673E-01 0.  0.
         14    1    1    2    0    0  0.31393890633E-02 -0.16464780789E-01 -0.18031157497E-01  0.24618436400E-01  0.00000000000E+00 0. -1.
     999901    1    3    3    0    0 -0.13045098432E+00  0.20497531482E-01  0.46585428102E-02  0.88986477070E+00  0.88000000000E+00 0. -1.
        -11    1    4    4    0    0  0.39281085302E-01 -0.94576268161E-02  0.70919015754E-02  0.41024462903E-01  0.51100000000E-03 0.  1.
         11    1    4    4    0    0  0.88030509958E-01  0.54248761232E-02  0.62807131109E-02  0.88422329999E-01  0.51100000000E-03 0. -1.
</event>
<event>
 8    1  0.1170483E+005  0.1043930E+01  0.7957747E-01            NaN
         13   -1    0    0    0    0  0.00000000000E+00  0.00000000000E+00  0.74505805969E-08  0.10566000000E+00  0.10566000000E+00 0.  1.
     999900   -1    0    0    0    0 -0.00000000000E+00 -0.00000000000E+00 -0.74505805969E-08  0.93827000000E+00  0.93827000000E+00 0. -1.
     999902    2    1    2    0    0  0.13620343547E-01 -0.63230203063E-02  0.21080857118E-01  0.10180476338E+01  0.10177185700E+01 0.  0.
     999903    2    3    3    0    0  0.18546573205E-01  0.12504607533E+00  0.41446831955E-02  0.12812126547E+00  0.20429976381E-01 0.  0.
         14    1    1    2    0    0 -0.13620343547E-01  0.63230203063E-02 -0.21080857118E-01  0.25882366216E-01  0.00000000000E+00 0. -1.
     999901    1    3    3    0    0 -0.49262296581E-02 -0.13136909564E+00  0.16936173922E-01  0.88992636831E+00  0.88000000000E+00 0.  1.
        -11    1    4    4    0    0  0.37571205227E-02  0.43691979666E-01 -0.78923725198E-02  0.44560696883E-01  0.51100000000E-03 0.  1.
         11    1    4    4    0    0  0.14789452683E-01  0.81354095663E-01  0.12037055715E-01  0.83560568590E-01  0.51100000000E-03 0. -1.
</event>
<event>
 8    1  0.1170483E+005  0.1043930E+01  0.7957747E-01            NaN
         13   -1    0    0    0    0  0.00000000000E+00  0.00000000000E+00  0.74505805969E-08  0.10566000000E+00  0.10566000000E+00 0. -1.
     999900   -1    0    0    0    0 -0.00000000000E+00 -0.00000000000E+00 -0.74505805969E-08  0.93827000000E+00  0.93827000000E+00 0.  1.
     999902    2    1    2    0    0 -0.49880175152E-02 -0.27353811518E-01  0.25081155049E-01  0.10064843639E+01  0.10057875517E+01 0.  0.
     999903    2    3    3    0    0 -0.14411647246E-02  0.11275119759E+00  0.12467340251E-01  0.11530475123E+00  0.20611685240E-01 0.  0.
         14    1    1    2    0    0  0.49880175152E-02  0.27353811518E-01 -0.25081155049E-01  0.37445636086E-01  0.00000000000E+00 0.  1.
     999901    1    3    3    0    0 -0.35468527906E-02 -0.14010500911E+00  0.12613814798E-01  0.89117961269E+00  0.88000000000E+00 0.  1.
        -11    1    4    4    0    0 -0.16738371556E-02  0.60456404097E-01  0.16959068293E-01  0.62814406353E-01  0.51100000000E-03 0. -1.
         11    1    4    4    0    0  0.23267243107E-03  0.52294793497E-01 -0.44917280426E-02  0.52490344875E-01  0.51100000000E-03 0.  1.
</event>
<event>
 8    1  0.1170483E+005  0.1043930E+01  0.7957747E-01            NaN
         13   -1    0    0    0    0  0.00000000000E+00  0.00000000000E+00  0.74505805969E-08  0.10566000000E+00  0.10566000000E+00 0.  1.
     999900   -1    0    0    0    0 -0.00000000000E+00 -0.00000000000E+00 -0.74505805969E-08  0.93827000000E+00  0.93827000000E+00 0. -1.
     999902    2    1    2    0    0  0.16909652469E-01  0.16703017399E-01 -0.19357755700E-02  0.10200831058E+01  0.10198043285E+01 0.  0.
     999903    2    3    3    0    0  0.11886517431E+00 -0.25672252209E-01  0.46883726273E-01  0.13184105788E+00  0.19899410943E-01 0.  0.
         14    1    1    2    0    0 -0.16909652469E-01 -0.16703017399E-01  0.19357755700E-02  0.23846894219E-01  0.00000000000E+00 0. -1.
     999901    1    3    3    0    0 -0.10195552184E+00  0.42375269608E-01 -0.48819501843E-01  0.88824204791E+00  0.88000000000E+00 0. -1.
        -11    1    4    4    0    0  0.79664884716E-01 -0.14242030245E-01  0.21419083289E-01  0.83715993289E-01  0.51100000000E-03 0. -1.
         11    1    4    4    0    0  0.39200289591E-01 -0.11430221964E-01  0.25464642984E-01  0.48125064587E-01  0.51100000000E-03 0.  1.
</event>
<event>
 8    1  0.1170483E+005  0.1043930E+01  0.7957747E-01            NaN
         13   -1    0    0    0    0  0.00000000000E+00  0.00000000000E+00  0.74505805969E-08  0.10566000000E+00  0.10566000000E+00 0. -1.
     999900   -1    0    0    0    0 -0.00000000000E+00 -0.00000000000E+00 -0.74505805969E-08  0.93827000000E+00  0.93827000000E+00 0. -1.
     999902    2    1    2    0    0 -0.26404374358E-02  0.14973858124E-01 -0.17431346544E-01  0.10207990645E+01  0.10205369615E+01 0.  0.
     999903    2    3    3    0    0 -0.12102457426E+00 -0.32955817159E-01 -0.33500964889E-01  0.13143395930E+00  0.20482615819E-01 0.  0.
         14    1    1    2    0    0  0.26404374358E-02 -0.14973858124E-01  0.17431346544E-01  0.23130935548E-01  0.00000000000E+00 0. -1.
     999901    1    3    3    0    0  0.11838413682E+00  0.47929675284E-01  0.16069618345E-01  0.88936510515E+00  0.88000000000E+00 0.  1.
        -11    1    4    4    0    0 -0.60666354801E-01 -0.91217125274E-02 -0.23856656814E-01  0.65825629049E-01  0.51100000000E-03 0.  1.
         11    1    4    4    0    0 -0.60358219456E-01 -0.23834104632E-01 -0.96443080742E-02  0.65608330254E-01  0.51100000000E-03 0. -1.
</event>
<event>
 8    1  0.1170483E+005  0.1043930E+01  0.7957747E-01            NaN
         13   -1    0    0    0    0  0.00000000000E+00  0.00000000000E+00  0.74505805969E-08  0.10566000000E+00  0.10566000000E+00 0. -1.
     999900   -1    0    0    0    0 -0.00000000000E+00 -0.00000000000E+00 -0.74505805969E-08  0.93827000000E+00  0.93827000000E+00 0.  1.
     999902    2    1    2    0    0 -0.88674324990E-02 -0.22005135887E-01 -0.26249872490E-02  0.10200606070E+01  0.10197812971E+01 0.  0.
     999903    2    3    3    0    0  0.84870518269E-01  0.31555919123E-01  0.89335597019E-01  0.12870639060E+00  0.19639378364E-01 0.  0.
         14    1    1    2    0    0  0.88674324990E-02  0.22005135887E-01  0.26249872490E-02  0.23869393008E-01  0.00000000000E+00 0.  1.
     999901    1    3    3    0    0 -0.93737950768E-01 -0.53561055010E-01 -0.91960584268E-01  0.89135421640E+00  0.88000000000E+00 0.  1.
        -11    1    4    4    0    0  0.32145882555E-01  0.16989726662E-01  0.24351552914E-01  0.43763773005E-01  0.51100000000E-03 0.  1.
         11    1    4    4    0    0  0.52724635714E-01  0.14566192461E-01  0.64984044105E-01  0.84942617592E-01  0.51100000000E-03 0. -1.
</event>
<event>
 7    1  0.1170483E+005  0.1043930E+01  0.7957747E-01            NaN
         13   -1    0    0    0    0  0.00000000000E+00  0.00000000000E+00  0.74505805969E-08  0.10566000000E+00  0.10566000000E+00 0. -1.
     999900   -1    0    0    0    0 -0.00000000000E+00 -0.00000000000E+00 -0.74505805969E-08  0.93827000000E+00  0.93827000000E+00 0.  1.
     999903    2    1    2    0    0 -0.60655979101E-02 -0.92903386123E-01  0.44268879731E-01  0.10597780560E+00  0.24570936817E-01 0.  0.
         14    1    1    2    0    0 -0.13431224901E-03 -0.43082435095E-01  0.14735521275E-01  0.45532953349E-01  0.00000000000E+00 0.  1.
     999901    1    1    2    0    0  0.61999101591E-02  0.13598582122E+00 -0.59004401006E-01  0.89241924105E+00  0.88000000000E+00 0.  1.
        -11    1    3    3    0    0  0.55699307966E-02 -0.71541795949E-01  0.35974572567E-01  0.80272558755E-01  0.51100000000E-03 0.  1.
         11    1    3    3    0    0 -0.11635528707E-01 -0.21361590175E-01  0.82943071639E-02  0.25705246846E-01  0.51100000000E-03 0. -1.
</event>
<event>
 8    1  0.1170483E+005  0.1043930E+01  0.7957747E-01            NaN
         13   -1    0    0    0    0  0.00000000000E+00  0.00000000000E+00  0.74505805969E-08  0.10566000000E+00  0.10566000000E+00 0.  1.
     999900   -1    0    0    0    0 -0.00000000000E+00 -0.00000000000E+00 -0.74505805969E-08  0.93827000000E+00  0.93827000000E+00 0. -1.
     999902    2    1    2    0    0  0.17288090999E-01 -0.13128504432E-02 -0.16225905021E-01  0.10201838075E+01  0.10199074072E+01 0.  0.
     999903    2    3    3    0    0 -0.73779898827E-01 -0.35568580336E-01  0.96035830471E-01  0.12773239082E+00  0.19598100712E-01 0.  0.
         14    1    1    2    0    0 -0.17288090999E-01  0.13128504432E-02  0.16225905021E-01  0.23746192546E-01  0.00000000000E+00 0. -1.
     999901    1    3    3    0    0  0.91067989826E-01  0.34255729893E-01 -0.11226173549E+00  0.89245141664E+00  0.88000000000E+00 0. -1.
        -11    1    4    4    0    0 -0.42770578445E-01 -0.10777393153E-01  0.44285075293E-01  0.62505228569E-01  0.51100000000E-03 0. -1.
         11    1    4    4    0    0 -0.31009320382E-01 -0.24791187184E-01  0.51750755178E-01  0.65227162249E-01  0.51100000000E-03 0.  1.
</event>
<event>
 8    1  0.1170483E+005  0.1043930E+01  0.7957747E-01            NaN
         13   -1    0    0    0    0  0.00000000000E+00  0.00000000000E+00  0.74505805969E-08  0.10566000000E+00  0.10566000000E+00 0.  1.
     999900   -1    0    0    0    0 -0.00000000000E+00 -0.00000000000E+00 -0.74505805969E-08  0.93827000000E+00  0.93827000000E+00 0.  1.
     999902    2    1    2    0    0  0.14063105947E-01  0.11756004065E-01 -0.16211917368E-01  0.10194595925E+01  0.10191658647E+01 0.  0.
     999903    2    3    3    0    0 -0.11012066936E+00  0.53399054372E-01 -0.37642281175E-01  0.12950733858E+00  0.19421343591E-01 0.  0.
         14    1    1    2    0    0 -0.14063105947E-01 -0.11756004065E-01  0.16211917368E-01  0.24470407541E-01  0.00000000000E+00 0.  1.
     999901    1    3    3    0    0  0.12418377530E+00 -0.41643050307E-01  0.21430363807E-01  0.88995225388E+00  0.88000000000E+00 0. -1.
        -11    1    4    4    0    0 -0.55222337449E-01  0.33912453265E-01 -0.27386054967E-01  0.70354944158E-01  0.51100000000E-03 0. -1.
         11    1    4    4    0    0 -0.54898331909E-01  0.19486601107E-01 -0.10256226209E-01  0.59152394425E-01  0.51100000000E-03 0.  1.
</event>
<event>
 8    1  0.1170483E+005  0.1043930E+01  0.7957747E-01            NaN
         13   -1    0    0    0    0  0.00000000000E+00  0.00000000000E+00  0.74505805969E-08  0.10566000000E+00  0.10566000000E+00 0.  1.
     999900   -1    0    0    0    0 -0.00000000000E+00 -0.00000000000E+00 -0.74505805969E-08  0.93827000000E+00  0.93827000000E+00 0. -1.
     999902    2    1    2    0    0 -0.22221008810E-01 -0.46792877564E-02  0.46412370668E-02  0.10207522079E+01  0.10204890297E+01 0.  0.
     999903    2    3    3    0    0  0.10746178973E+00  0.27929354065E-01 -0.60438458849E-01  0.12827457870E+00  0.21759484386E-01 0.  0.
         14    1    1    2    0    0  0.22221008810E-01  0.46792877564E-02 -0.46412370668E-02  0.23177792129E-01  0.00000000000E+00 0.  1.
     999901    1    3    3    0    0 -0.12968279854E+00 -0.32608641822E-01  0.65079695916E-01  0.89247762918E+00  0.88000000000E+00 0.  1.
        -11    1    4    4    0    0  0.66601132788E-01  0.27851877788E-01 -0.36150443095E-01  0.80737560293E-01  0.51100000000E-03 0.  1.
         11    1    4    4    0    0  0.40860656943E-01  0.77476276729E-04 -0.24288015753E-01  0.47537018402E-01  0.51100000000E-03 0. -1.
</event>
<event>
 8    1  0.1170483E+005  0.1043930E+01  0.7957747E-01            NaN
         13   -1    0    0    0    0  0.00000000000E+00  0.00000000000E+00  0.74505805969E-08  0.10566000000E+00  0.10566000000E+00 0.  1.
     999900   -1    0    0    0    0 -0.00000000000E+00 -0.00000000000E+00 -0.74505805969E-08  0.93827000000E+00  0.93827000000E+00 0. -1.
     999902    2    1    2    0    0  0.15934461666E-03 -0.13534297631E-01  0.19576395403E-01  0.10201300450E+01  0.10198523769E+01 0.  0.
     999903    2    3    3    0    0  0.70200874121E-01  0.77520989606E-01 -0.71185163404E-01  0.12803445493E+00  0.19693339068E-01 0.  0.
         14    1    1    2    0    0 -0.15934461666E-03  0.13534297631E-01 -0.19576395403E-01  0.23799955043E-01  0.00000000000E+00 0. -1.
     999901    1    3    3    0    0 -0.70041529504E-01 -0.91055287237E-01  0.90761558806E-01  0.89209559003E+00  0.88000000000E+00 0.  1.
        -11    1    4    4    0    0  0.42833624716E-01  0.37493412452E-01 -0.29649805590E-01  0.64186038016E-01  0.51100000000E-03 0.  1.
         11    1    4    4    0    0  0.27367249405E-01  0.40027577154E-01 -0.41535357813E-01  0.63848416915E-01  0.51100000000E-03 0. -1.
</event>
<event>
 8    1  0.1170483E+005  0.1043930E+01  0.7957747E-01            NaN
         13   -1    0    0    0    0  0.00000000000E+00  0.00000000000E+00  0.74505805969E-08  0.10566000000E+00  0.10566000000E+00 0.  1.
     999900   -1    0    0    0    0 -0.00000000000E+00 -0.00000000000E+00 -0.74505805969E-08  0.93827000000E+00  0.93827000000E+00 0.  1.
     999902    2    1    2    0    0  0.20056739778E-02  0.17272588395E-01 -0.15957108724E-01  0.10203292721E+01  0.10200562873E+01 0.  0.
     999903    2    3    3    0    0  0.95999785887E-01  0.56902536783E-01  0.64694977935E-01  0.13077309909E+00  0.21501295138E-01 0.  0.
         14    1    1    2    0    0 -0.20056739778E-02 -0.17272588395E-01  0.15957108724E-01  0.23600727887E-01  0.00000000000E+00 0.  1.
     999901    1    3    3    0    0 -0.93994111909E-01 -0.39629948388E-01 -0.80652086659E-01  0.88955617302E+00  0.88000000000E+00 0.  1.
        -11    1    4    4    0    0  0.11034718336E-01  0.13285268839E-02  0.16081740668E-02  0.11241767533E-01  0.51100000000E-03 0.  1.
         11    1    4    4    0    0  0.84965067551E-01  0.55574009899E-01  0.63086803868E-01  0.11953133156E+00  0.51100000000E-03 0. -1.
</event>
<event>
 8    1  0.1170483E+005  0.1043930E+01  0.7957747E-01            NaN
         13   -1    0    0    0    0  0.00000000000E+00  0.00000000000E+00  0.74505805969E-08  0.10566000000E+00  0.10566000000E+00 0. -1.
     999900   -1    0    0    0    0 -0.00000000000E+00 -0.00000000000E+00 -0.74505805969E-08  0.93827000000E+00  0.93827000000E+00 0.  1.
     999902    2    1    2    0    0 -0.31919717761E-02  0.20219489168E-01  0.88899616615E-02  0.10216130144E+01  0.10213692297E+01 0.  0.
     999903    2    3    3    0    0 -0.14464997319E-01 -0.12425679174E+00  0.27040045001E-01  0.12957607441E+00  0.20243729534E-01 0.  0.
         14    1    1    2    0    0  0.31919717761E-02 -0.20219489168E-01 -0.88899616615E-02  0.22316985557E-01  0.00000000000E+00 0.  1.
     999901    1    3    3    0    0  0.11273025543E-01  0.14447628091E+00 -0.18150083339E-01  0.89203694003E+00  0.88000000000E+00 0.  1.
        -11    1    4    4    0    0 -0.57659391066E-02 -0.81796774449E-01  0.85284747518E-02  0.82443643579E-01  0.51100000000E-03 0.  1.
         11    1    4    4    0    0 -0.86990582124E-02 -0.42460017293E-01  0.18511570249E-01  0.47132430835E-01  0.51100000000E-03 0. -1.
</event>
<event>
 8    1  0.1170483E+005  0.1043930E+01  0.7957747E-01            NaN
         13   -1    0    0    0    0  0.00000000000E+00  0.00000000000E+00  0.74505805969E-08  0.10566000000E+00  0.10566000000E+00 0.  1.
     999900   -1    0    0    0    0 -0.00000000000E+00 -0.00000000000E+00 -0.74505805969E-08  0.93827000000E+00  0.93827000000E+00 0.  1.
     999902    2    1    2    0    0  0.44776946220E-02 -0.68896303540E-02 -0.15489554556E-01  0.10263959458E+01  0.10262461666E+01 0.  0.
     999903    2    3    3    0    0 -0.83262069740E-01 -0.10285438594E+00  0.24216916049E-01  0.13595554671E+00  0.19643184414E-01 0.  0.
         14    1    1    2    0    0 -0.44776946220E-02  0.68896303540E-02  0.15489554556E-01  0.17534054177E-01  0.00000000000E+00 0.  1.
     999901    1    3    3    0    0  0.87739764362E-01  0.95964755585E-01 -0.39706470605E-01  0.89044039911E+00  0.88000000000E+00 0.  1.
        -11    1    4    4    0    0 -0.46410446120E-01 -0.62802543753E-01  0.23394634077E-01  0.81520911645E-01  0.51100000000E-03 0. -1.
         11    1    4    4    0    0 -0.36851623621E-01 -0.40051842187E-01  0.82228197198E-03  0.54434635065E-01  0.51100000000E-03 0.  1.
</event>
<event>
 8    1  0.1170483E+005  0.1043930E+01  0.7957747E-01            NaN
         13   -1    0    0    0    0  0.00000000000E+00  0.00000000000E+00  0.74505805969E-08  0.10566000000E+00  0.10566000000E+00 0. -1.
     999900   -1    0    0    0    0 -0.00000000000E+00 -0.00000000000E+00 -0.74505805969E-08  0.93827000000E+00  0.93827000000E+00 0.  1.
     999902    2    1    2    0    0 -0.66076215763E-03  0.88461687779E-02  0.20689880671E-01  0.10214186146E+01  0.10211705165E+01 0.  0.
     999903    2    3    3    0    0 -0.12389167595E+00  0.24605730603E-01  0.33733272384E-01  0.13259672474E+00  0.22121672589E-01 0.  0.
         14    1    1    2    0    0  0.66076215763E-03 -0.88461687779E-02 -0.20689880671E-01  0.22511385361E-01  0.00000000000E+00 0.  1.
     999901    1    3    3    0    0  0.12323091379E+00 -0.15759561825E-01 -0.13043391712E-01  0.88882188990E+00  0.88000000000E+00 0.  1.
        -11    1    4    4    0    0 -0.19919916065E-01  0.12465939028E-01  0.76286277431E-02  0.24711531198E-01  0.51100000000E-03 0.  1.
         11    1    4    4    0    0 -0.10397175988E+00  0.12139791574E-01  0.26104644641E-01  0.10788519354E+00  0.51100000000E-03 0. -1.
</event>
<event>
 8    1  0.1170483E+005  0.1043930E+01  0.7957747E-01            NaN
         13   -1    0    0    0    0  0.00000000000E+00  0.00000000000E+00  0.74505805969E-08  0.10566000000E+00  0.10566000000E+00 0.  1.
     999900   -1    0    0    0    0 -0.00000000000E+00 -0.00000000000E+00 -0.74505805969E-08  0.93827000000E+00  0.93827000000E+00 0. -1.
     999902    2    1    2    0    0 -0.20583216093E-01 -0.47361076256E-02  0.11918351877E-01  0.10196782658E+01  0.10193898269E+01 0.  0.
     999903    2    3    3    0    0  0.39288349438E-01 -0.83721384072E-01  0.90152816081E-01  0.13066538083E+00  0.19825916060E-01 0.  0.
         14    1    1    2    0    0  0.20583216093E-01  0.47361076256E-02 -0.11918351877E-01  0.24251734199E-01  0.00000000000E+00 0. -1.
     999901    1    3    3    0    0 -0.59871565532E-01  0.78985276446E-01 -0.78234464204E-01  0.88901288497E+00  0.88000000000E+00 0.  1.
        -11    1    4    4    0    0  0.10755187732E-01 -0.46134182482E-01  0.43976587402E-01  0.64639293135E-01  0.51100000000E-03 0. -1.
         11    1    4    4    0    0  0.28533161706E-01 -0.37587201590E-01  0.46176228679E-01  0.66026087695E-01  0.51100000000E-03 0.  1.
</event>
<event>
 8    1  0.1170483E+005  0.1043930E+01  0.7957747E-01            NaN
         13   -1    0    0    0    0  0.00000000000E+00  0.00000000000E+00  0.74505805969E-08  0.10566000000E+00  0.10566000000E+00 0.  1.
     999900   -1    0    0    0    0 -0.00000000000E+00 -0.00000000000E+00 -0.74505805969E-08  0.93827000000E+00  0.93827000000E+00 0.  1.
     999902    2    1    2    0    0  0.62549848497E-02  0.77155115422E-02  0.24722183104E-01  0.10172871719E+01  0.10169382232E+01 0.  0.
     999903    2    3    3    0    0 -0.17232415147E-01 -0.10596448005E+00 -0.61973130358E-01  0.12544028151E+00  0.19213749671E-01 0.  0.
         14    1    1    2    0    0 -0.62549848497E-02 -0.77155115422E-02 -0.24722183104E-01  0.26642828140E-01  0.00000000000E+00 0. -1.
     999901    1    3    3    0    0  0.23487399997E-01  0.11367999159E+00  0.86695313462E-01  0.89184689035E+00  0.88000000000E+00 0. -1.
        -11    1    4    4    0    0 -0.12869954262E-01 -0.26851753938E-01 -0.15306371585E-01  0.33484302954E-01  0.51100000000E-03 0. -1.
         11    1    4    4    0    0 -0.43624608849E-02 -0.79112726108E-01 -0.46666758773E-01  0.91955978559E-01  0.51100000000E-03 0.  1.
</event>
<event>
 8    1  0.1170483E+005  0.1043930E+01  0.7957747E-01            NaN
         13   -1    0    0    0    0  0.00000000000E+00  0.00000000000E+00  0.74505805969E-08  0.10566000000E+00  0.10566000000E+00 0.  1.
     999900   -1    0    0    0    0 -0.00000000000E+00 -0.00000000000E+00 -0.74505805969E-08  0.93827000000E+00  0.93827000000E+00 0. -1.
     999902    2    1    2    0    0 -0.41042567892E-02 -0.23482996170E-01 -0.28337208721E-02  0.10199232092E+01  0.10196406360E+01 0.  0.
     999903    2    3    3    0    0 -0.66461719684E-01  0.63483945524E-01 -0.88747563908E-01  0.12928698119E+00  0.19789438683E-01 0.  0.
         14    1    1    2    0    0  0.41042567892E-02  0.23482996170E-01  0.28337208721E-02  0.24006790850E-01  0.00000000000E+00 0.  1.
     999901    1    3    3    0    0  0.62357462895E-01 -0.86966941695E-01  0.85913843036E-01  0.89063622796E+00  0.88000000000E+00 0. -1.
        -11    1    4    4    0    0 -0.25512422536E-01  0.37894299692E-01 -0.45047308686E-01  0.64159042960E-01  0.51100000000E-03 0.  1.
         11    1    4    4    0    0 -0.40949297148E-01  0.25589645833E-01 -0.43700255223E-01  0.65127938232E-01  0.51100000000E-03 0. -1.
</event>
<event>
 8    1  0.1170483E+005  0.1043930E+01  0.7957747E-01            NaN
         13   -1    0    0    0    0  0.00000000000E+00  0.00000000000E+00  0.74505805969E-08  0.10566000000E+00  0.10566000000E+00 0.  1.
     999900   -1    0    0    0    0 -0.00000000000E+00 -0.00000000000E+00 -0.74505805969E-08  0.93827000000E+00  0.93827000000E+00 0.  1.
     999902    2    1    2    0    0 -0.13079934182E-01 -0.16345568873E-01  0.10922014212E-01  0.10203174463E+01  0.10200441846E+01 0.  0.
     999903    2    3    3    0    0 -0.92222000322E-01  0.50200827979E-01 -0.74369993584E-01  0.13016767450E+00  0.19690278436E-01 0.  0.
         14    1    1    2    0    0  0.13079934182E-01  0.16345568873E-01 -0.10922014212E-01  0.23612553746E-01  0.00000000000E+00 0. -1.
     999901    1    3    3    0    0  0.79142066140E-01 -0.66546396852E-01  0.85292007796E-01  0.89014977176E+00  0.88000000000E+00 0. -1.
        -11    1    4    4    0    0 -0.78338712505E-01  0.33828043518E-01 -0.58262960613E-01  0.10332533138E+00  0.51100000000E-03 0.  1.
         11    1    4    4    0    0 -0.13883287816E-01  0.16372784461E-01 -0.16107032971E-01  0.26842343112E-01  0.51100000000E-03 0. -1.
</event>
<event>
 8    1  0.1170483E+005  0.1043930E+01  0.7957747E-01            NaN
         13   -1    0    0    0    0  0.00000000000E+00  0.00000000000E+00  0.74505805969E-08  0.10566000000E+00  0.10566000000E+00 0. -1.
     999900   -1    0    0    0    0 -0.00000000000E+00 -0.00000000000E+00 -0.74505805969E-08  0.93827000000E+00  0.93827000000E+00 0.  1.
     999902    2    1    2    0    0  0.14379583748E-01  0.12970771204E-02 -0.20236100112E-01  0.10190713076E+01  0.10187680676E+01 0.  0.
     999903    2    3    3    0    0  0.47462624003E-01 -0.11813768786E+00  0.13139972220E-01  0.12976083720E+00  0.21354204068E-01 0.  0.
         14    1    1    2    0    0 -0.14379583748E-01 -0.12970771204E-02  0.20236100112E-01  0.24858692354E-01  0.00000000000E+00 0. -1.
     999901    1    3    3    0    0 -0.33083040255E-01  0.11943476498E+00 -0.33376072331E-01  0.88931047044E+00  0.88000000000E+00 0.  1.
        -11    1    4    4    0    0  0.87529419950E-02 -0.35473144833E-01  0.12042014386E-01  0.38473747275E-01  0.51100000000E-03 0. -1.
         11    1    4    4    0    0  0.38709682007E-01 -0.82664543026E-01  0.10979578338E-02  0.91287089926E-01  0.51100000000E-03 0.  1.
</event>
<event>
 8    1  0.1170483E+005  0.1043930E+01  0.7957747E-01            NaN
         13   -1    0    0    0    0  0.00000000000E+00  0.00000000000E+00  0.74505805969E-08  0.10566000000E+00  0.10566000000E+00 0. -1.
     999900   -1    0    0    0    0 -0.00000000000E+00 -0.00000000000E+00 -0.74505805969E-08  0.93827000000E+00  0.93827000000E+00 0. -1.
     999902    2    1    2    0    0  0.11536366190E-01 -0.86785383741E-02 -0.21788872060E-01  0.10177926758E+01  0.10174570119E+01 0.  0.
     999903    2    3    3    0    0  0.22719448294E-01  0.73830202844E-01 -0.10123692780E+00  0.13029915619E+00  0.27602216773E-01 0.  0.
         14    1    1    2    0    0 -0.11536366190E-01  0.86785383741E-02  0.21788872060E-01  0.26137324248E-01  0.00000000000E+00 0. -1.
     999901    1    3    3    0    0 -0.11183082104E-01 -0.82508741218E-01  0.79448055741E-01  0.88749351956E+00  0.88000000000E+00 0.  1.
        -11    1    4    4    0    0  0.18263290773E-02  0.49066145761E-01 -0.68048651854E-01  0.83914851355E-01  0.51100000000E-03 0. -1.
         11    1    4    4    0    0  0.20893119217E-01  0.24764057083E-01 -0.33188275946E-01  0.46384304836E-01  0.51100000000E-03 0.  1.
</event>
<event>
 8    1  0.1170483E+005  0.1043930E+01  0.7957747E-01            NaN
         13   -1    0    0    0    0  0.00000000000E+00  0.00000000000E+00  0.74505805969E-08  0.10566000000E+00  0.10566000000E+00 0. -1.
     999900   -1    0    0    0    0 -0.00000000000E+00 -0.00000000000E+00 -0.74505805969E-08  0.93827000000E+00  0.93827000000E+00 0.  1.
     999902    2    1    2    0    0 -0.16052333882E-01  0.17542674878E-02 -0.16745659466E-01  0.10206668964E+01  0.10204017549E+01 0.  0.
     999903    2    3    3    0    0  0.11277412241E+00 -0.58117006478E-02  0.57189082428E-01  0.12818729117E+00  0.20238871509E-01 0.  0.
         14    1    1    2    0    0  0.16052333882E-01 -0.17542674878E-02  0.16745659466E-01  0.23263103585E-01  0.00000000000E+00 0. -1.
     999901    1    3    3    0    0 -0.12882645629E+00  0.75659681356E-02 -0.73934741894E-01  0.89247960524E+00  0.88000000000E+00 0. -1.
        -11    1    4    4    0    0  0.39563558156E-01 -0.11627884411E-01  0.18946161623E-01  0.45383928775E-01  0.51100000000E-03 0.  1.
         11    1    4    4    0    0  0.73210564252E-01  0.58161837629E-02  0.38242920806E-01  0.82803362398E-01  0.51100000000E-03 0. -1.
</event>
<event>
 8    1  0.1170483E+005  0.1043930E+01  0.7957747E-01            NaN
         13   -1    0    0    0    0  0.00000000000E+00  0.00000000000E+00  0.74505805969E-08  0.10566000000E+00  0.10566000000E+00 0. -1.
     999900   -1    0    0    0    0 -0.00000000000E+00 -0.00000000000E+00 -0.74505805969E-08  0.93827000000E+00  0.93827000000E+00 0. -1.
     999902    2    1    2    0    0  0.15236353395E-02  0.21638599960E-01  0.94942683240E-02  0.10202510726E+01  0.10199762544E+01 0.  0.
     999903    2    3    3    0    0  0.10009393907E+00  0.75601934035E-01 -0.35344418846E-01  0.13197259481E+00  0.20810784921E-01 0.  0.
         14    1    1    2    0    0 -0.15236353395E-02 -0.21638599960E-01 -0.94942683240E-02  0.23678927422E-01  0.00000000000E+00 0.  1.
     999901    1    3    3    0    0 -0.98570303727E-01 -0.53963334075E-01  0.44838687170E-01  0.88827847777E+00  0.88000000000E+00 0.  1.
        -11    1    4    4    0    0  0.69516520022E-01  0.49101428605E-01 -0.33495198071E-01  0.91464125546E-01  0.51100000000E-03 0. -1.
         11    1    4    4    0    0  0.30577419045E-01  0.26500505430E-01 -0.18492207748E-02  0.40508469262E-01  0.51100000000E-03 0.  1.
</event>
<event>
 8    1  0.1170483E+005  0.1043930E+01  0.7957747E-01            NaN
         13   -1    0    0    0    0  0.00000000000E+00  0.00000000000E+00  0.74505805969E-08  0.10566000000E+00  0.10566000000E+00 0. -1.
     999900   -1    0    0    0    0 -0.00000000000E+00 -0.00000000000E+00 -0.74505805969E-08  0.93827000000E+00  0.93827000000E+00 0.  1.
     999902    2    1    2    0    0 -0.44241082122E-02  0.18439441837E-01  0.12933986219E-01  0.10209762694E+01  0.10207182123E+01 0.  0.
     999903    2    3    3    0    0 -0.11072194282E+00  0.12601047864E-01 -0.65573133235E-01  0.13109049904E+00  0.21604353924E-01 0.  0.
         14    1    1    2    0    0  0.44241082122E-02 -0.18439441837E-01 -0.12933986219E-01  0.22953730595E-01  0.00000000000E+00 0.  1.
     999901    1    3    3    0    0  0.10629783461E+00  0.58383939738E-02  0.78507119453E-01  0.88988577036E+00  0.88000000000E+00 0. -1.
        -11    1    4    4    0    0 -0.45403667175E-01 -0.12247350594E-02 -0.36486344197E-01  0.58262401279E-01  0.51100000000E-03 0. -1.
         11    1    4    4    0    0 -0.65318275644E-01  0.13825782923E-01 -0.29086789037E-01  0.72828097765E-01  0.51100000000E-03 0.  1.
</event>
<event>
 8    1  0.1170483E+005  0.1043930E+01  0.7957747E-01            NaN
         13   -1    0    0    0    0  0.00000000000E+00  0.00000000000E+00  0.74505805969E-08  0.10566000000E+00  0.10566000000E+00 0.  1.
     999900   -1    0    0    0    0 -0.00000000000E+00 -0.00000000000E+00 -0.74505805969E-08  0.93827000000E+00  0.93827000000E+00 0. -1.
     999902    2    1    2    0    0  0.51068960954E-02 -0.11990624246E-01  0.16974062492E-01  0.10225296669E+01  0.10223057006E+01 0.  0.
     999903    2    3    3    0    0  0.56978691781E-01  0.38269634305E-01 -0.10929491034E+00  0.13058761149E+00  0.19915085327E-01 0.  0.
         14    1    1    2    0    0 -0.51068960954E-02  0.11990624246E-01 -0.16974062492E-01  0.21400333058E-01  0.00000000000E+00 0. -1.
     999901    1    3    3    0    0 -0.51871795685E-01 -0.50260258551E-01  0.12626897283E+00  0.89194205545E+00  0.88000000000E+00 0.  1.
        -11    1    4    4    0    0  0.37665704460E-01  0.34472439310E-01 -0.86686012175E-01  0.10060705836E+00  0.51100000000E-03 0. -1.
         11    1    4    4    0    0  0.19312987320E-01  0.37971949955E-02 -0.22608898161E-01  0.29980553132E-01  0.51100000000E-03 0.  1.
</event>
<event>
 8    1  0.1170483E+005  0.1043930E+01  0.7957747E-01            NaN
         13   -1    0    0    0    0  0.00000000000E+00  0.00000000000E+00  0.74505805969E-08  0.10566000000E+00  0.10566000000E+00 0.  1.
     999900   -1    0    0    0    0 -0.00000000000E+00 -0.00000000000E+00 -0.74505805969E-08  0.93827000000E+00  0.93827000000E+00 0.  1.
     999902    2    1    2    0    0  0.12742253988E-01  0.12688391335E-01 -0.15465278918E-01  0.10202121763E+01  0.10199364438E+01 0.  0.
     999903    2    3    3    0    0 -0.88870294761E-01  0.28850143712E-02 -0.93853830221E-01  0.13084949363E+00  0.20169182861E-01 0.  0.
         14    1    1    2    0    0 -0.12742253988E-01 -0.12688391335E-01  0.15465278918E-01  0.23717823748E-01  0.00000000000E+00 0.  1.
     999901    1    3    3    0    0  0.10161254875E+00  0.98033769634E-02  0.78388551304E-01  0.88936268262E+00  0.88000000000E+00 0.  1.
        -11    1    4    4    0    0 -0.54836410550E-01 -0.12965699834E-02 -0.43904383439E-01  0.70260721757E-01  0.51100000000E-03 0.  1.
         11    1    4    4    0    0 -0.34033884212E-01  0.41815843546E-02 -0.49949446782E-01  0.60588771873E-01  0.51100000000E-03 0. -1.
</event>
<event>
 8    1  0.1170483E+005  0.1043930E+01  0.7957747E-01            NaN
         13   -1    0    0    0    0  0.00000000000E+00  0.00000000000E+00  0.74505805969E-08  0.10566000000E+00  0.10566000000E+00 0.  1.
     999900   -1    0    0    0    0 -0.00000000000E+00 -0.00000000000E+00 -0.74505805969E-08  0.93827000000E+00  0.93827000000E+00 0.  1.
     999902    2    1    2    0    0  0.63379224287E-02 -0.14109608895E-01 -0.17345331692E-01  0.10206897148E+01  0.10204250992E+01 0.  0.
     999903    2    3    3    0    0 -0.10883902281E+00  0.21016342212E-01  0.62475274801E-01  0.12891009497E+00  0.20664779163E-01 0.  0.
         14    1    1    2    0    0 -0.63379224287E-02  0.14109608895E-01  0.17345331692E-01  0.23240285183E-01  0.00000000000E+00 0.  1.
     999901    1    3    3    0    0  0.11517694524E+00 -0.35125951107E-01 -0.79820606493E-01  0.89177961985E+00  0.88000000000E+00 0.  1.
        -11    1    4    4    0    0 -0.67712161276E-01  0.21258405150E-01  0.32762374470E-01  0.78169628860E-01  0.51100000000E-03 0. -1.
         11    1    4    4    0    0 -0.41126861531E-01 -0.24206293866E-03  0.29712900331E-01  0.50740466109E-01  0.51100000000E-03 0.  1.
</event>
<event>
 8    1  0.1170483E+005  0.1043930E+01  0.7957747E-01            NaN
         13   -1    0    0    0    0  0.00000000000E+00  0.00000000000E+00  0.74505805969E-08  0.10566000000E+00  0.10566000000E+00 0. -1.
     999900   -1    0    0    0    0 -0.00000000000E+00 -0.00000000000E+00 -0.74505805969E-08  0.93827000000E+00  0.93827000000E+00 0. -1.
     999902    2    1    2    0    0  0.23031311460E-01 -0.13044983675E-01 -0.17879716952E-02  0.10174005871E+01  0.10170546420E+01 0.  0.
     999903    2    3    3    0    0  0.12068990472E+00  0.25170679316E-01 -0.37197601781E-01  0.13046683554E+00  0.20936031137E-01 0.  0.
         14    1    1    2    0    0 -0.23031311460E-01  0.13044983675E-01  0.17879716952E-02  0.26529412912E-01  0.00000000000E+00 0. -1.
     999901    1    3    3    0    0 -0.97658593255E-01 -0.38215662991E-01  0.35409630086E-01  0.88693375155E+00  0.88000000000E+00 0. -1.
        -11    1    4    4    0    0  0.43687977246E-01  0.15897253952E-01 -0.21984165982E-01  0.51428850988E-01  0.51100000000E-03 0.  1.
         11    1    4    4    0    0  0.77001927470E-01  0.92734253647E-02 -0.15213435799E-01  0.79037984551E-01  0.51100000000E-03 0. -1.
</event>
<event>
 8    1  0.1170483E+005  0.1043930E+01  0.7957747E-01            NaN
         13   -1    0    0    0    0  0.00000000000E+00  0.00000000000E+00  0.74505805969E-08  0.10566000000E+00  0.10566000000E+00 0. -1.
     999900   -1    0    0    0    0 -0.00000000000E+00 -0.00000000000E+00 -0.74505805969E-08  0.93827000000E+00  0.93827000000E+00 0.  1.
     999902    2    1    2    0    0  0.58086906645E-02  0.21455471918E-01 -0.82054432221E-02  0.10202359615E+01  0.10199607883E+01 0.  0.
     999903    2    3    3    0    0  0.12718911885E+00 -0.13338826973E-01 -0.21161845258E-01  0.13112870140E+00  0.19796878004E-01 0.  0.
         14    1    1    2    0    0 -0.58086906645E-02 -0.21455471918E-01  0.82054432221E-02  0.23694038511E-01  0.00000000000E+00 0.  1.
     999901    1    3    3    0    0 -0.12138042818E+00  0.34794298892E-01  0.12956402036E-01  0.88910726008E+00  0.88000000000E+00 0. -1.
        -11    1    4    4    0    0  0.61598821365E-01 -0.98793993417E-02 -0.91257026494E-03  0.62394801309E-01  0.51100000000E-03 0.  1.
         11    1    4    4    0    0  0.65590297484E-01 -0.34594276316E-02 -0.20249274993E-01  0.68733900096E-01  0.51100000000E-03 0. -1.
</event>
<event>
 8    1  0.1170483E+005  0.1043930E+01  0.7957747E-01            NaN
         13   -1    0    0    0    0  0.00000000000E+00  0.00000000000E+00  0.74505805969E-08  0.10566000000E+00  0.10566000000E+00 0. -1.
     999900   -1    0    0    0    0 -0.00000000000E+00 -0.00000000000E+00 -0.74505805969E-08  0.93827000000E+00  0.93827000000E+00 0. -1.
     999902    2    1    2    0    0  0.92720199401E-02 -0.60699038616E-03  0.16218892719E-01  0.10252379891E+01  0.10250675797E+01 0.  0.
     999903    2    3    3    0    0 -0.50652489102E-01 -0.11082005371E+00  0.55824897820E-01  0.13545908298E+00  0.19646500648E-01 0.  0.
         14    1    1    2    0    0 -0.92720199401E-02  0.60699038616E-03 -0.16218892719E-01  0.18692010917E-01  0.00000000000E+00 0.  1.
     999901    1    3    3    0    0  0.59924509042E-01  0.11021306332E+00 -0.39606005101E-01  0.88977890611E+00  0.88000000000E+00 0. -1.
        -11    1    4    4    0    0 -0.18236227475E-01 -0.63277413791E-01  0.28525858850E-01  0.71767519343E-01  0.51100000000E-03 0. -1.
         11    1    4    4    0    0 -0.32416261627E-01 -0.47542639920E-01  0.27299038969E-01  0.63691563633E-01  0.51100000000E-03 0.  1.
</event>
<event>
 8    1  0.1170483E+005  0.1043930E+01  0.7957747E-01            NaN
         13   -1    0    0    0    0  0.00000000000E+00  0.00000000000E+00  0.74505805969E-08  0.10566000000E+00  0.10566000000E+00 0.  1.
     999900   -1    0    0    0    0 -0.00000000000E+00 -0.00000000000E+00 -0.74505805969E-08  0.93827000000E+00  0.93827000000E+00 0. -1.
     999902    2    1    2    0    0 -0.16086943185E-01  0.94484063509E-02 -0.31317924706E-02  0.10250125412E+01  0.10248379576E+01 0.  0.
     999903    2    3    3    0    0  0.98672637657E-01  0.42698838905E-01 -0.76968081057E-01  0.13387442049E+00  0.20947426903E-01 0.  0.
         14    1    1    2    0    0  0.16086943185E-01 -0.94484063509E-02  0.31317924706E-02  0.18917458806E-01  0.00000000000E+00 0.  1.
     999901    1    3    3    0    0 -0.11475958084E+00 -0.33250432554E-01  0.73836288586E-01  0.89113812070E+00  0.88000000000E+00 0.  1.
        -11    1    4    4    0    0  0.32431126639E-01  0.12298219911E-01 -0.13483371027E-01  0.37216751649E-01  0.51100000000E-03 0. -1.
         11    1    4    4    0    0  0.66241511018E-01  0.30400618993E-01 -0.63484710030E-01  0.96657668840E-01  0.51100000000E-03 0.  1.
</event>
<event>
 8    1  0.1269536E+005  0.1043930E+01  0.7957747E-01            NaN
         13   -1    0    0    0    0  0.00000000000E+00  0.00000000000E+00  0.74505805969E-08  0.10566000000E+00  0.10566000000E+00 0.  1.
     999900   -1    0    0    0    0 -0.00000000000E+00 -0.00000000000E+00 -0.74505805969E-08  0.93827000000E+00  0.93827000000E+00 0.  1.
     999902    2    1    2    0    0 -0.15061509596E-01 -0.16906497763E-01 -0.15221637071E-02  0.10212364829E+01  0.10209843085E+01 0.  0.
     999903    2    3    3    0    0 -0.79552771359E-01  0.19134278801E-01 -0.10216681405E+00  0.13242412580E+00  0.20083006381E-01 0.  0.
         14    1    1    2    0    0  0.15061509596E-01  0.16906497763E-01  0.15221637071E-02  0.22693517142E-01  0.00000000000E+00 0. -1.
     999901    1    3    3    0    0  0.64491261763E-01 -0.36040776564E-01  0.10064465034E+00  0.88881235706E+00  0.88000000000E+00 0. -1.
        -11    1    4    4    0    0 -0.21247543082E-01 -0.29943190059E-03 -0.38201075497E-01  0.43716484724E-01  0.51100000000E-03 0.  1.
         11    1    4    4    0    0 -0.58305228277E-01  0.19433710702E-01 -0.63965738548E-01  0.88707641075E-01  0.51100000000E-03 0. -1.
</event>
<event>
 8    1  0.1423639E+005  0.1043930E+01  0.7957747E-01            NaN
         13   -1    0    0    0    0  0.00000000000E+00  0.00000000000E+00  0.74505805969E-08  0.10566000000E+00  0.10566000000E+00 0. -1.
     999900   -1    0    0    0    0 -0.00000000000E+00 -0.00000000000E+00 -0.74505805969E-08  0.93827000000E+00  0.93827000000E+00 0.  1.
     999902    2    1    2    0    0  0.23584679989E-01  0.82342545200E-03  0.28354504975E-02  0.10201612192E+01  0.10198842867E+01 0.  0.
     999903    2    3    3    0    0  0.82423911961E-01 -0.99478474203E-01 -0.20715633260E-01  0.13219884399E+00  0.18913719864E-01 0.  0.
         14    1    1    2    0    0 -0.23584679989E-01 -0.82342545200E-03 -0.28354504975E-02  0.23768780768E-01  0.00000000000E+00 0.  1.
     999901    1    3    3    0    0 -0.58839231972E-01  0.10030189966E+00  0.23551083757E-01  0.88796237524E+00  0.88000000000E+00 0.  1.
        -11    1    4    4    0    0  0.45612372411E-01 -0.60400359956E-01 -0.33203668997E-02  0.75762642226E-01  0.51100000000E-03 0. -1.
         11    1    4    4    0    0  0.36811539550E-01 -0.39078114247E-01 -0.17395266360E-01  0.56436201767E-01  0.51100000000E-03 0.  1.
</event>
<event>
 8    1  0.1170483E+005  0.1043930E+01  0.7957747E-01            NaN
         13   -1    0    0    0    0  0.00000000000E+00  0.00000000000E+00  0.74505805969E-08  0.10566000000E+00  0.10566000000E+00 0. -1.
     999900   -1    0    0    0    0 -0.00000000000E+00 -0.00000000000E+00 -0.74505805969E-08  0.93827000000E+00  0.93827000000E+00 0.  1.
     999902    2    1    2    0    0 -0.74378195949E-02  0.28291504365E-02 -0.22401619056E-01  0.10201569525E+01  0.10198799193E+01 0.  0.
     999903    2    3    3    0    0 -0.11726199941E+00  0.30509001876E-01  0.43866649592E-01  0.13042721369E+00  0.20144463848E-01 0.  0.
         14    1    1    2    0    0  0.74378195949E-02 -0.28291504365E-02  0.22401619056E-01  0.23773047530E-01  0.00000000000E+00 0. -1.
     999901    1    3    3    0    0  0.10982417981E+00 -0.27679851439E-01 -0.66268268648E-01  0.88972973878E+00  0.88000000000E+00 0.  1.
        -11    1    4    4    0    0 -0.10195093498E+00  0.30460908669E-01  0.43904621277E-01  0.11510750189E+00  0.51100000000E-03 0. -1.
         11    1    4    4    0    0 -0.15311064421E-01  0.48093206595E-04 -0.37971685066E-04  0.15319711795E-01  0.51100000000E-03 0.  1.
</event>
<event>
 8    1  0.1170483E+005  0.1043930E+01  0.7957747E-01            NaN
         13   -1    0    0    0    0  0.00000000000E+00  0.00000000000E+00  0.74505805969E-08  0.10566000000E+00  0.10566000000E+00 0. -1.
     999900   -1    0    0    0    0 -0.00000000000E+00 -0.00000000000E+00 -0.74505805969E-08  0.93827000000E+00  0.93827000000E+00 0. -1.
     999902    2    1    2    0    0 -0.14997667713E-02  0.23304330596E-01 -0.51619357053E-02  0.10200137565E+01  0.10197333361E+01 0.  0.
     999903    2    3    3    0    0  0.70014282145E-01 -0.94227307177E-01  0.44812927296E-01  0.12792327226E+00  0.23987080066E-01 0.  0.
         14    1    1    2    0    0  0.14997667713E-02 -0.23304330596E-01  0.51619357053E-02  0.23916243541E-01  0.00000000000E+00 0. -1.
     999901    1    3    3    0    0 -0.71514048917E-01  0.11753163777E+00 -0.49974863002E-01  0.89209048420E+00  0.88000000000E+00 0.  1.
        -11    1    4    4    0    0  0.14340167123E-01 -0.84387243026E-02  0.11983302017E-01  0.20511292237E-01  0.51100000000E-03 0. -1.
         11    1    4    4    0    0  0.55674115022E-01 -0.85788582874E-01  0.32829625279E-01  0.10741198002E+00  0.51100000000E-03 0.  1.
</event>
<event>
 8    1  0.1170483E+005  0.1043930E+01  0.7957747E-01            NaN
         13   -1    0    0    0    0  0.00000000000E+00  0.00000000000E+00  0.74505805969E-08  0.10566000000E+00  0.10566000000E+00 0.  1.
     999900   -1    0    0    0    0 -0.00000000000E+00 -0.00000000000E+00 -0.74505805969E-08  0.93827000000E+00  0.93827000000E+00 0.  1.
     999902    2    1    2    0    0 -0.80727586504E-02 -0.27408201044E-01  0.45465653502E-03  0.10153540376E+01  0.10149518392E+01 0.  0.
     999903    2    3    3    0    0  0.59479685036E-01 -0.21268380675E-01 -0.10735207594E+00  0.12618401917E+00  0.20193106134E-01 0.  0.
         14    1    1    2    0    0  0.80727586504E-02  0.27408201044E-01 -0.45465653502E-03  0.28575962438E-01  0.00000000000E+00 0.  1.
     999901    1    3    3    0    0 -0.67552443687E-01 -0.61398203695E-02  0.10780673248E+00  0.88917001839E+00  0.88000000000E+00 0. -1.
        -11    1    4    4    0    0  0.36401108296E-01 -0.87306744750E-02 -0.45081252933E-01  0.58599026007E-01  0.51100000000E-03 0.  1.
         11    1    4    4    0    0  0.23078576741E-01 -0.12537706200E-01 -0.62270823011E-01  0.67584993161E-01  0.51100000000E-03 0. -1.
</event>
<event>
 8    1  0.1170483E+005  0.1043930E+01  0.7957747E-01            NaN
         13   -1    0    0    0    0  0.00000000000E+00  0.00000000000E+00  0.74505805969E-08  0.10566000000E+00  0.10566000000E+00 0. -1.
     999900   -1    0    0    0    0 -0.00000000000E+00 -0.00000000000E+00 -0.74505805969E-08  0.93827000000E+00  0.93827000000E+00 0. -1.
     999902    2    1    2    0    0 -0.71284012615E-02  0.22487644447E-01  0.36711889060E-02  0.10200556228E+01  0.10197761949E+01 0.  0.
     999903    2    3    3    0    0 -0.12834962632E+00  0.17509867844E-01 -0.89653712328E-04  0.13172375489E+00  0.23893880282E-01 0.  0.
         14    1    1    2    0    0  0.71284012615E-02 -0.22487644447E-01 -0.36711889060E-02  0.23874377171E-01  0.00000000000E+00 0. -1.
     999901    1    3    3    0    0  0.12122122506E+00  0.49777766034E-02  0.37608426183E-02  0.88833186794E+00  0.88000000000E+00 0. -1.
        -11    1    4    4    0    0 -0.90143794602E-01  0.22967265212E-01 -0.24191624958E-02  0.93056501357E-01  0.51100000000E-03 0. -1.
         11    1    4    4    0    0 -0.38205831719E-01 -0.54573973677E-02  0.23295087834E-02  0.38667253530E-01  0.51100000000E-03 0.  1.
</event>
<event>
 8    1  0.1170483E+005  0.1043930E+01  0.7957747E-01            NaN
         13   -1    0    0    0    0  0.00000000000E+00  0.00000000000E+00  0.74505805969E-08  0.10566000000E+00  0.10566000000E+00 0.  1.
     999900   -1    0    0    0    0 -0.00000000000E+00 -0.00000000000E+00 -0.74505805969E-08  0.93827000000E+00  0.93827000000E+00 0.  1.
     999902    2    1    2    0    0  0.23723593193E-02  0.10158539392E-01 -0.17448395257E-01  0.10236009442E+01  0.10233990534E+01 0.  0.
     999903    2    3    3    0    0 -0.16427236593E-01 -0.53991193793E-01  0.11652516655E+00  0.13095458181E+00  0.19649044477E-01 0.  0.
         14    1    1    2    0    0 -0.23723593193E-02 -0.10158539392E-01  0.17448395257E-01  0.20329055767E-01  0.00000000000E+00 0.  1.
     999901    1    3    3    0    0  0.18799595913E-01  0.64149733185E-01 -0.13397356181E+00  0.89264636242E+00  0.88000000000E+00 0.  1.
        -11    1    4    4    0    0 -0.66243632085E-02 -0.38731651064E-01  0.94971124335E-01  0.10278034131E+00  0.51100000000E-03 0.  1.
         11    1    4    4    0    0 -0.98028733848E-02 -0.15259542729E-01  0.21554042218E-01  0.28174240501E-01  0.51100000000E-03 0. -1.
</event>
<event>
 8    1  0.1170483E+005  0.1043930E+01  0.7957747E-01            NaN
         13   -1    0    0    0    0  0.00000000000E+00  0.00000000000E+00  0.74505805969E-08  0.10566000000E+00  0.10566000000E+00 0.  1.
     999900   -1    0    0    0    0 -0.00000000000E+00 -0.00000000000E+00 -0.74505805969E-08  0.93827000000E+00  0.93827000000E+00 0. -1.
     999902    2    1    2    0    0  0.15576138384E-01 -0.10718235290E-01 -0.14801349777E-01  0.10199179903E+01  0.10196352928E+01 0.  0.
     999903    2    3    3    0    0 -0.10339961998E+00  0.41549139516E-02  0.71755769977E-01  0.12757916641E+00  0.20464810149E-01 0.  0.
         14    1    1    2    0    0 -0.15576138384E-01  0.10718235290E-01  0.14801349777E-01  0.24012009701E-01  0.00000000000E+00 0.  1.
     999901    1    3    3    0    0  0.11897575836E+00 -0.14873149242E-01 -0.86557119754E-01  0.89233882389E+00  0.88000000000E+00 0. -1.
        -11    1    4    4    0    0 -0.24597625509E-01  0.73663171581E-02  0.25271354929E-01  0.36030657920E-01  0.51100000000E-03 0.  1.
         11    1    4    4    0    0 -0.78801994468E-01 -0.32114032065E-02  0.46484415047E-01  0.91548508486E-01  0.51100000000E-03 0. -1.
</event>
<event>
 8    1  0.1170483E+005  0.1043930E+01  0.7957747E-01            NaN
         13   -1    0    0    0    0  0.00000000000E+00  0.00000000000E+00  0.74505805969E-08  0.10566000000E+00  0.10566000000E+00 0.  1.
     999900   -1    0    0    0    0 -0.00000000000E+00 -0.00000000000E+00 -0.74505805969E-08  0.93827000000E+00  0.93827000000E+00 0.  1.
     999902    2    1    2    0    0  0.15142706251E-01 -0.16097502284E-01  0.28620281843E-02  0.10216449750E+01  0.10214018958E+01 0.  0.
     999903    2    3    3    0    0 -0.11576281762E+00  0.38243638942E-01  0.38857081311E-01  0.12957723116E+00  0.20415195422E-01 0.  0.
         14    1    1    2    0    0 -0.15142706251E-01  0.16097502284E-01 -0.28620281843E-02  0.22285024965E-01  0.00000000000E+00 0.  1.
     999901    1    3    3    0    0  0.13090552387E+00 -0.54341141226E-01 -0.35995053127E-01  0.89206774387E+00  0.88000000000E+00 0.  1.
        -11    1    4    4    0    0 -0.90240339308E-01  0.20701751368E-01  0.27444832321E-01  0.96567910251E-01  0.51100000000E-03 0. -1.
         11    1    4    4    0    0 -0.25522478314E-01  0.17541887574E-01  0.11412248990E-01  0.33009320910E-01  0.51100000000E-03 0.  1.
</event>
<event>
 8    1  0.1170483E+005  0.1043930E+01  0.7957747E-01            NaN
         13   -1    0    0    0    0  0.00000000000E+00  0.00000000000E+00  0.74505805969E-08  0.10566000000E+00  0.10566000000E+00 0. -1.
     999900   -1    0    0    0    0 -0.00000000000E+00 -0.00000000000E+00 -0.74505805969E-08  0.93827000000E+00  0.93827000000E+00 0.  1.
     999902    2    1    2    0    0 -0.89643732539E-02  0.81426020363E-03 -0.19742355611E-01  0.10222324515E+01  0.10220021532E+01 0.  0.
     999903    2    3    3    0    0  0.55691059175E-01  0.10778889147E+00 -0.48790465839E-01  0.13292503027E+00  0.23845647829E-01 0.  0.
         14    1    1    2    0    0  0.89643732539E-02 -0.81426020363E-03  0.19742355611E-01  0.21697548538E-01  0.00000000000E+00 0. -1.
     999901    1    3    3    0    0 -0.64655432429E-01 -0.10697463126E+00  0.29048110228E-01  0.88930742119E+00  0.88000000000E+00 0. -1.
        -11    1    4    4    0    0  0.39304742606E-01  0.51352591703E-01 -0.21712283801E-01  0.68217562656E-01  0.51100000000E-03 0.  1.
         11    1    4    4    0    0  0.16386316569E-01  0.56436299763E-01 -0.27078182038E-01  0.64707467615E-01  0.51100000000E-03 0. -1.
</event>
<event>
 8    1  0.1170483E+005  0.1043930E+01  0.7957747E-01            NaN
         13   -1    0    0    0    0  0.00000000000E+00  0.00000000000E+00  0.74505805969E-08  0.10566000000E+00  0.10566000000E+00 0. -1.
     999900   -1    0    0    0    0 -0.00000000000E+00 -0.00000000000E+00 -0.74505805969E-08  0.93827000000E+00  0.93827000000E+00 0. -1.
     999902    2    1    2    0    0 -0.13792643702E-01 -0.13323665932E-02  0.14405182183E-01  0.10239419662E+01  0.10237468577E+01 0.  0.
     999903    2    3    3    0    0 -0.10238006021E+00 -0.57351303725E-01  0.66257077727E-01  0.13620638015E+00  0.19782034210E-01 0.  0.
         14    1    1    2    0    0  0.13792643702E-01  0.13323665932E-02 -0.14405182183E-01  0.19988033790E-01  0.00000000000E+00 0.  1.
     999901    1    3    3    0    0  0.88587416510E-01  0.56018937132E-01 -0.51851895544E-01  0.88773558606E+00  0.88000000000E+00 0. -1.
        -11    1    4    4    0    0 -0.37019487070E-01 -0.24538541790E-01  0.14939287114E-01  0.46861774151E-01  0.51100000000E-03 0. -1.
         11    1    4    4    0    0 -0.65360573142E-01 -0.32812761935E-01  0.51317790613E-01  0.89344606002E-01  0.51100000000E-03 0.  1.
</event>
<event>
 8    1  0.1170483E+005  0.1043930E+01  0.7957747E-01            NaN
         13   -1    0    0    0    0  0.00000000000E+00  0.00000000000E+00  0.74505805969E-08  0.10566000000E+00  0.10566000000E+00 0. -1.
     999900   -1    0    0    0    0 -0.00000000000E+00 -0.00000000000E+00 -0.74505805969E-08  0.93827000000E+00  0.93827000000E+00 0. -1.
     999902    2    1    2    0    0 -0.16639634979E-01  0.14896252932E-01  0.69330893202E-02  0.10205453142E+01  0.10202773617E+01 0.  0.
     999903    2    3    3    0    0  0.11510777486E+00  0.54232833619E-01  0.14733880429E-01  0.12983458733E+00  0.21188033376E-01 0.  0.
         14    1    1    2    0    0  0.16639634979E-01 -0.14896252932E-01 -0.69330893202E-02  0.23384685826E-01  0.00000000000E+00 0.  1.
     999901    1    3    3    0    0 -0.13174740984E+00 -0.39336580688E-01 -0.78007911091E-02  0.89071072685E+00  0.88000000000E+00 0. -1.
        -11    1    4    4    0    0  0.39437685541E-01  0.19631084526E-01  0.15262624741E-01  0.46625308100E-01  0.51100000000E-03 0.  1.
         11    1    4    4    0    0  0.75670089319E-01  0.34601749094E-01 -0.52874431173E-03  0.83209279226E-01  0.51100000000E-03 0. -1.
</event>
<event>
 8    1  0.1170483E+005  0.1043930E+01  0.7957747E-01            NaN
         13   -1    0    0    0    0  0.00000000000E+00  0.00000000000E+00  0.74505805969E-08  0.10566000000E+00  0.10566000000E+00 0.  1.
     999900   -1    0    0    0    0 -0.00000000000E+00 -0.00000000000E+00 -0.74505805969E-08  0.93827000000E+00  0.93827000000E+00 0. -1.
     999902    2    1    2    0    0  0.20128265022E-02  0.22297017084E-01  0.79445324419E-03  0.10215282233E+01  0.10212825620E+01 0.  0.
     999903    2    3    3    0    0  0.19738846583E-01 -0.99489472933E-01 -0.77938030323E-01  0.12948284058E+00  0.20092091622E-01 0.  0.
         14    1    1    2    0    0 -0.20128265022E-02 -0.22297017084E-01 -0.79445324419E-03  0.22401776656E-01  0.00000000000E+00 0.  1.
     999901    1    3    3    0    0 -0.17726020081E-01  0.12178649002E+00  0.78732483567E-01  0.89204538276E+00  0.88000000000E+00 0.  1.
        -11    1    4    4    0    0  0.20723427927E-01 -0.64502496520E-01 -0.58073279547E-01  0.89234519333E-01  0.51100000000E-03 0.  1.
         11    1    4    4    0    0 -0.98458134414E-03 -0.34986976413E-01 -0.19864750776E-01  0.40248321249E-01  0.51100000000E-03 0. -1.
</event>
<event>
 8    1  0.1170483E+005  0.1043930E+01  0.7957747E-01            NaN
         13   -1    0    0    0    0  0.00000000000E+00  0.00000000000E+00  0.74505805969E-08  0.10566000000E+00  0.10566000000E+00 0. -1.
     999900   -1    0    0    0    0 -0.00000000000E+00 -0.00000000000E+00 -0.74505805969E-08  0.93827000000E+00  0.93827000000E+00 0.  1.
     999902    2    1    2    0    0  0.11288346721E-01  0.38295043524E-02 -0.20772205660E-01  0.10199805448E+01  0.10196993358E+01 0.  0.
     999903    2    3    3    0    0  0.39166899134E-01  0.10952838945E+00  0.54463454801E-01  0.13003117963E+00  0.20281165739E-01 0.  0.
         14    1    1    2    0    0 -0.11288346721E-01 -0.38295043524E-02  0.20772205660E-01  0.23949455176E-01  0.00000000000E+00 0. -1.
     999901    1    3    3    0    0 -0.27878552413E-01 -0.10569888510E+00 -0.75235660461E-01  0.88994936519E+00  0.88000000000E+00 0.  1.
        -11    1    4    4    0    0  0.17551662981E-01  0.73780489244E-01  0.40526135502E-01  0.85989826411E-01  0.51100000000E-03 0.  1.
         11    1    4    4    0    0  0.21615236154E-01  0.35747900211E-01  0.13937319300E-01  0.44041353223E-01  0.51100000000E-03 0. -1.
</event>
<event>
 8    1  0.1170483E+005  0.1043930E+01  0.7957747E-01            NaN
         13   -1    0    0    0    0  0.00000000000E+00  0.00000000000E+00  0.74505805969E-08  0.10566000000E+00  0.10566000000E+00 0.  1.
     999900   -1    0    0    0    0 -0.00000000000E+00 -0.00000000000E+00 -0.74505805969E-08  0.93827000000E+00  0.93827000000E+00 0. -1.
     999902    2    1    2    0    0 -0.15811938775E-01 -0.11618771641E-01  0.10673105191E-01  0.10215932940E+01  0.10213490734E+01 0.  0.
     999903    2    3    3    0    0  0.45369343047E-01 -0.50062755157E-01 -0.10989263202E+00  0.13043832085E+00  0.19316009717E-01 0.  0.
         14    1    1    2    0    0  0.15811938775E-01  0.11618771641E-01 -0.10673105191E-01  0.22336706039E-01  0.00000000000E+00 0.  1.
     999901    1    3    3    0    0 -0.61181281821E-01  0.38443983515E-01  0.12056573721E+00  0.89115497311E+00  0.88000000000E+00 0.  1.
        -11    1    4    4    0    0  0.28176058349E-01 -0.39332178561E-01 -0.63702714774E-01  0.79995046878E-01  0.51100000000E-03 0.  1.
         11    1    4    4    0    0  0.17193284698E-01 -0.10730576595E-01 -0.46189917245E-01  0.50443273970E-01  0.51100000000E-03 0. -1.
</event>
<event>
 8    1  0.1170483E+005  0.1043930E+01  0.7957747E-01            NaN
         13   -1    0    0    0    0  0.00000000000E+00  0.00000000000E+00  0.74505805969E-08  0.10566000000E+00  0.10566000000E+00 0. -1.
     999900   -1    0    0    0    0 -0.00000000000E+00 -0.00000000000E+00 -0.74505805969E-08  0.93827000000E+00  0.93827000000E+00 0.  1.
     999902    2    1    2    0    0 -0.19437797141E-01 -0.12742110802E-01 -0.36005945464E-02  0.10204107818E+01  0.10201397012E+01 0.  0.
     999903    2    3    3    0    0 -0.68504414842E-01 -0.94804765408E-01  0.60058528024E-01  0.13294568603E+00  0.19665458281E-01 0.  0.
         14    1    1    2    0    0  0.19437797141E-01  0.12742110802E-01  0.36005945464E-02  0.23519218237E-01  0.00000000000E+00 0. -1.
     999901    1    3    3    0    0  0.49066617701E-01  0.82062654606E-01 -0.63659122570E-01  0.88746509573E+00  0.88000000000E+00 0.  1.
        -11    1    4    4    0    0 -0.24207107415E-01 -0.36728937072E-01  0.33228711459E-01  0.55130819457E-01  0.51100000000E-03 0.  1.
         11    1    4    4    0    0 -0.44297307428E-01 -0.58075828336E-01  0.26829816565E-01  0.77814866575E-01  0.51100000000E-03 0. -1.
</event>
<event>
 8    1  0.1170483E+005  0.1043930E+01  0.7957747E-01            NaN
         13   -1    0    0    0    0  0.00000000000E+00  0.00000000000E+00  0.74505805969E-08  0.10566000000E+00  0.10566000000E+00 0. -1.
     999900   -1    0    0    0    0 -0.00000000000E+00 -0.00000000000E+00 -0.74505805969E-08  0.93827000000E+00  0.93827000000E+00 0. -1.
     999902    2    1    2    0    0  0.24172077206E-01  0.37896268243E-02  0.79766306075E-02  0.10181952526E+01  0.10178699795E+01 0.  0.
     999903    2    3    3    0    0 -0.82147515736E-01  0.90380540701E-01  0.29803153717E-01  0.12730904251E+00  0.20062598422E-01 0.  0.
         14    1    1    2    0    0 -0.24172077206E-01 -0.37896268243E-02 -0.79766306075E-02  0.25734747400E-01  0.00000000000E+00 0.  1.
     999901    1    3    3    0    0  0.10631959294E+00 -0.86590913877E-01 -0.21826523110E-01  0.89088621009E+00  0.88000000000E+00 0. -1.
        -11    1    4    4    0    0 -0.74820949626E-01  0.82935466696E-01  0.32826276863E-01  0.11642290029E+00  0.51100000000E-03 0.  1.
         11    1    4    4    0    0 -0.73265661098E-02  0.74450740049E-02 -0.30231231458E-02  0.10886142221E-01  0.51100000000E-03 0. -1.
</event>
<event>
 8    1  0.1170483E+005  0.1043930E+01  0.7957747E-01            NaN
         13   -1    0    0    0    0  0.00000000000E+00  0.00000000000E+00  0.74505805969E-08  0.10566000000E+00  0.10566000000E+00 0.  1.
     999900   -1    0    0    0    0 -0.00000000000E+00 -0.00000000000E+00 -0.74505805969E-08  0.93827000000E+00  0.93827000000E+00 0.  1.
     999902    2    1    2    0    0 -0.20121930041E-01  0.55818053222E-02 -0.93867512140E-02  0.10210354653E+01  0.10207787526E+01 0.  0.
     999903    2    3    3    0    0  0.33063857606E-01 -0.12363656576E+00  0.11575391689E-01  0.12976360621E+00  0.18038423726E-01 0.  0.
         14    1    1    2    0    0  0.20121930041E-01 -0.55818053222E-02  0.93867512140E-02  0.22894534666E-01  0.00000000000E+00 0. -1.
     999901    1    3    3    0    0 -0.53185787646E-01  0.12921837108E+00 -0.20962142903E-01  0.89127185913E+00  0.88000000000E+00 0. -1.
        -11    1    4    4    0    0  0.20951021214E-01 -0.10418960925E+00  0.10943579016E-01  0.10683839670E+00  0.51100000000E-03 0. -1.
         11    1    4    4    0    0  0.12112836392E-01 -0.19446956509E-01  0.63181267347E-03  0.22925209512E-01  0.51100000000E-03 0.  1.
</event>
<event>
 8    1  0.1170483E+005  0.1043930E+01  0.7957747E-01            NaN
         13   -1    0    0    0    0  0.00000000000E+00  0.00000000000E+00  0.74505805969E-08  0.10566000000E+00  0.10566000000E+00 0.  1.
     999900   -1    0    0    0    0 -0.00000000000E+00 -0.00000000000E+00 -0.74505805969E-08  0.93827000000E+00  0.93827000000E+00 0.  1.
     999902    2    1    2    0    0  0.48943983413E-03 -0.23780057488E-01  0.22616826872E-02  0.10200376185E+01  0.10197577640E+01 0.  0.
     999903    2    3    3    0    0 -0.10063247633E+00 -0.57839658992E-01 -0.58354587710E-01  0.13152198519E+00  0.20504956403E-01 0.  0.
         14    1    1    2    0    0 -0.48943983413E-03  0.23780057488E-01 -0.22616826872E-02  0.23892381507E-01  0.00000000000E+00 0. -1.
     999901    1    3    3    0    0  0.10112191617E+00  0.34059601504E-01  0.60616270397E-01  0.88851563330E+00  0.88000000000E+00 0. -1.
        -11    1    4    4    0    0 -0.82083733811E-01 -0.39788673849E-01 -0.51451254992E-01  0.10472998942E+00  0.51100000000E-03 0. -1.
         11    1    4    4    0    0 -0.18548742521E-01 -0.18050985144E-01 -0.69033327179E-02  0.26791995771E-01  0.51100000000E-03 0.  1.
</event>
<event>
 8    1  0.1170483E+005  0.1043930E+01  0.7957747E-01            NaN
         13   -1    0    0    0    0  0.00000000000E+00  0.00000000000E+00  0.74505805969E-08  0.10566000000E+00  0.10566000000E+00 0. -1.
     999900   -1    0    0    0    0 -0.00000000000E+00 -0.00000000000E+00 -0.74505805969E-08  0.93827000000E+00  0.93827000000E+00 0. -1.
     999902    2    1    2    0    0  0.12979271386E-01 -0.15511188587E-01 -0.28086697342E-01  0.10093190043E+01  0.10087253994E+01 0.  0.
     999903    2    3    3    0    0 -0.89881396177E-01  0.60927760716E-01 -0.46727980216E-01  0.11984122079E+00  0.19686458794E-01 0.  0.
         14    1    1    2    0    0 -0.12979271386E-01  0.15511188587E-01  0.28086697342E-01  0.34610995720E-01  0.00000000000E+00 0. -1.
     999901    1    3    3    0    0  0.10286066756E+00 -0.76438949303E-01  0.18641282874E-01  0.88947778349E+00  0.88000000000E+00 0.  1.
        -11    1    4    4    0    0 -0.49348788680E-01  0.28167322661E-01 -0.14798615072E-01  0.58719342121E-01  0.51100000000E-03 0. -1.
         11    1    4    4    0    0 -0.40532607497E-01  0.32760438055E-01 -0.31929365144E-01  0.61121878665E-01  0.51100000000E-03 0.  1.
</event>
<event>
 8    1  0.1170483E+005  0.1043930E+01  0.7957747E-01            NaN
         13   -1    0    0    0    0  0.00000000000E+00  0.00000000000E+00  0.74505805969E-08  0.10566000000E+00  0.10566000000E+00 0.  1.
     999900   -1    0    0    0    0 -0.00000000000E+00 -0.00000000000E+00 -0.74505805969E-08  0.93827000000E+00  0.93827000000E+00 0.  1.
     999902    2    1    2    0    0  0.13549961345E-01  0.64851403587E-02  0.21072676280E-01  0.10180511248E+01  0.10177221509E+01 0.  0.
     999903    2    3    3    0    0  0.98594019934E-01 -0.28449186104E-01 -0.74194102929E-01  0.12814738936E+00  0.19668541711E-01 0.  0.
         14    1    1    2    0    0 -0.13549961345E-01 -0.64851403587E-02 -0.21072676280E-01  0.25878875237E-01  0.00000000000E+00 0. -1.
     999901    1    3    3    0    0 -0.85044058589E-01  0.34934326463E-01  0.95266779210E-01  0.88990373540E+00  0.88000000000E+00 0. -1.
        -11    1    4    4    0    0  0.92430106169E-01 -0.22288688175E-01 -0.71648691549E-01  0.11905421567E+00  0.51100000000E-03 0.  1.
         11    1    4    4    0    0  0.61639137653E-02 -0.61604979287E-02 -0.25454113798E-02  0.90931736884E-02  0.51100000000E-03 0. -1.
</event>
<event>
 8    1  0.1170483E+005  0.1043930E+01  0.7957747E-01            NaN
         13   -1    0    0    0    0  0.00000000000E+00  0.00000000000E+00  0.74505805969E-08  0.10566000000E+00  0.10566000000E+00 0. -1.
     999900   -1    0    0    0    0 -0.00000000000E+00 -0.00000000000E+00 -0.74505805969E-08  0.93827000000E+00  0.93827000000E+00 0.  1.
     999902    2    1    2    0    0 -0.60065201859E-02 -0.25937207160E-02 -0.22785247827E-01  0.10202240263E+01  0.10199485725E+01 0.  0.
     999903    2    3    3    0    0  0.85329726821E-01  0.15617652550E-01  0.91702834601E-01  0.12793400327E+00  0.20799662683E-01 0.  0.
         14    1    1    2    0    0  0.60065201859E-02  0.25937207160E-02  0.22785247827E-01  0.23705973729E-01  0.00000000000E+00 0. -1.
     999901    1    3    3    0    0 -0.91336247007E-01 -0.18211373266E-01 -0.11448808243E+00  0.89229002300E+00  0.88000000000E+00 0.  1.
        -11    1    4    4    0    0  0.39136895713E-01  0.84484130652E-02  0.27753962983E-01  0.48719768797E-01  0.51100000000E-03 0. -1.
         11    1    4    4    0    0  0.46192831108E-01  0.71692394847E-02  0.63948871618E-01  0.79214234471E-01  0.51100000000E-03 0.  1.
</event>
<event>
 8    1  0.1170483E+005  0.1043930E+01  0.7957747E-01            NaN
         13   -1    0    0    0    0  0.00000000000E+00  0.00000000000E+00  0.74505805969E-08  0.10566000000E+00  0.10566000000E+00 0.  1.
     999900   -1    0    0    0    0 -0.00000000000E+00 -0.00000000000E+00 -0.74505805969E-08  0.93827000000E+00  0.93827000000E+00 0.  1.
     999902    2    1    2    0    0  0.23355640292E-01  0.84820163049E-03 -0.50770254963E-02  0.10200138639E+01  0.10197334460E+01 0.  0.
     999903    2    3    3    0    0 -0.98767944957E-01 -0.33641007520E-01 -0.72120415644E-01  0.12838698463E+00  0.19875591363E-01 0.  0.
         14    1    1    2    0    0 -0.23355640292E-01 -0.84820163049E-03  0.50770254963E-02  0.23916136129E-01  0.00000000000E+00 0. -1.
     999901    1    3    3    0    0  0.12212358525E+00  0.34489209151E-01  0.67043390147E-01  0.89162687924E+00  0.88000000000E+00 0. -1.
        -11    1    4    4    0    0 -0.83276367875E-02 -0.86979690382E-02 -0.50901933479E-02  0.13083401285E-01  0.51100000000E-03 0.  1.
         11    1    4    4    0    0 -0.90440308169E-01 -0.24943038482E-01 -0.67030222296E-01  0.11530358335E+00  0.51100000000E-03 0. -1.
</event>
<event>
 8    1  0.1170483E+005  0.1043930E+01  0.7957747E-01            NaN
         13   -1    0    0    0    0  0.00000000000E+00  0.00000000000E+00  0.74505805969E-08  0.10566000000E+00  0.10566000000E+00 0. -1.
     999900   -1    0    0    0    0 -0.00000000000E+00 -0.00000000000E+00 -0.74505805969E-08  0.93827000000E+00  0.93827000000E+00 0. -1.
     999902    2    1    2    0    0  0.57221159571E-02 -0.21900531425E-01 -0.42147905898E-02  0.10209052232E+01  0.10206455479E+01 0.  0.
     999903    2    3    3    0    0 -0.55412339664E-01 -0.92768825499E-01 -0.75017139139E-01  0.13311430786E+00  0.20378062255E-01 0.  0.
         14    1    1    2    0    0 -0.57221159571E-02  0.21900531425E-01  0.42147905898E-02  0.23024776817E-01  0.00000000000E+00 0.  1.
     999901    1    3    3    0    0  0.61134455621E-01  0.70868294074E-01  0.70802348549E-01  0.88779091532E+00  0.88000000000E+00 0. -1.
        -11    1    4    4    0    0 -0.35908344755E-01 -0.43399045576E-01 -0.31982551202E-01  0.64776778882E-01  0.51100000000E-03 0. -1.
         11    1    4    4    0    0 -0.19503994908E-01 -0.49369779923E-01 -0.43034587937E-01  0.68337528979E-01  0.51100000000E-03 0.  1.
</event>
<event>
 8    1  0.1170483E+005  0.1043930E+01  0.7957747E-01            NaN
         13   -1    0    0    0    0  0.00000000000E+00  0.00000000000E+00  0.74505805969E-08  0.10566000000E+00  0.10566000000E+00 0. -1.
     999900   -1    0    0    0    0 -0.00000000000E+00 -0.00000000000E+00 -0.74505805969E-08  0.93827000000E+00  0.93827000000E+00 0.  1.
     999902    2    1    2    0    0 -0.58966365184E-02 -0.53228395195E-02 -0.22321210891E-01  0.10202373978E+01  0.10199622584E+01 0.  0.
     999903    2    3    3    0    0 -0.11296788904E+00 -0.59224049153E-01 -0.28415494954E-01  0.13208947443E+00  0.19260242676E-01 0.  0.
         14    1    1    2    0    0  0.58966365184E-02  0.53228395195E-02  0.22321210891E-01  0.23692602187E-01  0.00000000000E+00 0. -1.
     999901    1    3    3    0    0  0.10707125252E+00  0.53901209634E-01  0.60942840630E-02  0.88814792339E+00  0.88000000000E+00 0. -1.
        -11    1    4    4    0    0 -0.58093138495E-01 -0.32345873561E-01 -0.24482647518E-01  0.70857105692E-01  0.51100000000E-03 0. -1.
         11    1    4    4    0    0 -0.54874750548E-01 -0.26878175592E-01 -0.39328474357E-02  0.61232368734E-01  0.51100000000E-03 0.  1.
</event>
<event>
 8    1  0.1170483E+005  0.1043930E+01  0.7957747E-01            NaN
         13   -1    0    0    0    0  0.00000000000E+00  0.00000000000E+00  0.74505805969E-08  0.10566000000E+00  0.10566000000E+00 0.  1.
     999900   -1    0    0    0    0 -0.00000000000E+00 -0.00000000000E+00 -0.74505805969E-08  0.93827000000E+00  0.93827000000E+00 0.  1.
     999902    2    1    2    0    0  0.64153504181E-02 -0.27532637309E-01  0.11623229625E-01  0.10133636410E+01  0.10129025454E+01 0.  0.
     999903    2    3    3    0    0  0.62742399489E-01 -0.55202089602E-01  0.93964059114E-01  0.12729459893E+00  0.19768437482E-01 0.  0.
         14    1    1    2    0    0 -0.64153504181E-02  0.27532637309E-01 -0.11623229625E-01  0.30566359042E-01  0.00000000000E+00 0. -1.
     999901    1    3    3    0    0 -0.56327049070E-01  0.27669452293E-01 -0.82340829488E-01  0.88606904203E+00  0.88000000000E+00 0.  1.
        -11    1    4    4    0    0  0.21963876781E-01 -0.12291414308E-01  0.17808364809E-01  0.30836499917E-01  0.51100000000E-03 0. -1.
         11    1    4    4    0    0  0.40778522708E-01 -0.42910675294E-01  0.76155694304E-01  0.96458099009E-01  0.51100000000E-03 0.  1.
</event>
<event>
 8    1  0.1170483E+005  0.1043930E+01  0.7957747E-01            NaN
         13   -1    0    0    0    0  0.00000000000E+00  0.00000000000E+00  0.74505805969E-08  0.10566000000E+00  0.10566000000E+00 0. -1.
     999900   -1    0    0    0    0 -0.00000000000E+00 -0.00000000000E+00 -0.74505805969E-08  0.93827000000E+00  0.93827000000E+00 0. -1.
     999902    2    1    2    0    0 -0.20180572943E-01 -0.61195416359E-02  0.10243662548E-01  0.10204856630E+01  0.10202163258E+01 0.  0.
     999903    2    3    3    0    0 -0.34259667216E-01  0.12426110345E+00  0.28093936575E-02  0.13073704579E+00  0.21673389706E-01 0.  0.
         14    1    1    2    0    0  0.20180572943E-01  0.61195416359E-02 -0.10243662548E-01  0.23444336982E-01  0.00000000000E+00 0.  1.
     999901    1    3    3    0    0  0.14079094273E-01 -0.13038064508E+00  0.74342688903E-02  0.88974861723E+00  0.88000000000E+00 0. -1.
        -11    1    4    4    0    0 -0.18954929768E-01  0.39638309950E-01  0.76611093642E-02  0.44603124284E-01  0.51100000000E-03 0. -1.
         11    1    4    4    0    0 -0.15304737449E-01  0.84622793496E-01 -0.48517157068E-02  0.86133921504E-01  0.51100000000E-03 0.  1.
</event>
<event>
 8    1  0.1170483E+005  0.1043930E+01  0.7957747E-01            NaN
         13   -1    0    0    0    0  0.00000000000E+00  0.00000000000E+00  0.74505805969E-08  0.10566000000E+00  0.10566000000E+00 0.  1.
     999900   -1    0    0    0    0 -0.00000000000E+00 -0.00000000000E+00 -0.74505805969E-08  0.93827000000E+00  0.93827000000E+00 0.  1.
     999902    2    1    2    0    0  0.13864161049E-01  0.19161311960E-01 -0.29578176035E-03  0.10202771286E+01  0.10200029220E+01 0.  0.
     999903    2    3    3    0    0 -0.94362074709E-01  0.74739029730E-01 -0.47094852708E-01  0.13067499628E+00  0.19180870506E-01 0.  0.
         14    1    1    2    0    0 -0.13864161049E-01 -0.19161311960E-01  0.29578176035E-03  0.23652871379E-01  0.00000000000E+00 0. -1.
     999901    1    3    3    0    0  0.10822623576E+00 -0.55577717770E-01  0.46799070948E-01  0.88960213234E+00  0.88000000000E+00 0.  1.
        -11    1    4    4    0    0 -0.44916377323E-01  0.37603036609E-01 -0.33046072976E-01  0.67259002180E-01  0.51100000000E-03 0.  1.
         11    1    4    4    0    0 -0.49445697386E-01  0.37135993121E-01 -0.14048779732E-01  0.63415994103E-01  0.51100000000E-03 0. -1.
</event>
<event>
 8    1  0.1170483E+005  0.1043930E+01  0.7957747E-01            NaN
         13   -1    0    0    0    0  0.00000000000E+00  0.00000000000E+00  0.74505805969E-08  0.10566000000E+00  0.10566000000E+00 0.  1.
     999900   -1    0    0    0    0 -0.00000000000E+00 -0.00000000000E+00 -0.74505805969E-08  0.93827000000E+00  0.93827000000E+00 0.  1.
     999902    2    1    2    0    0  0.10191389296E-01  0.20068057933E-01 -0.74873920475E-02  0.10202097048E+01  0.10199339142E+01 0.  0.
     999903    2    3    3    0    0  0.23125624867E-01 -0.72647525149E-02 -0.12850364742E+00  0.13141315268E+00  0.12986844981E-01 0.  0.
         14    1    1    2    0    0 -0.10191389296E-01 -0.20068057933E-01  0.74873920475E-02  0.23720295206E-01  0.00000000000E+00 0.  1.
     999901    1    3    3    0    0 -0.12934235571E-01  0.27332810448E-01  0.12101625538E+00  0.88879655211E+00  0.88000000000E+00 0. -1.
        -11    1    4    4    0    0  0.12797829012E-01 -0.10446596390E-01 -0.70753861720E-01  0.72658694406E-01  0.51100000000E-03 0.  1.
         11    1    4    4    0    0  0.10327795855E-01  0.31818438752E-02 -0.57749785704E-01  0.58754458278E-01  0.51100000000E-03 0. -1.
</event>
<event>
 8    1  0.1170483E+005  0.1043930E+01  0.7957747E-01            NaN
         13   -1    0    0    0    0  0.00000000000E+00  0.00000000000E+00  0.74505805969E-08  0.10566000000E+00  0.10566000000E+00 0.  1.
     999900   -1    0    0    0    0 -0.00000000000E+00 -0.00000000000E+00 -0.74505805969E-08  0.93827000000E+00  0.93827000000E+00 0.  1.
     999902    2    1    2    0    0  0.16385172346E-01 -0.66569293084E-02  0.16944373958E-01  0.10194371359E+01  0.10191428623E+01 0.  0.
     999903    2    3    3    0    0 -0.14966690387E-01  0.12352660029E+00  0.27856022110E-01  0.12924066621E+00  0.21080062481E-01 0.  0.
         14    1    1    2    0    0 -0.16385172346E-01  0.66569293084E-02 -0.16944373958E-01  0.24492864051E-01  0.00000000000E+00 0. -1.
     999901    1    3    3    0    0  0.31351862733E-01 -0.13018352960E+00 -0.10911648153E-01  0.89019646974E+00  0.88000000000E+00 0. -1.
        -11    1    4    4    0    0 -0.13854606979E-01  0.45134632473E-01  0.44776726447E-02  0.47427796242E-01  0.51100000000E-03 0. -1.
         11    1    4    4    0    0 -0.11120834080E-02  0.78391967814E-01  0.23378349466E-01  0.81812869966E-01  0.51100000000E-03 0.  1.
</event>
<event>
 8    1  0.1170483E+005  0.1043930E+01  0.7957747E-01            NaN
         13   -1    0    0    0    0  0.00000000000E+00  0.00000000000E+00  0.74505805969E-08  0.10566000000E+00  0.10566000000E+00 0. -1.
     999900   -1    0    0    0    0 -0.00000000000E+00 -0.00000000000E+00 -0.74505805969E-08  0.93827000000E+00  0.93827000000E+00 0. -1.
     999902    2    1    2    0    0  0.17310237922E-01  0.99015072886E-02 -0.31140107818E-02  0.10237463124E+01  0.10235473271E+01 0.  0.
     999903    2    3    3    0    0 -0.11530994049E+00 -0.34844653080E-01  0.48113080832E-01  0.13121365441E+00  0.19789450019E-01 0.  0.
         14    1    1    2    0    0 -0.17310237922E-01 -0.99015072886E-02  0.31140107818E-02  0.20183687638E-01  0.00000000000E+00 0. -1.
     999901    1    3    3    0    0  0.13262017842E+00  0.44746160369E-01 -0.51227091614E-01  0.89253265795E+00  0.88000000000E+00 0. -1.
        -11    1    4    4    0    0 -0.60140904349E-01 -0.10143952762E-01  0.17488378803E-01  0.63450237728E-01  0.51100000000E-03 0. -1.
         11    1    4    4    0    0 -0.55169036146E-01 -0.24700700318E-01  0.30624702030E-01  0.67763416685E-01  0.51100000000E-03 0.  1.
</event>
<event>
 8    1  0.1170483E+005  0.1043930E+01  0.7957747E-01            NaN
         13   -1    0    0    0    0  0.00000000000E+00  0.00000000000E+00  0.74505805969E-08  0.10566000000E+00  0.10566000000E+00 0.  1.
     999900   -1    0    0    0    0 -0.00000000000E+00 -0.00000000000E+00 -0.74505805969E-08  0.93827000000E+00  0.93827000000E+00 0.  1.
     999902    2    1    2    0    0 -0.43176788879E-02  0.22286707896E-01  0.52245757180E-02  0.10206354536E+01  0.10203695866E+01 0.  0.
     999903    2    3    3    0    0  0.45881651389E-01 -0.50840249367E-01 -0.10746780118E+00  0.12902618019E+00  0.20213114416E-01 0.  0.
         14    1    1    2    0    0  0.43176788879E-02 -0.22286707896E-01 -0.52245757180E-02  0.23294546384E-01  0.00000000000E+00 0. -1.
     999901    1    3    3    0    0 -0.50199330277E-01  0.73126957263E-01  0.11269237690E+00  0.89160927342E+00  0.88000000000E+00 0. -1.
        -11    1    4    4    0    0  0.23868157510E-01 -0.26477134740E-01 -0.37538443540E-01  0.51769908937E-01  0.51100000000E-03 0.  1.
         11    1    4    4    0    0  0.22013493879E-01 -0.24363114627E-01 -0.69929357644E-01  0.77256271257E-01  0.51100000000E-03 0. -1.
</event>
<event>
 8    1  0.1170483E+005  0.1043930E+01  0.7957747E-01            NaN
         13   -1    0    0    0    0  0.00000000000E+00  0.00000000000E+00  0.74505805969E-08  0.10566000000E+00  0.10566000000E+00 0. -1.
     999900   -1    0    0    0    0 -0.00000000000E+00 -0.00000000000E+00 -0.74505805969E-08  0.93827000000E+00  0.93827000000E+00 0. -1.
     999902    2    1    2    0    0  0.98687962428E-02 -0.21070305783E-01 -0.57046132450E-02  0.10199739248E+01  0.10196925585E+01 0.  0.
     999903    2    3    3    0    0  0.53031842411E-01 -0.30901302145E-01  0.11391498423E+00  0.13077847661E+00  0.18950449304E-01 0.  0.
         14    1    1    2    0    0 -0.98687962428E-02  0.21070305783E-01  0.57046132450E-02  0.23956075166E-01  0.00000000000E+00 0. -1.
     999901    1    3    3    0    0 -0.43163046168E-01  0.98309963619E-02 -0.11961959747E+00  0.88919544822E+00  0.88000000000E+00 0. -1.
        -11    1    4    4    0    0  0.12752544250E-02 -0.58737099977E-02  0.17646642761E-01  0.18649178660E-01  0.51100000000E-03 0.  1.
         11    1    4    4    0    0  0.51756587986E-01 -0.25027592147E-01  0.96268341467E-01  0.11212929795E+00  0.51100000000E-03 0. -1.
</event>
<event>
 8    1  0.1170483E+005  0.1043930E+01  0.7957747E-01            NaN
         13   -1    0    0    0    0  0.00000000000E+00  0.00000000000E+00  0.74505805969E-08  0.10566000000E+00  0.10566000000E+00 0. -1.
     999900   -1    0    0    0    0 -0.00000000000E+00 -0.00000000000E+00 -0.74505805969E-08  0.93827000000E+00  0.93827000000E+00 0.  1.
     999902    2    1    2    0    0 -0.38072795589E-02  0.23848628306E-01 -0.47393424220E-03  0.10197747301E+01  0.10194886086E+01 0.  0.
     999903    2    3    3    0    0  0.99175054583E-01 -0.68395934985E-01  0.38960497354E-01  0.12810803510E+00  0.19494946230E-01 0.  0.
         14    1    1    2    0    0  0.38072795589E-02 -0.23848628306E-01  0.47393424220E-03  0.24155269888E-01  0.00000000000E+00 0. -1.
     999901    1    3    3    0    0 -0.10298233414E+00  0.92244563291E-01 -0.39434431596E-01  0.89166669501E+00  0.88000000000E+00 0. -1.
        -11    1    4    4    0    0  0.39242961323E-01 -0.16207971524E-01  0.11020336509E-01  0.43868180861E-01  0.51100000000E-03 0.  1.
         11    1    4    4    0    0  0.59932093260E-01 -0.52187963461E-01  0.27940160845E-01  0.84239854237E-01  0.51100000000E-03 0. -1.
</event>
<event>
 8    1  0.1170483E+005  0.1043930E+01  0.7957747E-01            NaN
         13   -1    0    0    0    0  0.00000000000E+00  0.00000000000E+00  0.74505805969E-08  0.10566000000E+00  0.10566000000E+00 0.  1.
     999900   -1    0    0    0    0 -0.00000000000E+00 -0.00000000000E+00 -0.74505805969E-08  0.93827000000E+00  0.93827000000E+00 0.  1.
     999902    2    1    2    0    0  0.24352472179E-01 -0.42436466268E-02 -0.10396697479E-02  0.10191886914E+01  0.10188883434E+01 0.  0.
     999903    2    3    3    0    0  0.40838290977E-02 -0.11034622198E+00 -0.65945165219E-01  0.13021102142E+00  0.20326802960E-01 0.  0.
         14    1    1    2    0    0 -0.24352472179E-01  0.42436466268E-02  0.10396697479E-02  0.24741308597E-01  0.00000000000E+00 0. -1.
     999901    1    3    3    0    0  0.20268643081E-01  0.10610257535E+00  0.64905495471E-01  0.88897766998E+00  0.88000000000E+00 0.  1.
        -11    1    4    4    0    0 -0.54830828166E-02 -0.11231731934E-01 -0.98472233794E-02  0.15919953791E-01  0.51100000000E-03 0. -1.
         11    1    4    4    0    0  0.95669119143E-02 -0.99114490043E-01 -0.56097941839E-01  0.11429106763E+00  0.51100000000E-03 0.  1.
</event>
<event>
 8    1  0.1170483E+005  0.1043930E+01  0.7957747E-01            NaN
         13   -1    0    0    0    0  0.00000000000E+00  0.00000000000E+00  0.74505805969E-08  0.10566000000E+00  0.10566000000E+00 0.  1.
     999900   -1    0    0    0    0 -0.00000000000E+00 -0.00000000000E+00 -0.74505805969E-08  0.93827000000E+00  0.93827000000E+00 0. -1.
     999902    2    1    2    0    0  0.22252601400E-01  0.29497798052E-02 -0.71317294817E-02  0.10203770589E+01  0.10201051913E+01 0.  0.
     999903    2    3    3    0    0 -0.16982133511E-01 -0.63718743137E-01  0.10938455073E+00  0.12933267170E+00  0.20334427554E-01 0.  0.
         14    1    1    2    0    0 -0.22252601400E-01 -0.29497798052E-02  0.71317294817E-02  0.23552941119E-01  0.00000000000E+00 0.  1.
     999901    1    3    3    0    0  0.39234734911E-01  0.66668522942E-01 -0.11651628021E+00  0.89104438718E+00  0.88000000000E+00 0. -1.
        -11    1    4    4    0    0 -0.24200457250E-02 -0.15458879041E-01  0.12187081106E-01  0.19839849530E-01  0.51100000000E-03 0.  1.
         11    1    4    4    0    0 -0.14562087786E-01 -0.48259864096E-01  0.97197469628E-01  0.10949282217E+00  0.51100000000E-03 0. -1.
</event>
<event>
 8    1  0.1170483E+005  0.1043930E+01  0.7957747E-01            NaN
         13   -1    0    0    0    0  0.00000000000E+00  0.00000000000E+00  0.74505805969E-08  0.10566000000E+00  0.10566000000E+00 0.  1.
     999900   -1    0    0    0    0 -0.00000000000E+00 -0.00000000000E+00 -0.74505805969E-08  0.93827000000E+00  0.93827000000E+00 0. -1.
     999902    2    1    2    0    0  0.52308885296E-02  0.20064870282E-01 -0.69015884537E-02  0.10220760956E+01  0.10218424302E+01 0.  0.
     999903    2    3    3    0    0 -0.72847310278E-01  0.75303490230E-01  0.79240920460E-01  0.13271225436E+00  0.18869889432E-01 0.  0.
         14    1    1    2    0    0 -0.52308885296E-02 -0.20064870282E-01  0.69015884537E-02  0.21853904398E-01  0.00000000000E+00 0. -1.
     999901    1    3    3    0    0  0.78078198808E-01 -0.55238619948E-01 -0.86142508914E-01  0.88936384124E+00  0.88000000000E+00 0. -1.
        -11    1    4    4    0    0 -0.12694367320E-01  0.20114503698E-01  0.26037039834E-01  0.35269374605E-01  0.51100000000E-03 0. -1.
         11    1    4    4    0    0 -0.60152942958E-01  0.55188986532E-01  0.53203880625E-01  0.97442879758E-01  0.51100000000E-03 0.  1.
</event>
<event>
 8    1  0.1170483E+005  0.1043930E+01  0.7957747E-01            NaN
         13   -1    0    0    0    0  0.00000000000E+00  0.00000000000E+00  0.74505805969E-08  0.10566000000E+00  0.10566000000E+00 0.  1.
     999900   -1    0    0    0    0 -0.00000000000E+00 -0.00000000000E+00 -0.74505805969E-08  0.93827000000E+00  0.93827000000E+00 0. -1.
     999902    2    1    2    0    0  0.22358947701E-01 -0.55714336612E-02 -0.41971431133E-02  0.10205082275E+01  0.10202394146E+01 0.  0.
     999903    2    3    3    0    0 -0.92005705022E-02 -0.12903994798E+00 -0.12653221185E-01  0.13128835457E+00  0.18454521594E-01 0.  0.
         14    1    1    2    0    0 -0.22358947701E-01  0.55714336612E-02  0.41971431133E-02  0.23421772470E-01  0.00000000000E+00 0. -1.
     999901    1    3    3    0    0  0.31559518203E-01  0.12346851431E+00  0.84560780721E-02  0.88921987296E+00  0.88000000000E+00 0. -1.
        -11    1    4    4    0    0  0.33185878888E-02 -0.65352748694E-01 -0.16884202547E-02  0.65460726175E-01  0.51100000000E-03 0. -1.
         11    1    4    4    0    0 -0.12519158391E-01 -0.63687199282E-01 -0.10964800931E-01  0.65827628391E-01  0.51100000000E-03 0.  1.
</event>
<event>
 7    1  0.1170483E+005  0.1043930E+01  0.7957747E-01            NaN
         13   -1    0    0    0    0  0.00000000000E+00  0.00000000000E+00  0.74505805969E-08  0.10566000000E+00  0.10566000000E+00 0. -1.
     999900   -1    0    0    0    0 -0.00000000000E+00 -0.00000000000E+00 -0.74505805969E-08  0.93827000000E+00  0.93827000000E+00 0.  1.
     999903    2    1    2    0    0  0.31890497270E-01 -0.90613397855E-02  0.51287330091E-01  0.64256389477E-01  0.19984535671E-01 0.  0.
         14    1    1    2    0    0  0.55605798017E-01 -0.46563335752E-01 -0.59092476868E-01  0.93552497732E-01  0.00000000000E+00 0. -1.
     999901    1    1    2    0    0 -0.87496295288E-01  0.55624675537E-01  0.78051467765E-02  0.88612111279E+00  0.88000000000E+00 0.  1.
        -11    1    3    3    0    0  0.11900305223E-01 -0.13431887147E-01  0.20078589091E-01  0.26934062405E-01  0.51100000000E-03 0.  1.
         11    1    3    3    0    0  0.19990192047E-01  0.43705473616E-02  0.31208741000E-01  0.37322327073E-01  0.51100000000E-03 0. -1.
</event>
<event>
 8    1  0.1170483E+005  0.1043930E+01  0.7957747E-01            NaN
         13   -1    0    0    0    0  0.00000000000E+00  0.00000000000E+00  0.74505805969E-08  0.10566000000E+00  0.10566000000E+00 0.  1.
     999900   -1    0    0    0    0 -0.00000000000E+00 -0.00000000000E+00 -0.74505805969E-08  0.93827000000E+00  0.93827000000E+00 0. -1.
     999902    2    1    2    0    0 -0.14575749012E-01  0.18503080286E-01  0.81462658647E-02  0.10190065555E+01  0.10187017140E+01 0.  0.
     999903    2    3    3    0    0 -0.11529850667E+00 -0.52737621514E-01  0.23654828155E-01  0.13026540812E+00  0.18289977964E-01 0.  0.
         14    1    1    2    0    0  0.14575749012E-01 -0.18503080286E-01 -0.81462658647E-02  0.24923444523E-01  0.00000000000E+00 0. -1.
     999901    1    3    3    0    0  0.10072275766E+00  0.71240701799E-01 -0.15508562291E-01  0.88874114736E+00  0.88000000000E+00 0.  1.
        -11    1    4    4    0    0 -0.39362852738E-01 -0.18186463326E-01 -0.65007285084E-03  0.43368944415E-01  0.51100000000E-03 0. -1.
         11    1    4    4    0    0 -0.75935653933E-01 -0.34551158187E-01  0.24304901006E-01  0.86896463704E-01  0.51100000000E-03 0.  1.
</event>
<event>
 8    1  0.1170483E+005  0.1043930E+01  0.7957747E-01            NaN
         13   -1    0    0    0    0  0.00000000000E+00  0.00000000000E+00  0.74505805969E-08  0.10566000000E+00  0.10566000000E+00 0.  1.
     999900   -1    0    0    0    0 -0.00000000000E+00 -0.00000000000E+00 -0.74505805969E-08  0.93827000000E+00  0.93827000000E+00 0. -1.
     999902    2    1    2    0    0  0.12898370087E-01 -0.19389061652E-01 -0.50447104349E-02  0.10201024368E+01  0.10198241166E+01 0.  0.
     999903    2    3    3    0    0 -0.12164361991E-01 -0.12821407628E+00 -0.25927244384E-01  0.13279916030E+00  0.19405512501E-01 0.  0.
         14    1    1    2    0    0 -0.12898370087E-01  0.19389061652E-01  0.50447104349E-02  0.23827563157E-01  0.00000000000E+00 0. -1.
     999901    1    3    3    0    0  0.25062732078E-01  0.10882501463E+00  0.20882533949E-01  0.88730327655E+00  0.88000000000E+00 0. -1.
        -11    1    4    4    0    0 -0.17624247711E-02 -0.20115436759E-01  0.29823021830E-02  0.20417937810E-01  0.51100000000E-03 0. -1.
         11    1    4    4    0    0 -0.10401937220E-01 -0.10809863952E+00 -0.28909546567E-01  0.11238122249E+00  0.51100000000E-03 0.  1.
</event>
<event>
 8    1  0.1170483E+005  0.1043930E+01  0.7957747E-01            NaN
         13   -1    0    0    0    0  0.00000000000E+00  0.00000000000E+00  0.74505805969E-08  0.10566000000E+00  0.10566000000E+00 0.  1.
     999900   -1    0    0    0    0 -0.00000000000E+00 -0.00000000000E+00 -0.74505805969E-08  0.93827000000E+00  0.93827000000E+00 0. -1.
     999902    2    1    2    0    0  0.17804021805E-01  0.12940219839E-01  0.88797957744E-02  0.10201964108E+01  0.10199203074E+01 0.  0.
     999903    2    3    3    0    0  0.80135285006E-02 -0.12211479704E+00  0.36714243400E-01  0.12940436561E+00  0.20525931784E-01 0.  0.
         14    1    1    2    0    0 -0.17804021805E-01 -0.12940219839E-01 -0.88797957744E-02  0.23733589171E-01  0.00000000000E+00 0. -1.
     999901    1    3    3    0    0  0.97904933046E-02  0.13505501688E+00 -0.27834447625E-01  0.89079204522E+00  0.88000000000E+00 0.  1.
        -11    1    4    4    0    0 -0.47675823267E-02 -0.18185004875E-01  0.10161886935E-01  0.21376372719E-01  0.51100000000E-03 0.  1.
         11    1    4    4    0    0  0.12781110827E-01 -0.10392979217E+00  0.26552356465E-01  0.10802799289E+00  0.51100000000E-03 0. -1.
</event>
<event>
 8    1  0.1170483E+005  0.1043930E+01  0.7957747E-01            NaN
         13   -1    0    0    0    0  0.00000000000E+00  0.00000000000E+00  0.74505805969E-08  0.10566000000E+00  0.10566000000E+00 0. -1.
     999900   -1    0    0    0    0 -0.00000000000E+00 -0.00000000000E+00 -0.74505805969E-08  0.93827000000E+00  0.93827000000E+00 0. -1.
     999902    2    1    2    0    0  0.15673760458E-01 -0.12556996207E-01  0.15710861080E-02  0.10237851934E+01  0.10235869817E+01 0.  0.
     999903    2    3    3    0    0 -0.86214142719E-01 -0.38469624501E-01 -0.91168407666E-01  0.13268855285E+00  0.19539270413E-01 0.  0.
         14    1    1    2    0    0 -0.15673760458E-01  0.12556996207E-01 -0.15710861080E-02  0.20144806581E-01  0.00000000000E+00 0.  1.
     999901    1    3    3    0    0  0.10188790318E+00  0.25912628294E-01  0.92739493774E-01  0.89109664056E+00  0.88000000000E+00 0.  1.
        -11    1    4    4    0    0 -0.32129514032E-01 -0.42951502009E-02 -0.31570139985E-01  0.45251396076E-01  0.51100000000E-03 0.  1.
         11    1    4    4    0    0 -0.54084628687E-01 -0.34174474300E-01 -0.59598267681E-01  0.87437156779E-01  0.51100000000E-03 0. -1.
</event>
<event>
 8    1  0.1170483E+005  0.1043930E+01  0.7957747E-01            NaN
         13   -1    0    0    0    0  0.00000000000E+00  0.00000000000E+00  0.74505805969E-08  0.10566000000E+00  0.10566000000E+00 0.  1.
     999900   -1    0    0    0    0 -0.00000000000E+00 -0.00000000000E+00 -0.74505805969E-08  0.93827000000E+00  0.93827000000E+00 0.  1.
     999902    2    1    2    0    0 -0.98529949140E-02  0.95316307127E-02 -0.19701813829E-01  0.10199280217E+01  0.10196455632E+01 0.  0.
     999903    2    3    3    0    0  0.60729184993E-01 -0.99187423937E-01 -0.54146049127E-01  0.12976619245E+00  0.19526676339E-01 0.  0.
         14    1    1    2    0    0  0.98529949140E-02 -0.95316307127E-02  0.19701813829E-01  0.24001978272E-01  0.00000000000E+00 0.  1.
     999901    1    3    3    0    0 -0.70582179907E-01  0.10871905465E+00  0.34444235297E-01  0.89016182928E+00  0.88000000000E+00 0. -1.
        -11    1    4    4    0    0 -0.90227736352E-03 -0.62393360721E-02 -0.40116585863E-02  0.74898561184E-02  0.51100000000E-03 0. -1.
         11    1    4    4    0    0  0.61631462356E-01 -0.92948087865E-01 -0.50134390540E-01  0.12227633633E+00  0.51100000000E-03 0.  1.
</event>
<event>
 8    1  0.1170483E+005  0.1043930E+01  0.7957747E-01            NaN
         13   -1    0    0    0    0  0.00000000000E+00  0.00000000000E+00  0.74505805969E-08  0.10566000000E+00  0.10566000000E+00 0.  1.
     999900   -1    0    0    0    0 -0.00000000000E+00 -0.00000000000E+00 -0.74505805969E-08  0.93827000000E+00  0.93827000000E+00 0. -1.
     999902    2    1    2    0    0 -0.86345474909E-02  0.21552134788E-01  0.54096115305E-02  0.10200906665E+01  0.10198120680E+01 0.  0.
     999903    2    3    3    0    0 -0.46896996264E-01 -0.10020093650E+00  0.62986354954E-01  0.12902225907E+00  0.20973947937E-01 0.  0.
         14    1    1    2    0    0  0.86345474909E-02 -0.21552134788E-01 -0.54096115305E-02  0.23839333489E-01  0.00000000000E+00 0.  1.
     999901    1    3    3    0    0  0.38262448773E-01  0.12175307128E+00 -0.57576743423E-01  0.89106840744E+00  0.88000000000E+00 0.  1.
        -11    1    4    4    0    0 -0.23713987091E-01 -0.58225532170E-01  0.24284470308E-01  0.67398534104E-01  0.51100000000E-03 0. -1.
         11    1    4    4    0    0 -0.23183009173E-01 -0.41975404327E-01  0.38701884646E-01  0.61623724968E-01  0.51100000000E-03 0.  1.
</event>
<event>
 8    1  0.1170483E+005  0.1043930E+01  0.7957747E-01            NaN
         13   -1    0    0    0    0  0.00000000000E+00  0.00000000000E+00  0.74505805969E-08  0.10566000000E+00  0.10566000000E+00 0.  1.
     999900   -1    0    0    0    0 -0.00000000000E+00 -0.00000000000E+00 -0.74505805969E-08  0.93827000000E+00  0.93827000000E+00 0.  1.
     999902    2    1    2    0    0 -0.47496462334E-02  0.13797389571E-01  0.18928513048E-01  0.10200298807E+01  0.10197498427E+01 0.  0.
     999903    2    3    3    0    0  0.47305848468E-01  0.55634564454E-01  0.10924699352E+00  0.13288978369E+00  0.19792446942E-01 0.  0.
         14    1    1    2    0    0  0.47496462334E-02 -0.13797389571E-01 -0.18928513048E-01  0.23900119341E-01  0.00000000000E+00 0. -1.
     999901    1    3    3    0    0 -0.52055494701E-01 -0.41837174883E-01 -0.90318480470E-01  0.88714009697E+00  0.88000000000E+00 0.  1.
        -11    1    4    4    0    0  0.23499095032E-01  0.18513065293E-01  0.31091489191E-01  0.43149540843E-01  0.51100000000E-03 0. -1.
         11    1    4    4    0    0  0.23806753436E-01  0.37121499160E-01  0.78155504327E-01  0.89740242850E-01  0.51100000000E-03 0.  1.
</event>
<event>
 8    1  0.1170483E+005  0.1043930E+01  0.7957747E-01            NaN
         13   -1    0    0    0    0  0.00000000000E+00  0.00000000000E+00  0.74505805969E-08  0.10566000000E+00  0.10566000000E+00 0. -1.
     999900   -1    0    0    0    0 -0.00000000000E+00 -0.00000000000E+00 -0.74505805969E-08  0.93827000000E+00  0.93827000000E+00 0. -1.
     999902    2    1    2    0    0  0.90474588740E-03 -0.21932182559E-01 -0.95547138947E-02  0.10199898297E+01  0.10197088412E+01 0.  0.
     999903    2    3    3    0    0  0.11434503979E+00 -0.34270460795E-01 -0.50743069245E-01  0.13166702012E+00  0.22629460942E-01 0.  0.
         14    1    1    2    0    0 -0.90474588740E-03  0.21932182559E-01  0.95547138947E-02  0.23940170311E-01  0.00000000000E+00 0. -1.
     999901    1    3    3    0    0 -0.11344029390E+00  0.12338278236E-01  0.41188355350E-01  0.88832280957E+00  0.88000000000E+00 0. -1.
        -11    1    4    4    0    0  0.72535823730E-01 -0.25491952990E-01 -0.21306985444E-01  0.79784297585E-01  0.51100000000E-03 0. -1.
         11    1    4    4    0    0  0.41809216059E-01 -0.87785078050E-02 -0.29436083800E-01  0.51882722531E-01  0.51100000000E-03 0.  1.
</event>
<event>
 8    1  0.1170483E+005  0.1043930E+01  0.7957747E-01            NaN
         13   -1    0    0    0    0  0.00000000000E+00  0.00000000000E+00  0.74505805969E-08  0.10566000000E+00  0.10566000000E+00 0.  1.
     999900   -1    0    0    0    0 -0.00000000000E+00 -0.00000000000E+00 -0.74505805969E-08  0.93827000000E+00  0.93827000000E+00 0. -1.
     999902    2    1    2    0    0 -0.14071984561E-01  0.11148366225E-01 -0.15212437967E-01  0.10203986361E+01  0.10201272722E+01 0.  0.
     999903    2    3    3    0    0  0.32286439103E-01  0.53662788585E-02  0.12259791454E+00  0.12844895743E+00  0.19941788237E-01 0.  0.
         14    1    1    2    0    0  0.14071984561E-01 -0.11148366225E-01  0.15212437967E-01  0.23531363919E-01  0.00000000000E+00 0. -1.
     999901    1    3    3    0    0 -0.46358423664E-01  0.57820873663E-02 -0.13781035251E+00  0.89194967865E+00  0.88000000000E+00 0. -1.
        -11    1    4    4    0    0  0.17275201100E-01  0.18620248137E-03  0.95378361847E-01  0.96931729965E-01  0.51100000000E-03 0. -1.
         11    1    4    4    0    0  0.15011238002E-01  0.51800763771E-02  0.27219552692E-01  0.31517227470E-01  0.51100000000E-03 0.  1.
</event>
<event>
 8    1  0.1170483E+005  0.1043930E+01  0.7957747E-01            NaN
         13   -1    0    0    0    0  0.00000000000E+00  0.00000000000E+00  0.74505805969E-08  0.10566000000E+00  0.10566000000E+00 0.  1.
     999900   -1    0    0    0    0 -0.00000000000E+00 -0.00000000000E+00 -0.74505805969E-08  0.93827000000E+00  0.93827000000E+00 0.  1.
     999902    2    1    2    0    0  0.63894651873E-02  0.14323196009E-01 -0.17233104821E-01  0.10206285170E+01  0.10203624898E+01 0.  0.
     999903    2    3    3    0    0  0.33384989413E-01 -0.90169095380E-01  0.82727274687E-01  0.12841807389E+00  0.20059323121E-01 0.  0.
         14    1    1    2    0    0 -0.63894651873E-02 -0.14323196009E-01  0.17233104821E-01  0.23301483022E-01  0.00000000000E+00 0.  1.
     999901    1    3    3    0    0 -0.26995524225E-01  0.10449229139E+00 -0.99960379508E-01  0.89221044309E+00  0.88000000000E+00 0.  1.
        -11    1    4    4    0    0  0.23679943440E-01 -0.42387476485E-01  0.49975230218E-01  0.69679427670E-01  0.51100000000E-03 0. -1.
         11    1    4    4    0    0  0.97050459727E-02 -0.47781618895E-01  0.32752044469E-01  0.58738646217E-01  0.51100000000E-03 0.  1.
</event>
<event>
 8    1  0.1170483E+005  0.1043930E+01  0.7957747E-01            NaN
         13   -1    0    0    0    0  0.00000000000E+00  0.00000000000E+00  0.74505805969E-08  0.10566000000E+00  0.10566000000E+00 0. -1.
     999900   -1    0    0    0    0 -0.00000000000E+00 -0.00000000000E+00 -0.74505805969E-08  0.93827000000E+00  0.93827000000E+00 0.  1.
     999902    2    1    2    0    0  0.13575834511E-01  0.38857683017E-02 -0.18890268404E-01  0.10203451591E+01  0.10200725460E+01 0.  0.
     999903    2    3    3    0    0 -0.44739423596E-01  0.12007981663E-01 -0.12228543747E+00  0.13233772637E+00  0.20340549501E-01 0.  0.
         14    1    1    2    0    0 -0.13575834511E-01 -0.38857683017E-02  0.18890268404E-01  0.23584840859E-01  0.00000000000E+00 0. -1.
     999901    1    3    3    0    0  0.58315258107E-01 -0.81222133609E-02  0.10339516907E+00  0.88800743278E+00  0.88000000000E+00 0. -1.
        -11    1    4    4    0    0 -0.21432256141E-01  0.14548167480E-01 -0.49540388592E-01  0.55906189310E-01  0.51100000000E-03 0.  1.
         11    1    4    4    0    0 -0.23307167455E-01 -0.25401858178E-02 -0.72745048882E-01  0.76431537055E-01  0.51100000000E-03 0. -1.
</event>
<event>
 8    1  0.1170483E+005  0.1043930E+01  0.7957747E-01            NaN
         13   -1    0    0    0    0  0.00000000000E+00  0.00000000000E+00  0.74505805969E-08  0.10566000000E+00  0.10566000000E+00 0. -1.
     999900   -1    0    0    0    0 -0.00000000000E+00 -0.00000000000E+00 -0.74505805969E-08  0.93827000000E+00  0.93827000000E+00 0.  1.
     999902    2    1    2    0    0  0.64461138709E-02  0.20581977656E-01  0.80307161740E-02  0.10209156004E+01  0.10206561617E+01 0.  0.
     999903    2    3    3    0    0  0.10531399523E+00  0.54352531634E-01 -0.55531758763E-01  0.13245879416E+00  0.20403936688E-01 0.  0.
         14    1    1    2    0    0 -0.64461138709E-02 -0.20581977656E-01 -0.80307161740E-02  0.23014399634E-01  0.00000000000E+00 0.  1.
     999901    1    3    3    0    0 -0.98867881356E-01 -0.33770553978E-01  0.63562474937E-01  0.88845680621E+00  0.88000000000E+00 0. -1.
        -11    1    4    4    0    0  0.94375894997E-01  0.52092935149E-01 -0.44108635491E-01  0.11647453067E+00  0.51100000000E-03 0. -1.
         11    1    4    4    0    0  0.10938100230E-01  0.22595964849E-02 -0.11423123272E-01  0.15984263486E-01  0.51100000000E-03 0.  1.
</event>
<event>
 8    1  0.1170483E+005  0.1043930E+01  0.7957747E-01            NaN
         13   -1    0    0    0    0  0.00000000000E+00  0.00000000000E+00  0.74505805969E-08  0.10566000000E+00  0.10566000000E+00 0.  1.
     999900   -1    0    0    0    0 -0.00000000000E+00 -0.00000000000E+00 -0.74505805969E-08  0.93827000000E+00  0.93827000000E+00 0. -1.
     999902    2    1    2    0    0  0.70706952178E-02 -0.14143418618E-01  0.17391865576E-01  0.10204245111E+01  0.10201537506E+01 0.  0.
     999903    2    3    3    0    0 -0.80407856319E-01 -0.10186122240E+00 -0.70818019459E-02  0.13141052329E+00  0.19427859539E-01 0.  0.
         14    1    1    2    0    0 -0.70706952178E-02  0.14143418618E-01 -0.17391865576E-01  0.23505488918E-01  0.00000000000E+00 0. -1.
     999901    1    3    3    0    0  0.87478551537E-01  0.87717803785E-01  0.24473667522E-01  0.88901398779E+00  0.88000000000E+00 0. -1.
        -11    1    4    4    0    0 -0.19988586373E-01 -0.26694417942E-01 -0.10328488087E-01  0.34915244832E-01  0.51100000000E-03 0.  1.
         11    1    4    4    0    0 -0.60419269946E-01 -0.75166804461E-01  0.32466861408E-02  0.96495278463E-01  0.51100000000E-03 0. -1.
</event>
<event>
 8    1  0.1170483E+005  0.1043930E+01  0.7957747E-01            NaN
         13   -1    0    0    0    0  0.00000000000E+00  0.00000000000E+00  0.74505805969E-08  0.10566000000E+00  0.10566000000E+00 0. -1.
     999900   -1    0    0    0    0 -0.00000000000E+00 -0.00000000000E+00 -0.74505805969E-08  0.93827000000E+00  0.93827000000E+00 0. -1.
     999902    2    1    2    0    0  0.60110990824E-02  0.22829097074E-01 -0.18685812638E-02  0.10202489405E+01  0.10199740722E+01 0.  0.
     999903    2    3    3    0    0 -0.14636404250E-01  0.10235574992E+00 -0.80984674479E-01  0.13288759122E+00  0.20240319362E-01 0.  0.
         14    1    1    2    0    0 -0.60110990824E-02 -0.22829097074E-01  0.18685812638E-02  0.23681059548E-01  0.00000000000E+00 0. -1.
     999901    1    3    3    0    0  0.20647503332E-01 -0.79526652849E-01  0.79116093215E-01  0.88736134923E+00  0.88000000000E+00 0.  1.
        -11    1    4    4    0    0 -0.72111628975E-02  0.93281781811E-01 -0.73356445362E-01  0.11889037339E+00  0.51100000000E-03 0.  1.
         11    1    4    4    0    0 -0.74252413521E-02  0.90739681117E-02 -0.76282291173E-02  0.13997217827E-01  0.51100000000E-03 0. -1.
</event>
<event>
 8    1  0.1170483E+005  0.1043930E+01  0.7957747E-01            NaN
         13   -1    0    0    0    0  0.00000000000E+00  0.00000000000E+00  0.74505805969E-08  0.10566000000E+00  0.10566000000E+00 0. -1.
     999900   -1    0    0    0    0 -0.00000000000E+00 -0.00000000000E+00 -0.74505805969E-08  0.93827000000E+00  0.93827000000E+00 0.  1.
     999902    2    1    2    0    0  0.17666838663E-01  0.33732948273E-02  0.14339420462E-01  0.10209274939E+01  0.10206683264E+01 0.  0.
     999903    2    3    3    0    0  0.17528113090E-01 -0.80344370965E-01  0.10202670677E+00  0.13261576543E+00  0.20372522005E-01 0.  0.
         14    1    1    2    0    0 -0.17666838663E-01 -0.33732948273E-02 -0.14339420462E-01  0.23002506070E-01  0.00000000000E+00 0.  1.
     999901    1    3    3    0    0  0.13872557208E-03  0.83717665792E-01 -0.87687286305E-01  0.88831172850E+00  0.88000000000E+00 0.  1.
        -11    1    4    4    0    0 -0.16495882939E-02 -0.28785080838E-01  0.44430635478E-01  0.52968334978E-01  0.51100000000E-03 0.  1.
         11    1    4    4    0    0  0.19177701384E-01 -0.51559290127E-01  0.57596071289E-01  0.79647430453E-01  0.51100000000E-03 0. -1.
</event>
<event>
 7    1  0.1170483E+005  0.1043930E+01  0.7957747E-01            NaN
         13   -1    0    0    0    0  0.00000000000E+00  0.00000000000E+00  0.74505805969E-08  0.10566000000E+00  0.10566000000E+00 0.  1.
     999900   -1    0    0    0    0 -0.00000000000E+00 -0.00000000000E+00 -0.74505805969E-08  0.93827000000E+00  0.93827000000E+00 0.  1.
     999903    2    1    2    0    0  0.85367242642E-02 -0.35297178646E-01  0.95375744374E-01  0.10416453866E+00  0.20855503316E-01 0.  0.
         14    1    1    2    0    0  0.36428778816E-01 -0.19228333284E-01  0.25874713715E-01  0.48644481051E-01  0.00000000000E+00 0.  1.
     999901    1    1    2    0    0 -0.44965503081E-01  0.54525511929E-01 -0.12125045809E+00  0.89112098029E+00  0.88000000000E+00 0.  1.
        -11    1    3    3    0    0 -0.45307016135E-02 -0.13603128925E-02  0.18771572615E-01  0.19365194751E-01  0.51100000000E-03 0.  1.
         11    1    3    3    0    0  0.13067425878E-01 -0.33936865753E-01  0.76604171758E-01  0.84799343913E-01  0.51100000000E-03 0. -1.
</event>
<event>
 8    1  0.1170483E+005  0.1043930E+01  0.7957747E-01            NaN
         13   -1    0    0    0    0  0.00000000000E+00  0.00000000000E+00  0.74505805969E-08  0.10566000000E+00  0.10566000000E+00 0. -1.
     999900   -1    0    0    0    0 -0.00000000000E+00 -0.00000000000E+00 -0.74505805969E-08  0.93827000000E+00  0.93827000000E+00 0.  1.
     999902    2    1    2    0    0 -0.33368890501E-02  0.19053877456E-01 -0.10187018305E-01  0.10220676942E+01  0.10218338471E+01 0.  0.
     999903    2    3    3    0    0  0.45491869436E-01 -0.10254797698E+00  0.61192667654E-01  0.12950603342E+00  0.21016002253E-01 0.  0.
         14    1    1    2    0    0  0.33368890501E-02 -0.19053877456E-01  0.10187018305E-01  0.21862305839E-01  0.00000000000E+00 0. -1.
     999901    1    3    3    0    0 -0.48828758486E-01  0.12160185443E+00 -0.71379685959E-01  0.89256166074E+00  0.88000000000E+00 0.  1.
        -11    1    4    4    0    0  0.18999138153E-01 -0.26908564407E-01  0.10092596261E-01  0.34455184070E-01  0.51100000000E-03 0.  1.
         11    1    4    4    0    0  0.26492731282E-01 -0.75639412571E-01  0.51100071393E-01  0.95050849351E-01  0.51100000000E-03 0. -1.
</event>
<event>
 8    1  0.1170483E+005  0.1043930E+01  0.7957747E-01            NaN
         13   -1    0    0    0    0  0.00000000000E+00  0.00000000000E+00  0.74505805969E-08  0.10566000000E+00  0.10566000000E+00 0.  1.
     999900   -1    0    0    0    0 -0.00000000000E+00 -0.00000000000E+00 -0.74505805969E-08  0.93827000000E+00  0.93827000000E+00 0.  1.
     999902    2    1    2    0    0  0.99669019195E-02 -0.14128500962E-01 -0.11301129933E-01  0.10232740272E+01  0.10230655236E+01 0.  0.
     999903    2    3    3    0    0  0.10901242157E-01 -0.11452162884E+00  0.66113767790E-01  0.13418869977E+00  0.20038370748E-01 0.  0.
         14    1    1    2    0    0 -0.99669019195E-02  0.14128500962E-01  0.11301129933E-01  0.20655972770E-01  0.00000000000E+00 0. -1.
     999901    1    3    3    0    0 -0.93434023792E-03  0.10039312788E+00 -0.77414897723E-01  0.88908532746E+00  0.88000000000E+00 0.  1.
        -11    1    4    4    0    0 -0.37355445318E-02 -0.55554334562E-01  0.26584218892E-01  0.61702675766E-01  0.51100000000E-03 0. -1.
         11    1    4    4    0    0  0.14636786689E-01 -0.58967294276E-01  0.39529548898E-01  0.72486024004E-01  0.51100000000E-03 0.  1.
</event>
<event>
 8    1  0.1314843E+005  0.1043930E+01  0.7957747E-01            NaN
         13   -1    0    0    0    0  0.00000000000E+00  0.00000000000E+00  0.74505805969E-08  0.10566000000E+00  0.10566000000E+00 0.  1.
     999900   -1    0    0    0    0 -0.00000000000E+00 -0.00000000000E+00 -0.74505805969E-08  0.93827000000E+00  0.93827000000E+00 0. -1.
     999902    2    1    2    0    0 -0.63208416715E-02 -0.19282286056E-01 -0.97439464910E-02  0.10214199114E+01  0.10211718422E+01 0.  0.
     999903    2    3    3    0    0 -0.22594068103E-01 -0.82641104870E-01 -0.10140812463E+00  0.13424378495E+00  0.19943468309E-01 0.  0.
         14    1    1    2    0    0  0.63208416715E-02  0.19282286056E-01  0.97439464910E-02  0.22510088587E-01  0.00000000000E+00 0.  1.
     999901    1    3    3    0    0  0.16273226431E-01  0.63358818814E-01  0.91664178137E-01  0.88717612647E+00  0.88000000000E+00 0.  1.
        -11    1    4    4    0    0 -0.67747802766E-02 -0.52612457779E-01 -0.51887284165E-01  0.74205927933E-01  0.51100000000E-03 0. -1.
         11    1    4    4    0    0 -0.15819287826E-01 -0.30028647092E-01 -0.49520840464E-01  0.60037857013E-01  0.51100000000E-03 0.  1.
</event>
<event>
 8    1  0.1170483E+005  0.1043930E+01  0.7957747E-01            NaN
         13   -1    0    0    0    0  0.00000000000E+00  0.00000000000E+00  0.74505805969E-08  0.10566000000E+00  0.10566000000E+00 0. -1.
     999900   -1    0    0    0    0 -0.00000000000E+00 -0.00000000000E+00 -0.74505805969E-08  0.93827000000E+00  0.93827000000E+00 0. -1.
     999902    2    1    2    0    0 -0.10734979821E-01 -0.10396498928E-01 -0.19253906834E-01  0.10195570660E+01  0.10192657019E+01 0.  0.
     999903    2    3    3    0    0  0.46180804301E-01  0.11790066345E+00 -0.63244005194E-02  0.12834062740E+00  0.19952079372E-01 0.  0.
         14    1    1    2    0    0  0.10734979821E-01  0.10396498928E-01  0.19253906834E-01  0.24372933965E-01  0.00000000000E+00 0.  1.
     999901    1    3    3    0    0 -0.56915784122E-01 -0.12829716238E+00 -0.12929506314E-01  0.89121643863E+00  0.88000000000E+00 0. -1.
        -11    1    4    4    0    0  0.42712848455E-01  0.88433003784E-01 -0.85574152918E-02  0.98581306843E-01  0.51100000000E-03 0. -1.
         11    1    4    4    0    0  0.34679558461E-02  0.29467659669E-01  0.22330147725E-02  0.29759320558E-01  0.51100000000E-03 0.  1.
</event>
<event>
 8    1  0.1170483E+005  0.1043930E+01  0.7957747E-01            NaN
         13   -1    0    0    0    0  0.00000000000E+00  0.00000000000E+00  0.74505805969E-08  0.10566000000E+00  0.10566000000E+00 0. -1.
     999900   -1    0    0    0    0 -0.00000000000E+00 -0.00000000000E+00 -0.74505805969E-08  0.93827000000E+00  0.93827000000E+00 0.  1.
     999902    2    1    2    0    0  0.15630725381E-01  0.17707878648E-01 -0.22945804570E-01  0.10109997937E+01  0.10104633513E+01 0.  0.
     999903    2    3    3    0    0 -0.10382193641E+00  0.32776048102E-01  0.46452006726E-01  0.12009461108E+00  0.20289476898E-01 0.  0.
         14    1    1    2    0    0 -0.15630725381E-01 -0.17707878648E-01  0.22945804570E-01  0.32930206339E-01  0.00000000000E+00 0. -1.
     999901    1    3    3    0    0  0.11945266179E+00 -0.15068169454E-01 -0.69397811296E-01  0.89090518258E+00  0.88000000000E+00 0.  1.
        -11    1    4    4    0    0 -0.32747796572E-01  0.19310041893E-01  0.11289260357E-01  0.39661119735E-01  0.51100000000E-03 0.  1.
         11    1    4    4    0    0 -0.71074139836E-01  0.13466006209E-01  0.35162746369E-01  0.80433491345E-01  0.51100000000E-03 0. -1.
</event>
<event>
 8    1  0.1170483E+005  0.1043930E+01  0.7957747E-01            NaN
         13   -1    0    0    0    0  0.00000000000E+00  0.00000000000E+00  0.74505805969E-08  0.10566000000E+00  0.10566000000E+00 0. -1.
     999900   -1    0    0    0    0 -0.00000000000E+00 -0.00000000000E+00 -0.74505805969E-08  0.93827000000E+00  0.93827000000E+00 0.  1.
     999902    2    1    2    0    0 -0.15521000982E-01 -0.17676146443E-01  0.64424270311E-03  0.10203978375E+01  0.10201264549E+01 0.  0.
     999903    2    3    3    0    0  0.59127702516E-01 -0.36296215716E-01  0.10877914618E+00  0.13044711228E+00  0.19236579187E-01 0.  0.
         14    1    1    2    0    0  0.15521000982E-01  0.17676146443E-01 -0.64424270311E-03  0.23532162527E-01  0.00000000000E+00 0. -1.
     999901    1    3    3    0    0 -0.74648703498E-01  0.18620069273E-01 -0.10813490348E+00  0.88995072519E+00  0.88000000000E+00 0.  1.
        -11    1    4    4    0    0  0.49478034136E-01 -0.28411960438E-01  0.73624616601E-01  0.93145910530E-01  0.51100000000E-03 0.  1.
         11    1    4    4    0    0  0.96496683801E-02 -0.78842552778E-02  0.35154529582E-01  0.37301201754E-01  0.51100000000E-03 0. -1.
</event>
<event>
 8    1  0.1170483E+005  0.1043930E+01  0.7957747E-01            NaN
         13   -1    0    0    0    0  0.00000000000E+00  0.00000000000E+00  0.74505805969E-08  0.10566000000E+00  0.10566000000E+00 0.  1.
     999900   -1    0    0    0    0 -0.00000000000E+00 -0.00000000000E+00 -0.74505805969E-08  0.93827000000E+00  0.93827000000E+00 0. -1.
     999902    2    1    2    0    0 -0.41059688620E-02 -0.14245362780E-01 -0.18327319227E-01  0.10203571349E+01  0.10200848017E+01 0.  0.
     999903    2    3    3    0    0 -0.22764180557E-01  0.10991679898E+00 -0.63037630939E-01  0.13032152700E+00  0.20249614124E-01 0.  0.
         14    1    1    2    0    0  0.41059688620E-02  0.14245362780E-01  0.18327319227E-01  0.23572865144E-01  0.00000000000E+00 0.  1.
     999901    1    3    3    0    0  0.18658211695E-01 -0.12416216176E+00  0.44710311712E-01  0.89003560785E+00  0.88000000000E+00 0. -1.
        -11    1    4    4    0    0 -0.22626729191E-01  0.85510788899E-01 -0.41248657151E-01  0.97600085706E-01  0.51100000000E-03 0. -1.
         11    1    4    4    0    0 -0.13745136541E-03  0.24406010076E-01 -0.21788973788E-01  0.32721441296E-01  0.51100000000E-03 0.  1.
</event>
<event>
 8    1  0.1170483E+005  0.1043930E+01  0.7957747E-01            NaN
         13   -1    0    0    0    0  0.00000000000E+00  0.00000000000E+00  0.74505805969E-08  0.10566000000E+00  0.10566000000E+00 0.  1.
     999900   -1    0    0    0    0 -0.00000000000E+00 -0.00000000000E+00 -0.74505805969E-08  0.93827000000E+00  0.93827000000E+00 0.  1.
     999902    2    1    2    0    0  0.20608574437E-01  0.68753895345E-02 -0.25826456037E-02  0.10220518287E+01  0.10218176384E+01 0.  0.
     999903    2    3    3    0    0  0.81475605868E-01 -0.57776869228E-01 -0.86522398966E-01  0.13360903803E+00  0.19718228915E-01 0.  0.
         14    1    1    2    0    0 -0.20608574437E-01 -0.68753895345E-02  0.25826456037E-02  0.21878171310E-01  0.00000000000E+00 0.  1.
     999901    1    3    3    0    0 -0.60867031432E-01  0.64652258763E-01  0.83939753362E-01  0.88844279066E+00  0.88000000000E+00 0.  1.
        -11    1    4    4    0    0  0.62632932769E-01 -0.37351723071E-01 -0.53497152509E-01  0.90444689900E-01  0.51100000000E-03 0. -1.
         11    1    4    4    0    0  0.18842673100E-01 -0.20425146157E-01 -0.33025246457E-01  0.43164348131E-01  0.51100000000E-03 0.  1.
</event>
<event>
 7    1  0.1170483E+005  0.1043930E+01  0.7957747E-01            NaN
         13   -1    0    0    0    0  0.00000000000E+00  0.00000000000E+00  0.74505805969E-08  0.10566000000E+00  0.10566000000E+00 0.  1.
     999900   -1    0    0    0    0 -0.00000000000E+00 -0.00000000000E+00 -0.74505805969E-08  0.93827000000E+00  0.93827000000E+00 0. -1.
     999902    2    1    2    0    0  0.35679635055E-02  0.22766677096E-01  0.47963136059E-02  0.10203915936E+01  0.10201200654E+01 0.  0.
         14    1    1    2    0    0 -0.35679635055E-02 -0.22766677096E-01 -0.47963136059E-02  0.23538406356E-01  0.00000000000E+00 0.  1.
     999901    1    3    3    0    0 -0.56687014684E-02 -0.98320764775E-01 -0.37815185875E-01  0.88630079276E+00  0.88000000000E+00 0. -1.
        -11    1    3    3    0    0  0.22435070843E-01  0.89332399791E-01  0.24943757752E-01  0.95425689559E-01  0.51100000000E-03 0.  1.
         11    1    3    3    0    0 -0.13198405869E-01  0.31755042081E-01  0.17667741729E-01  0.38665111326E-01  0.51100000000E-03 0. -1.
</event>
<event>
 8    1  0.1170483E+005  0.1043930E+01  0.7957747E-01            NaN
         13   -1    0    0    0    0  0.00000000000E+00  0.00000000000E+00  0.74505805969E-08  0.10566000000E+00  0.10566000000E+00 0. -1.
     999900   -1    0    0    0    0 -0.00000000000E+00 -0.00000000000E+00 -0.74505805969E-08  0.93827000000E+00  0.93827000000E+00 0. -1.
     999902    2    1    2    0    0  0.23091624334E-01  0.39200935652E-02  0.94468002665E-03  0.10204889533E+01  0.10202196926E+01 0.  0.
     999903    2    3    3    0    0  0.33108343644E-01 -0.56218792528E-01 -0.11191579514E+00  0.13118894371E+00  0.20704557412E-01 0.  0.
         14    1    1    2    0    0 -0.23091624334E-01 -0.39200935652E-02 -0.94468002665E-03  0.23441046655E-01  0.00000000000E+00 0.  1.
     999901    1    3    3    0    0 -0.10016719310E-01  0.60138886093E-01  0.11286047516E+00  0.88930000964E+00  0.88000000000E+00 0.  1.
        -11    1    4    4    0    0  0.27546383977E-01 -0.47579010384E-01 -0.10576697458E+00  0.11920352148E+00  0.51100000000E-03 0.  1.
         11    1    4    4    0    0  0.55619596663E-02 -0.86397821438E-02 -0.61488205572E-02  0.11985422231E-01  0.51100000000E-03 0. -1.
</event>
<event>
 8    1  0.1170483E+005  0.1043930E+01  0.7957747E-01            NaN
         13   -1    0    0    0    0  0.00000000000E+00  0.00000000000E+00  0.74505805969E-08  0.10566000000E+00  0.10566000000E+00 0.  1.
     999900   -1    0    0    0    0 -0.00000000000E+00 -0.00000000000E+00 -0.74505805969E-08  0.93827000000E+00  0.93827000000E+00 0. -1.
     999902    2    1    2    0    0 -0.65589408301E-02  0.18876391535E-01  0.13240330190E-01  0.10199582624E+01  0.10196765236E+01 0.  0.
     999903    2    3    3    0    0 -0.61465709958E-01  0.24318809477E-02  0.11525208207E+00  0.13221304398E+00  0.20329757289E-01 0.  0.
         14    1    1    2    0    0  0.65589408301E-02 -0.18876391535E-01 -0.13240330190E-01  0.23971737645E-01  0.00000000000E+00 0. -1.
     999901    1    3    3    0    0  0.54906769128E-01  0.16444510587E-01 -0.10201175188E+00  0.88774521837E+00  0.88000000000E+00 0. -1.
        -11    1    4    4    0    0 -0.46324530100E-01 -0.13456624495E-02  0.66771215115E-01  0.81279943315E-01  0.51100000000E-03 0. -1.
         11    1    4    4    0    0 -0.15141179858E-01  0.37775433972E-02  0.48480866956E-01  0.50933100665E-01  0.51100000000E-03 0.  1.
</event>
<event>
 8    1  0.1170483E+005  0.1043930E+01  0.7957747E-01            NaN
         13   -1    0    0    0    0  0.00000000000E+00  0.00000000000E+00  0.74505805969E-08  0.10566000000E+00  0.10566000000E+00 0.  1.
     999900   -1    0    0    0    0 -0.00000000000E+00 -0.00000000000E+00 -0.74505805969E-08  0.93827000000E+00  0.93827000000E+00 0.  1.
     999902    2    1    2    0    0 -0.17234272350E-01  0.70856353098E-02 -0.13632609674E-01  0.10208415956E+01  0.10205804666E+01 0.  0.
     999903    2    3    3    0    0  0.39129137190E-01 -0.88370118396E-01  0.82617373745E-01  0.12867978620E+00  0.19811353529E-01 0.  0.
         14    1    1    2    0    0  0.17234272350E-01 -0.70856353098E-02  0.13632609674E-01  0.23088404399E-01  0.00000000000E+00 0.  1.
     999901    1    3    3    0    0 -0.56363409540E-01  0.95455753706E-01 -0.96249983419E-01  0.89216180940E+00  0.88000000000E+00 0.  1.
        -11    1    4    4    0    0  0.37578754932E-01 -0.71268850068E-01  0.74271880916E-01  0.10958095285E+00  0.51100000000E-03 0.  1.
         11    1    4    4    0    0  0.15503822587E-02 -0.17101268328E-01  0.83454928289E-02  0.19098833345E-01  0.51100000000E-03 0. -1.
</event>
<event>
 8    1  0.1170483E+005  0.1043930E+01  0.7957747E-01            NaN
         13   -1    0    0    0    0  0.00000000000E+00  0.00000000000E+00  0.74505805969E-08  0.10566000000E+00  0.10566000000E+00 0. -1.
     999900   -1    0    0    0    0 -0.00000000000E+00 -0.00000000000E+00 -0.74505805969E-08  0.93827000000E+00  0.93827000000E+00 0. -1.
     999902    2    1    2    0    0 -0.54232796684E-03 -0.34076865671E-02 -0.24327549074E-01  0.10193589583E+01  0.10190627801E+01 0.  0.
     999903    2    3    3    0    0 -0.97612079379E-01  0.18183629607E-01 -0.84280979940E-01  0.13173114469E+00  0.19774945680E-01 0.  0.
         14    1    1    2    0    0  0.54232796684E-03  0.34076865671E-02  0.24327549074E-01  0.24571041722E-01  0.00000000000E+00 0. -1.
     999901    1    3    3    0    0  0.97069751412E-01 -0.21591316174E-01  0.59953430865E-01  0.88762781358E+00  0.88000000000E+00 0.  1.
        -11    1    4    4    0    0 -0.43649554603E-01  0.18132508461E-01 -0.40161588222E-01  0.62026492482E-01  0.51100000000E-03 0.  1.
         11    1    4    4    0    0 -0.53962524776E-01  0.51121146249E-04 -0.44119391718E-01  0.69704652213E-01  0.51100000000E-03 0. -1.
</event>
<event>
 8    1  0.1170483E+005  0.1043930E+01  0.7957747E-01            NaN
         13   -1    0    0    0    0  0.00000000000E+00  0.00000000000E+00  0.74505805969E-08  0.10566000000E+00  0.10566000000E+00 0. -1.
     999900   -1    0    0    0    0 -0.00000000000E+00 -0.00000000000E+00 -0.74505805969E-08  0.93827000000E+00  0.93827000000E+00 0. -1.
     999902    2    1    2    0    0  0.16216290585E-01 -0.21049026085E-02  0.16886023744E-01  0.10204239052E+01  0.10201531306E+01 0.  0.
     999903    2    3    3    0    0 -0.71691598832E-01 -0.90858240134E-01  0.57409799333E-01  0.13067836385E+00  0.19648017107E-01 0.  0.
         14    1    1    2    0    0 -0.16216290585E-01  0.21049026085E-02 -0.16886023744E-01  0.23506094810E-01  0.00000000000E+00 0.  1.
     999901    1    3    3    0    0  0.87907889417E-01  0.88753337525E-01 -0.40523775588E-01  0.88974554134E+00  0.88000000000E+00 0. -1.
        -11    1    4    4    0    0 -0.48142811504E-01 -0.62262527136E-01  0.28577341104E-01  0.83733375248E-01  0.51100000000E-03 0.  1.
         11    1    4    4    0    0 -0.23548787327E-01 -0.28595712998E-01  0.28832458229E-01  0.46944988603E-01  0.51100000000E-03 0. -1.
</event>
<event>
 8    1  0.1170483E+005  0.1043930E+01  0.7957747E-01            NaN
         13   -1    0    0    0    0  0.00000000000E+00  0.00000000000E+00  0.74505805969E-08  0.10566000000E+00  0.10566000000E+00 0.  1.
     999900   -1    0    0    0    0 -0.00000000000E+00 -0.00000000000E+00 -0.74505805969E-08  0.93827000000E+00  0.93827000000E+00 0.  1.
     999902    2    1    2    0    0 -0.22651499550E-01  0.76762073657E-02 -0.23858093646E-03  0.10200119835E+01  0.10197315210E+01 0.  0.
     999903    2    3    3    0    0  0.66380121977E-01  0.76657391591E-01  0.77902670419E-01  0.12939922336E+00  0.19815566289E-01 0.  0.
         14    1    1    2    0    0  0.22651499550E-01 -0.76762073657E-02  0.23858093646E-03  0.23918016478E-01  0.00000000000E+00 0. -1.
     999901    1    3    3    0    0 -0.89031621526E-01 -0.68981184225E-01 -0.78141251356E-01  0.89061276017E+00  0.88000000000E+00 0.  1.
        -11    1    4    4    0    0  0.33486578898E-01  0.52255870324E-01  0.42101637797E-01  0.74998906497E-01  0.51100000000E-03 0. -1.
         11    1    4    4    0    0  0.32893543079E-01  0.24401521266E-01  0.35801032622E-01  0.54400316858E-01  0.51100000000E-03 0.  1.
</event>
<event>
 8    1  0.1170483E+005  0.1043930E+01  0.7957747E-01            NaN
         13   -1    0    0    0    0  0.00000000000E+00  0.00000000000E+00  0.74505805969E-08  0.10566000000E+00  0.10566000000E+00 0. -1.
     999900   -1    0    0    0    0 -0.00000000000E+00 -0.00000000000E+00 -0.74505805969E-08  0.93827000000E+00  0.93827000000E+00 0.  1.
     999902    2    1    2    0    0  0.52366166307E-02  0.50425908643E-04  0.22454459448E-01  0.10208729524E+01  0.10206125403E+01 0.  0.
     999903    2    3    3    0    0  0.73205062140E-01 -0.96304995956E-01 -0.42700859773E-01  0.13062057661E+00  0.24591426161E-01 0.  0.
         14    1    1    2    0    0 -0.52366166307E-02 -0.50425908643E-04 -0.22454459448E-01  0.23057047634E-01  0.00000000000E+00 0.  1.
     999901    1    3    3    0    0 -0.67968445509E-01  0.96355421865E-01  0.65155319221E-01  0.89025237575E+00  0.88000000000E+00 0. -1.
        -11    1    4    4    0    0  0.45550692980E-01 -0.77783172615E-01 -0.30272595402E-01  0.95088268080E-01  0.51100000000E-03 0. -1.
         11    1    4    4    0    0  0.27654369160E-01 -0.18521823341E-01 -0.12428264371E-01  0.35532308535E-01  0.51100000000E-03 0.  1.
</event>
<event>
 8    1  0.1170483E+005  0.1043930E+01  0.7957747E-01            NaN
         13   -1    0    0    0    0  0.00000000000E+00  0.00000000000E+00  0.74505805969E-08  0.10566000000E+00  0.10566000000E+00 0.  1.
     999900   -1    0    0    0    0 -0.00000000000E+00 -0.00000000000E+00 -0.74505805969E-08  0.93827000000E+00  0.93827000000E+00 0.  1.
     999902    2    1    2    0    0 -0.43577459455E-02 -0.11225651234E-01 -0.27275217184E-01  0.10141148584E+01  0.10136764787E+01 0.  0.
     999903    2    3    3    0    0  0.98931175357E-01  0.56565063686E-01  0.41458676886E-01  0.12283009444E+00  0.19530138869E-01 0.  0.
         14    1    1    2    0    0  0.43577459455E-02  0.11225651234E-01  0.27275217184E-01  0.29815141586E-01  0.00000000000E+00 0.  1.
     999901    1    3    3    0    0 -0.10328892130E+00 -0.67790714920E-01 -0.68733894070E-01  0.89128476397E+00  0.88000000000E+00 0. -1.
        -11    1    4    4    0    0  0.51851600210E-01  0.32404967257E-01  0.32199830461E-01  0.69106877733E-01  0.51100000000E-03 0.  1.
         11    1    4    4    0    0  0.47079575147E-01  0.24160096429E-01  0.92588464249E-02  0.53723216709E-01  0.51100000000E-03 0. -1.
</event>
<event>
 8    1  0.1170483E+005  0.1043930E+01  0.7957747E-01            NaN
         13   -1    0    0    0    0  0.00000000000E+00  0.00000000000E+00  0.74505805969E-08  0.10566000000E+00  0.10566000000E+00 0.  1.
     999900   -1    0    0    0    0 -0.00000000000E+00 -0.00000000000E+00 -0.74505805969E-08  0.93827000000E+00  0.93827000000E+00 0.  1.
     999902    2    1    2    0    0  0.44925694682E-02  0.16759537059E-01 -0.16318226387E-01  0.10201108947E+01  0.10198327744E+01 0.  0.
     999903    2    3    3    0    0 -0.93634996908E-01 -0.81203596224E-01  0.26279024598E-01  0.12823628441E+00  0.19809614323E-01 0.  0.
         14    1    1    2    0    0 -0.44925694682E-02 -0.16759537059E-01  0.16318226387E-01  0.23819105258E-01  0.00000000000E+00 0.  1.
     999901    1    3    3    0    0  0.98127566376E-01  0.97963133283E-01 -0.42597250985E-01  0.89187461033E+00  0.88000000000E+00 0.  1.
        -11    1    4    4    0    0 -0.30504235608E-01 -0.18439848324E-01  0.14307382141E-01  0.38412220724E-01  0.51100000000E-03 0. -1.
         11    1    4    4    0    0 -0.63130761300E-01 -0.62763747900E-01  0.11971642457E-01  0.89824063685E-01  0.51100000000E-03 0.  1.
</event>
<event>
 8    1  0.1170483E+005  0.1043930E+01  0.7957747E-01            NaN
         13   -1    0    0    0    0  0.00000000000E+00  0.00000000000E+00  0.74505805969E-08  0.10566000000E+00  0.10566000000E+00 0. -1.
     999900   -1    0    0    0    0 -0.00000000000E+00 -0.00000000000E+00 -0.74505805969E-08  0.93827000000E+00  0.93827000000E+00 0.  1.
     999902    2    1    2    0    0 -0.73908561360E-02 -0.31123686202E-02 -0.20103058428E-01  0.10222864201E+01  0.10220572783E+01 0.  0.
     999903    2    3    3    0    0  0.72989501068E-01 -0.10837539211E+00 -0.17533808576E-02  0.13218641639E+00  0.19936936884E-01 0.  0.
         14    1    1    2    0    0  0.73908561360E-02  0.31123686202E-02  0.20103058428E-01  0.21643579903E-01  0.00000000000E+00 0. -1.
     999901    1    3    3    0    0 -0.80380357204E-01  0.10526302349E+00 -0.18349677571E-01  0.89010000371E+00  0.88000000000E+00 0.  1.
        -11    1    4    4    0    0  0.33982642773E-01 -0.35809118827E-01 -0.57426284480E-02  0.49702634774E-01  0.51100000000E-03 0. -1.
         11    1    4    4    0    0  0.39006858294E-01 -0.72566273280E-01  0.39892475903E-02  0.82483781613E-01  0.51100000000E-03 0.  1.
</event>
<event>
 8    1  0.1170483E+005  0.1043930E+01  0.7957747E-01            NaN
         13   -1    0    0    0    0  0.00000000000E+00  0.00000000000E+00  0.74505805969E-08  0.10566000000E+00  0.10566000000E+00 0. -1.
     999900   -1    0    0    0    0 -0.00000000000E+00 -0.00000000000E+00 -0.74505805969E-08  0.93827000000E+00  0.93827000000E+00 0.  1.
     999902    2    1    2    0    0 -0.11465850942E-01 -0.16105726321E-01  0.15088039494E-01  0.10190601569E+01  0.10187566414E+01 0.  0.
     999903    2    3    3    0    0  0.60318177217E-02 -0.85366473587E-01 -0.94869947041E-01  0.12934448420E+00  0.20146242892E-01 0.  0.
         14    1    1    2    0    0  0.11465850942E-01  0.16105726321E-01 -0.15088039494E-01  0.24869843062E-01  0.00000000000E+00 0.  1.
     999901    1    3    3    0    0 -0.17497668663E-01  0.69260747267E-01  0.10995798653E+00  0.88971567274E+00  0.88000000000E+00 0. -1.
        -11    1    4    4    0    0  0.11580900979E-02 -0.60919651140E-01 -0.53729245102E-01  0.81238155862E-01  0.51100000000E-03 0. -1.
         11    1    4    4    0    0  0.48737276237E-02 -0.24446822447E-01 -0.41140701939E-01  0.48106328334E-01  0.51100000000E-03 0.  1.
</event>
<event>
 8    1  0.1170483E+005  0.1043930E+01  0.7957747E-01            NaN
         13   -1    0    0    0    0  0.00000000000E+00  0.00000000000E+00  0.74505805969E-08  0.10566000000E+00  0.10566000000E+00 0. -1.
     999900   -1    0    0    0    0 -0.00000000000E+00 -0.00000000000E+00 -0.74505805969E-08  0.93827000000E+00  0.93827000000E+00 0.  1.
     999902    2    1    2    0    0 -0.56415239833E-02 -0.12195093091E-01  0.18414972001E-01  0.10211339854E+01  0.10208795021E+01 0.  0.
     999903    2    3    3    0    0 -0.66658328332E-01  0.10591670224E+00 -0.29620868730E-01  0.12985350843E+00  0.17968228592E-01 0.  0.
         14    1    1    2    0    0  0.56415239833E-02  0.12195093091E-01 -0.18414972001E-01  0.22796014612E-01  0.00000000000E+00 0.  1.
     999901    1    3    3    0    0  0.61016804348E-01 -0.11811179533E+00  0.48035840731E-01  0.89128047696E+00  0.88000000000E+00 0. -1.
        -11    1    4    4    0    0 -0.48768499927E-01  0.90401015647E-01 -0.25088183050E-01  0.10573735511E+00  0.51100000000E-03 0. -1.
         11    1    4    4    0    0 -0.17889828405E-01  0.15515686592E-01 -0.45326856796E-02  0.24116153326E-01  0.51100000000E-03 0.  1.
</event>
<event>
 8    1  0.1170483E+005  0.1043930E+01  0.7957747E-01            NaN
         13   -1    0    0    0    0  0.00000000000E+00  0.00000000000E+00  0.74505805969E-08  0.10566000000E+00  0.10566000000E+00 0. -1.
     999900   -1    0    0    0    0 -0.00000000000E+00 -0.00000000000E+00 -0.74505805969E-08  0.93827000000E+00  0.93827000000E+00 0.  1.
     999902    2    1    2    0    0  0.12014282472E-02  0.21799209098E-01  0.96112096790E-02  0.10200757698E+01  0.10197968189E+01 0.  0.
     999903    2    3    3    0    0 -0.33126268905E-01 -0.11930666182E+00  0.24729746048E-01  0.12804559781E+00  0.21276407887E-01 0.  0.
         14    1    1    2    0    0 -0.12014282472E-02 -0.21799209098E-01 -0.96112096790E-02  0.23854230204E-01  0.00000000000E+00 0.  1.
     999901    1    3    3    0    0  0.34327697152E-01  0.14110587091E+00 -0.15118536369E-01  0.89203017199E+00  0.88000000000E+00 0.  1.
        -11    1    4    4    0    0 -0.91780000055E-02 -0.95286325030E-02  0.16961155320E-02  0.13347975516E-01  0.51100000000E-03 0.  1.
         11    1    4    4    0    0 -0.23948268899E-01 -0.10977802931E+00  0.23033630516E-01  0.11469762229E+00  0.51100000000E-03 0. -1.
</event>
<event>
 8    1  0.1170483E+005  0.1043930E+01  0.7957747E-01            NaN
         13   -1    0    0    0    0  0.00000000000E+00  0.00000000000E+00  0.74505805969E-08  0.10566000000E+00  0.10566000000E+00 0.  1.
     999900   -1    0    0    0    0 -0.00000000000E+00 -0.00000000000E+00 -0.74505805969E-08  0.93827000000E+00  0.93827000000E+00 0.  1.
     999902    2    1    2    0    0  0.17839134193E-03 -0.22511789208E-01  0.60560054168E-02  0.10206171778E+01  0.10203508886E+01 0.  0.
     999903    2    3    3    0    0 -0.81460482747E-01  0.80241852705E-01  0.57303188109E-01  0.12941041705E+00  0.19718912222E-01 0.  0.
         14    1    1    2    0    0 -0.17839134193E-03  0.22511789208E-01 -0.60560054168E-02  0.23312822189E-01  0.00000000000E+00 0.  1.
     999901    1    3    3    0    0  0.81638874089E-01 -0.10275364191E+00 -0.51247182692E-01  0.89120676076E+00  0.88000000000E+00 0.  1.
        -11    1    4    4    0    0 -0.37979747086E-01  0.46513212613E-01  0.21630943586E-01  0.63828668933E-01  0.51100000000E-03 0.  1.
         11    1    4    4    0    0 -0.43480735661E-01  0.33728640092E-01  0.35672244523E-01  0.65581748120E-01  0.51100000000E-03 0. -1.
</event>
<event>
 8    1  0.1170483E+005  0.1043930E+01  0.7957747E-01            NaN
         13   -1    0    0    0    0  0.00000000000E+00  0.00000000000E+00  0.74505805969E-08  0.10566000000E+00  0.10566000000E+00 0. -1.
     999900   -1    0    0    0    0 -0.00000000000E+00 -0.00000000000E+00 -0.74505805969E-08  0.93827000000E+00  0.93827000000E+00 0.  1.
     999902    2    1    2    0    0 -0.66603828713E-02  0.20910691994E-01 -0.23006730761E-02  0.10218639438E+01  0.10216256696E+01 0.  0.
     999903    2    3    3    0    0 -0.84663629848E-01  0.35221801240E-01 -0.95012768907E-01  0.13344689809E+00  0.19291004482E-01 0.  0.
         14    1    1    2    0    0  0.66603828713E-02 -0.20910691994E-01  0.23006730761E-02  0.22066056201E-01  0.00000000000E+00 0. -1.
     999901    1    3    3    0    0  0.78003246977E-01 -0.14311109247E-01  0.92712095831E-01  0.88841704571E+00  0.88000000000E+00 0. -1.
        -11    1    4    4    0    0 -0.30231953979E-01  0.17406587001E-01 -0.48046302989E-01  0.59377341338E-01  0.51100000000E-03 0.  1.
         11    1    4    4    0    0 -0.54431675869E-01  0.17815214239E-01 -0.46966465918E-01  0.74069556756E-01  0.51100000000E-03 0. -1.
</event>
<event>
 8    1  0.1170483E+005  0.1043930E+01  0.7957747E-01            NaN
         13   -1    0    0    0    0  0.00000000000E+00  0.00000000000E+00  0.74505805969E-08  0.10566000000E+00  0.10566000000E+00 0.  1.
     999900   -1    0    0    0    0 -0.00000000000E+00 -0.00000000000E+00 -0.74505805969E-08  0.93827000000E+00  0.93827000000E+00 0.  1.
     999902    2    1    2    0    0  0.98421452144E-02 -0.65705669355E-02  0.23021579501E-01  0.10180449986E+01  0.10177158670E+01 0.  0.
     999903    2    3    3    0    0 -0.32057644464E-01  0.10718531972E+00  0.60825539412E-01  0.12893019531E+00  0.20170862326E-01 0.  0.
         14    1    1    2    0    0 -0.98421452144E-02  0.65705669355E-02 -0.23021579501E-01  0.25885001352E-01  0.00000000000E+00 0. -1.
     999901    1    3    3    0    0  0.41899789678E-01 -0.11375588665E+00 -0.37803959910E-01  0.88911480333E+00  0.88000000000E+00 0.  1.
        -11    1    4    4    0    0 -0.23606050184E-01  0.97525963696E-01  0.49895081296E-01  0.11206399716E+00  0.51100000000E-03 0.  1.
         11    1    4    4    0    0 -0.84515942800E-02  0.96593560226E-02  0.10930458115E-01  0.16866198157E-01  0.51100000000E-03 0. -1.
</event>
<event>
 8    1  0.1170483E+005  0.1043930E+01  0.7957747E-01            NaN
         13   -1    0    0    0    0  0.00000000000E+00  0.00000000000E+00  0.74505805969E-08  0.10566000000E+00  0.10566000000E+00 0. -1.
     999900   -1    0    0    0    0 -0.00000000000E+00 -0.00000000000E+00 -0.74505805969E-08  0.93827000000E+00  0.93827000000E+00 0. -1.
     999902    2    1    2    0    0  0.45924736574E-02 -0.19238793746E-01 -0.10723175188E-01  0.10214309226E+01  0.10211830987E+01 0.  0.
     999903    2    3    3    0    0  0.55741826616E-01 -0.10954424960E+00 -0.51253240248E-01  0.13440554647E+00  0.18189624319E-01 0.  0.
         14    1    1    2    0    0 -0.45924736574E-02  0.19238793746E-01  0.10723175188E-01  0.22499077430E-01  0.00000000000E+00 0. -1.
     999901    1    3    3    0    0 -0.51149352959E-01  0.90305455851E-01  0.40530065059E-01  0.88702537610E+00  0.88000000000E+00 0. -1.
        -11    1    4    4    0    0  0.20768511753E-01 -0.46268246255E-01 -0.30514760250E-01  0.59190315137E-01  0.51100000000E-03 0.  1.
         11    1    4    4    0    0  0.34973314863E-01 -0.63276003342E-01 -0.20738479998E-01  0.75215231337E-01  0.51100000000E-03 0. -1.
</event>
<event>
 8    1  0.1170483E+005  0.1043930E+01  0.7957747E-01            NaN
         13   -1    0    0    0    0  0.00000000000E+00  0.00000000000E+00  0.74505805969E-08  0.10566000000E+00  0.10566000000E+00 0. -1.
     999900   -1    0    0    0    0 -0.00000000000E+00 -0.00000000000E+00 -0.74505805969E-08  0.93827000000E+00  0.93827000000E+00 0.  1.
     999902    2    1    2    0    0  0.16290415690E-01 -0.14140556903E-01 -0.91460715541E-02  0.10204996006E+01  0.10202305872E+01 0.  0.
     999903    2    3    3    0    0 -0.73791900494E-01  0.10134019459E+00 -0.17718135254E-01  0.12835381207E+00  0.21111350890E-01 0.  0.
         14    1    1    2    0    0 -0.16290415690E-01  0.14140556903E-01  0.91460715541E-02  0.23430399436E-01  0.00000000000E+00 0. -1.
     999901    1    3    3    0    0  0.90082316184E-01 -0.11548075150E+00  0.85720636998E-02  0.89214578850E+00  0.88000000000E+00 0. -1.
        -11    1    4    4    0    0 -0.40146354748E-01  0.70598852599E-01 -0.15775643857E-01  0.82734876854E-01  0.51100000000E-03 0. -1.
         11    1    4    4    0    0 -0.33645545746E-01  0.30741341996E-01 -0.19424913965E-02  0.45618935214E-01  0.51100000000E-03 0.  1.
</event>
<event>
 8    1  0.1170483E+005  0.1043930E+01  0.7957747E-01            NaN
         13   -1    0    0    0    0  0.00000000000E+00  0.00000000000E+00  0.74505805969E-08  0.10566000000E+00  0.10566000000E+00 0. -1.
     999900   -1    0    0    0    0 -0.00000000000E+00 -0.00000000000E+00 -0.74505805969E-08  0.93827000000E+00  0.93827000000E+00 0. -1.
     999902    2    1    2    0    0  0.20185949809E-02 -0.57650953519E-02  0.23210419029E-01  0.10199292791E+01  0.10196468506E+01 0.  0.
     999903    2    3    3    0    0  0.11689753999E+00  0.26297873544E-01 -0.44535226703E-01  0.12930327543E+00  0.19476591352E-01 0.  0.
         14    1    1    2    0    0 -0.20185949809E-02  0.57650953519E-02 -0.23210419029E-01  0.24000720856E-01  0.00000000000E+00 0.  1.
     999901    1    3    3    0    0 -0.11487894501E+00 -0.32062968896E-01  0.67745645732E-01  0.89062600372E+00  0.88000000000E+00 0. -1.
        -11    1    4    4    0    0  0.13645323096E-01  0.91769071035E-02 -0.31282848501E-02  0.16746872947E-01  0.51100000000E-03 0. -1.
         11    1    4    4    0    0  0.10325221689E+00  0.17120966441E-01 -0.41406941853E-01  0.11255640248E+00  0.51100000000E-03 0.  1.
</event>
<event>
 8    1  0.1170483E+005  0.1043930E+01  0.7957747E-01            NaN
         13   -1    0    0    0    0  0.00000000000E+00  0.00000000000E+00  0.74505805969E-08  0.10566000000E+00  0.10566000000E+00 0. -1.
     999900   -1    0    0    0    0 -0.00000000000E+00 -0.00000000000E+00 -0.74505805969E-08  0.93827000000E+00  0.93827000000E+00 0.  1.
     999902    2    1    2    0    0  0.15176105978E-01  0.16805060019E-01  0.40559203798E-02  0.10209262019E+01  0.10206670050E+01 0.  0.
     999903    2    3    3    0    0 -0.12325462211E+00 -0.21155575240E-01 -0.24081818596E-01  0.12885232122E+00  0.19588937219E-01 0.  0.
         14    1    1    2    0    0 -0.15176105978E-01 -0.16805060019E-01 -0.40559203798E-02  0.23003798056E-01  0.00000000000E+00 0.  1.
     999901    1    3    3    0    0  0.13843072809E+00  0.37960635259E-01  0.28137738976E-01  0.89207388072E+00  0.88000000000E+00 0.  1.
        -11    1    4    4    0    0 -0.94511016290E-01 -0.24492502115E-01 -0.19117853942E-01  0.99488533613E-01  0.51100000000E-03 0.  1.
         11    1    4    4    0    0 -0.28743605824E-01  0.33369268747E-02 -0.49639646546E-02  0.29363787611E-01  0.51100000000E-03 0. -1.
</event>
<event>
 8    1  0.1170483E+005  0.1043930E+01  0.7957747E-01            NaN
         13   -1    0    0    0    0  0.00000000000E+00  0.00000000000E+00  0.74505805969E-08  0.10566000000E+00  0.10566000000E+00 0.  1.
     999900   -1    0    0    0    0 -0.00000000000E+00 -0.00000000000E+00 -0.74505805969E-08  0.93827000000E+00  0.93827000000E+00 0. -1.
     999902    2    1    2    0    0  0.19827730196E-02  0.17594192535E-01 -0.17250161983E-01  0.10192104715E+01  0.10189106586E+01 0.  0.
     999903    2    3    3    0    0 -0.12366002737E+00 -0.30323186195E-01 -0.30772078698E-02  0.12888296936E+00  0.19749749149E-01 0.  0.
         14    1    1    2    0    0 -0.19827730196E-02 -0.17594192535E-01  0.17250161983E-01  0.24719528480E-01  0.00000000000E+00 0.  1.
     999901    1    3    3    0    0  0.12564280039E+00  0.47917378731E-01 -0.14172954114E-01  0.89032750216E+00  0.88000000000E+00 0. -1.
        -11    1    4    4    0    0 -0.33949065571E-01 -0.15041769798E-01 -0.70185193722E-02  0.37793049982E-01  0.51100000000E-03 0. -1.
         11    1    4    4    0    0 -0.89710961804E-01 -0.15281416397E-01  0.39413115024E-02  0.91089919377E-01  0.51100000000E-03 0.  1.
</event>
<event>
 8    1  0.1170483E+005  0.1043930E+01  0.7957747E-01            NaN
         13   -1    0    0    0    0  0.00000000000E+00  0.00000000000E+00  0.74505805969E-08  0.10566000000E+00  0.10566000000E+00 0. -1.
     999900   -1    0    0    0    0 -0.00000000000E+00 -0.00000000000E+00 -0.74505805969E-08  0.93827000000E+00  0.93827000000E+00 0. -1.
     999902    2    1    2    0    0 -0.22638989131E-01 -0.64006847319E-02 -0.42802144614E-02  0.10200173918E+01  0.10197370577E+01 0.  0.
     999903    2    3    3    0    0  0.70265431797E-01  0.10338661709E+00 -0.20330379032E-01  0.12819785243E+00  0.19883197863E-01 0.  0.
         14    1    1    2    0    0  0.22638989131E-01  0.64006847319E-02  0.42802144614E-02  0.23912608175E-01  0.00000000000E+00 0. -1.
     999901    1    3    3    0    0 -0.92904420928E-01 -0.10978730182E+00  0.16050164570E-01  0.89181953940E+00  0.88000000000E+00 0.  1.
        -11    1    4    4    0    0  0.34501184050E-01  0.33633561751E-01 -0.74467512332E-02  0.48757188207E-01  0.51100000000E-03 0. -1.
         11    1    4    4    0    0  0.35764247747E-01  0.69753055335E-01 -0.12883627799E-01  0.79440664220E-01  0.51100000000E-03 0.  1.
</event>
<event>
 8    1  0.1170483E+005  0.1043930E+01  0.7957747E-01            NaN
         13   -1    0    0    0    0  0.00000000000E+00  0.00000000000E+00  0.74505805969E-08  0.10566000000E+00  0.10566000000E+00 0. -1.
     999900   -1    0    0    0    0 -0.00000000000E+00 -0.00000000000E+00 -0.74505805969E-08  0.93827000000E+00  0.93827000000E+00 0.  1.
     999902    2    1    2    0    0 -0.43280336257E-02  0.23941196818E-01 -0.60126019983E-02  0.10188687917E+01  0.10185605286E+01 0.  0.
     999903    2    3    3    0    0 -0.61269521697E-01 -0.88660402885E-01  0.64613885787E-01  0.12706749424E+00  0.18883128120E-01 0.  0.
         14    1    1    2    0    0  0.43280336257E-02 -0.23941196818E-01  0.60126019983E-02  0.25061208329E-01  0.00000000000E+00 0.  1.
     999901    1    3    3    0    0  0.56941488071E-01  0.11260159970E+00 -0.70626487786E-01  0.89180129743E+00  0.88000000000E+00 0. -1.
        -11    1    4    4    0    0 -0.39525685106E-01 -0.49796167222E-01  0.28253205804E-01  0.69573290941E-01  0.51100000000E-03 0. -1.
         11    1    4    4    0    0 -0.21743836591E-01 -0.38864235663E-01  0.36360679983E-01  0.57494203301E-01  0.51100000000E-03 0.  1.
</event>
<event>
 8    1  0.1170483E+005  0.1043930E+01  0.7957747E-01            NaN
         13   -1    0    0    0    0  0.00000000000E+00  0.00000000000E+00  0.74505805969E-08  0.10566000000E+00  0.10566000000E+00 0.  1.
     999900   -1    0    0    0    0 -0.00000000000E+00 -0.00000000000E+00 -0.74505805969E-08  0.93827000000E+00  0.93827000000E+00 0. -1.
     999902    2    1    2    0    0  0.75688689345E-03 -0.20627029255E-01 -0.12491985856E-01  0.10198033151E+01  0.10195178785E+01 0.  0.
     999903    2    3    3    0    0  0.29907998875E-02 -0.36966086957E-01 -0.12565913446E+00  0.13240331583E+00  0.19104541389E-01 0.  0.
         14    1    1    2    0    0 -0.75688689345E-03  0.20627029255E-01  0.12491985856E-01  0.24126684901E-01  0.00000000000E+00 0.  1.
     999901    1    3    3    0    0 -0.22339129940E-02  0.16339057701E-01  0.11316714860E+00  0.88739999927E+00  0.88000000000E+00 0.  1.
        -11    1    4    4    0    0  0.10916115555E-01 -0.18927388292E-01 -0.60389832936E-01  0.64223053878E-01  0.51100000000E-03 0. -1.
         11    1    4    4    0    0 -0.79253156676E-02 -0.18038698664E-01 -0.65269301524E-01  0.68180261956E-01  0.51100000000E-03 0.  1.
</event>
<event>
 8    1  0.1170483E+005  0.1043930E+01  0.7957747E-01            NaN
         13   -1    0    0    0    0  0.00000000000E+00  0.00000000000E+00  0.74505805969E-08  0.10566000000E+00  0.10566000000E+00 0.  1.
     999900   -1    0    0    0    0 -0.00000000000E+00 -0.00000000000E+00 -0.74505805969E-08  0.93827000000E+00  0.93827000000E+00 0.  1.
     999902    2    1    2    0    0 -0.14064659116E-01  0.16609970265E-01  0.86844140793E-02  0.10204965880E+01  0.10202275047E+01 0.  0.
     999903    2    3    3    0    0 -0.12875950102E+00 -0.14324964556E-01 -0.16482710793E-01  0.13215810462E+00  0.20245274747E-01 0.  0.
         14    1    1    2    0    0  0.14064659116E-01 -0.16609970265E-01 -0.86844140793E-02  0.23433411962E-01  0.00000000000E+00 0. -1.
     999901    1    3    3    0    0  0.11469484190E+00  0.30934934822E-01  0.25167124873E-01  0.88833848342E+00  0.88000000000E+00 0. -1.
        -11    1    4    4    0    0 -0.62729213154E-01  0.31532842470E-02 -0.71041616648E-02  0.63210977040E-01  0.51100000000E-03 0.  1.
         11    1    4    4    0    0 -0.66030287863E-01 -0.17478248803E-01 -0.93785491285E-02  0.68947127578E-01  0.51100000000E-03 0. -1.
</event>
<event>
 7    1  0.1170483E+005  0.1043930E+01  0.7957747E-01            NaN
         13   -1    0    0    0    0  0.00000000000E+00  0.00000000000E+00  0.74505805969E-08  0.10566000000E+00  0.10566000000E+00 0. -1.
     999900   -1    0    0    0    0 -0.00000000000E+00 -0.00000000000E+00 -0.74505805969E-08  0.93827000000E+00  0.93827000000E+00 0.  1.
     999903    2    1    2    0    0  0.92492932792E-01  0.34561012177E-02 -0.81695851246E-02  0.95562248824E-01  0.22327427686E-01 0.  0.
         14    1    1    2    0    0  0.42170203659E-01 -0.36047982683E-01 -0.14128121988E-01  0.57248466906E-01  0.00000000000E+00 0.  1.
     999901    1    1    2    0    0 -0.13466313645E+00  0.32591881466E-01  0.22297707113E-01  0.89111928427E+00  0.88000000000E+00 0. -1.
        -11    1    3    3    0    0  0.47148033451E-01 -0.91711678220E-02 -0.63685229016E-02  0.48454789056E-01  0.51100000000E-03 0.  1.
         11    1    3    3    0    0  0.45344899341E-01  0.12627269040E-01 -0.18010622230E-02  0.47107459768E-01  0.51100000000E-03 0. -1.
</event>
<event>
 7    1  0.1170483E+005  0.1043930E+01  0.7957747E-01            NaN
         13   -1    0    0    0    0  0.00000000000E+00  0.00000000000E+00  0.74505805969E-08  0.10566000000E+00  0.10566000000E+00 0.  1.
     999900   -1    0    0    0    0 -0.00000000000E+00 -0.00000000000E+00 -0.74505805969E-08  0.93827000000E+00  0.93827000000E+00 0. -1.
     999903    2    1    2    0    0  0.33786249880E-01  0.67223035949E-01  0.79404560694E-01  0.11121823169E+00  0.20098844678E-01 0.  0.
         14    1    1    2    0    0  0.14330321072E-01 -0.40092012677E-01  0.16749726795E-01  0.45752387154E-01  0.00000000000E+00 0. -1.
     999901    1    1    2    0    0 -0.48116570952E-01 -0.27131023272E-01 -0.96154287490E-01  0.88695938116E+00  0.88000000000E+00 0. -1.
        -11    1    3    3    0    0  0.23536922444E-01  0.41407425220E-01  0.62916336741E-01  0.78913168302E-01  0.51100000000E-03 0. -1.
         11    1    3    3    0    0  0.10249327436E-01  0.25815610729E-01  0.16488223953E-01  0.32305063385E-01  0.51100000000E-03 0.  1.
</event>
<event>
 8    1  0.1170483E+005  0.1043930E+01  0.7957747E-01            NaN
         13   -1    0    0    0    0  0.00000000000E+00  0.00000000000E+00  0.74505805969E-08  0.10566000000E+00  0.10566000000E+00 0. -1.
     999900   -1    0    0    0    0 -0.00000000000E+00 -0.00000000000E+00 -0.74505805969E-08  0.93827000000E+00  0.93827000000E+00 0. -1.
     999902    2    1    2    0    0  0.20681126863E-01 -0.55115492598E-02  0.10285990239E-01  0.10201836786E+01  0.10199072754E+01 0.  0.
     999903    2    3    3    0    0  0.72565738064E-01  0.31043273676E-01  0.10313924947E+00  0.13302529609E+00  0.28784604141E-01 0.  0.
         14    1    1    2    0    0 -0.20681126863E-01  0.55115492598E-02 -0.10285990239E-01  0.23746321373E-01  0.00000000000E+00 0.  1.
     999901    1    3    3    0    0 -0.51884611201E-01 -0.36554822936E-01 -0.92853259235E-01  0.88715838254E+00  0.88000000000E+00 0. -1.
        -11    1    4    4    0    0  0.16821170895E-01  0.39171040930E-03  0.39981830086E-01  0.43381022179E-01  0.51100000000E-03 0. -1.
         11    1    4    4    0    0  0.55744567169E-01  0.30651563267E-01  0.63157419389E-01  0.89644273908E-01  0.51100000000E-03 0.  1.
</event>
<event>
 8    1  0.1170483E+005  0.1043930E+01  0.7957747E-01            NaN
         13   -1    0    0    0    0  0.00000000000E+00  0.00000000000E+00  0.74505805969E-08  0.10566000000E+00  0.10566000000E+00 0.  1.
     999900   -1    0    0    0    0 -0.00000000000E+00 -0.00000000000E+00 -0.74505805969E-08  0.93827000000E+00  0.93827000000E+00 0. -1.
     999902    2    1    2    0    0 -0.20462005091E-01 -0.53947213185E-02 -0.11445280761E-01  0.10198719219E+01  0.10195881256E+01 0.  0.
     999903    2    3    3    0    0 -0.10364112100E+00  0.78862805550E-01 -0.64621506133E-02  0.13192883377E+00  0.20065735167E-01 0.  0.
         14    1    1    2    0    0  0.20462005091E-01  0.53947213185E-02  0.11445280761E-01  0.24058078106E-01  0.00000000000E+00 0.  1.
     999901    1    3    3    0    0  0.83179115912E-01 -0.84257526868E-01 -0.49831301475E-02  0.88794308812E+00  0.88000000000E+00 0.  1.
        -11    1    4    4    0    0 -0.68931280915E-01  0.43605479782E-01  0.26875466527E-02  0.81611539525E-01  0.51100000000E-03 0.  1.
         11    1    4    4    0    0 -0.34709840088E-01  0.35257325768E-01 -0.91496972660E-02  0.50317294247E-01  0.51100000000E-03 0. -1.
</event>
<event>
 8    1  0.1170483E+005  0.1043930E+01  0.7957747E-01            NaN
         13   -1    0    0    0    0  0.00000000000E+00  0.00000000000E+00  0.74505805969E-08  0.10566000000E+00  0.10566000000E+00 0. -1.
     999900   -1    0    0    0    0 -0.00000000000E+00 -0.00000000000E+00 -0.74505805969E-08  0.93827000000E+00  0.93827000000E+00 0.  1.
     999902    2    1    2    0    0 -0.12105163797E-03  0.23949853658E-01 -0.15108250158E-02  0.10199322348E+01  0.10196498766E+01 0.  0.
     999903    2    3    3    0    0 -0.56422790288E-02  0.57105688697E-01 -0.11698611808E+00  0.13175188335E+00  0.19491330055E-01 0.  0.
         14    1    1    2    0    0  0.12105163797E-03 -0.23949853658E-01  0.15108250158E-02  0.23997765229E-01  0.00000000000E+00 0. -1.
     999901    1    3    3    0    0  0.55212273909E-02 -0.33155835039E-01  0.11547529307E+00  0.88818035143E+00  0.88000000000E+00 0. -1.
        -11    1    4    4    0    0 -0.10464181409E-01  0.48668808179E-01 -0.87126071385E-01  0.10034622772E+00  0.51100000000E-03 0. -1.
         11    1    4    4    0    0  0.48219023805E-02  0.84368805177E-02 -0.29860046696E-01  0.31405655623E-01  0.51100000000E-03 0.  1.
</event>
<event>
 8    1  0.1170483E+005  0.1043930E+01  0.7957747E-01            NaN
         13   -1    0    0    0    0  0.00000000000E+00  0.00000000000E+00  0.74505805969E-08  0.10566000000E+00  0.10566000000E+00 0.  1.
     999900   -1    0    0    0    0 -0.00000000000E+00 -0.00000000000E+00 -0.74505805969E-08  0.93827000000E+00  0.93827000000E+00 0. -1.
     999902    2    1    2    0    0 -0.24062691880E-01  0.55322682393E-02 -0.15211922823E-02  0.10191927172E+01  0.10188924682E+01 0.  0.
     999903    2    3    3    0    0  0.21218907648E-01  0.82165704173E-01  0.95935624681E-01  0.12934950749E+00  0.18061174431E-01 0.  0.
         14    1    1    2    0    0  0.24062691880E-01 -0.55322682393E-02  0.15211922823E-02  0.24737282760E-01  0.00000000000E+00 0.  1.
     999901    1    3    3    0    0 -0.45281599528E-01 -0.76633435934E-01 -0.97456816963E-01  0.88984320975E+00  0.88000000000E+00 0.  1.
        -11    1    4    4    0    0  0.19275824131E-02  0.41275462239E-01  0.50451872857E-01  0.65215273922E-01  0.51100000000E-03 0.  1.
         11    1    4    4    0    0  0.19291325235E-01  0.40890241935E-01  0.45483751825E-01  0.64134233572E-01  0.51100000000E-03 0. -1.
</event>
<event>
 8    1  0.1170483E+005  0.1043930E+01  0.7957747E-01            NaN
         13   -1    0    0    0    0  0.00000000000E+00  0.00000000000E+00  0.74505805969E-08  0.10566000000E+00  0.10566000000E+00 0.  1.
     999900   -1    0    0    0    0 -0.00000000000E+00 -0.00000000000E+00 -0.74505805969E-08  0.93827000000E+00  0.93827000000E+00 0.  1.
     999902    2    1    2    0    0  0.12447926955E-01  0.52012976682E-02 -0.19481403936E-01  0.10202333867E+01  0.10199581530E+01 0.  0.
     999903    2    3    3    0    0 -0.11614325389E+00 -0.23457972973E-01  0.44063476193E-01  0.12815996069E+00  0.21067835002E-01 0.  0.
         14    1    1    2    0    0 -0.12447926955E-01 -0.52012976682E-02  0.19481403936E-01  0.23696613307E-01  0.00000000000E+00 0.  1.
     999901    1    3    3    0    0  0.12859118084E+00  0.28659270641E-01 -0.63544880129E-01  0.89207342600E+00  0.88000000000E+00 0. -1.
        -11    1    4    4    0    0 -0.76749057000E-01 -0.19092814499E-01  0.19261930390E-01  0.81401697766E-01  0.51100000000E-03 0.  1.
         11    1    4    4    0    0 -0.39394196885E-01 -0.43651584741E-02  0.24801545803E-01  0.46758262927E-01  0.51100000000E-03 0. -1.
</event>
<event>
 8    1  0.1170483E+005  0.1043930E+01  0.7957747E-01            NaN
         13   -1    0    0    0    0  0.00000000000E+00  0.00000000000E+00  0.74505805969E-08  0.10566000000E+00  0.10566000000E+00 0.  1.
     999900   -1    0    0    0    0 -0.00000000000E+00 -0.00000000000E+00 -0.74505805969E-08  0.93827000000E+00  0.93827000000E+00 0.  1.
     999902    2    1    2    0    0  0.13643797834E-01 -0.16722837147E-01 -0.87766595537E-02  0.10206311534E+01  0.10203651871E+01 0.  0.
     999903    2    3    3    0    0 -0.89284388706E-02 -0.84286217679E-01  0.98569398050E-01  0.13125075537E+00  0.18081787564E-01 0.  0.
         14    1    1    2    0    0 -0.13643797834E-01  0.16722837147E-01  0.87766595537E-02  0.23298846634E-01  0.00000000000E+00 0.  1.
     999901    1    3    3    0    0  0.22572236705E-01  0.67563380533E-01 -0.10734605760E+00  0.88938039800E+00  0.88000000000E+00 0.  1.
        -11    1    4    4    0    0 -0.73332113175E-02 -0.31028809022E-01  0.49082724116E-01  0.58531512070E-01  0.51100000000E-03 0.  1.
         11    1    4    4    0    0 -0.15952275531E-02 -0.53257408658E-01  0.49486673933E-01  0.72719243298E-01  0.51100000000E-03 0. -1.
</event>
<event>
 8    1  0.1170483E+005  0.1043930E+01  0.7957747E-01            NaN
         13   -1    0    0    0    0  0.00000000000E+00  0.00000000000E+00  0.74505805969E-08  0.10566000000E+00  0.10566000000E+00 0.  1.
     999900   -1    0    0    0    0 -0.00000000000E+00 -0.00000000000E+00 -0.74505805969E-08  0.93827000000E+00  0.93827000000E+00 0.  1.
     999902    2    1    2    0    0 -0.78188776558E-02 -0.33245435043E-02  0.21917098030E-01  0.10204236897E+01  0.10201529101E+01 0.  0.
     999903    2    3    3    0    0 -0.91157083279E-01 -0.88890068381E-02 -0.89424731221E-01  0.12948417285E+00  0.19512564917E-01 0.  0.
         14    1    1    2    0    0  0.78188776558E-02  0.33245435043E-02 -0.21917098030E-01  0.23506310288E-01  0.00000000000E+00 0. -1.
     999901    1    3    3    0    0  0.83338205624E-01  0.55644633339E-02  0.11134182925E+00  0.89093951686E+00  0.88000000000E+00 0. -1.
        -11    1    4    4    0    0 -0.61296237625E-01 -0.13980043957E-01 -0.66302954421E-01  0.91372935063E-01  0.51100000000E-03 0. -1.
         11    1    4    4    0    0 -0.29860845654E-01  0.50910371191E-02 -0.23121776799E-01  0.38111237785E-01  0.51100000000E-03 0.  1.
</event>
<event>
 8    1  0.1170483E+005  0.1043930E+01  0.7957747E-01            NaN
         13   -1    0    0    0    0  0.00000000000E+00  0.00000000000E+00  0.74505805969E-08  0.10566000000E+00  0.10566000000E+00 0. -1.
     999900   -1    0    0    0    0 -0.00000000000E+00 -0.00000000000E+00 -0.74505805969E-08  0.93827000000E+00  0.93827000000E+00 0.  1.
     999902    2    1    2    0    0  0.19529628112E-01 -0.52219091235E-02  0.12065778766E-01  0.10203873212E+01  0.10201156932E+01 0.  0.
     999903    2    3    3    0    0 -0.10686236977E+00 -0.67363947026E-01 -0.16796041506E-01  0.12872058148E+00  0.18149756345E-01 0.  0.
         14    1    1    2    0    0 -0.19529628112E-01  0.52219091235E-02 -0.12065778766E-01  0.23542678827E-01  0.00000000000E+00 0. -1.
     999901    1    3    3    0    0  0.12639199788E+00  0.62142037902E-01  0.28861820272E-01  0.89166673969E+00  0.88000000000E+00 0. -1.
        -11    1    4    4    0    0 -0.20911283440E-01 -0.14451545527E-01 -0.10758086050E-01  0.27606638327E-01  0.51100000000E-03 0. -1.
         11    1    4    4    0    0 -0.85951086328E-01 -0.52912401499E-01 -0.60379554562E-02  0.10111394315E+00  0.51100000000E-03 0.  1.
</event>
<event>
 8    1  0.1170483E+005  0.1043930E+01  0.7957747E-01            NaN
         13   -1    0    0    0    0  0.00000000000E+00  0.00000000000E+00  0.74505805969E-08  0.10566000000E+00  0.10566000000E+00 0. -1.
     999900   -1    0    0    0    0 -0.00000000000E+00 -0.00000000000E+00 -0.74505805969E-08  0.93827000000E+00  0.93827000000E+00 0. -1.
     999902    2    1    2    0    0  0.16903358564E-01 -0.21752238391E-01  0.66159939388E-02  0.10155988373E+01  0.10152035971E+01 0.  0.
     999903    2    3    3    0    0 -0.68198520589E-01  0.16687557337E-01 -0.10040466293E+00  0.12421038731E+00  0.20435537579E-01 0.  0.
         14    1    1    2    0    0 -0.16903358564E-01  0.21752238391E-01 -0.66159939388E-02  0.28331162729E-01  0.00000000000E+00 0. -1.
     999901    1    3    3    0    0  0.85101879153E-01 -0.38439795729E-01  0.10702065687E+00  0.89138844996E+00  0.88000000000E+00 0.  1.
        -11    1    4    4    0    0 -0.45451071427E-01  0.20788722103E-01 -0.67226195777E-01  0.83771077230E-01  0.51100000000E-03 0.  1.
         11    1    4    4    0    0 -0.22747449162E-01 -0.41011647660E-02 -0.33178467155E-01  0.40439310078E-01  0.51100000000E-03 0. -1.
</event>
<event>
 8    1  0.1170483E+005  0.1043930E+01  0.7957747E-01            NaN
         13   -1    0    0    0    0  0.00000000000E+00  0.00000000000E+00  0.74505805969E-08  0.10566000000E+00  0.10566000000E+00 0.  1.
     999900   -1    0    0    0    0 -0.00000000000E+00 -0.00000000000E+00 -0.74505805969E-08  0.93827000000E+00  0.93827000000E+00 0. -1.
     999902    2    1    2    0    0  0.18940291076E-02 -0.64130894516E-02 -0.18528062240E-01  0.10242321790E+01  0.10240427493E+01 0.  0.
     999903    2    3    3    0    0 -0.28675529506E-01 -0.12731481870E+00 -0.29668806736E-01  0.13537007368E+00  0.20333954422E-01 0.  0.
         14    1    1    2    0    0 -0.18940291076E-02  0.64130894516E-02  0.18528062240E-01  0.19697821020E-01  0.00000000000E+00 0.  1.
     999901    1    3    3    0    0  0.30569558614E-01  0.12090172925E+00  0.11140744496E-01  0.88886210530E+00  0.88000000000E+00 0.  1.
        -11    1    4    4    0    0 -0.22608314605E-01 -0.94004537317E-01 -0.12771829666E-01  0.97526251232E-01  0.51100000000E-03 0. -1.
         11    1    4    4    0    0 -0.60672149016E-02 -0.33310281382E-01 -0.16896977070E-01  0.37843822449E-01  0.51100000000E-03 0.  1.
</event>
<event>
 8    1  0.1170483E+005  0.1043930E+01  0.7957747E-01            NaN
         13   -1    0    0    0    0  0.00000000000E+00  0.00000000000E+00  0.74505805969E-08  0.10566000000E+00  0.10566000000E+00 0.  1.
     999900   -1    0    0    0    0 -0.00000000000E+00 -0.00000000000E+00 -0.74505805969E-08  0.93827000000E+00  0.93827000000E+00 0.  1.
     999902    2    1    2    0    0  0.16769352225E-01 -0.10413797657E-01 -0.13197088942E-01  0.10201850740E+01  0.10199087036E+01 0.  0.
     999903    2    3    3    0    0  0.27662209696E-01 -0.62894556135E-01  0.10858705538E+00  0.13018267950E+00  0.20867640220E-01 0.  0.
         14    1    1    2    0    0 -0.16769352225E-01  0.10413797657E-01  0.13197088942E-01  0.23744926031E-01  0.00000000000E+00 0.  1.
     999901    1    3    3    0    0 -0.10892857471E-01  0.52480758478E-01 -0.12178414432E+00  0.89000239447E+00  0.88000000000E+00 0. -1.
        -11    1    4    4    0    0  0.84317642682E-02 -0.67905621945E-02  0.28754956490E-01  0.30729709197E-01  0.51100000000E-03 0. -1.
         11    1    4    4    0    0  0.19230445428E-01 -0.56103993940E-01  0.79832098891E-01  0.99452970302E-01  0.51100000000E-03 0.  1.
</event>
<event>
 8    1  0.1170483E+005  0.1043930E+01  0.7957747E-01            NaN
         13   -1    0    0    0    0  0.00000000000E+00  0.00000000000E+00  0.74505805969E-08  0.10566000000E+00  0.10566000000E+00 0. -1.
     999900   -1    0    0    0    0 -0.00000000000E+00 -0.00000000000E+00 -0.74505805969E-08  0.93827000000E+00  0.93827000000E+00 0.  1.
     999902    2    1    2    0    0  0.97497789759E-02  0.84843883424E-02 -0.19584156190E-01  0.10204655117E+01  0.10201957060E+01 0.  0.
     999903    2    3    3    0    0 -0.86527109973E-01 -0.79004053954E-01  0.48996349629E-01  0.12826219822E+00  0.17943464361E-01 0.  0.
         14    1    1    2    0    0 -0.97497789759E-02 -0.84843883424E-02  0.19584156190E-01  0.23464488260E-01  0.00000000000E+00 0. -1.
     999901    1    3    3    0    0  0.96276888949E-01  0.87488442297E-01 -0.68580505819E-01  0.89220331352E+00  0.88000000000E+00 0. -1.
        -11    1    4    4    0    0 -0.27843126058E-01 -0.37153954788E-01  0.17956313402E-01  0.49782992448E-01  0.51100000000E-03 0. -1.
         11    1    4    4    0    0 -0.58683983915E-01 -0.41850099166E-01  0.31040036227E-01  0.78479205771E-01  0.51100000000E-03 0.  1.
</event>
<event>
 8    1  0.1170483E+005  0.1043930E+01  0.7957747E-01            NaN
         13   -1    0    0    0    0  0.00000000000E+00  0.00000000000E+00  0.74505805969E-08  0.10566000000E+00  0.10566000000E+00 0. -1.
     999900   -1    0    0    0    0 -0.00000000000E+00 -0.00000000000E+00 -0.74505805969E-08  0.93827000000E+00  0.93827000000E+00 0.  1.
     999902    2    1    2    0    0 -0.12942253343E-02 -0.22738365124E-01 -0.70965829360E-02  0.10200748170E+01  0.10197958435E+01 0.  0.
     999903    2    3    3    0    0  0.79880361918E-01 -0.16647020938E-01 -0.10064755678E+00  0.13138015468E+00  0.21744397676E-01 0.  0.
         14    1    1    2    0    0  0.12942253343E-02  0.22738365124E-01  0.70965829360E-02  0.23855183023E-01  0.00000000000E+00 0. -1.
     999901    1    3    3    0    0 -0.81174587252E-01 -0.60913441857E-02  0.93550973849E-01  0.88869466230E+00  0.88000000000E+00 0. -1.
        -11    1    4    4    0    0  0.33229210803E-01 -0.14115594301E-03 -0.53790080671E-01  0.63228429327E-01  0.51100000000E-03 0.  1.
         11    1    4    4    0    0  0.46651151115E-01 -0.16505864995E-01 -0.46857476114E-01  0.68151725351E-01  0.51100000000E-03 0. -1.
</event>
<event>
 8    1  0.1170483E+005  0.1043930E+01  0.7957747E-01            NaN
         13   -1    0    0    0    0  0.00000000000E+00  0.00000000000E+00  0.74505805969E-08  0.10566000000E+00  0.10566000000E+00 0.  1.
     999900   -1    0    0    0    0 -0.00000000000E+00 -0.00000000000E+00 -0.74505805969E-08  0.93827000000E+00  0.93827000000E+00 0. -1.
     999902    2    1    2    0    0  0.56333101472E-02  0.20792078767E-01 -0.40427574330E-02  0.10220122307E+01  0.10217771827E+01 0.  0.
     999903    2    3    3    0    0  0.38740218637E-01  0.11663514292E+00  0.50988589994E-01  0.13448171883E+00  0.19517563507E-01 0.  0.
         14    1    1    2    0    0 -0.56333101472E-02 -0.20792078767E-01  0.40427574330E-02  0.21917769282E-01  0.00000000000E+00 0.  1.
     999901    1    3    3    0    0 -0.33106908490E-01 -0.95843064154E-01 -0.55031347427E-01  0.88753051189E+00  0.88000000000E+00 0. -1.
        -11    1    4    4    0    0  0.23474682001E-01  0.51061553784E-01  0.31316929334E-01  0.64337812784E-01  0.51100000000E-03 0. -1.
         11    1    4    4    0    0  0.15265536636E-01  0.65573589136E-01  0.19671660660E-01  0.70143906044E-01  0.51100000000E-03 0.  1.
</event>
<event>
 8    1  0.1170483E+005  0.1043930E+01  0.7957747E-01            NaN
         13   -1    0    0    0    0  0.00000000000E+00  0.00000000000E+00  0.74505805969E-08  0.10566000000E+00  0.10566000000E+00 0.  1.
     999900   -1    0    0    0    0 -0.00000000000E+00 -0.00000000000E+00 -0.74505805969E-08  0.93827000000E+00  0.93827000000E+00 0. -1.
     999902    2    1    2    0    0 -0.25573229956E-02  0.14306865119E-01  0.17129008677E-01  0.10214660460E+01  0.10212190039E+01 0.  0.
     999903    2    3    3    0    0 -0.23492830449E-01 -0.80208764333E-01 -0.95844010590E-01  0.12897828544E+00  0.21539841969E-01 0.  0.
         14    1    1    2    0    0  0.25573229956E-02 -0.14306865119E-01 -0.17129008677E-01  0.22463953986E-01  0.00000000000E+00 0. -1.
     999901    1    3    3    0    0  0.20935507453E-01  0.94515629451E-01  0.11297301927E+00  0.89248776057E+00  0.88000000000E+00 0.  1.
        -11    1    4    4    0    0 -0.27198266560E-01 -0.62564556238E-01 -0.77564948120E-01  0.10329884655E+00  0.51100000000E-03 0.  1.
         11    1    4    4    0    0  0.37054361114E-02 -0.17644208095E-01 -0.18279062471E-01  0.25679438893E-01  0.51100000000E-03 0. -1.
</event>
<event>
 8    1  0.1170483E+005  0.1043930E+01  0.7957747E-01            NaN
         13   -1    0    0    0    0  0.00000000000E+00  0.00000000000E+00  0.74505805969E-08  0.10566000000E+00  0.10566000000E+00 0.  1.
     999900   -1    0    0    0    0 -0.00000000000E+00 -0.00000000000E+00 -0.74505805969E-08  0.93827000000E+00  0.93827000000E+00 0. -1.
     999902    2    1    2    0    0  0.20338790531E-01  0.56967409842E-02 -0.11160066896E-01  0.10200413761E+01  0.10197616107E+01 0.  0.
     999903    2    3    3    0    0 -0.60479952939E-01  0.99856842325E-01  0.51565612728E-01  0.12912482286E+00  0.19621258759E-01 0.  0.
         14    1    1    2    0    0 -0.20338790531E-01 -0.56967409842E-02  0.11160066896E-01  0.23888623887E-01  0.00000000000E+00 0.  1.
     999901    1    3    3    0    0  0.80818743469E-01 -0.94160101341E-01 -0.62725679624E-01  0.89091655326E+00  0.88000000000E+00 0. -1.
        -11    1    4    4    0    0 -0.31447581053E-01  0.39769002164E-01  0.30375544115E-01  0.59105487804E-01  0.51100000000E-03 0.  1.
         11    1    4    4    0    0 -0.29032371885E-01  0.60087840161E-01  0.21190068612E-01  0.70019335054E-01  0.51100000000E-03 0. -1.
</event>
<event>
 8    1  0.1170483E+005  0.1043930E+01  0.7957747E-01            NaN
         13   -1    0    0    0    0  0.00000000000E+00  0.00000000000E+00  0.74505805969E-08  0.10566000000E+00  0.10566000000E+00 0.  1.
     999900   -1    0    0    0    0 -0.00000000000E+00 -0.00000000000E+00 -0.74505805969E-08  0.93827000000E+00  0.93827000000E+00 0.  1.
     999902    2    1    2    0    0  0.20324421553E-01 -0.74685563524E-02 -0.13546320813E-01  0.10183885777E+01  0.10180682349E+01 0.  0.
     999903    2    3    3    0    0  0.65699745287E-01 -0.65629503384E-01  0.88136637083E-01  0.12946729902E+00  0.19236072222E-01 0.  0.
         14    1    1    2    0    0 -0.20324421553E-01  0.74685563524E-02  0.13546320813E-01  0.25541422298E-01  0.00000000000E+00 0.  1.
     999901    1    3    3    0    0 -0.45375323735E-01  0.58160947031E-01 -0.10168295790E+00  0.88892127868E+00  0.88000000000E+00 0. -1.
        -11    1    4    4    0    0  0.18007258405E-01 -0.78096787141E-02  0.14632793183E-01  0.24487388473E-01  0.51100000000E-03 0.  1.
         11    1    4    4    0    0  0.47692486883E-01 -0.57819824670E-01  0.73503843900E-01  0.10497991055E+00  0.51100000000E-03 0. -1.
</event>
<event>
 8    1  0.1170483E+005  0.1043930E+01  0.7957747E-01            NaN
         13   -1    0    0    0    0  0.00000000000E+00  0.00000000000E+00  0.74505805969E-08  0.10566000000E+00  0.10566000000E+00 0.  1.
     999900   -1    0    0    0    0 -0.00000000000E+00 -0.00000000000E+00 -0.74505805969E-08  0.93827000000E+00  0.93827000000E+00 0. -1.
     999902    2    1    2    0    0  0.19012984588E-01 -0.15238310787E-01 -0.59977292822E-02  0.10188367249E+01  0.10185276626E+01 0.  0.
     999903    2    3    3    0    0  0.26561766552E-01  0.11797488721E+00 -0.36282012275E-01  0.12826394403E+00  0.22619758399E-01 0.  0.
         14    1    1    2    0    0 -0.19012984588E-01  0.15238310787E-01  0.59977292822E-02  0.25093275098E-01  0.00000000000E+00 0. -1.
     999901    1    3    3    0    0 -0.75487819632E-02 -0.13321319799E+00  0.30284282993E-01  0.89057278087E+00  0.88000000000E+00 0.  1.
        -11    1    4    4    0    0  0.21377794793E-01  0.10199131898E+00 -0.38934961317E-01  0.11124491715E+00  0.51100000000E-03 0.  1.
         11    1    4    4    0    0  0.51839717592E-02  0.15983568226E-01  0.26529490414E-02  0.17019026883E-01  0.51100000000E-03 0. -1.
</event>
<event>
 8    1  0.1170483E+005  0.1043930E+01  0.7957747E-01            NaN
         13   -1    0    0    0    0  0.00000000000E+00  0.00000000000E+00  0.74505805969E-08  0.10566000000E+00  0.10566000000E+00 0. -1.
     999900   -1    0    0    0    0 -0.00000000000E+00 -0.00000000000E+00 -0.74505805969E-08  0.93827000000E+00  0.93827000000E+00 0. -1.
     999902    2    1    2    0    0  0.26205975213E-02 -0.21244066563E-01 -0.94127170787E-02  0.10205467338E+01  0.10202788142E+01 0.  0.
     999903    2    3    3    0    0 -0.89916665642E-01  0.88567378886E-01  0.14038420184E-01  0.12859849849E+00  0.20280759613E-01 0.  0.
         14    1    1    2    0    0 -0.26205975213E-02  0.21244066563E-01  0.94127170787E-02  0.23383266202E-01  0.00000000000E+00 0. -1.
     999901    1    3    3    0    0  0.92537263163E-01 -0.10981144545E+00 -0.23451137263E-01  0.89194823531E+00  0.88000000000E+00 0. -1.
        -11    1    4    4    0    0 -0.68767315665E-01  0.62491592702E-01  0.18438221911E-01  0.94733162147E-01  0.51100000000E-03 0.  1.
         11    1    4    4    0    0 -0.21149349977E-01  0.26075786184E-01 -0.43998017271E-02  0.33865336345E-01  0.51100000000E-03 0. -1.
</event>
<event>
 8    1  0.1170483E+005  0.1043930E+01  0.7957747E-01            NaN
         13   -1    0    0    0    0  0.00000000000E+00  0.00000000000E+00  0.74505805969E-08  0.10566000000E+00  0.10566000000E+00 0.  1.
     999900   -1    0    0    0    0 -0.00000000000E+00 -0.00000000000E+00 -0.74505805969E-08  0.93827000000E+00  0.93827000000E+00 0. -1.
     999902    2    1    2    0    0 -0.18116116654E-01  0.15971669817E-01 -0.22297152190E-01  0.10110597868E+01  0.10105253295E+01 0.  0.
     999903    2    3    3    0    0 -0.53165968363E-02 -0.10698596822E+00 -0.54833272212E-01  0.12182359346E+00  0.18974629992E-01 0.  0.
         14    1    1    2    0    0  0.18116116654E-01 -0.15971669817E-01  0.22297152190E-01  0.32870213190E-01  0.00000000000E+00 0.  1.
     999901    1    3    3    0    0 -0.12799519818E-01  0.12295763804E+00  0.32536120022E-01  0.88923619335E+00  0.88000000000E+00 0. -1.
        -11    1    4    4    0    0  0.28332119705E-02 -0.30074779663E-01 -0.74411359966E-02  0.31115126350E-01  0.51100000000E-03 0.  1.
         11    1    4    4    0    0 -0.81498088068E-02 -0.76911188559E-01 -0.47392136215E-01  0.90708467109E-01  0.51100000000E-03 0. -1.
</event>
<event>
 8    1  0.1170483E+005  0.1043930E+01  0.7957747E-01            NaN
         13   -1    0    0    0    0  0.00000000000E+00  0.00000000000E+00  0.74505805969E-08  0.10566000000E+00  0.10566000000E+00 0. -1.
     999900   -1    0    0    0    0 -0.00000000000E+00 -0.00000000000E+00 -0.74505805969E-08  0.93827000000E+00  0.93827000000E+00 0.  1.
     999902    2    1    2    0    0 -0.60485046137E-02  0.26857641203E-01  0.66117897663E-02  0.10156168747E+01  0.10152221447E+01 0.  0.
     999903    2    3    3    0    0  0.29603999183E-01  0.75160581345E-01 -0.96979581133E-01  0.12750908443E+00  0.18111258923E-01 0.  0.
         14    1    1    2    0    0  0.60485046137E-02 -0.26857641203E-01 -0.66117897663E-02  0.28313125277E-01  0.00000000000E+00 0.  1.
     999901    1    3    3    0    0 -0.35652503796E-01 -0.48302940142E-01  0.10359137090E+00  0.88810779029E+00  0.88000000000E+00 0. -1.
        -11    1    4    4    0    0  0.22474132261E-01  0.40124261174E-01 -0.64384515178E-01  0.79124394919E-01  0.51100000000E-03 0. -1.
         11    1    4    4    0    0  0.71298669213E-02  0.35036320172E-01 -0.32595065955E-01  0.48384689511E-01  0.51100000000E-03 0.  1.
</event>
<event>
 8    1  0.1170483E+005  0.1043930E+01  0.7957747E-01            NaN
         13   -1    0    0    0    0  0.00000000000E+00  0.00000000000E+00  0.74505805969E-08  0.10566000000E+00  0.10566000000E+00 0.  1.
     999900   -1    0    0    0    0 -0.00000000000E+00 -0.00000000000E+00 -0.74505805969E-08  0.93827000000E+00  0.93827000000E+00 0.  1.
     999902    2    1    2    0    0  0.41176378686E-02 -0.23719158870E-01 -0.47250431014E-02  0.10193967680E+01  0.10191015117E+01 0.  0.
     999903    2    3    3    0    0  0.77382509786E-01 -0.49130396872E-01  0.91052199220E-01  0.13080982651E+00  0.20466045324E-01 0.  0.
         14    1    1    2    0    0 -0.41176378686E-02  0.23719158870E-01  0.47250431014E-02  0.24533231981E-01  0.00000000000E+00 0.  1.
     999901    1    3    3    0    0 -0.73264871917E-01  0.25411238001E-01 -0.95777242321E-01  0.88858694151E+00  0.88000000000E+00 0.  1.
        -11    1    4    4    0    0  0.48049109549E-01 -0.39405925808E-01  0.52162439182E-01  0.81133994722E-01  0.51100000000E-03 0.  1.
         11    1    4    4    0    0  0.29333400237E-01 -0.97244710636E-02  0.38889760038E-01  0.49675831787E-01  0.51100000000E-03 0. -1.
</event>
<event>
 8    1  0.1170483E+005  0.1043930E+01  0.7957747E-01            NaN
         13   -1    0    0    0    0  0.00000000000E+00  0.00000000000E+00  0.74505805969E-08  0.10566000000E+00  0.10566000000E+00 0.  1.
     999900   -1    0    0    0    0 -0.00000000000E+00 -0.00000000000E+00 -0.74505805969E-08  0.93827000000E+00  0.93827000000E+00 0.  1.
     999902    2    1    2    0    0  0.27519431089E-02 -0.64751607406E-02 -0.24879484902E-01  0.10180748329E+01  0.10177464693E+01 0.  0.
     999903    2    3    3    0    0  0.88284698282E-01  0.67152674330E-01 -0.65572984765E-01  0.12993471374E+00  0.16719565884E-01 0.  0.
         14    1    1    2    0    0 -0.27519431089E-02  0.64751607406E-02  0.24879484902E-01  0.25855167114E-01  0.00000000000E+00 0.  1.
     999901    1    3    3    0    0 -0.85532755173E-01 -0.73627835071E-01  0.40693499862E-01  0.88814011915E+00  0.88000000000E+00 0.  1.
        -11    1    4    4    0    0  0.48982074422E-01  0.47254531635E-01 -0.37778349190E-01  0.77844069545E-01  0.51100000000E-03 0.  1.
         11    1    4    4    0    0  0.39302623860E-01  0.19898142695E-01 -0.27794635574E-01  0.52090644195E-01  0.51100000000E-03 0. -1.
</event>
<event>
 8    1  0.1170483E+005  0.1043930E+01  0.7957747E-01            NaN
         13   -1    0    0    0    0  0.00000000000E+00  0.00000000000E+00  0.74505805969E-08  0.10566000000E+00  0.10566000000E+00 0. -1.
     999900   -1    0    0    0    0 -0.00000000000E+00 -0.00000000000E+00 -0.74505805969E-08  0.93827000000E+00  0.93827000000E+00 0. -1.
     999902    2    1    2    0    0  0.19003719532E-01  0.12211983231E-01 -0.95979852832E-02  0.10193862592E+01  0.10190907468E+01 0.  0.
     999903    2    3    3    0    0 -0.20589713661E-01  0.82745002583E-01  0.95364685327E-01  0.12946507787E+00  0.19902548070E-01 0.  0.
         14    1    1    2    0    0 -0.19003719532E-01 -0.12211983231E-01  0.95979852832E-02  0.24543740791E-01  0.00000000000E+00 0. -1.
     999901    1    3    3    0    0  0.39593433194E-01 -0.70533019352E-01 -0.10496267061E+00  0.88992118134E+00  0.88000000000E+00 0. -1.
        -11    1    4    4    0    0 -0.10370989318E-02  0.26199126808E-01  0.40719890967E-01  0.48433877205E-01  0.51100000000E-03 0.  1.
         11    1    4    4    0    0 -0.19552614730E-01  0.56545875775E-01  0.54644794360E-01  0.81031200668E-01  0.51100000000E-03 0. -1.
</event>
<event>
 8    1  0.1170483E+005  0.1043930E+01  0.7957747E-01            NaN
         13   -1    0    0    0    0  0.00000000000E+00  0.00000000000E+00  0.74505805969E-08  0.10566000000E+00  0.10566000000E+00 0.  1.
     999900   -1    0    0    0    0 -0.00000000000E+00 -0.00000000000E+00 -0.74505805969E-08  0.93827000000E+00  0.93827000000E+00 0.  1.
     999902    2    1    2    0    0 -0.12276750685E-01  0.22005656238E-01 -0.33466317028E-02  0.10185101759E+01  0.10181929144E+01 0.  0.
     999903    2    3    3    0    0 -0.71418927931E-01 -0.55851577848E-01  0.88578339668E-01  0.12833617808E+00  0.20099510694E-01 0.  0.
         14    1    1    2    0    0  0.12276750685E-01 -0.22005656238E-01  0.33466317028E-02  0.25419824106E-01  0.00000000000E+00 0.  1.
     999901    1    3    3    0    0  0.59142177246E-01  0.77857234085E-01 -0.91924971370E-01  0.89017399782E+00  0.88000000000E+00 0.  1.
        -11    1    4    4    0    0 -0.71397813437E-01 -0.54510673775E-01  0.82081649064E-01  0.12168286466E+00  0.51100000000E-03 0. -1.
         11    1    4    4    0    0 -0.21114494041E-04 -0.13409040730E-02  0.64966906040E-02  0.66533134121E-02  0.51100000000E-03 0.  1.
</event>
<event>
 8    1  0.1170483E+005  0.1043930E+01  0.7957747E-01            NaN
         13   -1    0    0    0    0  0.00000000000E+00  0.00000000000E+00  0.74505805969E-08  0.10566000000E+00  0.10566000000E+00 0.  1.
     999900   -1    0    0    0    0 -0.00000000000E+00 -0.00000000000E+00 -0.74505805969E-08  0.93827000000E+00  0.93827000000E+00 0.  1.
     999902    2    1    2    0    0 -0.12403896668E-01  0.74967785258E-02  0.19609209411E-01  0.10195460004E+01  0.10192543684E+01 0.  0.
     999903    2    3    3    0    0  0.72804603958E-01  0.11978385620E-01 -0.10219929456E+00  0.12706749368E+00  0.16045562120E-01 0.  0.
         14    1    1    2    0    0  0.12403896668E-01 -0.74967785258E-02 -0.19609209411E-01  0.24383999560E-01  0.00000000000E+00 0. -1.
     999901    1    3    3    0    0 -0.85208500626E-01 -0.44816070947E-02  0.12180850397E+00  0.89247850676E+00  0.88000000000E+00 0. -1.
        -11    1    4    4    0    0  0.43440172567E-01  0.22329724455E-02 -0.48998233926E-01  0.65521926158E-01  0.51100000000E-03 0. -1.
         11    1    4    4    0    0  0.29364431390E-01  0.97454131750E-02 -0.53201060632E-01  0.61545567527E-01  0.51100000000E-03 0.  1.
</event>
<event>
 7    1  0.1170483E+005  0.1043930E+01  0.7957747E-01            NaN
         13   -1    0    0    0    0  0.00000000000E+00  0.00000000000E+00  0.74505805969E-08  0.10566000000E+00  0.10566000000E+00 0.  1.
     999900   -1    0    0    0    0 -0.00000000000E+00 -0.00000000000E+00 -0.74505805969E-08  0.93827000000E+00  0.93827000000E+00 0. -1.
     999902    2    1    2    0    0  0.10254130240E-01 -0.35025425152E-02  0.18163963961E-01  0.10227794781E+01  0.10225607641E+01 0.  0.
         14    1    1    2    0    0 -0.10254130240E-01  0.35025425152E-02 -0.18163963961E-01  0.21150521928E-01  0.00000000000E+00 0. -1.
     999901    1    3    3    0    0 -0.10187351235E+00 -0.61285439811E-01  0.82914580089E-02  0.88803314461E+00  0.88000000000E+00 0. -1.
        -11    1    3    3    0    0  0.24303972418E-01  0.23275021914E-02  0.18330254874E-01  0.30534565765E-01  0.51100000000E-03 0.  1.
         11    1    3    3    0    0  0.87823670171E-01  0.55455395104E-01 -0.84577489218E-02  0.10421176770E+00  0.51100000000E-03 0. -1.
</event>
<event>
 8    1  0.1170483E+005  0.1043930E+01  0.7957747E-01            NaN
         13   -1    0    0    0    0  0.00000000000E+00  0.00000000000E+00  0.74505805969E-08  0.10566000000E+00  0.10566000000E+00 0.  1.
     999900   -1    0    0    0    0 -0.00000000000E+00 -0.00000000000E+00 -0.74505805969E-08  0.93827000000E+00  0.93827000000E+00 0.  1.
     999902    2    1    2    0    0  0.18869513290E-01  0.65623719084E-02  0.10709157289E-01  0.10212626379E+01  0.10210110510E+01 0.  0.
     999903    2    3    3    0    0 -0.83248645402E-01  0.94179065122E-01  0.30456811195E-01  0.13081624806E+00  0.19627535231E-01 0.  0.
         14    1    1    2    0    0 -0.18869513290E-01 -0.65623719084E-02 -0.10709157289E-01  0.22667362147E-01  0.00000000000E+00 0. -1.
     999901    1    3    3    0    0  0.10211815869E+00 -0.87616693213E-01 -0.19747653906E-01  0.89044638980E+00  0.88000000000E+00 0. -1.
        -11    1    4    4    0    0 -0.25685850377E-01  0.26514487270E-01  0.53203416354E-04  0.36919437920E-01  0.51100000000E-03 0. -1.
         11    1    4    4    0    0 -0.57562795025E-01  0.67664577852E-01  0.30403607779E-01  0.93896810137E-01  0.51100000000E-03 0.  1.
</event>
<event>
 8    1  0.1170483E+005  0.1043930E+01  0.7957747E-01            NaN
         13   -1    0    0    0    0  0.00000000000E+00  0.00000000000E+00  0.74505805969E-08  0.10566000000E+00  0.10566000000E+00 0.  1.
     999900   -1    0    0    0    0 -0.00000000000E+00 -0.00000000000E+00 -0.74505805969E-08  0.93827000000E+00  0.93827000000E+00 0. -1.
     999902    2    1    2    0    0  0.87027874640E-02  0.30242919904E-02 -0.54311458410E-02  0.10332350387E+01  0.10331796857E+01 0.  0.
     999903    2    3    3    0    0  0.90503996224E-01 -0.20906890849E-01  0.10589569948E+00  0.14213582665E+00  0.18990066612E-01 0.  0.
         14    1    1    2    0    0 -0.87027874640E-02 -0.30242919904E-02  0.54311458410E-02  0.10694961282E-01  0.00000000000E+00 0.  1.
     999901    1    3    3    0    0 -0.81801208760E-01  0.23931182839E-01 -0.11132684532E+00  0.89109921207E+00  0.88000000000E+00 0. -1.
        -11    1    4    4    0    0  0.48526118083E-01 -0.18547083037E-01  0.49217712641E-01  0.71564116595E-01  0.51100000000E-03 0.  1.
         11    1    4    4    0    0  0.41977878141E-01 -0.23598078122E-02  0.56677986840E-01  0.70571710050E-01  0.51100000000E-03 0. -1.
</event>
<event>
 8    1  0.1170483E+005  0.1043930E+01  0.7957747E-01            NaN
         13   -1    0    0    0    0  0.00000000000E+00  0.00000000000E+00  0.74505805969E-08  0.10566000000E+00  0.10566000000E+00 0. -1.
     999900   -1    0    0    0    0 -0.00000000000E+00 -0.00000000000E+00 -0.74505805969E-08  0.93827000000E+00  0.93827000000E+00 0. -1.
     999902    2    1    2    0    0  0.35226779123E-02 -0.14518658991E-02  0.23514179577E-01  0.10201091307E+01  0.10198309687E+01 0.  0.
     999903    2    3    3    0    0 -0.48568645663E-01  0.75580927636E-01 -0.89220774704E-01  0.12805715506E+00  0.19154591111E-01 0.  0.
         14    1    1    2    0    0 -0.35226779123E-02  0.14518658991E-02 -0.23514179577E-01  0.23820869326E-01  0.00000000000E+00 0.  1.
     999901    1    3    3    0    0  0.52091323575E-01 -0.77032793535E-01  0.11273495428E+00  0.89205197561E+00  0.88000000000E+00 0.  1.
        -11    1    4    4    0    0 -0.28518518690E-01  0.51636189783E-01 -0.46385380406E-01  0.75043098549E-01  0.51100000000E-03 0. -1.
         11    1    4    4    0    0 -0.20050126973E-01  0.23944737853E-01 -0.42835394298E-01  0.53014056515E-01  0.51100000000E-03 0.  1.
</event>
<event>
 8    1  0.1170483E+005  0.1043930E+01  0.7957747E-01            NaN
         13   -1    0    0    0    0  0.00000000000E+00  0.00000000000E+00  0.74505805969E-08  0.10566000000E+00  0.10566000000E+00 0. -1.
     999900   -1    0    0    0    0 -0.00000000000E+00 -0.00000000000E+00 -0.74505805969E-08  0.93827000000E+00  0.93827000000E+00 0. -1.
     999902    2    1    2    0    0 -0.15243689325E-02 -0.18684591035E-01 -0.15381005693E-01  0.10196810211E+01  0.10193926485E+01 0.  0.
     999903    2    3    3    0    0  0.10376155829E+00 -0.41530040976E-01 -0.66585370694E-01  0.13163320252E+00  0.20061982260E-01 0.  0.
         14    1    1    2    0    0  0.15243689325E-02  0.18684591035E-01  0.15381005693E-01  0.24248978925E-01  0.00000000000E+00 0. -1.
     999901    1    3    3    0    0 -0.10528592722E+00  0.22845449941E-01  0.51204365002E-01  0.88804781856E+00  0.88000000000E+00 0.  1.
        -11    1    4    4    0    0  0.10270735038E+00 -0.38958817758E-01 -0.61703874864E-01  0.12599293074E+00  0.51100000000E-03 0.  1.
         11    1    4    4    0    0  0.10542079125E-02 -0.25712232179E-02 -0.48814958304E-02  0.56402717754E-02  0.51100000000E-03 0. -1.
</event>
<event>
 8    1  0.1170483E+005  0.1043930E+01  0.7957747E-01            NaN
         13   -1    0    0    0    0  0.00000000000E+00  0.00000000000E+00  0.74505805969E-08  0.10566000000E+00  0.10566000000E+00 0.  1.
     999900   -1    0    0    0    0 -0.00000000000E+00 -0.00000000000E+00 -0.74505805969E-08  0.93827000000E+00  0.93827000000E+00 0.  1.
     999902    2    1    2    0    0  0.30751722384E-02  0.29079342504E-01  0.86761571291E-02  0.10134285157E+01  0.10129694052E+01 0.  0.
     999903    2    3    3    0    0  0.12024514589E+00 -0.21969923487E-01 -0.69491252229E-02  0.12405852531E+00  0.20016361116E-01 0.  0.
         14    1    1    2    0    0 -0.30751722384E-02 -0.29079342504E-01 -0.86761571291E-02  0.30501484345E-01  0.00000000000E+00 0.  1.
     999901    1    3    3    0    0 -0.11716997365E+00  0.51049265991E-01  0.15625282352E-01  0.88936999035E+00  0.88000000000E+00 0. -1.
        -11    1    4    4    0    0  0.49244259408E-01 -0.16419034246E-01 -0.95897691245E-02  0.52790212759E-01  0.51100000000E-03 0. -1.
         11    1    4    4    0    0  0.71000886479E-01 -0.55508892412E-02  0.26406439017E-02  0.71268312548E-01  0.51100000000E-03 0.  1.
</event>
<event>
 8    1  0.1170483E+005  0.1043930E+01  0.7957747E-01            NaN
         13   -1    0    0    0    0  0.00000000000E+00  0.00000000000E+00  0.74505805969E-08  0.10566000000E+00  0.10566000000E+00 0. -1.
     999900   -1    0    0    0    0 -0.00000000000E+00 -0.00000000000E+00 -0.74505805969E-08  0.93827000000E+00  0.93827000000E+00 0. -1.
     999902    2    1    2    0    0 -0.19427717485E-01  0.81814136583E-02  0.10440340466E-01  0.10204061303E+01  0.10201349412E+01 0.  0.
     999903    2    3    3    0    0 -0.12991250881E+00 -0.53477805927E-02  0.21967989407E-01  0.13331942942E+00  0.19637184116E-01 0.  0.
         14    1    1    2    0    0  0.19427717485E-01 -0.81814136583E-02 -0.10440340466E-01  0.23523869689E-01  0.00000000000E+00 0.  1.
     999901    1    3    3    0    0  0.11048479132E+00  0.13529194251E-01 -0.11527648941E-01  0.88708670089E+00  0.88000000000E+00 0.  1.
        -11    1    4    4    0    0 -0.33224286743E-01 -0.73183131434E-02  0.12080942695E-01  0.36105695316E-01  0.51100000000E-03 0. -1.
         11    1    4    4    0    0 -0.96688222064E-01  0.19705325507E-02  0.98870467120E-02  0.97213734102E-01  0.51100000000E-03 0.  1.
</event>
<event>
 8    1  0.1170483E+005  0.1043930E+01  0.7957747E-01            NaN
         13   -1    0    0    0    0  0.00000000000E+00  0.00000000000E+00  0.74505805969E-08  0.10566000000E+00  0.10566000000E+00 0.  1.
     999900   -1    0    0    0    0 -0.00000000000E+00 -0.00000000000E+00 -0.74505805969E-08  0.93827000000E+00  0.93827000000E+00 0. -1.
     999902    2    1    2    0    0  0.15097490880E-01 -0.99124118118E-02  0.14442839242E-01  0.10208045650E+01  0.10205425881E+01 0.  0.
     999903    2    3    3    0    0 -0.17471636384E-01  0.12066924987E+00  0.40397228992E-01  0.13019469038E+00  0.21269587427E-01 0.  0.
         14    1    1    2    0    0 -0.15097490880E-01  0.99124118118E-02 -0.14442839242E-01  0.23125435005E-01  0.00000000000E+00 0. -1.
     999901    1    3    3    0    0  0.32569127264E-01 -0.13058166169E+00 -0.25954389750E-01  0.89060987462E+00  0.88000000000E+00 0. -1.
        -11    1    4    4    0    0 -0.18488268407E-01  0.55060010639E-01  0.16842788732E-01  0.60476123335E-01  0.51100000000E-03 0.  1.
         11    1    4    4    0    0  0.10166320235E-02  0.65609239234E-01  0.23554440260E-01  0.69718567043E-01  0.51100000000E-03 0. -1.
</event>
<event>
 8    1  0.1170483E+005  0.1043930E+01  0.7957747E-01            NaN
         13   -1    0    0    0    0  0.00000000000E+00  0.00000000000E+00  0.74505805969E-08  0.10566000000E+00  0.10566000000E+00 0. -1.
     999900   -1    0    0    0    0 -0.00000000000E+00 -0.00000000000E+00 -0.74505805969E-08  0.93827000000E+00  0.93827000000E+00 0. -1.
     999902    2    1    2    0    0 -0.15378974921E-01  0.16575267874E-01  0.68282366483E-02  0.10203105760E+01  0.10200371534E+01 0.  0.
     999903    2    3    3    0    0 -0.47889123808E-01 -0.66199682637E-01 -0.98399370206E-01  0.12959095038E+00  0.20871324879E-01 0.  0.
         14    1    1    2    0    0  0.15378974921E-01 -0.16575267874E-01 -0.68282366483E-02  0.23619424007E-01  0.00000000000E+00 0. -1.
     999901    1    3    3    0    0  0.32510148887E-01  0.82774950511E-01  0.10522760685E+00  0.89071962562E+00  0.88000000000E+00 0.  1.
        -11    1    4    4    0    0 -0.28700134373E-01 -0.46990154468E-01 -0.51487161338E-01  0.75385417911E-01  0.51100000000E-03 0.  1.
         11    1    4    4    0    0 -0.19188989435E-01 -0.19209528169E-01 -0.46912208868E-01  0.54205532466E-01  0.51100000000E-03 0. -1.
</event>
<event>
 8    1  0.1170483E+005  0.1043930E+01  0.7957747E-01            NaN
         13   -1    0    0    0    0  0.00000000000E+00  0.00000000000E+00  0.74505805969E-08  0.10566000000E+00  0.10566000000E+00 0. -1.
     999900   -1    0    0    0    0 -0.00000000000E+00 -0.00000000000E+00 -0.74505805969E-08  0.93827000000E+00  0.93827000000E+00 0. -1.
     999902    2    1    2    0    0  0.68182741537E-03 -0.21546338520E-02 -0.23343251334E-01  0.10204776074E+01  0.10202080829E+01 0.  0.
     999903    2    3    3    0    0 -0.11738578126E+00  0.52274165790E-01  0.66026346098E-02  0.13042187289E+00  0.21313378286E-01 0.  0.
         14    1    1    2    0    0 -0.68182741537E-03  0.21546338520E-02  0.23343251334E-01  0.23452392596E-01  0.00000000000E+00 0. -1.
     999901    1    3    3    0    0  0.11806760868E+00 -0.54428799642E-01 -0.29945885943E-01  0.89005573451E+00  0.88000000000E+00 0. -1.
        -11    1    4    4    0    0 -0.94144481297E-01  0.45336136264E-01 -0.24658644753E-02  0.10452219964E+00  0.51100000000E-03 0. -1.
         11    1    4    4    0    0 -0.23241299965E-01  0.69380295256E-02  0.90684990851E-02  0.25899673249E-01  0.51100000000E-03 0.  1.
</event>
<event>
 8    1  0.1170483E+005  0.1043930E+01  0.7957747E-01            NaN
         13   -1    0    0    0    0  0.00000000000E+00  0.00000000000E+00  0.74505805969E-08  0.10566000000E+00  0.10566000000E+00 0. -1.
     999900   -1    0    0    0    0 -0.00000000000E+00 -0.00000000000E+00 -0.74505805969E-08  0.93827000000E+00  0.93827000000E+00 0. -1.
     999902    2    1    2    0    0  0.19796082222E-01 -0.46459478074E-02 -0.16502543565E-01  0.10177421470E+01  0.10174051671E+01 0.  0.
     999903    2    3    3    0    0  0.56977199715E-01 -0.43101038589E-01 -0.10847024755E+00  0.13133406483E+00  0.19461273460E-01 0.  0.
         14    1    1    2    0    0 -0.19796082222E-01  0.46459478074E-02  0.16502543565E-01  0.26187853033E-01  0.00000000000E+00 0. -1.
     999901    1    3    3    0    0 -0.37181117493E-01  0.38455090782E-01  0.91967703990E-01  0.88640808214E+00  0.88000000000E+00 0.  1.
        -11    1    4    4    0    0  0.37405771349E-01 -0.17622866510E-01 -0.68951761720E-01  0.80401266903E-01  0.51100000000E-03 0.  1.
         11    1    4    4    0    0  0.19571428366E-01 -0.25478172079E-01 -0.39518485835E-01  0.50932797925E-01  0.51100000000E-03 0. -1.
</event>
<event>
 8    1  0.1170483E+005  0.1043930E+01  0.7957747E-01            NaN
         13   -1    0    0    0    0  0.00000000000E+00  0.00000000000E+00  0.74505805969E-08  0.10566000000E+00  0.10566000000E+00 0.  1.
     999900   -1    0    0    0    0 -0.00000000000E+00 -0.00000000000E+00 -0.74505805969E-08  0.93827000000E+00  0.93827000000E+00 0.  1.
     999902    2    1    2    0    0  0.17620204304E-01  0.52928888543E-02 -0.15942364283E-01  0.10195856937E+01  0.10192950218E+01 0.  0.
     999903    2    3    3    0    0 -0.99870479933E-01 -0.72974241497E-01 -0.27969401510E-01  0.12825272883E+00  0.19160437020E-01 0.  0.
         14    1    1    2    0    0 -0.17620204304E-01 -0.52928888543E-02  0.15942364283E-01  0.24344306338E-01  0.00000000000E+00 0. -1.
     999901    1    3    3    0    0  0.11749068424E+00  0.78267130351E-01  0.12027037228E-01  0.89133296483E+00  0.88000000000E+00 0.  1.
        -11    1    4    4    0    0 -0.15198208600E-01 -0.46433188294E-02  0.37327129687E-04  0.15899951847E-01  0.51100000000E-03 0. -1.
         11    1    4    4    0    0 -0.84672271333E-01 -0.68330922668E-01 -0.28006728640E-01  0.11235277698E+00  0.51100000000E-03 0.  1.
</event>
<event>
 8    1  0.1170483E+005  0.1043930E+01  0.7957747E-01            NaN
         13   -1    0    0    0    0  0.00000000000E+00  0.00000000000E+00  0.74505805969E-08  0.10566000000E+00  0.10566000000E+00 0.  1.
     999900   -1    0    0    0    0 -0.00000000000E+00 -0.00000000000E+00 -0.74505805969E-08  0.93827000000E+00  0.93827000000E+00 0.  1.
     999902    2    1    2    0    0  0.21841147223E-01 -0.80217187260E-02 -0.61993643200E-02  0.10198506354E+01  0.10195663307E+01 0.  0.
     999903    2    3    3    0    0  0.10196119878E+00 -0.75439227524E-01  0.33947791108E-01  0.13273388023E+00  0.19459376492E-01 0.  0.
         14    1    1    2    0    0 -0.21841147223E-01  0.80217187260E-02  0.61993643200E-02  0.24079364637E-01  0.00000000000E+00 0. -1.
     999901    1    3    3    0    0 -0.80120051555E-01  0.67417508798E-01 -0.40147155428E-01  0.88711675514E+00  0.88000000000E+00 0.  1.
        -11    1    4    4    0    0  0.45881759920E-01 -0.44920197416E-01  0.12808493034E-01  0.65477313965E-01  0.51100000000E-03 0.  1.
         11    1    4    4    0    0  0.56079438858E-01 -0.30519030108E-01  0.21139298074E-01  0.67256566263E-01  0.51100000000E-03 0. -1.
</event>
<event>
 8    1  0.1170483E+005  0.1043930E+01  0.7957747E-01            NaN
         13   -1    0    0    0    0  0.00000000000E+00  0.00000000000E+00  0.74505805969E-08  0.10566000000E+00  0.10566000000E+00 0.  1.
     999900   -1    0    0    0    0 -0.00000000000E+00 -0.00000000000E+00 -0.74505805969E-08  0.93827000000E+00  0.93827000000E+00 0. -1.
     999902    2    1    2    0    0 -0.29502423349E-02  0.15970930524E-01  0.17455213712E-01  0.10200876210E+01  0.10198089505E+01 0.  0.
     999903    2    3    3    0    0 -0.66140152893E-01  0.11242485910E+00 -0.89823382359E-02  0.13217136970E+00  0.19357680641E-01 0.  0.
         14    1    1    2    0    0  0.29502423349E-02 -0.15970930524E-01 -0.17455213712E-01  0.23842379021E-01  0.00000000000E+00 0. -1.
     999901    1    3    3    0    0  0.63189910558E-01 -0.96453928575E-01  0.26437551948E-01  0.88791625128E+00  0.88000000000E+00 0.  1.
        -11    1    4    4    0    0 -0.36384662071E-01  0.47665978929E-01  0.23113927262E-02  0.60012439033E-01  0.51100000000E-03 0. -1.
         11    1    4    4    0    0 -0.29755490822E-01  0.64758880170E-01 -0.11293730962E-01  0.72158930667E-01  0.51100000000E-03 0.  1.
</event>
<event>
 8    1  0.1170483E+005  0.1043930E+01  0.7957747E-01            NaN
         13   -1    0    0    0    0  0.00000000000E+00  0.00000000000E+00  0.74505805969E-08  0.10566000000E+00  0.10566000000E+00 0.  1.
     999900   -1    0    0    0    0 -0.00000000000E+00 -0.00000000000E+00 -0.74505805969E-08  0.93827000000E+00  0.93827000000E+00 0. -1.
     999902    2    1    2    0    0 -0.25347672033E-02  0.14105487302E-01  0.19113123363E-01  0.10200406446E+01  0.10197608618E+01 0.  0.
     999903    2    3    3    0    0  0.16467148469E-01 -0.72286172808E-01  0.10630044370E+00  0.13131896681E+00  0.21176141216E-01 0.  0.
         14    1    1    2    0    0  0.25347672033E-02 -0.14105487302E-01 -0.19113123363E-01  0.23889355402E-01  0.00000000000E+00 0. -1.
     999901    1    3    3    0    0 -0.19001915672E-01  0.86391660110E-01 -0.87187320335E-01  0.88872167778E+00  0.88000000000E+00 0. -1.
        -11    1    4    4    0    0  0.43588685641E-02 -0.13987363540E-02  0.11024497398E-01  0.11948090326E-01  0.51100000000E-03 0.  1.
         11    1    4    4    0    0  0.12108279905E-01 -0.70887436454E-01  0.95275946300E-01  0.11937087649E+00  0.51100000000E-03 0. -1.
</event>
<event>
 8    1  0.1170483E+005  0.1043930E+01  0.7957747E-01            NaN
         13   -1    0    0    0    0  0.00000000000E+00  0.00000000000E+00  0.74505805969E-08  0.10566000000E+00  0.10566000000E+00 0.  1.
     999900   -1    0    0    0    0 -0.00000000000E+00 -0.00000000000E+00 -0.74505805969E-08  0.93827000000E+00  0.93827000000E+00 0.  1.
     999902    2    1    2    0    0 -0.14594077961E-01  0.37447776365E-02  0.18228185164E-01  0.10202809576E+01  0.10200068408E+01 0.  0.
     999903    2    3    3    0    0 -0.99767938458E-01 -0.45839626527E-01  0.72494515838E-01  0.13311804457E+00  0.20249594049E-01 0.  0.
         14    1    1    2    0    0  0.14594077961E-01 -0.37447776365E-02 -0.18228185164E-01  0.23649042380E-01  0.00000000000E+00 0. -1.
     999901    1    3    3    0    0  0.85173860497E-01  0.49584404163E-01 -0.54266330674E-01  0.88716291305E+00  0.88000000000E+00 0.  1.
        -11    1    4    4    0    0 -0.27962746018E-01 -0.48803117754E-02  0.12751449787E-01  0.31122230006E-01  0.51100000000E-03 0.  1.
         11    1    4    4    0    0 -0.71805192440E-01 -0.40959314751E-01  0.59743066051E-01  0.10199581456E+00  0.51100000000E-03 0. -1.
</event>
<event>
 8    1  0.1170483E+005  0.1043930E+01  0.7957747E-01            NaN
         13   -1    0    0    0    0  0.00000000000E+00  0.00000000000E+00  0.74505805969E-08  0.10566000000E+00  0.10566000000E+00 0.  1.
     999900   -1    0    0    0    0 -0.00000000000E+00 -0.00000000000E+00 -0.74505805969E-08  0.93827000000E+00  0.93827000000E+00 0.  1.
     999902    2    1    2    0    0  0.16316078375E-01 -0.13586362986E-01  0.93988552786E-02  0.10207105652E+01  0.10204464296E+01 0.  0.
     999903    2    3    3    0    0 -0.12642098233E-01 -0.11167266540E+00  0.67963583163E-01  0.13285397425E+00  0.20013070490E-01 0.  0.
         14    1    1    2    0    0 -0.16316078375E-01  0.13586362986E-01 -0.93988552786E-02  0.23219434819E-01  0.00000000000E+00 0. -1.
     999901    1    3    3    0    0  0.28958176609E-01  0.98086302418E-01 -0.58564727885E-01  0.88785659094E+00  0.88000000000E+00 0.  1.
        -11    1    4    4    0    0 -0.75935981504E-02 -0.54572442662E-01  0.21817053251E-01  0.59262628735E-01  0.51100000000E-03 0. -1.
         11    1    4    4    0    0 -0.50485000829E-02 -0.57100222742E-01  0.46146529912E-01  0.73591345511E-01  0.51100000000E-03 0.  1.
</event>
<event>
 8    1  0.1170483E+005  0.1043930E+01  0.7957747E-01            NaN
         13   -1    0    0    0    0  0.00000000000E+00  0.00000000000E+00  0.74505805969E-08  0.10566000000E+00  0.10566000000E+00 0. -1.
     999900   -1    0    0    0    0 -0.00000000000E+00 -0.00000000000E+00 -0.74505805969E-08  0.93827000000E+00  0.93827000000E+00 0. -1.
     999902    2    1    2    0    0 -0.19002818312E-01  0.41533924353E-02  0.14524748348E-01  0.10196539606E+01  0.10193649363E+01 0.  0.
     999903    2    3    3    0    0  0.64586354051E-01  0.10968192827E+00  0.14196122446E-01  0.12941605445E+00  0.18586627940E-01 0.  0.
         14    1    1    2    0    0  0.19002818312E-01 -0.41533924353E-02 -0.14524748348E-01  0.24276039362E-01  0.00000000000E+00 0.  1.
     999901    1    3    3    0    0 -0.83589172363E-01 -0.10552853584E+00  0.32862590271E-03  0.89023790618E+00  0.88000000000E+00 0.  1.
        -11    1    4    4    0    0  0.33625307826E-01  0.68745415193E-01  0.15440520777E-01  0.78072173271E-01  0.51100000000E-03 0. -1.
         11    1    4    4    0    0  0.30961046225E-01  0.40936513082E-01 -0.12443983316E-02  0.51343881183E-01  0.51100000000E-03 0.  1.
</event>
<event>
 8    1  0.1170483E+005  0.1043930E+01  0.7957747E-01            NaN
         13   -1    0    0    0    0  0.00000000000E+00  0.00000000000E+00  0.74505805969E-08  0.10566000000E+00  0.10566000000E+00 0.  1.
     999900   -1    0    0    0    0 -0.00000000000E+00 -0.00000000000E+00 -0.74505805969E-08  0.93827000000E+00  0.93827000000E+00 0. -1.
     999902    2    1    2    0    0 -0.94212502405E-02 -0.21423955508E-01 -0.64119002857E-02  0.10196635975E+01  0.10193748053E+01 0.  0.
     999903    2    3    3    0    0  0.11369601801E-01 -0.12987594177E+00  0.11053504419E-01  0.13259024471E+00  0.21470093969E-01 0.  0.
         14    1    1    2    0    0  0.94212502405E-02  0.21423955508E-01  0.64119002857E-02  0.24266402514E-01  0.00000000000E+00 0. -1.
     999901    1    3    3    0    0 -0.20790852042E-01  0.10845198626E+00 -0.17465404705E-01  0.88707335278E+00  0.88000000000E+00 0. -1.
        -11    1    4    4    0    0  0.48915086584E-02 -0.58037810162E-01  0.15652573559E-01  0.60312340739E-01  0.51100000000E-03 0.  1.
         11    1    4    4    0    0  0.64780931431E-02 -0.71838131609E-01 -0.45990691401E-02  0.72277903967E-01  0.51100000000E-03 0. -1.
</event>
<event>
 8    1  0.1170483E+005  0.1043930E+01  0.7957747E-01            NaN
         13   -1    0    0    0    0  0.00000000000E+00  0.00000000000E+00  0.74505805969E-08  0.10566000000E+00  0.10566000000E+00 0.  1.
     999900   -1    0    0    0    0 -0.00000000000E+00 -0.00000000000E+00 -0.74505805969E-08  0.93827000000E+00  0.93827000000E+00 0. -1.
     999902    2    1    2    0    0 -0.18657736978E-01 -0.88029269341E-02  0.11600750859E-01  0.10202618760E+01  0.10199873115E+01 0.  0.
     999903    2    3    3    0    0  0.11871951213E+00  0.29853703176E-01 -0.30963703179E-01  0.12774936835E+00  0.19379990823E-01 0.  0.
         14    1    1    2    0    0  0.18657736978E-01  0.88029269341E-02 -0.11600750859E-01  0.23668123970E-01  0.00000000000E+00 0. -1.
     999901    1    3    3    0    0 -0.13737724911E+00 -0.38656630110E-01  0.42564454038E-01  0.89251250768E+00  0.88000000000E+00 0. -1.
        -11    1    4    4    0    0  0.69124247185E-01  0.26867416315E-01 -0.20903122991E-01  0.77053366443E-01  0.51100000000E-03 0.  1.
         11    1    4    4    0    0  0.49595264947E-01  0.29862868610E-02 -0.10060580188E-01  0.50696001904E-01  0.51100000000E-03 0. -1.
</event>
<event>
 8    1  0.1170483E+005  0.1043930E+01  0.7957747E-01            NaN
         13   -1    0    0    0    0  0.00000000000E+00  0.00000000000E+00  0.74505805969E-08  0.10566000000E+00  0.10566000000E+00 0. -1.
     999900   -1    0    0    0    0 -0.00000000000E+00 -0.00000000000E+00 -0.74505805969E-08  0.93827000000E+00  0.93827000000E+00 0.  1.
     999902    2    1    2    0    0  0.16094302402E-01  0.53947106202E-02 -0.16671716626E-01  0.10201376565E+01  0.10198601682E+01 0.  0.
     999903    2    3    3    0    0 -0.22265372000E-01  0.12654367621E+00 -0.16077230963E-01  0.13100949372E+00  0.19898776608E-01 0.  0.
         14    1    1    2    0    0 -0.16094302402E-01 -0.53947106202E-02  0.16671716626E-01  0.23792343468E-01  0.00000000000E+00 0. -1.
     999901    1    3    3    0    0  0.38359674402E-01 -0.12114896559E+00 -0.59448566269E-03  0.88912816281E+00  0.88000000000E+00 0.  1.
        -11    1    4    4    0    0 -0.16897897685E-01  0.63207066983E-01  0.54165479235E-04  0.65428864560E-01  0.51100000000E-03 0. -1.
         11    1    4    4    0    0 -0.53674743152E-02  0.63336609230E-01 -0.16131396442E-01  0.65580629164E-01  0.51100000000E-03 0.  1.
</event>
<event>
 8    1  0.1170483E+005  0.1043930E+01  0.7957747E-01            NaN
         13   -1    0    0    0    0  0.00000000000E+00  0.00000000000E+00  0.74505805969E-08  0.10566000000E+00  0.10566000000E+00 0. -1.
     999900   -1    0    0    0    0 -0.00000000000E+00 -0.00000000000E+00 -0.74505805969E-08  0.93827000000E+00  0.93827000000E+00 0.  1.
     999902    2    1    2    0    0  0.17984225230E-01 -0.87184248168E-03  0.18538936897E-01  0.10180865357E+01  0.10177584731E+01 0.  0.
     999903    2    3    3    0    0 -0.31457329169E-01 -0.12206144083E+00 -0.89982208848E-02  0.12797997964E+00  0.20232358113E-01 0.  0.
         14    1    1    2    0    0 -0.17984225230E-01  0.87184248168E-03 -0.18538936897E-01  0.25843464314E-01  0.00000000000E+00 0.  1.
     999901    1    3    3    0    0  0.49441554399E-01  0.12118959835E+00  0.27537157782E-01  0.89010655604E+00  0.88000000000E+00 0.  1.
        -11    1    4    4    0    0 -0.18811110820E-01 -0.85393445332E-01 -0.15024875587E-01  0.88723764592E-01  0.51100000000E-03 0.  1.
         11    1    4    4    0    0 -0.12646218349E-01 -0.36667995498E-01  0.60266547019E-02  0.39256215053E-01  0.51100000000E-03 0. -1.
</event>
<event>
 8    1  0.1170483E+005  0.1043930E+01  0.7957747E-01            NaN
         13   -1    0    0    0    0  0.00000000000E+00  0.00000000000E+00  0.74505805969E-08  0.10566000000E+00  0.10566000000E+00 0. -1.
     999900   -1    0    0    0    0 -0.00000000000E+00 -0.00000000000E+00 -0.74505805969E-08  0.93827000000E+00  0.93827000000E+00 0. -1.
     999902    2    1    2    0    0  0.20577517161E-02 -0.15992980682E-01 -0.16888093953E-01  0.10205801073E+01  0.10203129607E+01 0.  0.
     999903    2    3    3    0    0 -0.13195591900E-01  0.58111598094E-01  0.11169039766E+00  0.12802390086E+00  0.19086455534E-01 0.  0.
         14    1    1    2    0    0 -0.20577517161E-02  0.15992980682E-01  0.16888093953E-01  0.23349892732E-01  0.00000000000E+00 0. -1.
     999901    1    3    3    0    0  0.15253343616E-01 -0.74104578776E-01 -0.12857849161E+00  0.89255620640E+00  0.88000000000E+00 0. -1.
        -11    1    4    4    0    0 -0.10818873801E-02 -0.99030918915E-03  0.72051967073E-02  0.73706969266E-02  0.51100000000E-03 0.  1.
         11    1    4    4    0    0 -0.12113704520E-01  0.59101907283E-01  0.10448520095E+00  0.12065320394E+00  0.51100000000E-03 0. -1.
</event>
<event>
 8    1  0.1170483E+005  0.1043930E+01  0.7957747E-01            NaN
         13   -1    0    0    0    0  0.00000000000E+00  0.00000000000E+00  0.74505805969E-08  0.10566000000E+00  0.10566000000E+00 0. -1.
     999900   -1    0    0    0    0 -0.00000000000E+00 -0.00000000000E+00 -0.74505805969E-08  0.93827000000E+00  0.93827000000E+00 0. -1.
     999902    2    1    2    0    0 -0.14527605035E-01 -0.86432936508E-02  0.16462868782E-01  0.10203337316E+01  0.10200608511E+01 0.  0.
     999903    2    3    3    0    0 -0.41195052754E-01 -0.34256182563E-01 -0.11645691562E+00  0.12958413609E+00  0.18955651262E-01 0.  0.
         14    1    1    2    0    0  0.14527605035E-01  0.86432936508E-02 -0.16462868782E-01  0.23596268385E-01  0.00000000000E+00 0.  1.
     999901    1    3    3    0    0  0.26667447719E-01  0.25612888912E-01  0.13291978440E+00  0.89074959553E+00  0.88000000000E+00 0.  1.
        -11    1    4    4    0    0 -0.32360201535E-01 -0.15485195501E-01 -0.78920284306E-01  0.86692827379E-01  0.51100000000E-03 0. -1.
         11    1    4    4    0    0 -0.88348512189E-02 -0.18770987062E-01 -0.37536631314E-01  0.42891308708E-01  0.51100000000E-03 0.  1.
</event>
<event>
 8    1  0.1170483E+005  0.1043930E+01  0.7957747E-01            NaN
         13   -1    0    0    0    0  0.00000000000E+00  0.00000000000E+00  0.74505805969E-08  0.10566000000E+00  0.10566000000E+00 0.  1.
     999900   -1    0    0    0    0 -0.00000000000E+00 -0.00000000000E+00 -0.74505805969E-08  0.93827000000E+00  0.93827000000E+00 0. -1.
     999902    2    1    2    0    0 -0.17316075071E-01 -0.14275371750E-01 -0.76572448265E-02  0.10202178493E+01  0.10199422503E+01 0.  0.
     999903    2    3    3    0    0  0.47930844496E-01  0.10684049937E+00  0.47943766731E-01  0.12779547883E+00  0.17911490194E-01 0.  0.
         14    1    1    2    0    0  0.17316075071E-01  0.14275371750E-01  0.76572448265E-02  0.23712150742E-01  0.00000000000E+00 0. -1.
     999901    1    3    3    0    0 -0.65246919567E-01 -0.12111587112E+00 -0.55601011557E-01  0.89242237043E+00  0.88000000000E+00 0. -1.
        -11    1    4    4    0    0  0.82941180633E-02  0.17445284104E-01  0.15475724401E-01  0.24756605152E-01  0.51100000000E-03 0. -1.
         11    1    4    4    0    0  0.39636726433E-01  0.89395215270E-01  0.32468042329E-01  0.10303887368E+00  0.51100000000E-03 0.  1.
</event>
<event>
 8    1  0.1170483E+005  0.1043930E+01  0.7957747E-01            NaN
         13   -1    0    0    0    0  0.00000000000E+00  0.00000000000E+00  0.74505805969E-08  0.10566000000E+00  0.10566000000E+00 0. -1.
     999900   -1    0    0    0    0 -0.00000000000E+00 -0.00000000000E+00 -0.74505805969E-08  0.93827000000E+00  0.93827000000E+00 0. -1.
     999902    2    1    2    0    0  0.20806562632E-01  0.69893637356E-02  0.89244122703E-02  0.10202359208E+01  0.10199607467E+01 0.  0.
     999903    2    3    3    0    0  0.34426880826E-01  0.12414613897E+00  0.23050720402E-01  0.13225462843E+00  0.19038830955E-01 0.  0.
         14    1    1    2    0    0 -0.20806562632E-01 -0.69893637356E-02 -0.89244122703E-02  0.23694079184E-01  0.00000000000E+00 0.  1.
     999901    1    3    3    0    0 -0.13620318194E-01 -0.11715677524E+00 -0.14126308131E-01  0.88798129239E+00  0.88000000000E+00 0. -1.
        -11    1    4    4    0    0  0.32979749644E-01  0.95906544759E-01  0.22899469708E-01  0.10397295825E+00  0.51100000000E-03 0.  1.
         11    1    4    4    0    0  0.14471311823E-02  0.28239594214E-01  0.15125069363E-03  0.28281670173E-01  0.51100000000E-03 0. -1.
</event>
<event>
 8    1  0.1170483E+005  0.1043930E+01  0.7957747E-01            NaN
         13   -1    0    0    0    0  0.00000000000E+00  0.00000000000E+00  0.74505805969E-08  0.10566000000E+00  0.10566000000E+00 0.  1.
     999900   -1    0    0    0    0 -0.00000000000E+00 -0.00000000000E+00 -0.74505805969E-08  0.93827000000E+00  0.93827000000E+00 0. -1.
     999902    2    1    2    0    0 -0.14973571428E-01 -0.15131817903E-01 -0.94844710921E-02  0.10206247442E+01  0.10203586299E+01 0.  0.
     999903    2    3    3    0    0  0.71508473883E-01 -0.10486597005E+00  0.26408002873E-01  0.13111947055E+00  0.19611206730E-01 0.  0.
         14    1    1    2    0    0  0.14973571428E-01  0.15131817903E-01  0.94844710921E-02  0.23305255765E-01  0.00000000000E+00 0.  1.
     999901    1    3    3    0    0 -0.86482045311E-01  0.89734152151E-01 -0.35892473966E-01  0.88950527368E+00  0.88000000000E+00 0. -1.
        -11    1    4    4    0    0  0.21768324153E-01 -0.28528995800E-01  0.16397678144E-01  0.39457679953E-01  0.51100000000E-03 0. -1.
         11    1    4    4    0    0  0.49740149730E-01 -0.76336974254E-01  0.10010324730E-01  0.91661790598E-01  0.51100000000E-03 0.  1.
</event>
<event>
 8    1  0.1170483E+005  0.1043930E+01  0.7957747E-01            NaN
         13   -1    0    0    0    0  0.00000000000E+00  0.00000000000E+00  0.74505805969E-08  0.10566000000E+00  0.10566000000E+00 0. -1.
     999900   -1    0    0    0    0 -0.00000000000E+00 -0.00000000000E+00 -0.74505805969E-08  0.93827000000E+00  0.93827000000E+00 0. -1.
     999902    2    1    2    0    0  0.16597536822E-01  0.14819937105E-01  0.75497056941E-02  0.10204330466E+01  0.10201624850E+01 0.  0.
     999903    2    3    3    0    0 -0.55902631239E-01  0.11558159843E+00  0.26656840871E-01  0.13151557606E+00  0.10077177461E-01 0.  0.
         14    1    1    2    0    0 -0.16597536822E-01 -0.14819937105E-01 -0.75497056941E-02  0.23496953428E-01  0.00000000000E+00 0.  1.
     999901    1    3    3    0    0  0.72500168061E-01 -0.10076166133E+00 -0.19107135177E-01  0.88891747051E+00  0.88000000000E+00 0. -1.
        -11    1    4    4    0    0 -0.80820990272E-02  0.25871872882E-01  0.64407538901E-02  0.27864288306E-01  0.51100000000E-03 0. -1.
         11    1    4    4    0    0 -0.47820532212E-01  0.89709725552E-01  0.20216086981E-01  0.10365128776E+00  0.51100000000E-03 0.  1.
</event>
<event>
 8    1  0.1170483E+005  0.1043930E+01  0.7957747E-01            NaN
         13   -1    0    0    0    0  0.00000000000E+00  0.00000000000E+00  0.74505805969E-08  0.10566000000E+00  0.10566000000E+00 0. -1.
     999900   -1    0    0    0    0 -0.00000000000E+00 -0.00000000000E+00 -0.74505805969E-08  0.93827000000E+00  0.93827000000E+00 0.  1.
     999902    2    1    2    0    0  0.20724042248E-02 -0.22919935161E-01  0.62884681587E-02  0.10200728602E+01  0.10197938405E+01 0.  0.
     999903    2    3    3    0    0 -0.69443330902E-01 -0.10454767906E+00  0.38614831092E-01  0.13281721347E+00  0.19917670784E-01 0.  0.
         14    1    1    2    0    0 -0.20724042248E-02  0.22919935161E-01 -0.62884681587E-02  0.23857139787E-01  0.00000000000E+00 0. -1.
     999901    1    3    3    0    0  0.71515735126E-01  0.81627743897E-01 -0.32326362933E-01  0.88725564675E+00  0.88000000000E+00 0.  1.
        -11    1    4    4    0    0 -0.29197008731E-01 -0.51165776685E-01  0.86133153748E-02  0.59538662610E-01  0.51100000000E-03 0. -1.
         11    1    4    4    0    0 -0.40246322171E-01 -0.53381902372E-01  0.30001515717E-01  0.73278550856E-01  0.51100000000E-03 0.  1.
</event>
<event>
 8    1  0.1170483E+005  0.1043930E+01  0.7957747E-01            NaN
         13   -1    0    0    0    0  0.00000000000E+00  0.00000000000E+00  0.74505805969E-08  0.10566000000E+00  0.10566000000E+00 0.  1.
     999900   -1    0    0    0    0 -0.00000000000E+00 -0.00000000000E+00 -0.74505805969E-08  0.93827000000E+00  0.93827000000E+00 0. -1.
     999902    2    1    2    0    0  0.28471831287E-02  0.18250631163E-01  0.14399687907E-01  0.10205090051E+01  0.10202402102E+01 0.  0.
     999903    2    3    3    0    0  0.12868556581E+00  0.17708435824E-01  0.44256557434E-02  0.13150108960E+00  0.19984658872E-01 0.  0.
         14    1    1    2    0    0 -0.28471831287E-02 -0.18250631163E-01 -0.14399687907E-01  0.23420994886E-01  0.00000000000E+00 0. -1.
     999901    1    3    3    0    0 -0.12583838268E+00  0.54219533912E-03  0.99740321635E-02  0.88900791552E+00  0.88000000000E+00 0. -1.
        -11    1    4    4    0    0  0.61871576720E-01  0.16385443795E-02 -0.51799736827E-02  0.62111754780E-01  0.51100000000E-03 0. -1.
         11    1    4    4    0    0  0.66813989088E-01  0.16069891445E-01  0.96056294261E-02  0.69389334819E-01  0.51100000000E-03 0.  1.
</event>
<event>
 7    1  0.1170483E+005  0.1043930E+01  0.7957747E-01            NaN
         13   -1    0    0    0    0  0.00000000000E+00  0.00000000000E+00  0.74505805969E-08  0.10566000000E+00  0.10566000000E+00 0.  1.
     999900   -1    0    0    0    0 -0.00000000000E+00 -0.00000000000E+00 -0.74505805969E-08  0.93827000000E+00  0.93827000000E+00 0.  1.
     999902    2    1    2    0    0 -0.87945861869E-02 -0.18827931627E-01  0.12941783286E-01  0.10194488744E+01  0.10191548862E+01 0.  0.
         14    1    1    2    0    0  0.87945861869E-02  0.18827931627E-01 -0.12941783286E-01  0.24481125591E-01  0.00000000000E+00 0.  1.
     999901    1    3    3    0    0  0.95667411311E-01  0.46614176439E-02 -0.42698704834E-01  0.88622636036E+00  0.88000000000E+00 0.  1.
        -11    1    3    3    0    0 -0.64079298730E-02  0.13483923617E-01  0.83268003147E-03  0.14961023976E-01  0.51100000000E-03 0. -1.
         11    1    3    3    0    0 -0.98054067625E-01 -0.36973272889E-01  0.54807808089E-01  0.11826149007E+00  0.51100000000E-03 0.  1.
</event>
<event>
 8    1  0.1170483E+005  0.1043930E+01  0.7957747E-01            NaN
         13   -1    0    0    0    0  0.00000000000E+00  0.00000000000E+00  0.74505805969E-08  0.10566000000E+00  0.10566000000E+00 0.  1.
     999900   -1    0    0    0    0 -0.00000000000E+00 -0.00000000000E+00 -0.74505805969E-08  0.93827000000E+00  0.93827000000E+00 0. -1.
     999902    2    1    2    0    0 -0.21039037096E-01  0.25218181139E-02  0.13647385392E-01  0.10187257984E+01  0.10184139633E+01 0.  0.
     999903    2    3    3    0    0  0.98718713962E-01  0.65097766316E-01  0.44302687470E-01  0.12788495082E+00  0.20217043888E-01 0.  0.
         14    1    1    2    0    0  0.21039037096E-01 -0.25218181139E-02 -0.13647385392E-01  0.25204201566E-01  0.00000000000E+00 0.  1.
     999901    1    3    3    0    0 -0.11975775106E+00 -0.62575948202E-01 -0.30655302077E-01  0.89084084761E+00  0.88000000000E+00 0. -1.
        -11    1    4    4    0    0  0.79803582274E-02  0.64701524057E-02  0.10473763960E-01  0.14680253475E-01  0.51100000000E-03 0. -1.
         11    1    4    4    0    0  0.90738355734E-01  0.58627613911E-01  0.33828923510E-01  0.11320469735E+00  0.51100000000E-03 0.  1.
</event>
<event>
 8    1  0.1170483E+005  0.1043930E+01  0.7957747E-01            NaN
         13   -1    0    0    0    0  0.00000000000E+00  0.00000000000E+00  0.74505805969E-08  0.10566000000E+00  0.10566000000E+00 0. -1.
     999900   -1    0    0    0    0 -0.00000000000E+00 -0.00000000000E+00 -0.74505805969E-08  0.93827000000E+00  0.93827000000E+00 0.  1.
     999902    2    1    2    0    0 -0.37817336517E-02  0.22450034608E-01  0.74325912653E-02  0.10199811174E+01  0.10196999220E+01 0.  0.
     999903    2    3    3    0    0 -0.11509814620E+00 -0.22970461076E-01 -0.52268821806E-01  0.12980213327E+00  0.18475354590E-01 0.  0.
         14    1    1    2    0    0  0.37817336517E-02 -0.22450034608E-01 -0.74325912653E-02  0.23948882568E-01  0.00000000000E+00 0.  1.
     999901    1    3    3    0    0  0.11131641254E+00  0.45420495684E-01  0.59701413071E-01  0.89017898417E+00  0.88000000000E+00 0. -1.
        -11    1    4    4    0    0 -0.56150051409E-01 -0.20560987344E-01 -0.27350221510E-01  0.65756202836E-01  0.51100000000E-03 0.  1.
         11    1    4    4    0    0 -0.58948094788E-01 -0.24094737313E-02 -0.24918600296E-01  0.64045930429E-01  0.51100000000E-03 0. -1.
</event>
<event>
 8    1  0.1170483E+005  0.1043930E+01  0.7957747E-01            NaN
         13   -1    0    0    0    0  0.00000000000E+00  0.00000000000E+00  0.74505805969E-08  0.10566000000E+00  0.10566000000E+00 0.  1.
     999900   -1    0    0    0    0 -0.00000000000E+00 -0.00000000000E+00 -0.74505805969E-08  0.93827000000E+00  0.93827000000E+00 0. -1.
     999902    2    1    2    0    0 -0.58173275868E-02  0.21724862708E-01 -0.81064167463E-02  0.10200234119E+01  0.10197432206E+01 0.  0.
     999903    2    3    3    0    0 -0.20250856865E-01 -0.27222353961E-01 -0.12422578199E+00  0.13092956776E+00  0.23650645714E-01 0.  0.
         14    1    1    2    0    0  0.58173275868E-02 -0.21724862708E-01  0.81064167463E-02  0.23906588054E-01  0.00000000000E+00 0.  1.
     999901    1    3    3    0    0  0.14433529279E-01  0.48947216669E-01  0.11611936525E+00  0.88909384419E+00  0.88000000000E+00 0.  1.
        -11    1    4    4    0    0  0.12205912016E-02 -0.17705237596E-01 -0.58287349954E-01  0.60931449736E-01  0.51100000000E-03 0. -1.
         11    1    4    4    0    0 -0.21471448067E-01 -0.95171163659E-02 -0.65938432038E-01  0.69998118022E-01  0.51100000000E-03 0.  1.
</event>
<event>
 8    1  0.1170483E+005  0.1043930E+01  0.7957747E-01            NaN
         13   -1    0    0    0    0  0.00000000000E+00  0.00000000000E+00  0.74505805969E-08  0.10566000000E+00  0.10566000000E+00 0. -1.
     999900   -1    0    0    0    0 -0.00000000000E+00 -0.00000000000E+00 -0.74505805969E-08  0.93827000000E+00  0.93827000000E+00 0. -1.
     999902    2    1    2    0    0  0.10753680836E-01  0.56886456310E-02 -0.20725216672E-01  0.10198980016E+01  0.10196148276E+01 0.  0.
     999903    2    3    3    0    0  0.47331007758E-01 -0.11913416664E+00  0.60411038899E-02  0.12993447920E+00  0.20329780904E-01 0.  0.
         14    1    1    2    0    0 -0.10753680836E-01 -0.56886456310E-02  0.20725216672E-01  0.24031998392E-01  0.00000000000E+00 0. -1.
     999901    1    3    3    0    0 -0.36577326922E-01  0.12482281227E+00 -0.26766320561E-01  0.88996352241E+00  0.88000000000E+00 0.  1.
        -11    1    4    4    0    0  0.74668495000E-03 -0.52753146230E-02 -0.37331901264E-02  0.65256656599E-02  0.51100000000E-03 0. -1.
         11    1    4    4    0    0  0.46584322808E-01 -0.11385885202E+00  0.97742940162E-02  0.12340881354E+00  0.51100000000E-03 0. -1.
</event>
<event>
 8    1  0.1170483E+005  0.1043930E+01  0.7957747E-01            NaN
         13   -1    0    0    0    0  0.00000000000E+00  0.00000000000E+00  0.74505805969E-08  0.10566000000E+00  0.10566000000E+00 0. -1.
     999900   -1    0    0    0    0 -0.00000000000E+00 -0.00000000000E+00 -0.74505805969E-08  0.93827000000E+00  0.93827000000E+00 0.  1.
     999902    2    1    2    0    0 -0.82609318262E-02 -0.63211709284E-02 -0.21007617582E-01  0.10204881530E+01  0.10202188736E+01 0.  0.
     999903    2    3    3    0    0 -0.37229961847E-01 -0.23444663433E-01 -0.12450989152E+00  0.13378350122E+00  0.21438045846E-01 0.  0.
         14    1    1    2    0    0  0.82609318262E-02  0.63211709284E-02  0.21007617582E-01  0.23441847048E-01  0.00000000000E+00 0. -1.
     999901    1    3    3    0    0  0.28969030021E-01  0.17123492505E-01  0.10350227394E+00  0.88670465173E+00  0.88000000000E+00 0. -1.
        -11    1    4    4    0    0 -0.18939934470E-01 -0.10860108851E-02 -0.36280940355E-01  0.40944697965E-01  0.51100000000E-03 0.  1.
         11    1    4    4    0    0 -0.18290027377E-01 -0.22358652548E-01 -0.88228951163E-01  0.92838803254E-01  0.51100000000E-03 0. -1.
</event>
<event>
 8    1  0.1170483E+005  0.1043930E+01  0.7957747E-01            NaN
         13   -1    0    0    0    0  0.00000000000E+00  0.00000000000E+00  0.74505805969E-08  0.10566000000E+00  0.10566000000E+00 0. -1.
     999900   -1    0    0    0    0 -0.00000000000E+00 -0.00000000000E+00 -0.74505805969E-08  0.93827000000E+00  0.93827000000E+00 0. -1.
     999902    2    1    2    0    0 -0.10797472680E-01 -0.12894941051E-01 -0.17439787097E-01  0.10197016882E+01  0.10194138128E+01 0.  0.
     999903    2    3    3    0    0 -0.72128945971E-01 -0.10692723226E+00 -0.23050238396E-01  0.13255170164E+00  0.20065449720E-01 0.  0.
         14    1    1    2    0    0  0.10797472680E-01  0.12894941051E-01  0.17439787097E-01  0.24228311847E-01  0.00000000000E+00 0. -1.
     999901    1    3    3    0    0  0.61331473291E-01  0.94032291206E-01  0.56104512992E-02  0.88714998651E+00  0.88000000000E+00 0. -1.
        -11    1    4    4    0    0 -0.43370179260E-01 -0.77815404971E-01 -0.10264340513E-01  0.89676237137E-01  0.51100000000E-03 0. -1.
         11    1    4    4    0    0 -0.28758766711E-01 -0.29111827286E-01 -0.12785897883E-01  0.42875464503E-01  0.51100000000E-03 0.  1.
</event>
<event>
 8    1  0.1170483E+005  0.1043930E+01  0.7957747E-01            NaN
         13   -1    0    0    0    0  0.00000000000E+00  0.00000000000E+00  0.74505805969E-08  0.10566000000E+00  0.10566000000E+00 0.  1.
     999900   -1    0    0    0    0 -0.00000000000E+00 -0.00000000000E+00 -0.74505805969E-08  0.93827000000E+00  0.93827000000E+00 0.  1.
     999902    2    1    2    0    0  0.19946800387E-01  0.16509691824E-01 -0.15210574679E-02  0.10179924137E+01  0.10176619261E+01 0.  0.
     999903    2    3    3    0    0 -0.58844087464E-01 -0.10559921657E+00  0.26581355345E-01  0.12563131235E+00  0.21513647302E-01 0.  0.
         14    1    1    2    0    0 -0.19946800387E-01 -0.16509691824E-01  0.15210574679E-02  0.25937586349E-01  0.00000000000E+00 0.  1.
     999901    1    3    3    0    0  0.78790887851E-01  0.12210890839E+00 -0.28102412813E-01  0.89236110131E+00  0.88000000000E+00 0.  1.
        -11    1    4    4    0    0 -0.29270186209E-01 -0.32082641257E-01  0.11981077307E-01  0.45053823425E-01  0.51100000000E-03 0. -1.
         11    1    4    4    0    0 -0.29573901255E-01 -0.73516575312E-01  0.14600278038E-01  0.80577488921E-01  0.51100000000E-03 0.  1.
</event>
<event>
 8    1  0.1170483E+005  0.1043930E+01  0.7957747E-01            NaN
         13   -1    0    0    0    0  0.00000000000E+00  0.00000000000E+00  0.74505805969E-08  0.10566000000E+00  0.10566000000E+00 0. -1.
     999900   -1    0    0    0    0 -0.00000000000E+00 -0.00000000000E+00 -0.74505805969E-08  0.93827000000E+00  0.93827000000E+00 0. -1.
     999902    2    1    2    0    0 -0.93735893839E-02  0.11911051138E-03  0.22693109992E-01  0.10193768819E+01  0.10190811409E+01 0.  0.
     999903    2    3    3    0    0  0.38192871043E-01 -0.10570441504E+00 -0.58314275849E-01  0.12807256619E+00  0.19233010315E-01 0.  0.
         14    1    1    2    0    0  0.93735893839E-02 -0.11911051138E-03 -0.22693109992E-01  0.24553118058E-01  0.00000000000E+00 0.  1.
     999901    1    3    3    0    0 -0.47566460427E-01  0.10582352555E+00  0.81007385841E-01  0.89130431575E+00  0.88000000000E+00 0.  1.
        -11    1    4    4    0    0  0.21845313669E-01 -0.34464634060E-01 -0.18032229045E-01  0.44614472265E-01  0.51100000000E-03 0. -1.
         11    1    4    4    0    0  0.16347557374E-01 -0.71239780978E-01 -0.40282046804E-01  0.83458093925E-01  0.51100000000E-03 0.  1.
</event>
<event>
 8    1  0.1170483E+005  0.1043930E+01  0.7957747E-01            NaN
         13   -1    0    0    0    0  0.00000000000E+00  0.00000000000E+00  0.74505805969E-08  0.10566000000E+00  0.10566000000E+00 0.  1.
     999900   -1    0    0    0    0 -0.00000000000E+00 -0.00000000000E+00 -0.74505805969E-08  0.93827000000E+00  0.93827000000E+00 0. -1.
     999902    2    1    2    0    0 -0.12076518202E-01 -0.69099166194E-02  0.18956731290E-01  0.10204151770E+01  0.10201441989E+01 0.  0.
     999903    2    3    3    0    0  0.45060774289E-01  0.11789498781E+00 -0.18404897156E-01  0.12899113332E+00  0.19242419436E-01 0.  0.
         14    1    1    2    0    0  0.12076518202E-01  0.69099166194E-02 -0.18956731290E-01  0.23514823001E-01  0.00000000000E+00 0. -1.
     999901    1    3    3    0    0 -0.57137292491E-01 -0.12480490443E+00  0.37361628446E-01  0.89142404368E+00  0.88000000000E+00 0.  1.
        -11    1    4    4    0    0  0.96950762876E-02  0.37615354289E-01 -0.13505329006E-01  0.41128632546E-01  0.51100000000E-03 0.  1.
         11    1    4    4    0    0  0.35365698002E-01  0.80279633523E-01 -0.48995681503E-02  0.87862500777E-01  0.51100000000E-03 0. -1.
</event>
<event>
 8    1  0.1170483E+005  0.1043930E+01  0.7957747E-01            NaN
         13   -1    0    0    0    0  0.00000000000E+00  0.00000000000E+00  0.74505805969E-08  0.10566000000E+00  0.10566000000E+00 0. -1.
     999900   -1    0    0    0    0 -0.00000000000E+00 -0.00000000000E+00 -0.74505805969E-08  0.93827000000E+00  0.93827000000E+00 0. -1.
     999902    2    1    2    0    0  0.13368799780E-01  0.22117720822E-01  0.67016686013E-02  0.10172311097E+01  0.10168806714E+01 0.  0.
     999903    2    3    3    0    0  0.67587603588E-01  0.40346691489E-01 -0.10005224257E+00  0.12893590447E+00  0.20446920212E-01 0.  0.
         14    1    1    2    0    0 -0.13368799780E-01 -0.22117720822E-01 -0.67016686013E-02  0.26698890313E-01  0.00000000000E+00 0.  1.
     999901    1    3    3    0    0 -0.54218803808E-01 -0.18228970667E-01  0.10675391117E+00  0.88829520521E+00  0.88000000000E+00 0.  1.
        -11    1    4    4    0    0  0.22019575029E-01  0.13973795752E-01 -0.49459570143E-01  0.55916355853E-01  0.51100000000E-03 0. -1.
         11    1    4    4    0    0  0.45568028560E-01  0.26372895737E-01 -0.50592672425E-01  0.73019548619E-01  0.51100000000E-03 0.  1.
</event>
<event>
 7    1  0.1170483E+005  0.1043930E+01  0.7957747E-01            NaN
         13   -1    0    0    0    0  0.00000000000E+00  0.00000000000E+00  0.74505805969E-08  0.10566000000E+00  0.10566000000E+00 0. -1.
     999900   -1    0    0    0    0 -0.00000000000E+00 -0.00000000000E+00 -0.74505805969E-08  0.93827000000E+00  0.93827000000E+00 0. -1.
     999903    2    1    2    0    0 -0.73545811998E-01 -0.64013147491E-01 -0.35274925545E-01  0.10562855799E+00  0.20159424001E-01 0.  0.
         14    1    1    2    0    0 -0.40229055335E-01 -0.22046071589E-01  0.66559727736E-02  0.46354159891E-01  0.00000000000E+00 0.  1.
     999901    1    1    2    0    0  0.11377486733E+00  0.86059219080E-01  0.28618952772E-01  0.89194728212E+00  0.88000000000E+00 0. -1.
        -11    1    3    3    0    0 -0.56605089025E-01 -0.57938478015E-01 -0.24408477460E-01  0.84599280323E-01  0.51100000000E-03 0. -1.
         11    1    3    3    0    0 -0.16940722973E-01 -0.60746694761E-02 -0.10866448085E-01  0.21029277665E-01  0.51100000000E-03 0.  1.
</event>
<event>
 7    1  0.1170483E+005  0.1043930E+01  0.7957747E-01            NaN
         13   -1    0    0    0    0  0.00000000000E+00  0.00000000000E+00  0.74505805969E-08  0.10566000000E+00  0.10566000000E+00 0.  1.
     999900   -1    0    0    0    0 -0.00000000000E+00 -0.00000000000E+00 -0.74505805969E-08  0.93827000000E+00  0.93827000000E+00 0.  1.
     999902    2    1    2    0    0 -0.21206253080E-01  0.80438686677E-02  0.81660190667E-02  0.10198241322E+01  0.10195391939E+01 0.  0.
         14    1    1    2    0    0  0.21206253080E-01 -0.80438686677E-02 -0.81660190667E-02  0.24105867755E-01  0.00000000000E+00 0. -1.
     999901    1    3    3    0    0  0.94584277441E-01  0.35217159871E-01  0.52527931590E-01  0.88732497851E+00  0.88000000000E+00 0. -1.
        -11    1    3    3    0    0 -0.18938559062E-01 -0.26418748848E-02  0.67346340335E-02  0.20279668114E-01  0.51100000000E-03 0.  1.
         11    1    3    3    0    0 -0.96851971459E-01 -0.24531416319E-01 -0.51096546557E-01  0.11221948562E+00  0.51100000000E-03 0. -1.
</event>
<event>
 8    1  0.1170483E+005  0.1043930E+01  0.7957747E-01            NaN
         13   -1    0    0    0    0  0.00000000000E+00  0.00000000000E+00  0.74505805969E-08  0.10566000000E+00  0.10566000000E+00 0. -1.
     999900   -1    0    0    0    0 -0.00000000000E+00 -0.00000000000E+00 -0.74505805969E-08  0.93827000000E+00  0.93827000000E+00 0.  1.
     999902    2    1    2    0    0 -0.80058867563E-02  0.86012858216E-02  0.21385313220E-01  0.10195290172E+01  0.10192369739E+01 0.  0.
     999903    2    3    3    0    0  0.90797453087E-02 -0.10268952452E+00 -0.72175489915E-01  0.12743530733E+00  0.20071770954E-01 0.  0.
         14    1    1    2    0    0  0.80058867563E-02 -0.86012858216E-02 -0.21385313220E-01  0.24400982809E-01  0.00000000000E+00 0.  1.
     999901    1    3    3    0    0 -0.17085632065E-01  0.11129081034E+00  0.93560803134E-01  0.89209370986E+00  0.88000000000E+00 0. -1.
        -11    1    4    4    0    0 -0.25002630924E-02 -0.74470263583E-01 -0.51765985974E-01  0.90730644760E-01  0.51100000000E-03 0. -1.
         11    1    4    4    0    0  0.11580008401E-01 -0.28219260936E-01 -0.20409503941E-01  0.36704662571E-01  0.51100000000E-03 0.  1.
</event>
<event>
 8    1  0.1170483E+005  0.1043930E+01  0.7957747E-01            NaN
         13   -1    0    0    0    0  0.00000000000E+00  0.00000000000E+00  0.74505805969E-08  0.10566000000E+00  0.10566000000E+00 0. -1.
     999900   -1    0    0    0    0 -0.00000000000E+00 -0.00000000000E+00 -0.74505805969E-08  0.93827000000E+00  0.93827000000E+00 0. -1.
     999902    2    1    2    0    0  0.56663428662E-02  0.15700370446E-01 -0.80325898863E-02  0.10254061890E+01  0.10252388604E+01 0.  0.
     999903    2    3    3    0    0 -0.31536787970E-01 -0.67614159998E-01 -0.11042417437E+00  0.13478313714E+00  0.20168097233E-01 0.  0.
         14    1    1    2    0    0 -0.56663428662E-02 -0.15700370446E-01  0.80325898863E-02  0.18523810999E-01  0.00000000000E+00 0. -1.
     999901    1    3    3    0    0  0.37203130836E-01  0.83314530444E-01  0.10239158448E+00  0.89062305186E+00  0.88000000000E+00 0.  1.
        -11    1    4    4    0    0 -0.87910571597E-02 -0.36612058244E-01 -0.42947458559E-01  0.57118042793E-01  0.51100000000E-03 0. -1.
         11    1    4    4    0    0 -0.22745730810E-01 -0.31002101754E-01 -0.67476715808E-01  0.77665094351E-01  0.51100000000E-03 0.  1.
</event>
<event>
 8    1  0.1170483E+005  0.1043930E+01  0.7957747E-01            NaN
         13   -1    0    0    0    0  0.00000000000E+00  0.00000000000E+00  0.74505805969E-08  0.10566000000E+00  0.10566000000E+00 0. -1.
     999900   -1    0    0    0    0 -0.00000000000E+00 -0.00000000000E+00 -0.74505805969E-08  0.93827000000E+00  0.93827000000E+00 0. -1.
     999902    2    1    2    0    0 -0.23966191080E-01 -0.15995562345E-01 -0.27750326268E-02  0.10149828562E+01  0.10145699883E+01 0.  0.
     999903    2    3    3    0    0 -0.11051469691E+00  0.37996779025E-01  0.47502509443E-01  0.12766462238E+00  0.19609027383E-01 0.  0.
         14    1    1    2    0    0  0.23966191080E-01  0.15995562345E-01  0.27750326268E-02  0.28947143827E-01  0.00000000000E+00 0.  1.
     999901    1    3    3    0    0  0.86548505827E-01 -0.53992341370E-01 -0.50277542070E-01  0.88731823379E+00  0.88000000000E+00 0. -1.
        -11    1    4    4    0    0 -0.91568171734E-01  0.25743252901E-01  0.44081254190E-01  0.10483731796E+00  0.51100000000E-03 0.  1.
         11    1    4    4    0    0 -0.18946525173E-01  0.12253526124E-01  0.34212552531E-02  0.22827304421E-01  0.51100000000E-03 0. -1.
</event>
<event>
 8    1  0.1170483E+005  0.1043930E+01  0.7957747E-01            NaN
         13   -1    0    0    0    0  0.00000000000E+00  0.00000000000E+00  0.74505805969E-08  0.10566000000E+00  0.10566000000E+00 0. -1.
     999900   -1    0    0    0    0 -0.00000000000E+00 -0.00000000000E+00 -0.74505805969E-08  0.93827000000E+00  0.93827000000E+00 0.  1.
     999902    2    1    2    0    0 -0.19422553478E-02  0.10249619309E-01 -0.22673635179E-01  0.10189716190E+01  0.10186659116E+01 0.  0.
     999903    2    3    3    0    0 -0.65890899176E-01  0.11048056856E+00  0.77463508328E-02  0.13045541327E+00  0.20274177540E-01 0.  0.
         14    1    1    2    0    0  0.19422553478E-02 -0.10249619309E-01  0.22673635179E-01  0.24958381038E-01  0.00000000000E+00 0. -1.
     999901    1    3    3    0    0  0.63948643828E-01 -0.10023094925E+00 -0.30419986012E-01  0.88851620570E+00  0.88000000000E+00 0. -1.
        -11    1    4    4    0    0 -0.36486607230E-01  0.63794208282E-01 -0.55393776945E-02  0.73701555912E-01  0.51100000000E-03 0. -1.
         11    1    4    4    0    0 -0.29404291946E-01  0.46686360280E-01  0.13285728527E-01  0.56753857354E-01  0.51100000000E-03 0.  1.
</event>
<event>
 8    1  0.1170483E+005  0.1043930E+01  0.7957747E-01            NaN
         13   -1    0    0    0    0  0.00000000000E+00  0.00000000000E+00  0.74505805969E-08  0.10566000000E+00  0.10566000000E+00 0.  1.
     999900   -1    0    0    0    0 -0.00000000000E+00 -0.00000000000E+00 -0.74505805969E-08  0.93827000000E+00  0.93827000000E+00 0.  1.
     999902    2    1    2    0    0 -0.12973911151E-01  0.18491563263E-01  0.71560204691E-02  0.10202346648E+01  0.10199594611E+01 0.  0.
     999903    2    3    3    0    0 -0.12138617657E+00  0.43721876426E-01 -0.24365270781E-01  0.13266304524E+00  0.18963407219E-01 0.  0.
         14    1    1    2    0    0  0.12973911151E-01 -0.18491563263E-01 -0.71560204691E-02  0.23695335225E-01  0.00000000000E+00 0. -1.
     999901    1    3    3    0    0  0.10841226542E+00 -0.25230313162E-01  0.31521291250E-01  0.88757161953E+00  0.88000000000E+00 0.  1.
        -11    1    4    4    0    0 -0.40744642711E-01  0.19455584246E-01 -0.16528059854E-01  0.48084129934E-01  0.51100000000E-03 0. -1.
         11    1    4    4    0    0 -0.80641533856E-01  0.24266292179E-01 -0.78372109272E-02  0.84578915310E-01  0.51100000000E-03 0.  1.
</event>
<event>
 8    1  0.1170483E+005  0.1043930E+01  0.7957747E-01            NaN
         13   -1    0    0    0    0  0.00000000000E+00  0.00000000000E+00  0.74505805969E-08  0.10566000000E+00  0.10566000000E+00 0.  1.
     999900   -1    0    0    0    0 -0.00000000000E+00 -0.00000000000E+00 -0.74505805969E-08  0.93827000000E+00  0.93827000000E+00 0.  1.
     999902    2    1    2    0    0  0.19071022476E-01  0.52886237531E-02 -0.12604988210E-01  0.10204660027E+01  0.10201962084E+01 0.  0.
     999903    2    3    3    0    0  0.52227946579E-02 -0.73922768949E-01 -0.10725265725E+00  0.13174534956E+00  0.19022389153E-01 0.  0.
         14    1    1    2    0    0 -0.19071022476E-01 -0.52886237531E-02  0.12604988210E-01  0.23463997256E-01  0.00000000000E+00 0.  1.
     999901    1    3    3    0    0  0.13848227818E-01  0.79211392703E-01  0.94647669041E-01  0.88872065319E+00  0.88000000000E+00 0. -1.
        -11    1    4    4    0    0 -0.35696643374E-04 -0.46279265146E-01 -0.51160448546E-01  0.68988580744E-01  0.51100000000E-03 0.  1.
         11    1    4    4    0    0  0.52584913013E-02 -0.27643503804E-01 -0.56092208705E-01  0.62756768812E-01  0.51100000000E-03 0. -1.
</event>
<event>
 8    1  0.1170483E+005  0.1043930E+01  0.7957747E-01            NaN
         13   -1    0    0    0    0  0.00000000000E+00  0.00000000000E+00  0.74505805969E-08  0.10566000000E+00  0.10566000000E+00 0.  1.
     999900   -1    0    0    0    0 -0.00000000000E+00 -0.00000000000E+00 -0.74505805969E-08  0.93827000000E+00  0.93827000000E+00 0.  1.
     999902    2    1    2    0    0 -0.27503752682E-01  0.64027439400E-02 -0.18043061714E-01  0.10104187539E+01  0.10098628890E+01 0.  0.
     999903    2    3    3    0    0 -0.61565045149E-02 -0.83978739848E-01 -0.87337733299E-01  0.12282297361E+00  0.19164339121E-01 0.  0.
         14    1    1    2    0    0  0.27503752682E-01 -0.64027439400E-02  0.18043061714E-01  0.33511246136E-01  0.00000000000E+00 0.  1.
     999901    1    3    3    0    0 -0.21347248168E-01  0.90381483788E-01  0.69294671585E-01  0.88759578025E+00  0.88000000000E+00 0.  1.
        -11    1    4    4    0    0 -0.14329776645E-02 -0.11119178156E-01 -0.22637810977E-01  0.25266997342E-01  0.51100000000E-03 0.  1.
         11    1    4    4    0    0 -0.47235268504E-02 -0.72859561692E-01 -0.64699922322E-01  0.97555976267E-01  0.51100000000E-03 0. -1.
</event>
<event>
 7    1  0.1170483E+005  0.1043930E+01  0.7957747E-01            NaN
         13   -1    0    0    0    0  0.00000000000E+00  0.00000000000E+00  0.74505805969E-08  0.10566000000E+00  0.10566000000E+00 0.  1.
     999900   -1    0    0    0    0 -0.00000000000E+00 -0.00000000000E+00 -0.74505805969E-08  0.93827000000E+00  0.93827000000E+00 0.  1.
     999902    2    1    2    0    0  0.88096913913E-02 -0.13753662002E-01  0.16038579367E-01  0.10210387373E+01  0.10207820987E+01 0.  0.
         14    1    1    2    0    0 -0.88096913913E-02  0.13753662002E-01 -0.16038579367E-01  0.22891262721E-01  0.00000000000E+00 0. -1.
     999901    1    3    3    0    0 -0.10556151432E+00  0.19040837059E-01 -0.12143280284E-01  0.88659643922E+00  0.88000000000E+00 0. -1.
        -11    1    3    3    0    0  0.48632738051E-01  0.92561901371E-02  0.27004858609E-01  0.56394536754E-01  0.51100000000E-03 0.  1.
         11    1    3    3    0    0  0.65738467660E-01 -0.42050689198E-01  0.11770010413E-02  0.78047761305E-01  0.51100000000E-03 0. -1.
</event>
<event>
 8    1  0.1170483E+005  0.1043930E+01  0.7957747E-01            NaN
         13   -1    0    0    0    0  0.00000000000E+00  0.00000000000E+00  0.74505805969E-08  0.10566000000E+00  0.10566000000E+00 0.  1.
     999900   -1    0    0    0    0 -0.00000000000E+00 -0.00000000000E+00 -0.74505805969E-08  0.93827000000E+00  0.93827000000E+00 0.  1.
     999902    2    1    2    0    0 -0.12567033758E-01  0.14801023662E-01 -0.15071104341E-01  0.10193507644E+01  0.10190543862E+01 0.  0.
     999903    2    3    3    0    0 -0.90153074757E-02 -0.20709771513E-01  0.12402632978E+00  0.12771085525E+00  0.20429431325E-01 0.  0.
         14    1    1    2    0    0  0.12567033758E-01 -0.14801023662E-01  0.15071104341E-01  0.24579235646E-01  0.00000000000E+00 0.  1.
     999901    1    3    3    0    0 -0.35517262821E-02  0.35510795175E-01 -0.13909743412E+00  0.89163990911E+00  0.88000000000E+00 0.  1.
        -11    1    4    4    0    0 -0.11911525893E-01 -0.11006539152E-01  0.10406154997E+00  0.10531901849E+00  0.51100000000E-03 0.  1.
         11    1    4    4    0    0  0.28962184169E-02 -0.97032323615E-02  0.19964779814E-01  0.22391836758E-01  0.51100000000E-03 0. -1.
</event>
<event>
 8    1  0.1170483E+005  0.1043930E+01  0.7957747E-01            NaN
         13   -1    0    0    0    0  0.00000000000E+00  0.00000000000E+00  0.74505805969E-08  0.10566000000E+00  0.10566000000E+00 0. -1.
     999900   -1    0    0    0    0 -0.00000000000E+00 -0.00000000000E+00 -0.74505805969E-08  0.93827000000E+00  0.93827000000E+00 0. -1.
     999902    2    1    2    0    0  0.35085221122E-02  0.16080792047E-01  0.16554744890E-01  0.10205855964E+01  0.10203185769E+01 0.  0.
     999903    2    3    3    0    0  0.99630060864E-01 -0.65884334943E-01  0.52825221932E-01  0.13082541538E+00  0.76085884674E-02 0.  0.
         14    1    1    2    0    0 -0.35085221122E-02 -0.16080792047E-01 -0.16554744890E-01  0.23344403583E-01  0.00000000000E+00 0.  1.
     999901    1    3    3    0    0 -0.96121538752E-01  0.81965126990E-01 -0.36270477042E-01  0.88976018104E+00  0.88000000000E+00 0. -1.
        -11    1    4    4    0    0  0.50918487959E-01 -0.36385135119E-01  0.30944192121E-01  0.69816721641E-01  0.51100000000E-03 0. -1.
         11    1    4    4    0    0  0.48711572904E-01 -0.29499199824E-01  0.21881029811E-01  0.61008693738E-01  0.51100000000E-03 0.  1.
</event>
<event>
 8    1  0.1170483E+005  0.1043930E+01  0.7957747E-01            NaN
         13   -1    0    0    0    0  0.00000000000E+00  0.00000000000E+00  0.74505805969E-08  0.10566000000E+00  0.10566000000E+00 0. -1.
     999900   -1    0    0    0    0 -0.00000000000E+00 -0.00000000000E+00 -0.74505805969E-08  0.93827000000E+00  0.93827000000E+00 0.  1.
     999902    2    1    2    0    0 -0.22991430609E-01  0.68543328095E-02  0.69031494194E-03  0.10199286606E+01  0.10196462173E+01 0.  0.
     999903    2    3    3    0    0 -0.34089627902E-01  0.40812380658E-01  0.11826131702E+00  0.13139095201E+00  0.21215325167E-01 0.  0.
         14    1    1    2    0    0  0.22991430609E-01 -0.68543328095E-02 -0.69031494194E-03  0.24001339430E-01  0.00000000000E+00 0.  1.
     999901    1    3    3    0    0  0.11098197293E-01 -0.33958047849E-01 -0.11757100208E+00  0.88853770856E+00  0.88000000000E+00 0.  1.
        -11    1    4    4    0    0 -0.18780253854E-01  0.36802076874E-01  0.88851190210E-01  0.97989213283E-01  0.51100000000E-03 0. -1.
         11    1    4    4    0    0 -0.15309374048E-01  0.40103037846E-02  0.29410126811E-01  0.33401738731E-01  0.51100000000E-03 0.  1.
</event>
<event>
 8    1  0.1170483E+005  0.1043930E+01  0.7957747E-01            NaN
         13   -1    0    0    0    0  0.00000000000E+00  0.00000000000E+00  0.74505805969E-08  0.10566000000E+00  0.10566000000E+00 0.  1.
     999900   -1    0    0    0    0 -0.00000000000E+00 -0.00000000000E+00 -0.74505805969E-08  0.93827000000E+00  0.93827000000E+00 0. -1.
     999902    2    1    2    0    0  0.14292500340E-01  0.12889310617E-01  0.13300158241E-01  0.10205354685E+01  0.10202672877E+01 0.  0.
     999903    2    3    3    0    0 -0.19649325000E-01 -0.93314066338E-01 -0.83357372852E-01  0.12824970538E+00  0.20147564886E-01 0.  0.
         14    1    1    2    0    0 -0.14292500340E-01 -0.12889310617E-01 -0.13300158241E-01  0.23394531485E-01  0.00000000000E+00 0. -1.
     999901    1    3    3    0    0  0.33941825339E-01  0.10620337695E+00  0.96657531093E-01  0.89228576314E+00  0.88000000000E+00 0.  1.
        -11    1    4    4    0    0 -0.52035070281E-02 -0.60016408266E-01 -0.60350606661E-01  0.85273105912E-01  0.51100000000E-03 0. -1.
         11    1    4    4    0    0 -0.14445817972E-01 -0.33297658072E-01 -0.23006766191E-01  0.42976599464E-01  0.51100000000E-03 0.  1.
</event>
<event>
 8    1  0.1170483E+005  0.1043930E+01  0.7957747E-01            NaN
         13   -1    0    0    0    0  0.00000000000E+00  0.00000000000E+00  0.74505805969E-08  0.10566000000E+00  0.10566000000E+00 0.  1.
     999900   -1    0    0    0    0 -0.00000000000E+00 -0.00000000000E+00 -0.74505805969E-08  0.93827000000E+00  0.93827000000E+00 0. -1.
     999902    2    1    2    0    0 -0.78694937140E-02  0.22460071536E-01 -0.37917247712E-02  0.10198310182E+01  0.10195462446E+01 0.  0.
     999903    2    3    3    0    0 -0.12495283916E+00 -0.26927068156E-01  0.16117432719E-01  0.13048070825E+00  0.20667960045E-01 0.  0.
         14    1    1    2    0    0  0.78694937140E-02 -0.22460071536E-01  0.37917247712E-02  0.24098981751E-01  0.00000000000E+00 0. -1.
     999901    1    3    3    0    0  0.11708334545E+00  0.49387139692E-01 -0.19909157490E-01  0.88935031000E+00  0.88000000000E+00 0.  1.
        -11    1    4    4    0    0 -0.46713452257E-01 -0.20207073307E-01  0.81646743523E-02  0.51549931733E-01  0.51100000000E-03 0. -1.
         11    1    4    4    0    0 -0.78239386908E-01 -0.67199948489E-02  0.79527583670E-02  0.78930776514E-01  0.51100000000E-03 0.  1.
</event>
<event>
 8    1  0.1170483E+005  0.1043930E+01  0.7957747E-01            NaN
         13   -1    0    0    0    0  0.00000000000E+00  0.00000000000E+00  0.74505805969E-08  0.10566000000E+00  0.10566000000E+00 0.  1.
     999900   -1    0    0    0    0 -0.00000000000E+00 -0.00000000000E+00 -0.74505805969E-08  0.93827000000E+00  0.93827000000E+00 0.  1.
     999902    2    1    2    0    0 -0.96722181056E-02  0.18442539602E-01 -0.79957030227E-02  0.10216228187E+01  0.10213792505E+01 0.  0.
     999903    2    3    3    0    0 -0.93086808729E-01 -0.72781709100E-01 -0.55138641833E-01  0.13173388511E+00  0.18740744999E-01 0.  0.
         14    1    1    2    0    0  0.96722181056E-02 -0.18442539602E-01  0.79957030227E-02  0.22307181285E-01  0.00000000000E+00 0. -1.
     999901    1    3    3    0    0  0.83414590623E-01  0.91224248702E-01  0.47142938810E-01  0.88988893361E+00  0.88000000000E+00 0.  1.
        -11    1    4    4    0    0 -0.43295947339E-01 -0.28599277628E-01 -0.15067791520E-01  0.54034777681E-01  0.51100000000E-03 0. -1.
         11    1    4    4    0    0 -0.49790861390E-01 -0.44182431472E-01 -0.40070850314E-01  0.77699107425E-01  0.51100000000E-03 0.  1.
</event>
<event>
 8    1  0.1170483E+005  0.1043930E+01  0.7957747E-01            NaN
         13   -1    0    0    0    0  0.00000000000E+00  0.00000000000E+00  0.74505805969E-08  0.10566000000E+00  0.10566000000E+00 0. -1.
     999900   -1    0    0    0    0 -0.00000000000E+00 -0.00000000000E+00 -0.74505805969E-08  0.93827000000E+00  0.93827000000E+00 0. -1.
     999902    2    1    2    0    0  0.65978905141E-02  0.10335558012E-01  0.20641713470E-01  0.10199209131E+01  0.10196382852E+01 0.  0.
     999903    2    3    3    0    0 -0.22070455444E-01 -0.12424808764E+00  0.15508452460E-01  0.12921277791E+00  0.23037742767E-01 0.  0.
         14    1    1    2    0    0 -0.65978905141E-02 -0.10335558012E-01 -0.20641713470E-01  0.24009086897E-01  0.00000000000E+00 0.  1.
     999901    1    3    3    0    0  0.28668345958E-01  0.13458364565E+00  0.51332610101E-02  0.89070813520E+00  0.88000000000E+00 0. -1.
        -11    1    4    4    0    0 -0.10183224791E-01 -0.99314628809E-01  0.60810303336E-02  0.10002166572E+00  0.51100000000E-03 0.  1.
         11    1    4    4    0    0 -0.11887230653E-01 -0.24933458828E-01  0.94274221261E-02  0.29191112186E-01  0.51100000000E-03 0. -1.
</event>
<event>
 8    1  0.1170483E+005  0.1043930E+01  0.7957747E-01            NaN
         13   -1    0    0    0    0  0.00000000000E+00  0.00000000000E+00  0.74505805969E-08  0.10566000000E+00  0.10566000000E+00 0. -1.
     999900   -1    0    0    0    0 -0.00000000000E+00 -0.00000000000E+00 -0.74505805969E-08  0.93827000000E+00  0.93827000000E+00 0. -1.
     999902    2    1    2    0    0 -0.12313161773E-01 -0.21338187518E-02 -0.19582715230E-01  0.10206996347E+01  0.10204352476E+01 0.  0.
     999903    2    3    3    0    0 -0.40105697502E-01 -0.72357171578E-02  0.12077671922E+00  0.12912842318E+00  0.20647304723E-01 0.  0.
         14    1    1    2    0    0  0.12313161773E-01  0.21338187518E-02  0.19582715230E-01  0.23230365281E-01  0.00000000000E+00 0. -1.
     999901    1    3    3    0    0  0.27792535729E-01  0.51018984060E-02 -0.14035943445E+00  0.89157121154E+00  0.88000000000E+00 0. -1.
        -11    1    4    4    0    0 -0.16101403021E-01 -0.12401722699E-02  0.78464031808E-01  0.80110290319E-01  0.51100000000E-03 0.  1.
         11    1    4    4    0    0 -0.24004294481E-01 -0.59955448879E-02  0.42312687411E-01  0.49018132859E-01  0.51100000000E-03 0. -1.
</event>
<event>
 8    1  0.1170483E+005  0.1043930E+01  0.7957747E-01            NaN
         13   -1    0    0    0    0  0.00000000000E+00  0.00000000000E+00  0.74505805969E-08  0.10566000000E+00  0.10566000000E+00 0. -1.
     999900   -1    0    0    0    0 -0.00000000000E+00 -0.00000000000E+00 -0.74505805969E-08  0.93827000000E+00  0.93827000000E+00 0. -1.
     999902    2    1    2    0    0  0.69454114705E-02 -0.15324073401E-01 -0.16846395678E-01  0.10201210308E+01  0.10198431500E+01 0.  0.
     999903    2    3    3    0    0  0.43786869086E-01 -0.57757164506E-01  0.10587517902E+00  0.12982981716E+00  0.19825436589E-01 0.  0.
         14    1    1    2    0    0 -0.69454114705E-02  0.15324073401E-01  0.16846395678E-01  0.23808969180E-01  0.00000000000E+00 0. -1.
     999901    1    3    3    0    0 -0.36841457615E-01  0.42433091105E-01 -0.12272157470E+00  0.89029121366E+00  0.88000000000E+00 0. -1.
        -11    1    4    4    0    0  0.43375077198E-01 -0.52831394952E-01  0.88903848291E-01  0.11214592715E+00  0.51100000000E-03 0. -1.
         11    1    4    4    0    0  0.41179188730E-03 -0.49257695542E-02  0.16971330728E-01  0.17683890011E-01  0.51100000000E-03 0.  1.
</event>
<event>
 8    1  0.1170483E+005  0.1043930E+01  0.7957747E-01            NaN
         13   -1    0    0    0    0  0.00000000000E+00  0.00000000000E+00  0.74505805969E-08  0.10566000000E+00  0.10566000000E+00 0.  1.
     999900   -1    0    0    0    0 -0.00000000000E+00 -0.00000000000E+00 -0.74505805969E-08  0.93827000000E+00  0.93827000000E+00 0. -1.
     999902    2    1    2    0    0  0.18361210463E-01  0.53538196741E-02  0.13059722538E-01  0.10207706868E+01  0.10205079330E+01 0.  0.
     999903    2    3    3    0    0  0.10969022640E+00 -0.16781990440E-01 -0.68769763222E-01  0.13199228474E+00  0.19470539981E-01 0.  0.
         14    1    1    2    0    0 -0.18361210463E-01 -0.53538196741E-02 -0.13059722538E-01  0.23159313192E-01  0.00000000000E+00 0. -1.
     999901    1    3    3    0    0 -0.91329015934E-01  0.22135810114E-01  0.81829485760E-01  0.88877840207E+00  0.88000000000E+00 0.  1.
        -11    1    4    4    0    0  0.81296401885E-01 -0.15789312783E-01 -0.41602414171E-01  0.92679174271E-01  0.51100000000E-03 0. -1.
         11    1    4    4    0    0  0.28393824513E-01 -0.99267765664E-03 -0.27167349051E-01  0.39313110470E-01  0.51100000000E-03 0.  1.
</event>
<event>
 8    1  0.1170483E+005  0.1043930E+01  0.7957747E-01            NaN
         13   -1    0    0    0    0  0.00000000000E+00  0.00000000000E+00  0.74505805969E-08  0.10566000000E+00  0.10566000000E+00 0. -1.
     999900   -1    0    0    0    0 -0.00000000000E+00 -0.00000000000E+00 -0.74505805969E-08  0.93827000000E+00  0.93827000000E+00 0. -1.
     999902    2    1    2    0    0  0.41314012564E-02 -0.42556267371E-02 -0.22605374988E-01  0.10205594670E+01  0.10202918425E+01 0.  0.
     999903    2    3    3    0    0  0.12394342941E-01  0.11005302721E+00  0.63054121313E-01  0.12900335889E+00  0.20018887415E-01 0.  0.
         14    1    1    2    0    0 -0.41314012564E-02  0.42556267371E-02  0.22605374988E-01  0.23370533020E-01  0.00000000000E+00 0. -1.
     999901    1    3    3    0    0 -0.82629416842E-02 -0.11430865395E+00 -0.85659496301E-01  0.89155610809E+00  0.88000000000E+00 0.  1.
        -11    1    4    4    0    0 -0.47230639911E-02  0.44123105251E-01  0.26715305966E-01  0.51798884585E-01  0.51100000000E-03 0. -1.
         11    1    4    4    0    0  0.17117406932E-01  0.65929921964E-01  0.36338815347E-01  0.77204474301E-01  0.51100000000E-03 0.  1.
</event>
<event>
 8    1  0.1170483E+005  0.1043930E+01  0.7957747E-01            NaN
         13   -1    0    0    0    0  0.00000000000E+00  0.00000000000E+00  0.74505805969E-08  0.10566000000E+00  0.10566000000E+00 0.  1.
     999900   -1    0    0    0    0 -0.00000000000E+00 -0.00000000000E+00 -0.74505805969E-08  0.93827000000E+00  0.93827000000E+00 0. -1.
     999902    2    1    2    0    0  0.18211781609E-01 -0.15658311924E-01  0.75732246314E-02  0.10187465639E+01  0.10184352488E+01 0.  0.
     999903    2    3    3    0    0 -0.75875997773E-01  0.45485723103E-01  0.89968738010E-01  0.12780317409E+00  0.20326323926E-01 0.  0.
         14    1    1    2    0    0 -0.18211781609E-01  0.15658311924E-01 -0.75732246314E-02  0.25183436084E-01  0.00000000000E+00 0. -1.
     999901    1    3    3    0    0  0.94087779382E-01 -0.61144035027E-01 -0.82395513379E-01  0.89094338983E+00  0.88000000000E+00 0. -1.
        -11    1    4    4    0    0 -0.58379723828E-01  0.33185238451E-01  0.54969932014E-01  0.86783677912E-01  0.51100000000E-03 0. -1.
         11    1    4    4    0    0 -0.17496273945E-01  0.12300484652E-01  0.34998805996E-01  0.41019496179E-01  0.51100000000E-03 0.  1.
</event>
<event>
 8    1  0.1170483E+005  0.1043930E+01  0.7957747E-01            NaN
         13   -1    0    0    0    0  0.00000000000E+00  0.00000000000E+00  0.74505805969E-08  0.10566000000E+00  0.10566000000E+00 0. -1.
     999900   -1    0    0    0    0 -0.00000000000E+00 -0.00000000000E+00 -0.74505805969E-08  0.93827000000E+00  0.93827000000E+00 0. -1.
     999902    2    1    2    0    0 -0.16516152422E-01 -0.15109025728E-01  0.82891557159E-02  0.10200600178E+01  0.10197806940E+01 0.  0.
     999903    2    3    3    0    0 -0.39384000500E-01 -0.12331396613E+00  0.23193691427E-01  0.13301244701E+00  0.19923102138E-01 0.  0.
         14    1    1    2    0    0  0.16516152422E-01  0.15109025728E-01 -0.82891557159E-02  0.23869982232E-01  0.00000000000E+00 0.  1.
     999901    1    3    3    0    0  0.22867848078E-01  0.10820494040E+00 -0.14904535711E-01  0.88704757076E+00  0.88000000000E+00 0.  1.
        -11    1    4    4    0    0 -0.26431457224E-01 -0.95574000985E-01  0.25241011063E-01  0.10232488141E+00  0.51100000000E-03 0.  1.
         11    1    4    4    0    0 -0.12952543276E-01 -0.27739965147E-01 -0.20473196357E-02  0.30687565598E-01  0.51100000000E-03 0. -1.
</event>
<event>
 8    1  0.1170483E+005  0.1043930E+01  0.7957747E-01            NaN
         13   -1    0    0    0    0  0.00000000000E+00  0.00000000000E+00  0.74505805969E-08  0.10566000000E+00  0.10566000000E+00 0. -1.
     999900   -1    0    0    0    0 -0.00000000000E+00 -0.00000000000E+00 -0.74505805969E-08  0.93827000000E+00  0.93827000000E+00 0.  1.
     999902    2    1    2    0    0  0.14273906752E-01 -0.15676772777E-01 -0.11315849999E-01  0.10198976451E+01  0.10196144627E+01 0.  0.
     999903    2    3    3    0    0 -0.36528863165E-01 -0.11084773781E+00 -0.58423299680E-01  0.13205895156E+00  0.20117303982E-01 0.  0.
         14    1    1    2    0    0 -0.14273906752E-01  0.15676772777E-01  0.11315849999E-01  0.24032354855E-01  0.00000000000E+00 0.  1.
     999901    1    3    3    0    0  0.50802769917E-01  0.95170965031E-01  0.47107449681E-01  0.88783869359E+00  0.88000000000E+00 0.  1.
        -11    1    4    4    0    0 -0.35745126341E-01 -0.81679910470E-01 -0.46205357746E-01  0.10042170103E+00  0.51100000000E-03 0.  1.
         11    1    4    4    0    0 -0.78373682324E-03 -0.29167827338E-01 -0.12217941933E-01  0.31637250531E-01  0.51100000000E-03 0. -1.
</event>
<event>
 8    1  0.1170483E+005  0.1043930E+01  0.7957747E-01            NaN
         13   -1    0    0    0    0  0.00000000000E+00  0.00000000000E+00  0.74505805969E-08  0.10566000000E+00  0.10566000000E+00 0. -1.
     999900   -1    0    0    0    0 -0.00000000000E+00 -0.00000000000E+00 -0.74505805969E-08  0.93827000000E+00  0.93827000000E+00 0. -1.
     999902    2    1    2    0    0 -0.79443865474E-02 -0.11137515802E-01  0.19018668822E-01  0.10205020829E+01  0.10202331272E+01 0.  0.
     999903    2    3    3    0    0 -0.56034554758E-01  0.41084431048E-01 -0.10656917667E+00  0.12875542440E+00  0.19828466780E-01 0.  0.
         14    1    1    2    0    0  0.79443865474E-02  0.11137515802E-01 -0.19018668822E-01  0.23427917099E-01  0.00000000000E+00 0. -1.
     999901    1    3    3    0    0  0.48090168211E-01 -0.52221946850E-01  0.12558784549E+00  0.89174665850E+00  0.88000000000E+00 0.  1.
        -11    1    4    4    0    0 -0.21593803407E-01  0.27932564677E-01 -0.49174927846E-01  0.60538873169E-01  0.51100000000E-03 0. -1.
         11    1    4    4    0    0 -0.34440751351E-01  0.13151866371E-01 -0.57394248825E-01  0.68216551231E-01  0.51100000000E-03 0.  1.
</event>
<event>
 8    1  0.1170483E+005  0.1043930E+01  0.7957747E-01            NaN
         13   -1    0    0    0    0  0.00000000000E+00  0.00000000000E+00  0.74505805969E-08  0.10566000000E+00  0.10566000000E+00 0. -1.
     999900   -1    0    0    0    0 -0.00000000000E+00 -0.00000000000E+00 -0.74505805969E-08  0.93827000000E+00  0.93827000000E+00 0.  1.
     999902    2    1    2    0    0  0.98856952310E-02  0.19278571105E-01  0.18343766627E-01  0.10155419031E+01  0.10151450501E+01 0.  0.
     999903    2    3    3    0    0 -0.70692962179E-01 -0.87832094189E-01 -0.45095141764E-01  0.12313498368E+00  0.20412758858E-01 0.  0.
         14    1    1    2    0    0 -0.98856952310E-02 -0.19278571105E-01 -0.18343766627E-01  0.28388096944E-01  0.00000000000E+00 0.  1.
     999901    1    3    3    0    0  0.80578657410E-01  0.10711066529E+00  0.63438908391E-01  0.89240691937E+00  0.88000000000E+00 0. -1.
        -11    1    4    4    0    0 -0.55202189570E-02 -0.40784678806E-02 -0.83684768473E-02  0.10835093139E-01  0.51100000000E-03 0. -1.
         11    1    4    4    0    0 -0.65172743222E-01 -0.83753626308E-01 -0.36726664917E-01  0.11229989054E+00  0.51100000000E-03 0.  1.
</event>
<event>
 8    1  0.1170483E+005  0.1043930E+01  0.7957747E-01            NaN
         13   -1    0    0    0    0  0.00000000000E+00  0.00000000000E+00  0.74505805969E-08  0.10566000000E+00  0.10566000000E+00 0. -1.
     999900   -1    0    0    0    0 -0.00000000000E+00 -0.00000000000E+00 -0.74505805969E-08  0.93827000000E+00  0.93827000000E+00 0.  1.
     999902    2    1    2    0    0  0.18702050512E-01 -0.11943104128E-01 -0.95829099704E-02  0.10197590134E+01  0.10194725150E+01 0.  0.
     999903    2    3    3    0    0  0.10716571080E+00 -0.69889071483E-01 -0.31476842802E-01  0.13315713058E+00  0.19262863452E-01 0.  0.
         14    1    1    2    0    0 -0.18702050512E-01  0.11943104128E-01  0.95829099704E-02  0.24170986597E-01  0.00000000000E+00 0. -1.
     999901    1    3    3    0    0 -0.88463660287E-01  0.57945967356E-01  0.21893932831E-01  0.88660188282E+00  0.88000000000E+00 0.  1.
        -11    1    4    4    0    0  0.91215167663E-01 -0.64827780621E-01 -0.22449269109E-01  0.11413622894E+00  0.51100000000E-03 0. -1.
         11    1    4    4    0    0  0.15950543137E-01 -0.50612908620E-02 -0.90275736931E-02  0.19020901644E-01  0.51100000000E-03 0.  1.
</event>
<event>
 8    1  0.1170483E+005  0.1043930E+01  0.7957747E-01            NaN
         13   -1    0    0    0    0  0.00000000000E+00  0.00000000000E+00  0.74505805969E-08  0.10566000000E+00  0.10566000000E+00 0.  1.
     999900   -1    0    0    0    0 -0.00000000000E+00 -0.00000000000E+00 -0.74505805969E-08  0.93827000000E+00  0.93827000000E+00 0.  1.
     999902    2    1    2    0    0  0.20770683597E-01 -0.10077419340E-02  0.17165346678E-01  0.10169654683E+01  0.10166079273E+01 0.  0.
     999903    2    3    3    0    0  0.85402139787E-01  0.94397094604E-01  0.14653496304E-01  0.12944892351E+00  0.18383739927E-01 0.  0.
         14    1    1    2    0    0 -0.20770683597E-01  0.10077419340E-02 -0.17165346678E-01  0.26964531657E-01  0.00000000000E+00 0.  1.
     999901    1    3    3    0    0 -0.64631456190E-01 -0.95404836537E-01  0.25118503738E-02  0.88751654484E+00  0.88000000000E+00 0.  1.
        -11    1    4    4    0    0  0.34310836286E-01  0.25764817993E-01  0.77842063009E-02  0.43610942682E-01  0.51100000000E-03 0. -1.
         11    1    4    4    0    0  0.51091303500E-01  0.68632276611E-01  0.68692900034E-02  0.85837980826E-01  0.51100000000E-03 0.  1.
</event>
<event>
 8    1  0.1170483E+005  0.1043930E+01  0.7957747E-01            NaN
         13   -1    0    0    0    0  0.00000000000E+00  0.00000000000E+00  0.74505805969E-08  0.10566000000E+00  0.10566000000E+00 0.  1.
     999900   -1    0    0    0    0 -0.00000000000E+00 -0.00000000000E+00 -0.74505805969E-08  0.93827000000E+00  0.93827000000E+00 0. -1.
     999902    2    1    2    0    0  0.15001406259E-01 -0.17658306399E-01 -0.29707137707E-04  0.10207597851E+01  0.10204967810E+01 0.  0.
     999903    2    3    3    0    0  0.37006597062E-01  0.11656558145E+00 -0.37854750209E-01  0.12950728759E+00  0.19548207620E-01 0.  0.
         14    1    1    2    0    0 -0.15001406259E-01  0.17658306399E-01  0.29707137707E-04  0.23170214870E-01  0.00000000000E+00 0.  1.
     999901    1    3    3    0    0 -0.22005190803E-01 -0.13422388784E+00  0.37825043072E-01  0.89125249754E+00  0.88000000000E+00 0.  1.
        -11    1    4    4    0    0  0.29753721450E-01  0.61658046586E-01 -0.21175698150E-01  0.71663588817E-01  0.51100000000E-03 0. -1.
         11    1    4    4    0    0  0.72528756125E-02  0.54907534859E-01 -0.16679052060E-01  0.57843698772E-01  0.51100000000E-03 0.  1.
</event>
<event>
 8    1  0.1170483E+005  0.1043930E+01  0.7957747E-01            NaN
         13   -1    0    0    0    0  0.00000000000E+00  0.00000000000E+00  0.74505805969E-08  0.10566000000E+00  0.10566000000E+00 0. -1.
     999900   -1    0    0    0    0 -0.00000000000E+00 -0.00000000000E+00 -0.74505805969E-08  0.93827000000E+00  0.93827000000E+00 0.  1.
     999902    2    1    2    0    0  0.19399381088E-01  0.13253922446E-01 -0.21135005474E-02  0.10203403978E+01  0.10200676733E+01 0.  0.
     999903    2    3    3    0    0  0.41065958229E-01  0.12482653192E+00 -0.60118787991E-02  0.13302248122E+00  0.19767696585E-01 0.  0.
         14    1    1    2    0    0 -0.19399381088E-01 -0.13253922446E-01  0.21135005474E-02  0.23589602187E-01  0.00000000000E+00 0.  1.
     999901    1    3    3    0    0 -0.21666577141E-01 -0.11157260947E+00  0.38983782517E-02  0.88731791659E+00  0.88000000000E+00 0. -1.
        -11    1    4    4    0    0  0.22213442377E-01  0.61861481420E-01 -0.12726782908E-01  0.66951564805E-01  0.51100000000E-03 0. -1.
         11    1    4    4    0    0  0.18852515852E-01  0.62965050497E-01  0.67149041087E-02  0.66070916418E-01  0.51100000000E-03 0.  1.
</event>
<event>
 8    1  0.1170483E+005  0.1043930E+01  0.7957747E-01            NaN
         13   -1    0    0    0    0  0.00000000000E+00  0.00000000000E+00  0.74505805969E-08  0.10566000000E+00  0.10566000000E+00 0.  1.
     999900   -1    0    0    0    0 -0.00000000000E+00 -0.00000000000E+00 -0.74505805969E-08  0.93827000000E+00  0.93827000000E+00 0.  1.
     999902    2    1    2    0    0 -0.94619795165E-02  0.79902720396E-02 -0.20481853308E-01  0.10199950921E+01  0.10197142286E+01 0.  0.
     999903    2    3    3    0    0 -0.12050683687E+00 -0.20562944258E-01  0.41056931086E-01  0.13042594438E+00  0.19506997927E-01 0.  0.
         14    1    1    2    0    0  0.94619795165E-02 -0.79902720396E-02  0.20481853308E-01  0.23934907949E-01  0.00000000000E+00 0.  1.
     999901    1    3    3    0    0  0.11104485735E+00  0.28553216297E-01 -0.61538784393E-01  0.88956914767E+00  0.88000000000E+00 0.  1.
        -11    1    4    4    0    0 -0.84031490900E-01 -0.23222080772E-01  0.27466249448E-01  0.91406851373E-01  0.51100000000E-03 0. -1.
         11    1    4    4    0    0 -0.36475345969E-01  0.26591365142E-02  0.13590681638E-01  0.39019093006E-01  0.51100000000E-03 0.  1.
</event>
<event>
 8    1  0.1170483E+005  0.1043930E+01  0.7957747E-01            NaN
         13   -1    0    0    0    0  0.00000000000E+00  0.00000000000E+00  0.74505805969E-08  0.10566000000E+00  0.10566000000E+00 0. -1.
     999900   -1    0    0    0    0 -0.00000000000E+00 -0.00000000000E+00 -0.74505805969E-08  0.93827000000E+00  0.93827000000E+00 0.  1.
     999902    2    1    2    0    0 -0.18304424546E-02  0.20501673003E-01 -0.11149887757E-01  0.10205208327E+01  0.10202523124E+01 0.  0.
     999903    2    3    3    0    0 -0.12381004734E-01 -0.31273165347E-01  0.12248843716E+00  0.12886442461E+00  0.21709964117E-01 0.  0.
         14    1    1    2    0    0  0.18304424546E-02 -0.20501673003E-01  0.11149887757E-01  0.23409167275E-01  0.00000000000E+00 0. -1.
     999901    1    3    3    0    0  0.10550562279E-01  0.51774838350E-01 -0.13363832492E+00  0.89165640812E+00  0.88000000000E+00 0.  1.
        -11    1    4    4    0    0  0.60592406103E-02 -0.11051567933E-01  0.35793225362E-01  0.37950858401E-01  0.51100000000E-03 0.  1.
         11    1    4    4    0    0 -0.18440245344E-01 -0.20221597415E-01  0.86695211800E-01  0.90913566206E-01  0.51100000000E-03 0. -1.
</event>
<event>
 8    1  0.1170483E+005  0.1043930E+01  0.7957747E-01            NaN
         13   -1    0    0    0    0  0.00000000000E+00  0.00000000000E+00  0.74505805969E-08  0.10566000000E+00  0.10566000000E+00 0.  1.
     999900   -1    0    0    0    0 -0.00000000000E+00 -0.00000000000E+00 -0.74505805969E-08  0.93827000000E+00  0.93827000000E+00 0. -1.
     999902    2    1    2    0    0  0.20125191025E-01 -0.13311254200E-03  0.13868335035E-01  0.10194888104E+01  0.10191957922E+01 0.  0.
     999903    2    3    3    0    0  0.13800254779E-01  0.12714775693E+00 -0.12437530333E-01  0.12992013789E+00  0.19171618177E-01 0.  0.
         14    1    1    2    0    0 -0.20125191025E-01  0.13311254200E-03 -0.13868335035E-01  0.24441189607E-01  0.00000000000E+00 0. -1.
     999901    1    3    3    0    0  0.63249362461E-02 -0.12728086947E+00  0.26305865367E-01  0.88956867251E+00  0.88000000000E+00 0. -1.
        -11    1    4    4    0    0  0.15402902414E-01  0.62774751759E-01 -0.18855092542E-02  0.64666336895E-01  0.51100000000E-03 0.  1.
         11    1    4    4    0    0 -0.16026476342E-02  0.64373005170E-01 -0.10552021078E-01  0.65253800992E-01  0.51100000000E-03 0. -1.
</event>
<event>
 8    1  0.1170483E+005  0.1043930E+01  0.7957747E-01            NaN
         13   -1    0    0    0    0  0.00000000000E+00  0.00000000000E+00  0.74505805969E-08  0.10566000000E+00  0.10566000000E+00 0. -1.
     999900   -1    0    0    0    0 -0.00000000000E+00 -0.00000000000E+00 -0.74505805969E-08  0.93827000000E+00  0.93827000000E+00 0.  1.
     999902    2    1    2    0    0 -0.79693975585E-03 -0.22792910079E-01 -0.49434417177E-02  0.10205935590E+01  0.10203267237E+01 0.  0.
     999903    2    3    3    0    0 -0.11597778727E+00 -0.45780470800E-01 -0.39250121053E-01  0.13212746294E+00  0.19245670013E-01 0.  0.
         14    1    1    2    0    0  0.79693975585E-03  0.22792910079E-01  0.49434417177E-02  0.23336441006E-01  0.00000000000E+00 0. -1.
     999901    1    3    3    0    0  0.11518084752E+00  0.22987560722E-01  0.34306679335E-01  0.88846609605E+00  0.88000000000E+00 0. -1.
        -11    1    4    4    0    0 -0.21827960779E-01 -0.81254578700E-02  0.26468855304E-03  0.23298371582E-01  0.51100000000E-03 0. -1.
         11    1    4    4    0    0 -0.94149826493E-01 -0.37655012930E-01 -0.39514809606E-01  0.10882909136E+00  0.51100000000E-03 0.  1.
</event>
<event>
 8    1  0.1170483E+005  0.1043930E+01  0.7957747E-01            NaN
         13   -1    0    0    0    0  0.00000000000E+00  0.00000000000E+00  0.74505805969E-08  0.10566000000E+00  0.10566000000E+00 0. -1.
     999900   -1    0    0    0    0 -0.00000000000E+00 -0.00000000000E+00 -0.74505805969E-08  0.93827000000E+00  0.93827000000E+00 0.  1.
     999902    2    1    2    0    0 -0.21264990408E-01 -0.10544697012E-01  0.71813915347E-04  0.10201940440E+01  0.10199178848E+01 0.  0.
     999903    2    3    3    0    0  0.75695203507E-01  0.29383808352E-01  0.97612371037E-01  0.12861694408E+00  0.20517585065E-01 0.  0.
         14    1    1    2    0    0  0.21264990408E-01  0.10544697012E-01 -0.71813915347E-04  0.23735956044E-01  0.00000000000E+00 0.  1.
     999901    1    3    3    0    0 -0.96960193915E-01 -0.39928505364E-01 -0.97540557122E-01  0.89157709988E+00  0.88000000000E+00 0.  1.
        -11    1    4    4    0    0  0.41988325936E-01  0.87794995580E-02  0.39292853147E-01  0.58174638433E-01  0.51100000000E-03 0.  1.
         11    1    4    4    0    0  0.33706877572E-01  0.20604308794E-01  0.58319517890E-01  0.70442305644E-01  0.51100000000E-03 0. -1.
</event>
<event>
 8    1  0.1170483E+005  0.1043930E+01  0.7957747E-01            NaN
         13   -1    0    0    0    0  0.00000000000E+00  0.00000000000E+00  0.74505805969E-08  0.10566000000E+00  0.10566000000E+00 0. -1.
     999900   -1    0    0    0    0 -0.00000000000E+00 -0.00000000000E+00 -0.74505805969E-08  0.93827000000E+00  0.93827000000E+00 0. -1.
     999902    2    1    2    0    0  0.14071020898E-01  0.46669538709E-02  0.19723410286E-01  0.10192563906E+01  0.10189577041E+01 0.  0.
     999903    2    3    3    0    0 -0.44372061203E-01  0.11287853685E+00 -0.38296325180E-01  0.12881176557E+00  0.20381818639E-01 0.  0.
         14    1    1    2    0    0 -0.14071020898E-01 -0.46669538709E-02 -0.19723410286E-01  0.24673609401E-01  0.00000000000E+00 0.  1.
     999901    1    3    3    0    0  0.58443082102E-01 -0.10821158298E+00  0.58019735466E-01  0.89044462503E+00  0.88000000000E+00 0.  1.
        -11    1    4    4    0    0 -0.44372203646E-01  0.10931259242E+00 -0.40324819509E-01  0.12467753409E+00  0.51100000000E-03 0.  1.
         11    1    4    4    0    0  0.14244231870E-06  0.35659444302E-02  0.20284943286E-02  0.41342314813E-02  0.51100000000E-03 0. -1.
</event>
<event>
 8    1  0.1170483E+005  0.1043930E+01  0.7957747E-01            NaN
         13   -1    0    0    0    0  0.00000000000E+00  0.00000000000E+00  0.74505805969E-08  0.10566000000E+00  0.10566000000E+00 0.  1.
     999900   -1    0    0    0    0 -0.00000000000E+00 -0.00000000000E+00 -0.74505805969E-08  0.93827000000E+00  0.93827000000E+00 0.  1.
     999902    2    1    2    0    0  0.83014893808E-02  0.19697592149E-01  0.34757095596E-02  0.10222738134E+01  0.10220444017E+01 0.  0.
     999903    2    3    3    0    0 -0.52725015181E-02 -0.12199988161E+00 -0.39036227539E-01  0.12982230651E+00  0.20450765827E-01 0.  0.
         14    1    1    2    0    0 -0.83014893808E-02 -0.19697592149E-01 -0.34757095596E-02  0.21656186630E-01  0.00000000000E+00 0.  1.
     999901    1    3    3    0    0  0.13573990899E-01  0.14169747376E+00  0.42511937099E-01  0.89245150686E+00  0.88000000000E+00 0. -1.
        -11    1    4    4    0    0  0.31121031801E-02 -0.25190951762E-02 -0.11318497770E-02  0.41920438485E-02  0.51100000000E-03 0. -1.
         11    1    4    4    0    0 -0.83846046982E-02 -0.11948078643E+00 -0.37904377762E-01  0.12563026266E+00  0.51100000000E-03 0.  1.
</event>
<event>
 8    1  0.1170483E+005  0.1043930E+01  0.7957747E-01            NaN
         13   -1    0    0    0    0  0.00000000000E+00  0.00000000000E+00  0.74505805969E-08  0.10566000000E+00  0.10566000000E+00 0.  1.
     999900   -1    0    0    0    0 -0.00000000000E+00 -0.00000000000E+00 -0.74505805969E-08  0.93827000000E+00  0.93827000000E+00 0.  1.
     999902    2    1    2    0    0  0.11436404036E-02 -0.23690720479E-01  0.19678403108E-02  0.10201301986E+01  0.10198525342E+01 0.  0.
     999903    2    3    3    0    0  0.11368003094E+00 -0.61099025108E-01  0.19030387364E-01  0.13201142787E+00  0.20214379593E-01 0.  0.
         14    1    1    2    0    0 -0.11436404036E-02  0.23690720479E-01 -0.19678403108E-02  0.23799801379E-01  0.00000000000E+00 0. -1.
     999901    1    3    3    0    0 -0.11253639053E+00  0.37408304629E-01 -0.17062547053E-01  0.88811877075E+00  0.88000000000E+00 0.  1.
        -11    1    4    4    0    0  0.46566006731E-01 -0.33256032681E-01  0.15392397615E-01  0.59258279741E-01  0.51100000000E-03 0. -1.
         11    1    4    4    0    0  0.67114024204E-01 -0.27842992427E-01  0.36379897496E-02  0.72753148129E-01  0.51100000000E-03 0.  1.
</event>
<event>
 8    1  0.1170483E+005  0.1043930E+01  0.7957747E-01            NaN
         13   -1    0    0    0    0  0.00000000000E+00  0.00000000000E+00  0.74505805969E-08  0.10566000000E+00  0.10566000000E+00 0. -1.
     999900   -1    0    0    0    0 -0.00000000000E+00 -0.00000000000E+00 -0.74505805969E-08  0.93827000000E+00  0.93827000000E+00 0. -1.
     999902    2    1    2    0    0  0.80671800472E-02  0.16462559230E-01  0.13649155635E-01  0.10210740445E+01  0.10208182060E+01 0.  0.
     999903    2    3    3    0    0  0.99541038181E-02 -0.85609082641E-01  0.96966964953E-01  0.13126280731E+00  0.19983319976E-01 0.  0.
         14    1    1    2    0    0 -0.80671800472E-02 -0.16462559230E-01 -0.13649155635E-01  0.22855955458E-01  0.00000000000E+00 0.  1.
     999901    1    3    3    0    0 -0.18869237709E-02  0.10207164187E+00 -0.83317809318E-01  0.88981123723E+00  0.88000000000E+00 0. -1.
        -11    1    4    4    0    0 -0.54032774802E-02 -0.13549957828E-01  0.12923601275E-01  0.19495572717E-01  0.51100000000E-03 0. -1.
         11    1    4    4    0    0  0.15357381298E-01 -0.72059124813E-01  0.84043363678E-01  0.11176723459E+00  0.51100000000E-03 0.  1.
</event>
<event>
 8    1  0.1170483E+005  0.1043930E+01  0.7957747E-01            NaN
         13   -1    0    0    0    0  0.00000000000E+00  0.00000000000E+00  0.74505805969E-08  0.10566000000E+00  0.10566000000E+00 0.  1.
     999900   -1    0    0    0    0 -0.00000000000E+00 -0.00000000000E+00 -0.74505805969E-08  0.93827000000E+00  0.93827000000E+00 0. -1.
     999902    2    1    2    0    0 -0.40854758992E-02 -0.14807689749E-01  0.19700072309E-01  0.10189489744E+01  0.10186427052E+01 0.  0.
     999903    2    3    3    0    0 -0.91627555303E-02 -0.18918760214E-01 -0.12387376628E+00  0.12728977565E+00  0.20398564520E-01 0.  0.
         14    1    1    2    0    0  0.40854758992E-02  0.14807689749E-01 -0.19700072309E-01  0.24981025559E-01  0.00000000000E+00 0. -1.
     999901    1    3    3    0    0  0.50772796311E-02  0.41110704650E-02  0.14357383859E+00  0.89165919880E+00  0.88000000000E+00 0.  1.
        -11    1    4    4    0    0  0.82740868933E-03 -0.47645972480E-02 -0.43769312749E-02  0.65425255414E-02  0.51100000000E-03 0. -1.
         11    1    4    4    0    0 -0.99901642196E-02 -0.14154162966E-01 -0.11949683501E+00  0.12074725010E+00  0.51100000000E-03 0.  1.
</event>
<event>
 8    1  0.1170483E+005  0.1043930E+01  0.7957747E-01            NaN
         13   -1    0    0    0    0  0.00000000000E+00  0.00000000000E+00  0.74505805969E-08  0.10566000000E+00  0.10566000000E+00 0.  1.
     999900   -1    0    0    0    0 -0.00000000000E+00 -0.00000000000E+00 -0.74505805969E-08  0.93827000000E+00  0.93827000000E+00 0. -1.
     999902    2    1    2    0    0  0.17334230869E-02  0.23426453747E-01 -0.10051954910E-01  0.10183791627E+01  0.10180585807E+01 0.  0.
     999903    2    3    3    0    0 -0.49472160193E-01 -0.39073032990E-01  0.10808407189E+00  0.12681631103E+00  0.20640097009E-01 0.  0.
         14    1    1    2    0    0 -0.17334230869E-02 -0.23426453747E-01  0.10051954910E-01  0.25550837330E-01  0.00000000000E+00 0. -1.
     999901    1    3    3    0    0  0.51205583280E-01  0.62499486737E-01 -0.11813602680E+00  0.89156285164E+00  0.88000000000E+00 0. -1.
        -11    1    4    4    0    0 -0.48115285393E-01 -0.31988934473E-01  0.86247162637E-01  0.10381332670E+00  0.51100000000E-03 0.  1.
         11    1    4    4    0    0 -0.13568748006E-02 -0.70840985174E-02  0.21836909255E-01  0.23002984324E-01  0.51100000000E-03 0. -1.
</event>
<event>
 8    1  0.1170483E+005  0.1043930E+01  0.7957747E-01            NaN
         13   -1    0    0    0    0  0.00000000000E+00  0.00000000000E+00  0.74505805969E-08  0.10566000000E+00  0.10566000000E+00 0.  1.
     999900   -1    0    0    0    0 -0.00000000000E+00 -0.00000000000E+00 -0.74505805969E-08  0.93827000000E+00  0.93827000000E+00 0. -1.
     999902    2    1    2    0    0  0.16776193356E-01  0.11492104043E-01 -0.11742344972E-01  0.10204482670E+01  0.10201780599E+01 0.  0.
     999903    2    3    3    0    0 -0.10892563701E+00  0.41441442204E-01  0.50878142149E-01  0.12880975370E+00  0.20522664749E-01 0.  0.
         14    1    1    2    0    0 -0.16776193356E-01 -0.11492104043E-01  0.11742344972E-01  0.23481732991E-01  0.00000000000E+00 0.  1.
     999901    1    3    3    0    0  0.12570183037E+00 -0.29949338161E-01 -0.62620487122E-01  0.89163851331E+00  0.88000000000E+00 0. -1.
        -11    1    4    4    0    0 -0.42556467874E-01  0.18596723719E-01  0.31057422083E-01  0.55872315850E-01  0.51100000000E-03 0. -1.
         11    1    4    4    0    0 -0.66369169138E-01  0.22844718484E-01  0.19820720067E-01  0.72937437846E-01  0.51100000000E-03 0.  1.
</event>
<event>
 8    1  0.1170483E+005  0.1043930E+01  0.7957747E-01            NaN
         13   -1    0    0    0    0  0.00000000000E+00  0.00000000000E+00  0.74505805969E-08  0.10566000000E+00  0.10566000000E+00 0.  1.
     999900   -1    0    0    0    0 -0.00000000000E+00 -0.00000000000E+00 -0.74505805969E-08  0.93827000000E+00  0.93827000000E+00 0. -1.
     999902    2    1    2    0    0  0.22424018734E-01 -0.47783686283E-02 -0.79226302323E-03  0.10209888339E+01  0.10207310624E+01 0.  0.
     999903    2    3    3    0    0 -0.44180934965E-01 -0.11683941780E+00  0.33867085669E-01  0.13071069247E+00  0.18300302356E-01 0.  0.
         14    1    1    2    0    0 -0.22424018734E-01  0.47783686283E-02  0.79226302323E-03  0.22941166135E-01  0.00000000000E+00 0.  1.
     999901    1    3    3    0    0  0.66604953699E-01  0.11206104918E+00 -0.34659348693E-01  0.89027814140E+00  0.88000000000E+00 0.  1.
        -11    1    4    4    0    0 -0.11418915175E-02 -0.19747276434E-01  0.83930902853E-02  0.21493346141E-01  0.51100000000E-03 0.  1.
         11    1    4    4    0    0 -0.43039043448E-01 -0.97092141370E-01  0.25473995384E-01  0.10921734633E+00  0.51100000000E-03 0. -1.
</event>
<event>
 8    1  0.1170483E+005  0.1043930E+01  0.7957747E-01            NaN
         13   -1    0    0    0    0  0.00000000000E+00  0.00000000000E+00  0.74505805969E-08  0.10566000000E+00  0.10566000000E+00 0.  1.
     999900   -1    0    0    0    0 -0.00000000000E+00 -0.00000000000E+00 -0.74505805969E-08  0.93827000000E+00  0.93827000000E+00 0.  1.
     999902    2    1    2    0    0 -0.22223599217E-01  0.82305043722E-02 -0.88811671522E-02  0.10186218058E+01  0.10183073596E+01 0.  0.
     999903    2    3    3    0    0  0.50313827207E-03 -0.12305924540E+00 -0.29796757896E-01  0.12834602552E+00  0.21000582362E-01 0.  0.
         14    1    1    2    0    0  0.22223599217E-01 -0.82305043722E-02  0.88811671522E-02  0.25308194214E-01  0.00000000000E+00 0.  1.
     999901    1    3    3    0    0 -0.22726737489E-01  0.13128974977E+00  0.20915590744E-01  0.89027578027E+00  0.88000000000E+00 0. -1.
        -11    1    4    4    0    0 -0.61301598120E-03 -0.87264969557E-01 -0.11181977202E-01  0.87982091562E-01  0.51100000000E-03 0.  1.
         11    1    4    4    0    0  0.11161542533E-02 -0.35794275842E-01 -0.18614780694E-01  0.40363933959E-01  0.51100000000E-03 0. -1.
</event>
<event>
 8    1  0.1170483E+005  0.1043930E+01  0.7957747E-01            NaN
         13   -1    0    0    0    0  0.00000000000E+00  0.00000000000E+00  0.74505805969E-08  0.10566000000E+00  0.10566000000E+00 0. -1.
     999900   -1    0    0    0    0 -0.00000000000E+00 -0.00000000000E+00 -0.74505805969E-08  0.93827000000E+00  0.93827000000E+00 0. -1.
     999902    2    1    2    0    0  0.24309805115E-01  0.37369427485E-02  0.58923619516E-02  0.10186386715E+01  0.10183246495E+01 0.  0.
     999903    2    3    3    0    0 -0.76480296513E-01  0.60341806732E-02  0.10016952915E+00  0.12787938523E+00  0.20821995743E-01 0.  0.
         14    1    1    2    0    0 -0.24309805115E-01 -0.37369427485E-02 -0.58923619516E-02  0.25291328458E-01  0.00000000000E+00 0. -1.
     999901    1    3    3    0    0  0.10079010163E+00 -0.22972379247E-02 -0.94277167198E-01  0.89075928631E+00  0.88000000000E+00 0. -1.
        -11    1    4    4    0    0 -0.51867128307E-01  0.12295159364E-01  0.75882191759E-01  0.92734772819E-01  0.51100000000E-03 0. -1.
         11    1    4    4    0    0 -0.24613168206E-01 -0.62609786908E-02  0.24287337390E-01  0.35144612415E-01  0.51100000000E-03 0.  1.
</event>
<event>
 8    1  0.1170483E+005  0.1043930E+01  0.7957747E-01            NaN
         13   -1    0    0    0    0  0.00000000000E+00  0.00000000000E+00  0.74505805969E-08  0.10566000000E+00  0.10566000000E+00 0.  1.
     999900   -1    0    0    0    0 -0.00000000000E+00 -0.00000000000E+00 -0.74505805969E-08  0.93827000000E+00  0.93827000000E+00 0.  1.
     999902    2    1    2    0    0 -0.20584624968E-02  0.24592087155E-01 -0.33655044683E-02  0.10190234820E+01  0.10187190595E+01 0.  0.
     999903    2    3    3    0    0 -0.57754351298E-01 -0.10995702743E+00  0.15310838182E-01  0.12686077148E+00  0.20811549692E-01 0.  0.
         14    1    1    2    0    0  0.20584624968E-02 -0.24592087155E-01  0.33655044683E-02  0.24906517998E-01  0.00000000000E+00 0. -1.
     999901    1    3    3    0    0  0.55695888801E-01  0.13454911458E+00 -0.18676342650E-01  0.89216271052E+00  0.88000000000E+00 0. -1.
        -11    1    4    4    0    0 -0.39888109021E-01 -0.84436500136E-01  0.19569927639E-01  0.95413976886E-01  0.51100000000E-03 0. -1.
         11    1    4    4    0    0 -0.17866242277E-01 -0.25520527293E-01 -0.42590894567E-02  0.31446794597E-01  0.51100000000E-03 0.  1.
</event>
<event>
 8    1  0.1170483E+005  0.1043930E+01  0.7957747E-01            NaN
         13   -1    0    0    0    0  0.00000000000E+00  0.00000000000E+00  0.74505805969E-08  0.10566000000E+00  0.10566000000E+00 0. -1.
     999900   -1    0    0    0    0 -0.00000000000E+00 -0.00000000000E+00 -0.74505805969E-08  0.93827000000E+00  0.93827000000E+00 0. -1.
     999902    2    1    2    0    0  0.14750470332E-01 -0.18317511807E-01  0.15194961769E-01  0.10159300986E+01  0.10155441747E+01 0.  0.
     999903    2    3    3    0    0  0.44050438607E-01  0.14194288290E-02  0.11982272706E+00  0.12902818509E+00  0.18663619925E-01 0.  0.
         14    1    1    2    0    0 -0.14750470332E-01  0.18317511807E-01 -0.15194961769E-01  0.27999901375E-01  0.00000000000E+00 0. -1.
     999901    1    3    3    0    0 -0.29299968274E-01 -0.19736940636E-01 -0.10462776529E+00  0.88690191354E+00  0.88000000000E+00 0. -1.
        -11    1    4    4    0    0  0.15392140372E-01  0.20056146026E-02  0.68524781985E-01  0.70262702355E-01  0.51100000000E-03 0.  1.
         11    1    4    4    0    0  0.28658298235E-01 -0.58618577361E-03  0.51297945070E-01  0.58765482733E-01  0.51100000000E-03 0. -1.
</event>
<event>
 8    1  0.1170483E+005  0.1043930E+01  0.7957747E-01            NaN
         13   -1    0    0    0    0  0.00000000000E+00  0.00000000000E+00  0.74505805969E-08  0.10566000000E+00  0.10566000000E+00 0. -1.
     999900   -1    0    0    0    0 -0.00000000000E+00 -0.00000000000E+00 -0.74505805969E-08  0.93827000000E+00  0.93827000000E+00 0. -1.
     999902    2    1    2    0    0 -0.21414680451E-01  0.13091038394E-01  0.13954963496E-01  0.10152123255E+01  0.10148060706E+01 0.  0.
     999903    2    3    3    0    0 -0.66495907131E-01  0.10346640410E+00  0.34332595284E-01  0.12920144990E+00  0.19679560834E-01 0.  0.
         14    1    1    2    0    0  0.21414680451E-01 -0.13091038394E-01 -0.13954963496E-01  0.28717674544E-01  0.00000000000E+00 0.  1.
     999901    1    3    3    0    0  0.45081226680E-01 -0.90375365707E-01 -0.20377631788E-01  0.88601087556E+00  0.88000000000E+00 0.  1.
        -11    1    4    4    0    0 -0.57262741945E-01  0.78194009560E-01  0.32514390731E-01  0.10222901482E+00  0.51100000000E-03 0.  1.
         11    1    4    4    0    0 -0.92331651857E-02  0.25272394541E-01  0.18182045530E-02  0.26972435077E-01  0.51100000000E-03 0. -1.
</event>
<event>
 8    1  0.1170483E+005  0.1043930E+01  0.7957747E-01            NaN
         13   -1    0    0    0    0  0.00000000000E+00  0.00000000000E+00  0.74505805969E-08  0.10566000000E+00  0.10566000000E+00 0.  1.
     999900   -1    0    0    0    0 -0.00000000000E+00 -0.00000000000E+00 -0.74505805969E-08  0.93827000000E+00  0.93827000000E+00 0. -1.
     999902    2    1    2    0    0 -0.98168947691E-02  0.10375500905E-01  0.18882636766E-01  0.10202535050E+01  0.10199787440E+01 0.  0.
     999903    2    3    3    0    0  0.51346745232E-01 -0.37872327555E-01 -0.10893302564E+00  0.12761377517E+00  0.18656636784E-01 0.  0.
         14    1    1    2    0    0  0.98168947691E-02 -0.10375500905E-01 -0.18882636766E-01  0.23676494951E-01  0.00000000000E+00 0. -1.
     999901    1    3    3    0    0 -0.61163640001E-01  0.48247828461E-01  0.12781566241E+00  0.89263972988E+00  0.88000000000E+00 0.  1.
        -11    1    4    4    0    0  0.13800949407E-01 -0.10089569747E-01 -0.47181562169E-01  0.50185919857E-01  0.51100000000E-03 0. -1.
         11    1    4    4    0    0  0.37545795825E-01 -0.27782757808E-01 -0.61751463473E-01  0.77427855308E-01  0.51100000000E-03 0.  1.
</event>
<event>
 8    1  0.1170483E+005  0.1043930E+01  0.7957747E-01            NaN
         13   -1    0    0    0    0  0.00000000000E+00  0.00000000000E+00  0.74505805969E-08  0.10566000000E+00  0.10566000000E+00 0.  1.
     999900   -1    0    0    0    0 -0.00000000000E+00 -0.00000000000E+00 -0.74505805969E-08  0.93827000000E+00  0.93827000000E+00 0.  1.
     999902    2    1    2    0    0 -0.92720485306E-02 -0.17898670581E-01 -0.15471558542E-01  0.10185193248E+01  0.10182022945E+01 0.  0.
     999903    2    3    3    0    0 -0.12748354517E+00  0.13123462797E-01 -0.94406236329E-02  0.13005283531E+00  0.20008374063E-01 0.  0.
         14    1    1    2    0    0  0.92720485306E-02  0.17898670581E-01  0.15471558542E-01  0.25410675242E-01  0.00000000000E+00 0.  1.
     999901    1    3    3    0    0  0.11821149664E+00 -0.31022133378E-01 -0.60309349090E-02  0.88846648945E+00  0.88000000000E+00 0.  1.
        -11    1    4    4    0    0 -0.68855543267E-02  0.54372742334E-02 -0.17774813460E-02  0.89663465476E-02  0.51100000000E-03 0.  1.
         11    1    4    4    0    0 -0.12059799084E+00  0.76861885638E-02 -0.76631422869E-02  0.12108648876E+00  0.51100000000E-03 0. -1.
</event>
<event>
 8    1  0.1170483E+005  0.1043930E+01  0.7957747E-01            NaN
         13   -1    0    0    0    0  0.00000000000E+00  0.00000000000E+00  0.74505805969E-08  0.10566000000E+00  0.10566000000E+00 0.  1.
     999900   -1    0    0    0    0 -0.00000000000E+00 -0.00000000000E+00 -0.74505805969E-08  0.93827000000E+00  0.93827000000E+00 0.  1.
     999902    2    1    2    0    0  0.15639908610E-01 -0.44501035340E-02  0.17655399884E-01  0.10199274312E+01  0.10196449586E+01 0.  0.
     999903    2    3    3    0    0 -0.12459093140E+00 -0.18171324572E-01 -0.12108508132E-01  0.12822184606E+00  0.21003061999E-01 0.  0.
         14    1    1    2    0    0 -0.15639908610E-01  0.44501035340E-02 -0.17655399884E-01  0.24002568776E-01  0.00000000000E+00 0. -1.
     999901    1    3    3    0    0  0.14023084001E+00  0.13721221038E-01  0.29763908016E-01  0.89170558517E+00  0.88000000000E+00 0. -1.
        -11    1    4    4    0    0 -0.38062578400E-01 -0.64156142661E-02  0.59237274745E-02  0.39054726335E-01  0.51100000000E-03 0.  1.
         11    1    4    4    0    0 -0.86528353000E-01 -0.11755710306E-01 -0.18032235606E-01  0.89167119722E-01  0.51100000000E-03 0. -1.
</event>
<event>
 8    1  0.1170483E+005  0.1043930E+01  0.7957747E-01            NaN
         13   -1    0    0    0    0  0.00000000000E+00  0.00000000000E+00  0.74505805969E-08  0.10566000000E+00  0.10566000000E+00 0.  1.
     999900   -1    0    0    0    0 -0.00000000000E+00 -0.00000000000E+00 -0.74505805969E-08  0.93827000000E+00  0.93827000000E+00 0.  1.
     999902    2    1    2    0    0  0.16158239306E-02 -0.84632119193E-02  0.16703723315E-01  0.10251350215E+01  0.10249627121E+01 0.  0.
     999903    2    3    3    0    0  0.27289136802E-01  0.70370183244E-01 -0.10734525524E+00  0.13257579534E+00  0.18885920918E-01 0.  0.
         14    1    1    2    0    0 -0.16158239306E-02  0.84632119193E-02 -0.16703723315E-01  0.18794978466E-01  0.00000000000E+00 0. -1.
     999901    1    3    3    0    0 -0.25673312872E-01 -0.78833395163E-01  0.12404897856E+00  0.89255922620E+00  0.88000000000E+00 0. -1.
        -11    1    4    4    0    0  0.20025537613E-01  0.35514190838E-01 -0.44590125459E-01  0.60422018478E-01  0.51100000000E-03 0. -1.
         11    1    4    4    0    0  0.72635991896E-02  0.34855992406E-01 -0.62755129784E-01  0.72153776859E-01  0.51100000000E-03 0.  1.
</event>
<event>
 8    1  0.1170483E+005  0.1043930E+01  0.7957747E-01            NaN
         13   -1    0    0    0    0  0.00000000000E+00  0.00000000000E+00  0.74505805969E-08  0.10566000000E+00  0.10566000000E+00 0. -1.
     999900   -1    0    0    0    0 -0.00000000000E+00 -0.00000000000E+00 -0.74505805969E-08  0.93827000000E+00  0.93827000000E+00 0.  1.
     999902    2    1    2    0    0  0.28960689995E-02  0.45048838126E-02 -0.20049466602E-01  0.10231775952E+01  0.10229671202E+01 0.  0.
     999903    2    3    3    0    0 -0.26274097532E-01 -0.66663558768E-01  0.10753282055E+00  0.13065695912E+00  0.19328093647E-01 0.  0.
         14    1    1    2    0    0 -0.28960689995E-02 -0.45048838126E-02  0.20049466602E-01  0.20752404797E-01  0.00000000000E+00 0. -1.
     999901    1    3    3    0    0  0.29170166532E-01  0.71168442580E-01 -0.12758228715E+00  0.89252063608E+00  0.88000000000E+00 0.  1.
        -11    1    4    4    0    0 -0.49019492112E-02 -0.26537427879E-01  0.54391157956E-01  0.60720040919E-01  0.51100000000E-03 0. -1.
         11    1    4    4    0    0 -0.21372148321E-01 -0.40126130889E-01  0.53141662590E-01  0.69936918204E-01  0.51100000000E-03 0.  1.
</event>
<event>
 8    1  0.1170483E+005  0.1043930E+01  0.7957747E-01            NaN
         13   -1    0    0    0    0  0.00000000000E+00  0.00000000000E+00  0.74505805969E-08  0.10566000000E+00  0.10566000000E+00 0.  1.
     999900   -1    0    0    0    0 -0.00000000000E+00 -0.00000000000E+00 -0.74505805969E-08  0.93827000000E+00  0.93827000000E+00 0.  1.
     999902    2    1    2    0    0 -0.19639909787E-01  0.12857325336E-01  0.25352752040E-02  0.10203193140E+01  0.10200460961E+01 0.  0.
     999903    2    3    3    0    0  0.13379655039E-01 -0.71715015976E-01  0.10508734835E+00  0.12972417578E+00  0.21516326669E-01 0.  0.
         14    1    1    2    0    0  0.19639909787E-01 -0.12857325336E-01 -0.25352752040E-02  0.23610685962E-01  0.00000000000E+00 0.  1.
     999901    1    3    3    0    0 -0.33019564827E-01  0.84572341311E-01 -0.10255207315E+00  0.89059513825E+00  0.88000000000E+00 0.  1.
        -11    1    4    4    0    0  0.28842227034E-02 -0.13455730897E-01  0.37110291151E-01  0.39582954221E-01  0.51100000000E-03 0.  1.
         11    1    4    4    0    0  0.10495432336E-01 -0.58259285079E-01  0.67977057202E-01  0.90141221562E-01  0.51100000000E-03 0. -1.
</event>
<event>
 8    1  0.1170483E+005  0.1043930E+01  0.7957747E-01            NaN
         13   -1    0    0    0    0  0.00000000000E+00  0.00000000000E+00  0.74505805969E-08  0.10566000000E+00  0.10566000000E+00 0.  1.
     999900   -1    0    0    0    0 -0.00000000000E+00 -0.00000000000E+00 -0.74505805969E-08  0.93827000000E+00  0.93827000000E+00 0.  1.
     999902    2    1    2    0    0 -0.15442097792E-01  0.57996993861E-02 -0.16142715679E-01  0.10208500917E+01  0.10205891571E+01 0.  0.
     999903    2    3    3    0    0  0.35269803493E-01 -0.10420452917E+00 -0.68315460811E-01  0.13102166860E+00  0.19928184077E-01 0.  0.
         14    1    1    2    0    0  0.15442097792E-01 -0.57996993861E-02  0.16142715679E-01  0.23079908290E-01  0.00000000000E+00 0.  1.
     999901    1    3    3    0    0 -0.50711901285E-01  0.11000422855E+00  0.52172745133E-01  0.88982842311E+00  0.88000000000E+00 0.  1.
        -11    1    4    4    0    0  0.23464814928E-01 -0.50955626706E-01 -0.44026650174E-01  0.71313957113E-01  0.51100000000E-03 0. -1.
         11    1    4    4    0    0  0.11804988566E-01 -0.53248902462E-01 -0.24288810638E-01  0.59707711492E-01  0.51100000000E-03 0.  1.
</event>
<event>
 8    1  0.1170483E+005  0.1043930E+01  0.7957747E-01            NaN
         13   -1    0    0    0    0  0.00000000000E+00  0.00000000000E+00  0.74505805969E-08  0.10566000000E+00  0.10566000000E+00 0. -1.
     999900   -1    0    0    0    0 -0.00000000000E+00 -0.00000000000E+00 -0.74505805969E-08  0.93827000000E+00  0.93827000000E+00 0.  1.
     999902    2    1    2    0    0 -0.13483573878E-01  0.18566692952E-01  0.69059525321E-02  0.10199670905E+01  0.10196855617E+01 0.  0.
     999903    2    3    3    0    0  0.91180838277E-01  0.59935728350E-01 -0.67247657356E-01  0.12970600849E+00  0.19878742862E-01 0.  0.
         14    1    1    2    0    0  0.13483573878E-01 -0.18566692952E-01 -0.69059525321E-02  0.23962909507E-01  0.00000000000E+00 0. -1.
     999901    1    3    3    0    0 -0.10466441216E+00 -0.41369035399E-01  0.74153609888E-01  0.89026108200E+00  0.88000000000E+00 0. -1.
        -11    1    4    4    0    0  0.45464394236E-01  0.29064619565E-01 -0.44844915741E-01  0.70164740736E-01  0.51100000000E-03 0.  1.
         11    1    4    4    0    0  0.45716444041E-01  0.30871108785E-01 -0.22402741615E-01  0.59541267758E-01  0.51100000000E-03 0. -1.
</event>
<event>
 8    1  0.1170483E+005  0.1043930E+01  0.7957747E-01            NaN
         13   -1    0    0    0    0  0.00000000000E+00  0.00000000000E+00  0.74505805969E-08  0.10566000000E+00  0.10566000000E+00 0. -1.
     999900   -1    0    0    0    0 -0.00000000000E+00 -0.00000000000E+00 -0.74505805969E-08  0.93827000000E+00  0.93827000000E+00 0.  1.
     999902    2    1    2    0    0  0.77367079193E-02  0.37254110637E-02 -0.22182805517E-01  0.10201431928E+01  0.10198658351E+01 0.  0.
     999903    2    3    3    0    0 -0.12838540571E-01  0.48759734557E-01  0.11598613900E+00  0.12798732727E+00  0.19637506540E-01 0.  0.
         14    1    1    2    0    0 -0.77367079193E-02 -0.37254110637E-02  0.22182805517E-01  0.23786807218E-01  0.00000000000E+00 0. -1.
     999901    1    3    3    0    0  0.20575248490E-01 -0.45034323493E-01 -0.13816894452E+00  0.89215586551E+00  0.88000000000E+00 0.  1.
        -11    1    4    4    0    0 -0.14134746905E-01  0.16431679111E-01  0.49799607711E-01  0.54314392178E-01  0.51100000000E-03 0. -1.
         11    1    4    4    0    0  0.12962063346E-02  0.32328055446E-01  0.66186531289E-01  0.73672935090E-01  0.51100000000E-03 0.  1.
</event>
<event>
 8    1  0.1170483E+005  0.1043930E+01  0.7957747E-01            NaN
         13   -1    0    0    0    0  0.00000000000E+00  0.00000000000E+00  0.74505805969E-08  0.10566000000E+00  0.10566000000E+00 0.  1.
     999900   -1    0    0    0    0 -0.00000000000E+00 -0.00000000000E+00 -0.74505805969E-08  0.93827000000E+00  0.93827000000E+00 0. -1.
     999902    2    1    2    0    0  0.98547418998E-02 -0.23011963250E-02  0.20750386584E-01  0.10208434241E+01  0.10205823370E+01 0.  0.
     999903    2    3    3    0    0 -0.11583636318E+00  0.51525261613E-01 -0.17331215272E-01  0.12947046634E+00  0.19731067181E-01 0.  0.
         14    1    1    2    0    0 -0.98547418998E-02  0.23011963250E-02 -0.20750386584E-01  0.23086575879E-01  0.00000000000E+00 0. -1.
     999901    1    3    3    0    0  0.12569110508E+00 -0.53826457938E-01  0.38081601856E-01  0.89137295778E+00  0.88000000000E+00 0.  1.
        -11    1    4    4    0    0 -0.22482670376E-01  0.39172678653E-02  0.19785343038E-02  0.22912685870E-01  0.51100000000E-03 0.  1.
         11    1    4    4    0    0 -0.93353692801E-01  0.47607993748E-01 -0.19309749576E-01  0.10655778047E+00  0.51100000000E-03 0. -1.
</event>
<event>
 8    1  0.1170483E+005  0.1043930E+01  0.7957747E-01            NaN
         13   -1    0    0    0    0  0.00000000000E+00  0.00000000000E+00  0.74505805969E-08  0.10566000000E+00  0.10566000000E+00 0.  1.
     999900   -1    0    0    0    0 -0.00000000000E+00 -0.00000000000E+00 -0.74505805969E-08  0.93827000000E+00  0.93827000000E+00 0.  1.
     999902    2    1    2    0    0 -0.74986198510E-02 -0.39526773022E-02 -0.24014243174E-01  0.10184636137E+01  0.10181451741E+01 0.  0.
     999903    2    3    3    0    0  0.10884723679E+00  0.64109629926E-01 -0.52957306485E-02  0.12800349736E+00  0.19977111102E-01 0.  0.
         14    1    1    2    0    0  0.74986198510E-02  0.39526773022E-02  0.24014243174E-01  0.25466386330E-01  0.00000000000E+00 0.  1.
     999901    1    3    3    0    0 -0.11634585664E+00 -0.68062307229E-01 -0.18718512525E-01  0.89046011631E+00  0.88000000000E+00 0.  1.
        -11    1    4    4    0    0  0.87359334550E-01  0.46716392638E-01 -0.11298453827E-01  0.99709532413E-01  0.51100000000E-03 0. -1.
         11    1    4    4    0    0  0.21487902239E-01  0.17393237288E-01  0.60027231783E-02  0.28293964949E-01  0.51100000000E-03 0.  1.
</event>
<event>
 8    1  0.1170483E+005  0.1043930E+01  0.7957747E-01            NaN
         13   -1    0    0    0    0  0.00000000000E+00  0.00000000000E+00  0.74505805969E-08  0.10566000000E+00  0.10566000000E+00 0.  1.
     999900   -1    0    0    0    0 -0.00000000000E+00 -0.00000000000E+00 -0.74505805969E-08  0.93827000000E+00  0.93827000000E+00 0. -1.
     999902    2    1    2    0    0  0.15914288882E-01  0.11139671639E-01 -0.13006336521E-01  0.10205521972E+01  0.10202844042E+01 0.  0.
     999903    2    3    3    0    0 -0.22395653639E-01  0.14224067328E-01 -0.12800915379E+00  0.13223760585E+00  0.19913602242E-01 0.  0.
         14    1    1    2    0    0 -0.15914288882E-01 -0.11139671639E-01  0.13006336521E-01  0.23377802817E-01  0.00000000000E+00 0.  1.
     999901    1    3    3    0    0  0.38309942521E-01 -0.30843956894E-02  0.11500281727E+00  0.88831459133E+00  0.88000000000E+00 0.  1.
        -11    1    4    4    0    0 -0.11369132312E-01  0.17230294362E-01 -0.65094586513E-01  0.68291335670E-01  0.51100000000E-03 0. -1.
         11    1    4    4    0    0 -0.11026521328E-01 -0.30062270338E-02 -0.62914567277E-01  0.63946270182E-01  0.51100000000E-03 0.  1.
</event>
<event>
 8    1  0.1170483E+005  0.1043930E+01  0.7957747E-01            NaN
         13   -1    0    0    0    0  0.00000000000E+00  0.00000000000E+00  0.74505805969E-08  0.10566000000E+00  0.10566000000E+00 0. -1.
     999900   -1    0    0    0    0 -0.00000000000E+00 -0.00000000000E+00 -0.74505805969E-08  0.93827000000E+00  0.93827000000E+00 0. -1.
     999902    2    1    2    0    0  0.13946163288E-01  0.79825826217E-02  0.20142693024E-01  0.10181628663E+01  0.10178367635E+01 0.  0.
     999903    2    3    3    0    0  0.92347138363E-01 -0.87815257761E-01  0.11453578522E-01  0.12945625566E+00  0.19703406054E-01 0.  0.
         14    1    1    2    0    0 -0.13946163288E-01 -0.79825826217E-02 -0.20142693024E-01  0.25767133679E-01  0.00000000000E+00 0.  1.
     999901    1    3    3    0    0 -0.78400975075E-01  0.95797840383E-01  0.86891145020E-02  0.88870661066E+00  0.88000000000E+00 0.  1.
        -11    1    4    4    0    0  0.72194989053E-01 -0.78271627515E-01  0.70108434514E-02  0.10671446559E+00  0.51100000000E-03 0. -1.
         11    1    4    4    0    0  0.20152149310E-01 -0.95436302460E-02  0.44427350706E-02  0.22741790079E-01  0.51100000000E-03 0.  1.
</event>
<event>
 8    1  0.1170483E+005  0.1043930E+01  0.7957747E-01            NaN
         13   -1    0    0    0    0  0.00000000000E+00  0.00000000000E+00  0.74505805969E-08  0.10566000000E+00  0.10566000000E+00 0. -1.
     999900   -1    0    0    0    0 -0.00000000000E+00 -0.00000000000E+00 -0.74505805969E-08  0.93827000000E+00  0.93827000000E+00 0. -1.
     999902    2    1    2    0    0 -0.59189794626E-02  0.78550554701E-02 -0.24428436932E-01  0.10175959015E+01  0.10172550978E+01 0.  0.
     999903    2    3    3    0    0 -0.12553961427E+00  0.16207669459E-01  0.11603096105E-01  0.12873306964E+00  0.20363891584E-01 0.  0.
         14    1    1    2    0    0  0.59189794626E-02 -0.78550554701E-02  0.24428436932E-01  0.26334098528E-01  0.00000000000E+00 0. -1.
     999901    1    3    3    0    0  0.11962063481E+00 -0.83526139889E-02 -0.36031533037E-01  0.88886283183E+00  0.88000000000E+00 0. -1.
        -11    1    4    4    0    0 -0.39880502809E-01 -0.43045009262E-02  0.44269546803E-02  0.40358918237E-01  0.51100000000E-03 0. -1.
         11    1    4    4    0    0 -0.85659111462E-01  0.20512170385E-01  0.71761414247E-02  0.88374151408E-01  0.51100000000E-03 0.  1.
</event>
<event>
 8    1  0.1170483E+005  0.1043930E+01  0.7957747E-01            NaN
         13   -1    0    0    0    0  0.00000000000E+00  0.00000000000E+00  0.74505805969E-08  0.10566000000E+00  0.10566000000E+00 0.  1.
     999900   -1    0    0    0    0 -0.00000000000E+00 -0.00000000000E+00 -0.74505805969E-08  0.93827000000E+00  0.93827000000E+00 0. -1.
     999902    2    1    2    0    0 -0.49620429101E-02 -0.21159492811E-01 -0.12657165894E-01  0.10187794562E+01  0.10184689639E+01 0.  0.
     999903    2    3    3    0    0 -0.12708099031E+00 -0.10636807037E-01 -0.17587893240E-01  0.13027055004E+00  0.19959019427E-01 0.  0.
         14    1    1    2    0    0  0.49620429101E-02  0.21159492811E-01  0.12657165894E-01  0.25150543818E-01  0.00000000000E+00 0.  1.
     999901    1    3    3    0    0  0.12211894740E+00 -0.10522685775E-01  0.49307273458E-02  0.88850890615E+00  0.88000000000E+00 0. -1.
        -11    1    4    4    0    0 -0.54232255332E-01 -0.10626347759E-01  0.25619458094E-03  0.55266477559E-01  0.51100000000E-03 0. -1.
         11    1    4    4    0    0 -0.72848734975E-01 -0.10459277254E-04 -0.17844087821E-01  0.75004072476E-01  0.51100000000E-03 0.  1.
</event>
<event>
 8    1  0.1170483E+005  0.1043930E+01  0.7957747E-01            NaN
         13   -1    0    0    0    0  0.00000000000E+00  0.00000000000E+00  0.74505805969E-08  0.10566000000E+00  0.10566000000E+00 0. -1.
     999900   -1    0    0    0    0 -0.00000000000E+00 -0.00000000000E+00 -0.74505805969E-08  0.93827000000E+00  0.93827000000E+00 0.  1.
     999902    2    1    2    0    0  0.12553375385E-01 -0.10304690380E-02 -0.20589398070E-01  0.10197934631E+01  0.10195077906E+01 0.  0.
     999903    2    3    3    0    0 -0.72848513138E-01  0.18187340295E-01  0.10076644821E+00  0.12716249335E+00  0.19461177176E-01 0.  0.
         14    1    1    2    0    0 -0.12553375385E-01  0.10304690380E-02  0.20589398070E-01  0.24136536886E-01  0.00000000000E+00 0. -1.
     999901    1    3    3    0    0  0.85401888523E-01 -0.19217809333E-01 -0.12135584628E+00  0.89263096977E+00  0.88000000000E+00 0.  1.
        -11    1    4    4    0    0 -0.24686926857E-01 -0.19701671753E-02  0.39967429138E-01  0.47021084943E-01  0.51100000000E-03 0.  1.
         11    1    4    4    0    0 -0.48161586282E-01  0.20157507470E-01  0.60799019068E-01  0.80141408406E-01  0.51100000000E-03 0. -1.
</event>
<event>
 8    1  0.1170483E+005  0.1043930E+01  0.7957747E-01            NaN
         13   -1    0    0    0    0  0.00000000000E+00  0.00000000000E+00  0.74505805969E-08  0.10566000000E+00  0.10566000000E+00 0. -1.
     999900   -1    0    0    0    0 -0.00000000000E+00 -0.00000000000E+00 -0.74505805969E-08  0.93827000000E+00  0.93827000000E+00 0.  1.
     999902    2    1    2    0    0  0.17741324808E-01 -0.46392368672E-02 -0.13065455999E-01  0.10214137111E+01  0.10211655037E+01 0.  0.
     999903    2    3    3    0    0  0.57986234980E-01 -0.96967851542E-01  0.65655755858E-01  0.13217737859E+00  0.19874945398E-01 0.  0.
         14    1    1    2    0    0 -0.17741324808E-01  0.46392368672E-02  0.13065455999E-01  0.22516288884E-01  0.00000000000E+00 0.  1.
     999901    1    3    3    0    0 -0.40244910173E-01  0.92328614675E-01 -0.78721211857E-01  0.88923633252E+00  0.88000000000E+00 0.  1.
        -11    1    4    4    0    0  0.48432496049E-01 -0.63256975126E-01  0.45032922133E-01  0.91517084593E-01  0.51100000000E-03 0. -1.
         11    1    4    4    0    0  0.95537389317E-02 -0.33710876416E-01  0.20622833724E-01  0.40660294000E-01  0.51100000000E-03 0.  1.
</event>
<event>
 8    1  0.1594101E+005  0.1043930E+01  0.7957747E-01            NaN
         13   -1    0    0    0    0  0.00000000000E+00  0.00000000000E+00  0.74505805969E-08  0.10566000000E+00  0.10566000000E+00 0. -1.
     999900   -1    0    0    0    0 -0.00000000000E+00 -0.00000000000E+00 -0.74505805969E-08  0.93827000000E+00  0.93827000000E+00 0.  1.
     999902    2    1    2    0    0  0.21908871304E-01  0.43421220545E-02  0.53669400537E-02  0.10209592205E+01  0.10207007755E+01 0.  0.
     999903    2    3    3    0    0 -0.75287328620E-01 -0.14005007106E-01 -0.10208496363E+00  0.12892243311E+00  0.18312069416E-01 0.  0.
         14    1    1    2    0    0 -0.21908871304E-01 -0.43421220545E-02 -0.53669400537E-02  0.22970779510E-01  0.00000000000E+00 0.  1.
     999901    1    3    3    0    0  0.97196199925E-01  0.18347129161E-01  0.10745190368E+00  0.89203678738E+00  0.88000000000E+00 0. -1.
        -11    1    4    4    0    0 -0.21787328907E-01  0.36169603769E-02 -0.34137281886E-01  0.40661840082E-01  0.51100000000E-03 0.  1.
         11    1    4    4    0    0 -0.53499999714E-01 -0.17621967483E-01 -0.67947681740E-01  0.88260593031E-01  0.51100000000E-03 0. -1.
</event>
<event>
 8    1  0.1170483E+005  0.1043930E+01  0.7957747E-01            NaN
         13   -1    0    0    0    0  0.00000000000E+00  0.00000000000E+00  0.74505805969E-08  0.10566000000E+00  0.10566000000E+00 0. -1.
     999900   -1    0    0    0    0 -0.00000000000E+00 -0.00000000000E+00 -0.74505805969E-08  0.93827000000E+00  0.93827000000E+00 0. -1.
     999902    2    1    2    0    0  0.22279832564E-01  0.71214747259E-02 -0.10827895148E-02  0.10205146466E+01  0.10202459827E+01 0.  0.
     999903    2    3    3    0    0 -0.81491953466E-01  0.98652503548E-01 -0.46218785088E-02  0.12969533947E+00  0.20646171177E-01 0.  0.
         14    1    1    2    0    0 -0.22279832564E-01 -0.71214747259E-02  0.10827895148E-02  0.23415353392E-01  0.00000000000E+00 0.  1.
     999901    1    3    3    0    0  0.10377178603E+00 -0.91531028822E-01  0.35390889940E-02  0.89081930713E+00  0.88000000000E+00 0.  1.
        -11    1    4    4    0    0 -0.23086390136E-01  0.43192214218E-01  0.61364411358E-03  0.48981490981E-01  0.51100000000E-03 0. -1.
         11    1    4    4    0    0 -0.58405563330E-01  0.55460289329E-01 -0.52355226224E-02  0.80713848493E-01  0.51100000000E-03 0.  1.
</event>
<event>
 8    1  0.1170483E+005  0.1043930E+01  0.7957747E-01            NaN
         13   -1    0    0    0    0  0.00000000000E+00  0.00000000000E+00  0.74505805969E-08  0.10566000000E+00  0.10566000000E+00 0.  1.
     999900   -1    0    0    0    0 -0.00000000000E+00 -0.00000000000E+00 -0.74505805969E-08  0.93827000000E+00  0.93827000000E+00 0. -1.
     999902    2    1    2    0    0 -0.11745465393E-01  0.18231491158E-01  0.90825803535E-02  0.10204175247E+01  0.10201466014E+01 0.  0.
     999903    2    3    3    0    0  0.81624148164E-01  0.85099133267E-01  0.55284074264E-01  0.13175350254E+00  0.19957267327E-01 0.  0.
         14    1    1    2    0    0  0.11745465393E-01 -0.18231491158E-01 -0.90825803535E-02  0.23512475264E-01  0.00000000000E+00 0.  1.
     999901    1    3    3    0    0 -0.93369613558E-01 -0.66867642109E-01 -0.46201493911E-01  0.88866402219E+00  0.88000000000E+00 0.  1.
        -11    1    4    4    0    0  0.62672848186E-01  0.53373816780E-01  0.33688938066E-01  0.88948613741E-01  0.51100000000E-03 0.  1.
         11    1    4    4    0    0  0.18951299978E-01  0.31725316487E-01  0.21595136198E-01  0.42804888804E-01  0.51100000000E-03 0. -1.
</event>
<event>
 8    1  0.1170483E+005  0.1043930E+01  0.7957747E-01            NaN
         13   -1    0    0    0    0  0.00000000000E+00  0.00000000000E+00  0.74505805969E-08  0.10566000000E+00  0.10566000000E+00 0. -1.
     999900   -1    0    0    0    0 -0.00000000000E+00 -0.00000000000E+00 -0.74505805969E-08  0.93827000000E+00  0.93827000000E+00 0. -1.
     999902    2    1    2    0    0  0.13047598367E-01  0.69326988952E-02 -0.20598318823E-01  0.10185805843E+01  0.10182651000E+01 0.  0.
     999903    2    3    3    0    0 -0.82612400199E-01  0.95554924215E-01 -0.87908286945E-02  0.12889291386E+00  0.24094654287E-01 0.  0.
         14    1    1    2    0    0 -0.13047598367E-01 -0.69326988952E-02  0.20598318823E-01  0.25349415682E-01  0.00000000000E+00 0. -1.
     999901    1    3    3    0    0  0.95659998565E-01 -0.88622225319E-01 -0.11807490128E-01  0.88968767046E+00  0.88000000000E+00 0. -1.
        -11    1    4    4    0    0 -0.57277471126E-01  0.50152089533E-01 -0.10592632643E-01  0.76866154908E-01  0.51100000000E-03 0.  1.
         11    1    4    4    0    0 -0.25334929073E-01  0.45402834682E-01  0.18018039482E-02  0.52026758949E-01  0.51100000000E-03 0. -1.
</event>
<event>
 8    1  0.1170483E+005  0.1043930E+01  0.7957747E-01            NaN
         13   -1    0    0    0    0  0.00000000000E+00  0.00000000000E+00  0.74505805969E-08  0.10566000000E+00  0.10566000000E+00 0. -1.
     999900   -1    0    0    0    0 -0.00000000000E+00 -0.00000000000E+00 -0.74505805969E-08  0.93827000000E+00  0.93827000000E+00 0. -1.
     999902    2    1    2    0    0  0.18754895572E-01 -0.11478312016E-01  0.13723568059E-01  0.10180102378E+01  0.10176802101E+01 0.  0.
     999903    2    3    3    0    0  0.63365639339E-02  0.11856127615E+00 -0.39241216342E-01  0.12679209508E+00  0.20962682773E-01 0.  0.
         14    1    1    2    0    0 -0.18754895572E-01  0.11478312016E-01 -0.13723568059E-01  0.25919762247E-01  0.00000000000E+00 0.  1.
     999901    1    3    3    0    0  0.12418331638E-01 -0.13003958817E+00  0.52964784402E-01  0.89121814268E+00  0.88000000000E+00 0.  1.
        -11    1    4    4    0    0 -0.27885462880E-02  0.69313679349E-01 -0.14270076817E-01  0.70824136766E-01  0.51100000000E-03 0. -1.
         11    1    4    4    0    0  0.91251102219E-02  0.49247596801E-01 -0.24971139525E-01  0.55967958310E-01  0.51100000000E-03 0.  1.
</event>
<event>
 8    1  0.1170483E+005  0.1043930E+01  0.7957747E-01            NaN
         13   -1    0    0    0    0  0.00000000000E+00  0.00000000000E+00  0.74505805969E-08  0.10566000000E+00  0.10566000000E+00 0.  1.
     999900   -1    0    0    0    0 -0.00000000000E+00 -0.00000000000E+00 -0.74505805969E-08  0.93827000000E+00  0.93827000000E+00 0.  1.
     999902    2    1    2    0    0 -0.19979470715E-01  0.11769944240E-01 -0.35988791202E-02  0.10204637952E+01  0.10201939495E+01 0.  0.
     999903    2    3    3    0    0 -0.12383651229E+00  0.40106044369E-01 -0.22813253650E-01  0.13369527305E+00  0.20248578331E-01 0.  0.
         14    1    1    2    0    0  0.19979470715E-01 -0.11769944240E-01  0.35988791202E-02  0.23466204815E-01  0.00000000000E+00 0.  1.
     999901    1    3    3    0    0  0.10385704157E+00 -0.28336100129E-01  0.19214374530E-01  0.88676852213E+00  0.88000000000E+00 0.  1.
        -11    1    4    4    0    0 -0.81305287195E-01  0.16228788993E-01 -0.12657813477E-01  0.83871357931E-01  0.51100000000E-03 0. -1.
         11    1    4    4    0    0 -0.42531225092E-01  0.23877255376E-01 -0.10155440173E-01  0.49823915123E-01  0.51100000000E-03 0.  1.
</event>
<event>
 8    1  0.1170483E+005  0.1043930E+01  0.7957747E-01            NaN
         13   -1    0    0    0    0  0.00000000000E+00  0.00000000000E+00  0.74505805969E-08  0.10566000000E+00  0.10566000000E+00 0.  1.
     999900   -1    0    0    0    0 -0.00000000000E+00 -0.00000000000E+00 -0.74505805969E-08  0.93827000000E+00  0.93827000000E+00 0.  1.
     999902    2    1    2    0    0  0.58581590322E-02  0.21385861256E-01 -0.70537927678E-02  0.10206613713E+01  0.10203961024E+01 0.  0.
     999903    2    3    3    0    0  0.11866348958E+00 -0.13836742898E-01 -0.50852227311E-01  0.13168219421E+00  0.21949306038E-01 0.  0.
         14    1    1    2    0    0 -0.58581590322E-02 -0.21385861256E-01  0.70537927678E-02  0.23268628695E-01  0.00000000000E+00 0.  1.
     999901    1    3    3    0    0 -0.11280533055E+00  0.35222604154E-01  0.43798434543E-01  0.88897917710E+00  0.88000000000E+00 0. -1.
        -11    1    4    4    0    0  0.14862530990E-01  0.55352866601E-02 -0.62575250048E-02  0.17057314151E-01  0.51100000000E-03 0.  1.
         11    1    4    4    0    0  0.10380095859E+00 -0.19372029558E-01 -0.44594702306E-01  0.11462488006E+00  0.51100000000E-03 0. -1.
</event>
<event>
 8    1  0.1170483E+005  0.1043930E+01  0.7957747E-01            NaN
         13   -1    0    0    0    0  0.00000000000E+00  0.00000000000E+00  0.74505805969E-08  0.10566000000E+00  0.10566000000E+00 0. -1.
     999900   -1    0    0    0    0 -0.00000000000E+00 -0.00000000000E+00 -0.74505805969E-08  0.93827000000E+00  0.93827000000E+00 0. -1.
     999902    2    1    2    0    0 -0.16577292548E-01  0.18995855891E-01  0.43554296484E-02  0.10183444780E+01  0.10180230139E+01 0.  0.
     999903    2    3    3    0    0  0.10927642762E+00 -0.59425107228E-01 -0.21603166153E-02  0.12591439037E+00  0.19418695398E-01 0.  0.
         14    1    1    2    0    0  0.16577292548E-01 -0.18995855891E-01 -0.43554296484E-02  0.25585522013E-01  0.00000000000E+00 0.  1.
     999901    1    3    3    0    0 -0.12585372017E+00  0.78420963119E-01  0.65157462637E-02  0.89243008762E+00  0.88000000000E+00 0.  1.
        -11    1    4    4    0    0  0.60067579372E-02 -0.67044069959E-03  0.34294820670E-02  0.69680054460E-02  0.51100000000E-03 0. -1.
         11    1    4    4    0    0  0.10326966969E+00 -0.58754666528E-01 -0.55897986823E-02  0.11894638492E+00  0.51100000000E-03 0.  1.
</event>
<event>
 8    1  0.1170483E+005  0.1043930E+01  0.7957747E-01            NaN
         13   -1    0    0    0    0  0.00000000000E+00  0.00000000000E+00  0.74505805969E-08  0.10566000000E+00  0.10566000000E+00 0. -1.
     999900   -1    0    0    0    0 -0.00000000000E+00 -0.00000000000E+00 -0.74505805969E-08  0.93827000000E+00  0.93827000000E+00 0.  1.
     999902    2    1    2    0    0 -0.75837066360E-03 -0.15170982331E-01 -0.17414937434E-01  0.10208212597E+01  0.10205596653E+01 0.  0.
     999903    2    3    3    0    0 -0.45114658298E-01 -0.76532912919E-01  0.93512952013E-01  0.13063152522E+00  0.20671333608E-01 0.  0.
         14    1    1    2    0    0  0.75837066360E-03  0.15170982331E-01  0.17414937434E-01  0.23108740268E-01  0.00000000000E+00 0. -1.
     999901    1    3    3    0    0  0.44356287635E-01  0.61361930587E-01 -0.11092788945E+00  0.89018973451E+00  0.88000000000E+00 0.  1.
        -11    1    4    4    0    0 -0.45692234282E-01 -0.65375837558E-01  0.85102922766E-01  0.11663853992E+00  0.51100000000E-03 0. -1.
         11    1    4    4    0    0  0.57757598334E-03 -0.11157075361E-01  0.84100292472E-02  0.13992985298E-01  0.51100000000E-03 0.  1.
</event>
<event>
 8    1  0.1170483E+005  0.1043930E+01  0.7957747E-01            NaN
         13   -1    0    0    0    0  0.00000000000E+00  0.00000000000E+00  0.74505805969E-08  0.10566000000E+00  0.10566000000E+00 0.  1.
     999900   -1    0    0    0    0 -0.00000000000E+00 -0.00000000000E+00 -0.74505805969E-08  0.93827000000E+00  0.93827000000E+00 0. -1.
     999902    2    1    2    0    0 -0.73687309845E-02 -0.20737557279E-01  0.68976163780E-02  0.10208665746E+01  0.10206060168E+01 0.  0.
     999903    2    3    3    0    0  0.66222484101E-01  0.10630431712E+00  0.20084042430E-01  0.12860585790E+00  0.21214916583E-01 0.  0.
         14    1    1    2    0    0  0.73687309845E-02  0.20737557279E-01 -0.68976163780E-02  0.23063425373E-01  0.00000000000E+00 0.  1.
     999901    1    3    3    0    0 -0.73591215086E-01 -0.12704187440E+00 -0.13186426052E-01  0.89226071673E+00  0.88000000000E+00 0.  1.
        -11    1    4    4    0    0  0.19285506168E-01  0.36326977394E-01 -0.29920419910E-02  0.41240677383E-01  0.51100000000E-03 0. -1.
         11    1    4    4    0    0  0.46936977933E-01  0.69977339728E-01  0.23076084421E-01  0.87365180513E-01  0.51100000000E-03 0.  1.
</event>
<event>
 8    1  0.1170483E+005  0.1043930E+01  0.7957747E-01            NaN
         13   -1    0    0    0    0  0.00000000000E+00  0.00000000000E+00  0.74505805969E-08  0.10566000000E+00  0.10566000000E+00 0. -1.
     999900   -1    0    0    0    0 -0.00000000000E+00 -0.00000000000E+00 -0.74505805969E-08  0.93827000000E+00  0.93827000000E+00 0. -1.
     999902    2    1    2    0    0  0.34122065208E-02 -0.25032267291E-01 -0.25033546052E-02  0.10185425160E+01  0.10182260714E+01 0.  0.
     999903    2    3    3    0    0  0.32028225992E-01 -0.11145524724E+00  0.59213235727E-01  0.13169599854E+00  0.19737004547E-01 0.  0.
         14    1    1    2    0    0 -0.34122065208E-02  0.25032267291E-01  0.25033546052E-02  0.25387483990E-01  0.00000000000E+00 0. -1.
     999901    1    3    3    0    0 -0.28616019471E-01  0.86422979945E-01 -0.61716590332E-01  0.88684651747E+00  0.88000000000E+00 0. -1.
        -11    1    4    4    0    0  0.28601360812E-01 -0.87647720130E-01  0.38365511127E-01  0.99861575440E-01  0.51100000000E-03 0. -1.
         11    1    4    4    0    0  0.34268651805E-02 -0.23807527106E-01  0.20847724600E-01  0.31834423096E-01  0.51100000000E-03 0.  1.
</event>
<event>
 8    1  0.1170483E+005  0.1043930E+01  0.7957747E-01            NaN
         13   -1    0    0    0    0  0.00000000000E+00  0.00000000000E+00  0.74505805969E-08  0.10566000000E+00  0.10566000000E+00 0.  1.
     999900   -1    0    0    0    0 -0.00000000000E+00 -0.00000000000E+00 -0.74505805969E-08  0.93827000000E+00  0.93827000000E+00 0.  1.
     999902    2    1    2    0    0 -0.96695346260E-02  0.22221995147E-01 -0.74960170748E-02  0.10185625555E+01  0.10182466166E+01 0.  0.
     999903    2    3    3    0    0 -0.98691316931E-01 -0.11354123428E-01 -0.81784506737E-01  0.13032215271E+00  0.20646205175E-01 0.  0.
         14    1    1    2    0    0  0.96695346260E-02 -0.22221995147E-01  0.74960170748E-02  0.25367444495E-01  0.00000000000E+00 0.  1.
     999901    1    3    3    0    0  0.89021782305E-01  0.33576118575E-01  0.74288489662E-01  0.88824040280E+00  0.88000000000E+00 0. -1.
        -11    1    4    4    0    0 -0.37598720649E-01 -0.17064022912E-02 -0.43740690298E-01  0.57706886175E-01  0.51100000000E-03 0.  1.
         11    1    4    4    0    0 -0.61092596282E-01 -0.96477211370E-02 -0.38043816438E-01  0.72615266534E-01  0.51100000000E-03 0. -1.
</event>
<event>
 8    1  0.1170483E+005  0.1043930E+01  0.7957747E-01            NaN
         13   -1    0    0    0    0  0.00000000000E+00  0.00000000000E+00  0.74505805969E-08  0.10566000000E+00  0.10566000000E+00 0.  1.
     999900   -1    0    0    0    0 -0.00000000000E+00 -0.00000000000E+00 -0.74505805969E-08  0.93827000000E+00  0.93827000000E+00 0. -1.
     999902    2    1    2    0    0  0.86999509257E-02  0.21564486209E-01 -0.14394738485E-02  0.10206321826E+01  0.10203662400E+01 0.  0.
     999903    2    3    3    0    0 -0.10021290470E+00  0.69698751015E-01  0.44223015830E-01  0.13143930107E+00  0.20495672101E-01 0.  0.
         14    1    1    2    0    0 -0.86999509257E-02 -0.21564486209E-01  0.14394738485E-02  0.23297817420E-01  0.00000000000E+00 0.  1.
     999901    1    3    3    0    0  0.10891285562E+00 -0.48134264806E-01 -0.45662489679E-01  0.88919288151E+00  0.88000000000E+00 0. -1.
        -11    1    4    4    0    0 -0.69358959538E-01  0.59163795656E-01  0.32995472513E-01  0.96953505930E-01  0.51100000000E-03 0. -1.
         11    1    4    4    0    0 -0.30853945161E-01  0.10534955359E-01  0.11227543317E-01  0.34485795138E-01  0.51100000000E-03 0.  1.
</event>
<event>
 8    1  0.1170483E+005  0.1043930E+01  0.7957747E-01            NaN
         13   -1    0    0    0    0  0.00000000000E+00  0.00000000000E+00  0.74505805969E-08  0.10566000000E+00  0.10566000000E+00 0. -1.
     999900   -1    0    0    0    0 -0.00000000000E+00 -0.00000000000E+00 -0.74505805969E-08  0.93827000000E+00  0.93827000000E+00 0.  1.
     999902    2    1    2    0    0 -0.12237324913E-01  0.19271239116E-01  0.47785925472E-02  0.10206068843E+01  0.10203403572E+01 0.  0.
     999903    2    3    3    0    0  0.72544894374E-01 -0.59637133134E-01 -0.85374097718E-01  0.12845103276E+00  0.19788428635E-01 0.  0.
         14    1    1    2    0    0  0.12237324913E-01 -0.19271239116E-01 -0.47785925472E-02  0.23323115676E-01  0.00000000000E+00 0. -1.
     999901    1    3    3    0    0 -0.84782219287E-01  0.78908372250E-01  0.90152690265E-01  0.89215585156E+00  0.88000000000E+00 0. -1.
        -11    1    4    4    0    0  0.32886152838E-02 -0.10570489052E-01 -0.91716838109E-02  0.14385101119E-01  0.51100000000E-03 0.  1.
         11    1    4    4    0    0  0.69256279090E-01 -0.49066644082E-01 -0.76202413907E-01  0.11406593164E+00  0.51100000000E-03 0. -1.
</event>
<event>
 8    1  0.1170483E+005  0.1043930E+01  0.7957747E-01            NaN
         13   -1    0    0    0    0  0.00000000000E+00  0.00000000000E+00  0.74505805969E-08  0.10566000000E+00  0.10566000000E+00 0.  1.
     999900   -1    0    0    0    0 -0.00000000000E+00 -0.00000000000E+00 -0.74505805969E-08  0.93827000000E+00  0.93827000000E+00 0. -1.
     999902    2    1    2    0    0  0.64989115846E-02 -0.28727810335E-02 -0.23692429033E-01  0.10191950062E+01  0.10188948134E+01 0.  0.
     999903    2    3    3    0    0  0.33347572384E-01  0.23394106687E-02  0.12079152565E+00  0.12699344231E+00  0.20474576761E-01 0.  0.
         14    1    1    2    0    0 -0.64989115846E-02  0.28727810335E-02  0.23692429033E-01  0.24734993756E-01  0.00000000000E+00 0.  1.
     999901    1    3    3    0    0 -0.26848660800E-01 -0.52121917022E-02 -0.14448395468E+00  0.89220156394E+00  0.88000000000E+00 0. -1.
        -11    1    4    4    0    0  0.18298221663E-01  0.17515212848E-02  0.97729173127E-01  0.99444181046E-01  0.51100000000E-03 0.  1.
         11    1    4    4    0    0  0.15049350721E-01  0.58788938386E-03  0.23062352525E-01  0.27549261262E-01  0.51100000000E-03 0. -1.
</event>
<event>
 8    1  0.1170483E+005  0.1043930E+01  0.7957747E-01            NaN
         13   -1    0    0    0    0  0.00000000000E+00  0.00000000000E+00  0.74505805969E-08  0.10566000000E+00  0.10566000000E+00 0. -1.
     999900   -1    0    0    0    0 -0.00000000000E+00 -0.00000000000E+00 -0.74505805969E-08  0.93827000000E+00  0.93827000000E+00 0.  1.
     999902    2    1    2    0    0  0.23734608572E-01 -0.88870585640E-02  0.22392835195E-02  0.10184874010E+01  0.10181695635E+01 0.  0.
     999903    2    3    3    0    0  0.47476494631E-01 -0.53537345412E-01  0.10746713404E+00  0.13077673540E+00  0.20811168290E-01 0.  0.
         14    1    1    2    0    0 -0.23734608572E-01  0.88870585640E-02 -0.22392835195E-02  0.25442599016E-01  0.00000000000E+00 0.  1.
     999901    1    3    3    0    0 -0.23741886058E-01  0.44650286848E-01 -0.10522785052E+00  0.88771066559E+00  0.88000000000E+00 0.  1.
        -11    1    4    4    0    0  0.25642298445E-01 -0.42132903702E-01  0.78932143369E-01  0.93076599754E-01  0.51100000000E-03 0. -1.
         11    1    4    4    0    0  0.21834196185E-01 -0.11404441710E-01  0.28534990675E-01  0.37700135644E-01  0.51100000000E-03 0.  1.
</event>
<event>
 8    1  0.1170483E+005  0.1043930E+01  0.7957747E-01            NaN
         13   -1    0    0    0    0  0.00000000000E+00  0.00000000000E+00  0.74505805969E-08  0.10566000000E+00  0.10566000000E+00 0.  1.
     999900   -1    0    0    0    0 -0.00000000000E+00 -0.00000000000E+00 -0.74505805969E-08  0.93827000000E+00  0.93827000000E+00 0.  1.
     999902    2    1    2    0    0 -0.11629680220E-01 -0.94498279255E-02  0.16485818154E-01  0.10216515146E+01  0.10214085796E+01 0.  0.
     999903    2    3    3    0    0 -0.18172727108E-01 -0.92368958367E-01 -0.89548688638E-01  0.13139216462E+00  0.19561717906E-01 0.  0.
         14    1    1    2    0    0  0.11629680220E-01  0.94498279255E-02 -0.16485818154E-01  0.22278485362E-01  0.00000000000E+00 0. -1.
     999901    1    3    3    0    0  0.65430468872E-02  0.82919130442E-01  0.10603450679E+00  0.89025935001E+00  0.88000000000E+00 0. -1.
        -11    1    4    4    0    0 -0.27645275392E-02 -0.57168038475E-01 -0.47028516290E-01  0.74079482321E-01  0.51100000000E-03 0.  1.
         11    1    4    4    0    0 -0.15408199568E-01 -0.35200919892E-01 -0.42520172348E-01  0.57312682303E-01  0.51100000000E-03 0. -1.
</event>
<event>
 8    1  0.1170483E+005  0.1043930E+01  0.7957747E-01            NaN
         13   -1    0    0    0    0  0.00000000000E+00  0.00000000000E+00  0.74505805969E-08  0.10566000000E+00  0.10566000000E+00 0. -1.
     999900   -1    0    0    0    0 -0.00000000000E+00 -0.00000000000E+00 -0.74505805969E-08  0.93827000000E+00  0.93827000000E+00 0. -1.
     999902    2    1    2    0    0  0.16657979924E-01  0.16003320133E-01 -0.48641070571E-02  0.10203237701E+01  0.10200506565E+01 0.  0.
     999903    2    3    3    0    0  0.11873557908E-01 -0.93185546860E-01  0.86086030741E-01  0.12891083164E+00  0.19561960657E-01 0.  0.
         14    1    1    2    0    0 -0.16657979924E-01 -0.16003320133E-01  0.48641070571E-02  0.23606229853E-01  0.00000000000E+00 0. -1.
     999901    1    3    3    0    0  0.47844220163E-02  0.10918886699E+00 -0.90950137798E-01  0.89141293851E+00  0.88000000000E+00 0.  1.
        -11    1    4    4    0    0 -0.11611020786E-02 -0.13161088204E-01  0.21545111707E-01  0.25278753138E-01  0.51100000000E-03 0.  1.
         11    1    4    4    0    0  0.13034659986E-01 -0.80024458656E-01  0.64540919033E-01  0.10363207850E+00  0.51100000000E-03 0. -1.
</event>
<event>
 8    1  0.1170483E+005  0.1043930E+01  0.7957747E-01            NaN
         13   -1    0    0    0    0  0.00000000000E+00  0.00000000000E+00  0.74505805969E-08  0.10566000000E+00  0.10566000000E+00 0.  1.
     999900   -1    0    0    0    0 -0.00000000000E+00 -0.00000000000E+00 -0.74505805969E-08  0.93827000000E+00  0.93827000000E+00 0. -1.
     999902    2    1    2    0    0 -0.18830822791E-01  0.65308364083E-02 -0.13215804244E-01  0.10200153770E+01  0.10197349951E+01 0.  0.
     999903    2    3    3    0    0  0.10169438413E+00  0.13001335112E-01 -0.76553622656E-01  0.12952120403E+00  0.20112251866E-01 0.  0.
         14    1    1    2    0    0  0.18830822791E-01 -0.65308364083E-02  0.13215804244E-01  0.23914622995E-01  0.00000000000E+00 0.  1.
     999901    1    3    3    0    0 -0.12052520692E+00 -0.64704987042E-02  0.63337818412E-01  0.89049417297E+00  0.88000000000E+00 0.  1.
        -11    1    4    4    0    0  0.46854688287E-01 -0.28746635447E-03 -0.44510830428E-01  0.64629092503E-01  0.51100000000E-03 0. -1.
         11    1    4    4    0    0  0.54839695839E-01  0.13288801467E-01 -0.32042792228E-01  0.64892111530E-01  0.51100000000E-03 0.  1.
</event>
<event>
 8    1  0.1170483E+005  0.1043930E+01  0.7957747E-01            NaN
         13   -1    0    0    0    0  0.00000000000E+00  0.00000000000E+00  0.74505805969E-08  0.10566000000E+00  0.10566000000E+00 0. -1.
     999900   -1    0    0    0    0 -0.00000000000E+00 -0.00000000000E+00 -0.74505805969E-08  0.93827000000E+00  0.93827000000E+00 0.  1.
     999902    2    1    2    0    0 -0.17457782493E-01 -0.41303191900E-02  0.13464773968E-01  0.10214993548E+01  0.10212530529E+01 0.  0.
     999903    2    3    3    0    0 -0.11035568554E+00 -0.24371676531E-01 -0.66287090646E-01  0.13279237674E+00  0.21621308588E-01 0.  0.
         14    1    1    2    0    0  0.17457782493E-01  0.41303191900E-02 -0.13464773968E-01  0.22430645203E-01  0.00000000000E+00 0.  1.
     999901    1    3    3    0    0  0.92897903051E-01  0.20241357341E-01  0.79751864614E-01  0.88870697806E+00  0.88000000000E+00 0. -1.
        -11    1    4    4    0    0 -0.80517233792E-01 -0.16850893193E-01 -0.58804881776E-01  0.10111999199E+00  0.51100000000E-03 0.  1.
         11    1    4    4    0    0 -0.29838451752E-01 -0.75207833379E-02 -0.74822088697E-02  0.31672384747E-01  0.51100000000E-03 0. -1.
</event>
<event>
 7    1  0.1170483E+005  0.1043930E+01  0.7957747E-01            NaN
         13   -1    0    0    0    0  0.00000000000E+00  0.00000000000E+00  0.74505805969E-08  0.10566000000E+00  0.10566000000E+00 0.  1.
     999900   -1    0    0    0    0 -0.00000000000E+00 -0.00000000000E+00 -0.74505805969E-08  0.93827000000E+00  0.93827000000E+00 0. -1.
     999902    2    1    2    0    0 -0.20636935135E-02  0.21725236437E-01  0.29924813449E-02  0.10219027516E+01  0.10216653239E+01 0.  0.
         14    1    1    2    0    0  0.20636935135E-02 -0.21725236437E-01 -0.29924813449E-02  0.22027248438E-01  0.00000000000E+00 0. -1.
     999901    1    3    3    0    0 -0.95259568286E-01  0.88983427598E-01 -0.17685269947E-01  0.88977817714E+00  0.88000000000E+00 0. -1.
        -11    1    3    3    0    0  0.78335023353E-01 -0.74165172150E-01  0.28629373584E-02  0.10791341981E+00  0.51100000000E-03 0.  1.
         11    1    3    3    0    0  0.14860851419E-01  0.69069809885E-02  0.17814813933E-01  0.24211154614E-01  0.51100000000E-03 0. -1.
</event>
<event>
 8    1  0.1170483E+005  0.1043930E+01  0.7957747E-01            NaN
         13   -1    0    0    0    0  0.00000000000E+00  0.00000000000E+00  0.74505805969E-08  0.10566000000E+00  0.10566000000E+00 0.  1.
     999900   -1    0    0    0    0 -0.00000000000E+00 -0.00000000000E+00 -0.74505805969E-08  0.93827000000E+00  0.93827000000E+00 0. -1.
     999902    2    1    2    0    0 -0.76947497395E-02  0.44158073791E-02 -0.16067975177E-01  0.10255754814E+01  0.10254112246E+01 0.  0.
     999903    2    3    3    0    0 -0.29547193692E-01 -0.12129700161E+00 -0.49482266568E-01  0.13574529839E+00  0.19806364521E-01 0.  0.
         14    1    1    2    0    0  0.76947497395E-02 -0.44158073791E-02  0.16067975177E-01  0.18354518644E-01  0.00000000000E+00 0.  1.
     999901    1    3    3    0    0  0.21852443952E-01  0.12571280899E+00  0.33414291391E-01  0.88983018297E+00  0.88000000000E+00 0. -1.
        -11    1    4    4    0    0 -0.12494672514E-01 -0.84648848702E-01 -0.38670235241E-01  0.93899907574E-01  0.51100000000E-03 0.  1.
         11    1    4    4    0    0 -0.17052521178E-01 -0.36648152907E-01 -0.10812031327E-01  0.41845390815E-01  0.51100000000E-03 0. -1.
</event>
<event>
 8    1  0.1170483E+005  0.1043930E+01  0.7957747E-01            NaN
         13   -1    0    0    0    0  0.00000000000E+00  0.00000000000E+00  0.74505805969E-08  0.10566000000E+00  0.10566000000E+00 0.  1.
     999900   -1    0    0    0    0 -0.00000000000E+00 -0.00000000000E+00 -0.74505805969E-08  0.93827000000E+00  0.93827000000E+00 0. -1.
     999902    2    1    2    0    0  0.18671149122E-01 -0.43787982666E-02  0.13426204260E-01  0.10205195612E+01  0.10202510113E+01 0.  0.
     999903    2    3    3    0    0  0.48552873595E-01 -0.18598535122E-01 -0.11766023405E+00  0.13019446739E+00  0.20084362524E-01 0.  0.
         14    1    1    2    0    0 -0.18671149122E-01  0.43787982666E-02 -0.13426204260E-01  0.23410438796E-01  0.00000000000E+00 0. -1.
     999901    1    3    3    0    0 -0.29881724473E-01  0.14219736856E-01  0.13108643831E+00  0.89032509382E+00  0.88000000000E+00 0.  1.
        -11    1    4    4    0    0  0.31403426913E-01 -0.27465372153E-02 -0.56111124667E-01  0.64361775309E-01  0.51100000000E-03 0.  1.
         11    1    4    4    0    0  0.17149446683E-01 -0.15851997907E-01 -0.61549109383E-01  0.65832692077E-01  0.51100000000E-03 0. -1.
</event>
<event>
 8    1  0.1170483E+005  0.1043930E+01  0.7957747E-01            NaN
         13   -1    0    0    0    0  0.00000000000E+00  0.00000000000E+00  0.74505805969E-08  0.10566000000E+00  0.10566000000E+00 0. -1.
     999900   -1    0    0    0    0 -0.00000000000E+00 -0.00000000000E+00 -0.74505805969E-08  0.93827000000E+00  0.93827000000E+00 0. -1.
     999902    2    1    2    0    0 -0.23314176494E-01  0.21267834233E-03 -0.22708196523E-02  0.10205045293E+01  0.10202356304E+01 0.  0.
     999903    2    3    3    0    0 -0.10947843888E+00 -0.59528350851E-01 -0.44470496877E-01  0.13327621397E+00  0.15992841633E-01 0.  0.
         14    1    1    2    0    0  0.23314176494E-01 -0.21267834233E-03  0.22708196523E-02  0.23425470744E-01  0.00000000000E+00 0.  1.
     999901    1    3    3    0    0  0.86164262388E-01  0.59741029193E-01  0.42199677225E-01  0.88722831528E+00  0.88000000000E+00 0.  1.
        -11    1    4    4    0    0 -0.14696698655E-01 -0.14594193413E-01 -0.63528363931E-02  0.21670327270E-01  0.51100000000E-03 0.  1.
         11    1    4    4    0    0 -0.94781740228E-01 -0.44934157437E-01 -0.38117660484E-01  0.11160588670E+00  0.51100000000E-03 0. -1.
</event>
<event>
 8    1  0.1170483E+005  0.1043930E+01  0.7957747E-01            NaN
         13   -1    0    0    0    0  0.00000000000E+00  0.00000000000E+00  0.74505805969E-08  0.10566000000E+00  0.10566000000E+00 0.  1.
     999900   -1    0    0    0    0 -0.00000000000E+00 -0.00000000000E+00 -0.74505805969E-08  0.93827000000E+00  0.93827000000E+00 0. -1.
     999902    2    1    2    0    0 -0.18818559513E-02 -0.24354575498E-01  0.10049935964E-01  0.10175162168E+01  0.10171733203E+01 0.  0.
     999903    2    3    3    0    0 -0.74211941694E-01  0.98993301385E-01 -0.87841561471E-02  0.12577574837E+00  0.20863639872E-01 0.  0.
         14    1    1    2    0    0  0.18818559513E-02  0.24354575498E-01 -0.10049935964E-01  0.26413783190E-01  0.00000000000E+00 0. -1.
     999901    1    3    3    0    0  0.72330085743E-01 -0.12334787688E+00  0.18834092111E-01  0.89174046844E+00  0.88000000000E+00 0.  1.
        -11    1    4    4    0    0 -0.25147356564E-01  0.18758623193E-01 -0.36150649685E-02  0.31584890406E-01  0.51100000000E-03 0.  1.
         11    1    4    4    0    0 -0.49064585130E-01  0.80234678192E-01 -0.51690911786E-02  0.94190857960E-01  0.51100000000E-03 0. -1.
</event>
<event>
 8    1  0.1170483E+005  0.1043930E+01  0.7957747E-01            NaN
         13   -1    0    0    0    0  0.00000000000E+00  0.00000000000E+00  0.74505805969E-08  0.10566000000E+00  0.10566000000E+00 0.  1.
     999900   -1    0    0    0    0 -0.00000000000E+00 -0.00000000000E+00 -0.74505805969E-08  0.93827000000E+00  0.93827000000E+00 0.  1.
     999902    2    1    2    0    0 -0.50123033602E-02 -0.82708230163E-02  0.21645553799E-01  0.10202222018E+01  0.10199467051E+01 0.  0.
     999903    2    3    3    0    0  0.12809913683E+00 -0.71054602812E-02  0.81016522489E-02  0.13010791086E+00  0.20063780270E-01 0.  0.
         14    1    1    2    0    0  0.50123033602E-02  0.82708230163E-02 -0.21645553799E-01  0.23707798245E-01  0.00000000000E+00 0. -1.
     999901    1    3    3    0    0 -0.13311144019E+00 -0.11653627351E-02  0.13543901551E-01  0.89011429089E+00  0.88000000000E+00 0.  1.
        -11    1    4    4    0    0  0.10234340678E+00 -0.63618544704E-02 -0.16435801277E-02  0.10255539274E+00  0.51100000000E-03 0.  1.
         11    1    4    4    0    0  0.25755730044E-01 -0.74360581074E-03  0.97452323765E-02  0.27552518120E-01  0.51100000000E-03 0. -1.
</event>
<event>
 8    1  0.1170483E+005  0.1043930E+01  0.7957747E-01            NaN
         13   -1    0    0    0    0  0.00000000000E+00  0.00000000000E+00  0.74505805969E-08  0.10566000000E+00  0.10566000000E+00 0. -1.
     999900   -1    0    0    0    0 -0.00000000000E+00 -0.00000000000E+00 -0.74505805969E-08  0.93827000000E+00  0.93827000000E+00 0.  1.
     999902    2    1    2    0    0  0.56467848677E-02  0.56459849705E-02 -0.22140556469E-01  0.10203934844E+01  0.10201220003E+01 0.  0.
     999903    2    3    3    0    0  0.10385305209E+00 -0.72062208610E-01 -0.30181595668E-01  0.13149096299E+00  0.20013152981E-01 0.  0.
         14    1    1    2    0    0 -0.56467848677E-02 -0.56459849705E-02  0.22140556469E-01  0.23536515596E-01  0.00000000000E+00 0. -1.
     999901    1    3    3    0    0 -0.98206267221E-01  0.77708193580E-01  0.80410391985E-02  0.88890252142E+00  0.88000000000E+00 0.  1.
        -11    1    4    4    0    0  0.91097764532E-01 -0.56823479719E-01 -0.30475537444E-01  0.11160972204E+00  0.51100000000E-03 0.  1.
         11    1    4    4    0    0  0.12755287557E-01 -0.15238728890E-01  0.29394177604E-03  0.19881240948E-01  0.51100000000E-03 0. -1.
</event>
<event>
 8    1  0.1170483E+005  0.1043930E+01  0.7957747E-01            NaN
         13   -1    0    0    0    0  0.00000000000E+00  0.00000000000E+00  0.74505805969E-08  0.10566000000E+00  0.10566000000E+00 0.  1.
     999900   -1    0    0    0    0 -0.00000000000E+00 -0.00000000000E+00 -0.74505805969E-08  0.93827000000E+00  0.93827000000E+00 0.  1.
     999902    2    1    2    0    0  0.18842861574E-01  0.15845754529E-01 -0.84038477404E-03  0.10192957228E+01  0.10189979994E+01 0.  0.
     999903    2    3    3    0    0 -0.11590421773E+00  0.31860605428E-01  0.39353403014E-01  0.12798837318E+00  0.19581814867E-01 0.  0.
         14    1    1    2    0    0 -0.18842861574E-01 -0.15845754529E-01  0.84038477404E-03  0.24634277247E-01  0.00000000000E+00 0.  1.
     999901    1    3    3    0    0  0.13474707931E+00 -0.16014850899E-01 -0.40193787788E-01  0.89130734958E+00  0.88000000000E+00 0.  1.
        -11    1    4    4    0    0 -0.72635309442E-01  0.10311081847E-01  0.21420959161E-01  0.76428562717E-01  0.51100000000E-03 0.  1.
         11    1    4    4    0    0 -0.43268908290E-01  0.21549523581E-01  0.17932443853E-01  0.51559810461E-01  0.51100000000E-03 0. -1.
</event>
<event>
 8    1  0.1170483E+005  0.1043930E+01  0.7957747E-01            NaN
         13   -1    0    0    0    0  0.00000000000E+00  0.00000000000E+00  0.74505805969E-08  0.10566000000E+00  0.10566000000E+00 0. -1.
     999900   -1    0    0    0    0 -0.00000000000E+00 -0.00000000000E+00 -0.74505805969E-08  0.93827000000E+00  0.93827000000E+00 0.  1.
     999902    2    1    2    0    0 -0.30045658868E-02 -0.23379725106E-01  0.19563732626E-02  0.10202769588E+01  0.10200027482E+01 0.  0.
     999903    2    3    3    0    0  0.40964321906E-01  0.11901972401E+00 -0.60708484328E-02  0.12771026521E+00  0.20719224548E-01 0.  0.
         14    1    1    2    0    0  0.30045658868E-02  0.23379725106E-01 -0.19563732626E-02  0.23653041211E-01  0.00000000000E+00 0.  1.
     999901    1    3    3    0    0 -0.43968887792E-01 -0.14239944912E+00  0.80272216954E-02  0.89256669358E+00  0.88000000000E+00 0.  1.
        -11    1    4    4    0    0 -0.40094071464E-04  0.21204822714E-01  0.22021142631E-02  0.21325021503E-01  0.51100000000E-03 0. -1.
         11    1    4    4    0    0  0.41004415977E-01  0.97814901297E-01 -0.82729626960E-02  0.10638524370E+00  0.51100000000E-03 0.  1.
</event>
<event>
 8    1  0.1170483E+005  0.1043930E+01  0.7957747E-01            NaN
         13   -1    0    0    0    0  0.00000000000E+00  0.00000000000E+00  0.74505805969E-08  0.10566000000E+00  0.10566000000E+00 0.  1.
     999900   -1    0    0    0    0 -0.00000000000E+00 -0.00000000000E+00 -0.74505805969E-08  0.93827000000E+00  0.93827000000E+00 0. -1.
     999902    2    1    2    0    0 -0.40684132360E-02 -0.21827374968E-01 -0.67475440228E-02  0.10207240604E+01  0.10204602353E+01 0.  0.
     999903    2    3    3    0    0 -0.81541580900E-01 -0.59049961186E-01 -0.84862337856E-01  0.13309264268E+00  0.19393499379E-01 0.  0.
         14    1    1    2    0    0  0.40684132360E-02  0.21827374968E-01  0.67475440228E-02  0.23205939640E-01  0.00000000000E+00 0. -1.
     999901    1    3    3    0    0  0.77473167664E-01  0.37222586218E-01  0.78114793833E-01  0.88763141768E+00  0.88000000000E+00 0.  1.
        -11    1    4    4    0    0 -0.86860850306E-02 -0.14752729513E-01 -0.16808845517E-01  0.23997698012E-01  0.51100000000E-03 0. -1.
         11    1    4    4    0    0 -0.72855495869E-01 -0.44297231672E-01 -0.68053492339E-01  0.10909494467E+00  0.51100000000E-03 0.  1.
</event>
<event>
 7    1  0.1170483E+005  0.1043930E+01  0.7957747E-01            NaN
         13   -1    0    0    0    0  0.00000000000E+00  0.00000000000E+00  0.74505805969E-08  0.10566000000E+00  0.10566000000E+00 0. -1.
     999900   -1    0    0    0    0 -0.00000000000E+00 -0.00000000000E+00 -0.74505805969E-08  0.93827000000E+00  0.93827000000E+00 0.  1.
     999902    2    1    2    0    0 -0.54783114390E-02 -0.14398792027E-01 -0.18716698412E-01  0.10196884673E+01  0.10194002739E+01 0.  0.
         14    1    1    2    0    0  0.54783114390E-02  0.14398792027E-01  0.18716698412E-01  0.24241532697E-01  0.00000000000E+00 0. -1.
     999901    1    3    3    0    0  0.57921717141E-01  0.20909316689E-01  0.85217168335E-01  0.88625847845E+00  0.88000000000E+00 0. -1.
        -11    1    3    3    0    0 -0.25604612949E-01 -0.31242012827E-01 -0.30080902587E-01  0.50366470902E-01  0.51100000000E-03 0. -1.
         11    1    3    3    0    0 -0.37795415631E-01 -0.40660958893E-02 -0.73852964160E-01  0.83063517953E-01  0.51100000000E-03 0.  1.
</event>
<event>
 8    1  0.1170483E+005  0.1043930E+01  0.7957747E-01            NaN
         13   -1    0    0    0    0  0.00000000000E+00  0.00000000000E+00  0.74505805969E-08  0.10566000000E+00  0.10566000000E+00 0.  1.
     999900   -1    0    0    0    0 -0.00000000000E+00 -0.00000000000E+00 -0.74505805969E-08  0.93827000000E+00  0.93827000000E+00 0.  1.
     999902    2    1    2    0    0 -0.20839859152E-01  0.10045641079E-01  0.11487797969E-02  0.10207667893E+01  0.10205039460E+01 0.  0.
     999903    2    3    3    0    0  0.54553872523E-01  0.27211564737E-01  0.11338790341E+00  0.13027450716E+00  0.19950847460E-01 0.  0.
         14    1    1    2    0    0  0.20839859152E-01 -0.10045641079E-01 -0.11487797969E-02  0.23163210684E-01  0.00000000000E+00 0. -1.
     999901    1    3    3    0    0 -0.75393731675E-01 -0.17165923658E-01 -0.11223912361E+00  0.89049228216E+00  0.88000000000E+00 0.  1.
        -11    1    4    4    0    0  0.40637667000E-01  0.11753672437E-01  0.86362980016E-01  0.96168571962E-01  0.51100000000E-03 0. -1.
         11    1    4    4    0    0  0.13916205523E-01  0.15457892300E-01  0.27024923390E-01  0.34105935198E-01  0.51100000000E-03 0.  1.
</event>
<event>
 8    1  0.1170483E+005  0.1043930E+01  0.7957747E-01            NaN
         13   -1    0    0    0    0  0.00000000000E+00  0.00000000000E+00  0.74505805969E-08  0.10566000000E+00  0.10566000000E+00 0. -1.
     999900   -1    0    0    0    0 -0.00000000000E+00 -0.00000000000E+00 -0.74505805969E-08  0.93827000000E+00  0.93827000000E+00 0. -1.
     999902    2    1    2    0    0  0.14588745373E-02 -0.22670833565E-01  0.38102318487E-02  0.10208949642E+01  0.10206350547E+01 0.  0.
     999903    2    3    3    0    0 -0.80235526612E-01  0.76224299671E-01  0.64320257841E-01  0.12953887044E+00  0.19883153574E-01 0.  0.
         14    1    1    2    0    0 -0.14588745373E-02  0.22670833565E-01 -0.38102318487E-02  0.23035035841E-01  0.00000000000E+00 0. -1.
     999901    1    3    3    0    0  0.81694401149E-01 -0.98895133236E-01 -0.60510025993E-01  0.89135609371E+00  0.88000000000E+00 0.  1.
        -11    1    4    4    0    0 -0.49658855604E-02  0.16176990425E-02  0.78767806150E-02  0.94647643102E-02  0.51100000000E-03 0.  1.
         11    1    4    4    0    0 -0.75269641052E-01  0.74606600629E-01  0.56443477226E-01  0.12007410613E+00  0.51100000000E-03 0. -1.
</event>
<event>
 8    1  0.1170483E+005  0.1043930E+01  0.7957747E-01            NaN
         13   -1    0    0    0    0  0.00000000000E+00  0.00000000000E+00  0.74505805969E-08  0.10566000000E+00  0.10566000000E+00 0. -1.
     999900   -1    0    0    0    0 -0.00000000000E+00 -0.00000000000E+00 -0.74505805969E-08  0.93827000000E+00  0.93827000000E+00 0. -1.
     999902    2    1    2    0    0  0.11777885454E-01 -0.81189592990E-02  0.22570630583E-01  0.10172079220E+01  0.10168568666E+01 0.  0.
     999903    2    3    3    0    0 -0.52296449652E-01 -0.67129809368E-01 -0.90419025913E-01  0.12571789779E+00  0.19699229090E-01 0.  0.
         14    1    1    2    0    0 -0.11777885454E-01  0.81189592990E-02 -0.22570630583E-01  0.26722077965E-01  0.00000000000E+00 0.  1.
     999901    1    3    3    0    0  0.64074335106E-01  0.59010850069E-01  0.11298965650E+00  0.89149002424E+00  0.88000000000E+00 0.  1.
        -11    1    4    4    0    0 -0.33342453368E-01 -0.42302360823E-01 -0.42954010800E-01  0.68894971461E-01  0.51100000000E-03 0. -1.
         11    1    4    4    0    0 -0.18953996284E-01 -0.24827448545E-01 -0.47465015113E-01  0.56822926333E-01  0.51100000000E-03 0.  1.
</event>
<event>
 8    1  0.1170483E+005  0.1043930E+01  0.7957747E-01            NaN
         13   -1    0    0    0    0  0.00000000000E+00  0.00000000000E+00  0.74505805969E-08  0.10566000000E+00  0.10566000000E+00 0.  1.
     999900   -1    0    0    0    0 -0.00000000000E+00 -0.00000000000E+00 -0.74505805969E-08  0.93827000000E+00  0.93827000000E+00 0.  1.
     999902    2    1    2    0    0  0.13400188352E-01  0.62888440226E-02  0.17796342117E-01  0.10207821189E+01  0.10205196274E+01 0.  0.
     999903    2    3    3    0    0  0.20928009935E-01  0.56778348655E-01  0.11743974711E+00  0.13368873805E+00  0.20465141178E-01 0.  0.
         14    1    1    2    0    0 -0.13400188352E-01 -0.62888440226E-02 -0.17796342117E-01  0.23147881107E-01  0.00000000000E+00 0. -1.
     999901    1    3    3    0    0 -0.75278215828E-02 -0.50489504633E-01 -0.99643404996E-01  0.88709338084E+00  0.88000000000E+00 0. -1.
        -11    1    4    4    0    0  0.53181011224E-02  0.23286411153E-01  0.67205950556E-01  0.71326292874E-01  0.51100000000E-03 0. -1.
         11    1    4    4    0    0  0.15609908813E-01  0.33491937503E-01  0.50233796557E-01  0.62362445176E-01  0.51100000000E-03 0.  1.
</event>
<event>
 8    1  0.1170483E+005  0.1043930E+01  0.7957747E-01            NaN
         13   -1    0    0    0    0  0.00000000000E+00  0.00000000000E+00  0.74505805969E-08  0.10566000000E+00  0.10566000000E+00 0. -1.
     999900   -1    0    0    0    0 -0.00000000000E+00 -0.00000000000E+00 -0.74505805969E-08  0.93827000000E+00  0.93827000000E+00 0. -1.
     999902    2    1    2    0    0 -0.45835441865E-02 -0.58888501874E-02 -0.22596036310E-01  0.10201336076E+01  0.10198560237E+01 0.  0.
     999903    2    3    3    0    0  0.11979516550E+00 -0.46088092023E-01 -0.11625002125E-01  0.13041095079E+00  0.19921885125E-01 0.  0.
         14    1    1    2    0    0  0.45835441865E-02  0.58888501874E-02  0.22596036310E-01  0.23796392389E-01  0.00000000000E+00 0. -1.
     999901    1    3    3    0    0 -0.12437870969E+00  0.40199241836E-01 -0.10971034185E-01  0.88972265682E+00  0.88000000000E+00 0.  1.
        -11    1    4    4    0    0  0.97679619662E-01 -0.37532608548E-01 -0.15857400982E-02  0.10465553256E+00  0.51100000000E-03 0.  1.
         11    1    4    4    0    0  0.22115545843E-01 -0.85554834757E-02 -0.10039262027E-01  0.25755418235E-01  0.51100000000E-03 0. -1.
</event>
<event>
 8    1  0.1170483E+005  0.1043930E+01  0.7957747E-01            NaN
         13   -1    0    0    0    0  0.00000000000E+00  0.00000000000E+00  0.74505805969E-08  0.10566000000E+00  0.10566000000E+00 0.  1.
     999900   -1    0    0    0    0 -0.00000000000E+00 -0.00000000000E+00 -0.74505805969E-08  0.93827000000E+00  0.93827000000E+00 0.  1.
     999902    2    1    2    0    0 -0.84997343101E-02 -0.29787164921E-02 -0.22001692986E-01  0.10201562176E+01  0.10198791671E+01 0.  0.
     999903    2    3    3    0    0  0.14876748723E-01 -0.88956941253E-02  0.12480920364E+00  0.12766817289E+00  0.20527397063E-01 0.  0.
         14    1    1    2    0    0  0.84997343101E-02  0.29787164921E-02  0.22001692986E-01  0.23773782398E-01  0.00000000000E+00 0.  1.
     999901    1    3    3    0    0 -0.23376483033E-01  0.59169776332E-02 -0.14681089662E+00  0.89248804471E+00  0.88000000000E+00 0.  1.
        -11    1    4    4    0    0 -0.42918989742E-04 -0.61441932923E-02  0.92517625603E-02  0.11117966753E-01  0.51100000000E-03 0.  1.
         11    1    4    4    0    0  0.14919667713E-01 -0.27515008330E-02  0.11555744108E+00  0.11655020614E+00  0.51100000000E-03 0. -1.
</event>
<event>
 8    1  0.1170483E+005  0.1043930E+01  0.7957747E-01            NaN
         13   -1    0    0    0    0  0.00000000000E+00  0.00000000000E+00  0.74505805969E-08  0.10566000000E+00  0.10566000000E+00 0. -1.
     999900   -1    0    0    0    0 -0.00000000000E+00 -0.00000000000E+00 -0.74505805969E-08  0.93827000000E+00  0.93827000000E+00 0.  1.
     999902    2    1    2    0    0  0.12933943940E-01  0.18650867179E-02  0.20442445354E-01  0.10196677036E+01  0.10193790104E+01 0.  0.
     999903    2    3    3    0    0  0.64714069474E-01 -0.35401669669E-01 -0.10168735966E+00  0.12894570331E+00  0.29077246848E-01 0.  0.
         14    1    1    2    0    0 -0.12933943940E-01 -0.18650867179E-02 -0.20442445354E-01  0.24262296395E-01  0.00000000000E+00 0.  1.
     999901    1    3    3    0    0 -0.51780125533E-01  0.37266756387E-01  0.12212980502E+00  0.89072200029E+00  0.88000000000E+00 0. -1.
        -11    1    4    4    0    0  0.51397809401E-01 -0.40058204272E-01 -0.84183120847E-01  0.10645869385E+00  0.51100000000E-03 0.  1.
         11    1    4    4    0    0  0.13316260073E-01  0.46565346022E-02 -0.17504238815E-01  0.22487009457E-01  0.51100000000E-03 0. -1.
</event>
<event>
 8    1  0.1170483E+005  0.1043930E+01  0.7957747E-01            NaN
         13   -1    0    0    0    0  0.00000000000E+00  0.00000000000E+00  0.74505805969E-08  0.10566000000E+00  0.10566000000E+00 0.  1.
     999900   -1    0    0    0    0 -0.00000000000E+00 -0.00000000000E+00 -0.74505805969E-08  0.93827000000E+00  0.93827000000E+00 0. -1.
     999902    2    1    2    0    0  0.86860242219E-02 -0.18873346732E-01 -0.10989109601E-01  0.10204265797E+01  0.10201558675E+01 0.  0.
     999903    2    3    3    0    0  0.32992158056E-01  0.37004907863E-01 -0.12024823368E+00  0.13157860418E+00  0.19885815911E-01 0.  0.
         14    1    1    2    0    0 -0.86860242219E-02  0.18873346732E-01  0.10989109601E-01  0.23503420251E-01  0.00000000000E+00 0.  1.
     999901    1    3    3    0    0 -0.24306133834E-01 -0.55878254596E-01  0.10925912408E+00  0.88884797557E+00  0.88000000000E+00 0.  1.
        -11    1    4    4    0    0  0.37188080981E-02  0.10153590181E-01 -0.47213500255E-01  0.48438627711E-01  0.51100000000E-03 0. -1.
         11    1    4    4    0    0  0.29273349957E-01  0.26851317682E-01 -0.73034733429E-01  0.83139976468E-01  0.51100000000E-03 0.  1.
</event>
<event>
 8    1  0.1170483E+005  0.1043930E+01  0.7957747E-01            NaN
         13   -1    0    0    0    0  0.00000000000E+00  0.00000000000E+00  0.74505805969E-08  0.10566000000E+00  0.10566000000E+00 0.  1.
     999900   -1    0    0    0    0 -0.00000000000E+00 -0.00000000000E+00 -0.74505805969E-08  0.93827000000E+00  0.93827000000E+00 0. -1.
     999902    2    1    2    0    0 -0.17337194019E-01 -0.61108978036E-03 -0.15094350296E-01  0.10209345409E+01  0.10206755340E+01 0.  0.
     999903    2    3    3    0    0 -0.12991746241E+00  0.45101033341E-02  0.20488032391E-01  0.13303440611E+00  0.19480905181E-01 0.  0.
         14    1    1    2    0    0  0.17337194019E-01  0.61108978036E-03  0.15094350296E-01  0.22995459074E-01  0.00000000000E+00 0.  1.
     999901    1    3    3    0    0  0.11258026839E+00 -0.51211931145E-02 -0.35582382687E-01  0.88790013482E+00  0.88000000000E+00 0.  1.
        -11    1    4    4    0    0 -0.85109592298E-01  0.47681657019E-02  0.41777401356E-02  0.85346896481E-01  0.51100000000E-03 0. -1.
         11    1    4    4    0    0 -0.44807870111E-01 -0.25806236780E-03  0.16310292255E-01  0.47687509628E-01  0.51100000000E-03 0.  1.
</event>
<event>
 8    1  0.1170483E+005  0.1043930E+01  0.7957747E-01            NaN
         13   -1    0    0    0    0  0.00000000000E+00  0.00000000000E+00  0.74505805969E-08  0.10566000000E+00  0.10566000000E+00 0.  1.
     999900   -1    0    0    0    0 -0.00000000000E+00 -0.00000000000E+00 -0.74505805969E-08  0.93827000000E+00  0.93827000000E+00 0. -1.
     999902    2    1    2    0    0  0.10942105280E-01  0.16093694257E-01 -0.13747000513E-01  0.10201031940E+01  0.10198248917E+01 0.  0.
     999903    2    3    3    0    0  0.66654571613E-01  0.76016773898E-02 -0.11278809190E+00  0.13275595019E+00  0.20059192894E-01 0.  0.
         14    1    1    2    0    0 -0.10942105280E-01 -0.16093694257E-01  0.13747000513E-01  0.23826806037E-01  0.00000000000E+00 0. -1.
     999901    1    3    3    0    0 -0.55712466333E-01  0.84920168674E-02  0.99041091386E-01  0.88734724378E+00  0.88000000000E+00 0.  1.
        -11    1    4    4    0    0  0.31201383815E-01  0.16778221316E-02 -0.71376746306E-01  0.77918178067E-01  0.51100000000E-03 0.  1.
         11    1    4    4    0    0  0.35453187798E-01  0.59238552582E-02 -0.41411345594E-01  0.54837772120E-01  0.51100000000E-03 0. -1.
</event>
<event>
 8    1  0.1170483E+005  0.1043930E+01  0.7957747E-01            NaN
         13   -1    0    0    0    0  0.00000000000E+00  0.00000000000E+00  0.74505805969E-08  0.10566000000E+00  0.10566000000E+00 0. -1.
     999900   -1    0    0    0    0 -0.00000000000E+00 -0.00000000000E+00 -0.74505805969E-08  0.93827000000E+00  0.93827000000E+00 0. -1.
     999902    2    1    2    0    0  0.94202731804E-02  0.20532811541E-01 -0.29140449010E-02  0.10211521697E+01  0.10208980968E+01 0.  0.
     999903    2    3    3    0    0  0.37223588593E-01 -0.11689232739E+00  0.36037437253E-01  0.12920154822E+00  0.18572329630E-01 0.  0.
         14    1    1    2    0    0 -0.94202731804E-02 -0.20532811541E-01  0.29140449010E-02  0.22777830324E-01  0.00000000000E+00 0.  1.
     999901    1    3    3    0    0 -0.27803315412E-01  0.13742513893E+00 -0.38951482154E-01  0.89195062146E+00  0.88000000000E+00 0. -1.
        -11    1    4    4    0    0  0.80368869823E-02 -0.19158230757E-01 -0.68178552607E-03  0.20793155379E-01  0.51100000000E-03 0.  1.
         11    1    4    4    0    0  0.29186701611E-01 -0.97734096632E-01  0.36719222779E-01  0.10840839284E+00  0.51100000000E-03 0. -1.
</event>
<event>
 8    1  0.1170483E+005  0.1043930E+01  0.7957747E-01            NaN
         13   -1    0    0    0    0  0.00000000000E+00  0.00000000000E+00  0.74505805969E-08  0.10566000000E+00  0.10566000000E+00 0.  1.
     999900   -1    0    0    0    0 -0.00000000000E+00 -0.00000000000E+00 -0.74505805969E-08  0.93827000000E+00  0.93827000000E+00 0.  1.
     999902    2    1    2    0    0 -0.83927521797E-02  0.20827179375E-01 -0.61205073864E-02  0.10206561885E+01  0.10203908001E+01 0.  0.
     999903    2    3    3    0    0 -0.46844799629E-02  0.75781064171E-01  0.10578913931E+00  0.13186068350E+00  0.20764966065E-01 0.  0.
         14    1    1    2    0    0  0.83927521797E-02 -0.20827179375E-01  0.61205073864E-02  0.23273811474E-01  0.00000000000E+00 0. -1.
     999901    1    3    3    0    0 -0.37082722168E-02 -0.54953884796E-01 -0.11190964670E+00  0.88879550503E+00  0.88000000000E+00 0.  1.
        -11    1    4    4    0    0  0.75348240122E-02  0.32085173137E-01  0.50956531922E-01  0.60688229292E-01  0.51100000000E-03 0.  1.
         11    1    4    4    0    0 -0.12219303975E-01  0.43695891033E-01  0.54832607392E-01  0.71172454203E-01  0.51100000000E-03 0. -1.
</event>
<event>
 8    1  0.1170483E+005  0.1043930E+01  0.7957747E-01            NaN
         13   -1    0    0    0    0  0.00000000000E+00  0.00000000000E+00  0.74505805969E-08  0.10566000000E+00  0.10566000000E+00 0. -1.
     999900   -1    0    0    0    0 -0.00000000000E+00 -0.00000000000E+00 -0.74505805969E-08  0.93827000000E+00  0.93827000000E+00 0.  1.
     999902    2    1    2    0    0  0.16558282696E-01 -0.11041984041E-01 -0.13116294939E-01  0.10200943265E+01  0.10198158146E+01 0.  0.
     999903    2    3    3    0    0 -0.64546368986E-01 -0.10429421587E-01 -0.11143376646E+00  0.13091230636E+00  0.21107843722E-01 0.  0.
         14    1    1    2    0    0 -0.16558282696E-01  0.11041984041E-01  0.13116294939E-01  0.23835673482E-01  0.00000000000E+00 0. -1.
     999901    1    3    3    0    0  0.81104651682E-01 -0.61256245461E-03  0.98317471520E-01  0.88918202015E+00  0.88000000000E+00 0. -1.
        -11    1    4    4    0    0 -0.48759633082E-01 -0.30445584485E-02 -0.65011873801E-01  0.81323895692E-01  0.51100000000E-03 0. -1.
         11    1    4    4    0    0 -0.15786735903E-01 -0.73848631382E-02 -0.46421892658E-01  0.49588410672E-01  0.51100000000E-03 0.  1.
</event>
<event>
 8    1  0.1170483E+005  0.1043930E+01  0.7957747E-01            NaN
         13   -1    0    0    0    0  0.00000000000E+00  0.00000000000E+00  0.74505805969E-08  0.10566000000E+00  0.10566000000E+00 0.  1.
     999900   -1    0    0    0    0 -0.00000000000E+00 -0.00000000000E+00 -0.74505805969E-08  0.93827000000E+00  0.93827000000E+00 0. -1.
     999902    2    1    2    0    0  0.60367359053E-02  0.22940978856E-02  0.22130619653E-01  0.10208763801E+01  0.10206160463E+01 0.  0.
     999903    2    3    3    0    0 -0.87852226729E-01  0.91004661667E-01 -0.24568558566E-01  0.13022183724E+00  0.18821547142E-01 0.  0.
         14    1    1    2    0    0 -0.60367359053E-02 -0.22940978856E-02 -0.22130619653E-01  0.23053619926E-01  0.00000000000E+00 0. -1.
     999901    1    3    3    0    0  0.93888962634E-01 -0.88710563782E-01  0.46699178219E-01  0.89065454284E+00  0.88000000000E+00 0. -1.
        -11    1    4    4    0    0 -0.40169719400E-01  0.54478128259E-01 -0.15916988875E-01  0.69534771670E-01  0.51100000000E-03 0.  1.
         11    1    4    4    0    0 -0.47682507329E-01  0.36526533408E-01 -0.86515696912E-02  0.60687065567E-01  0.51100000000E-03 0. -1.
</event>
<event>
 8    1  0.1170483E+005  0.1043930E+01  0.7957747E-01            NaN
         13   -1    0    0    0    0  0.00000000000E+00  0.00000000000E+00  0.74505805969E-08  0.10566000000E+00  0.10566000000E+00 0.  1.
     999900   -1    0    0    0    0 -0.00000000000E+00 -0.00000000000E+00 -0.74505805969E-08  0.93827000000E+00  0.93827000000E+00 0. -1.
     999902    2    1    2    0    0 -0.50517179062E-02 -0.14739662722E-01  0.17389753297E-01  0.10205808880E+01  0.10203137596E+01 0.  0.
     999903    2    3    3    0    0 -0.74831309758E-01  0.10378073424E+00  0.11151224449E-01  0.12987600132E+00  0.19319942886E-01 0.  0.
         14    1    1    2    0    0  0.50517179062E-02  0.14739662722E-01 -0.17389753297E-01  0.23349111989E-01  0.00000000000E+00 0. -1.
     999901    1    3    3    0    0  0.69779591852E-01 -0.11852039696E+00  0.62385288482E-02  0.89070488669E+00  0.88000000000E+00 0.  1.
        -11    1    4    4    0    0 -0.17504867482E-01  0.27710194460E-01  0.11142358667E-01  0.34622081685E-01  0.51100000000E-03 0.  1.
         11    1    4    4    0    0 -0.57326442276E-01  0.76070539777E-01  0.88657813336E-05  0.95253919634E-01  0.51100000000E-03 0. -1.
</event>
<event>
 8    1  0.1170483E+005  0.1043930E+01  0.7957747E-01            NaN
         13   -1    0    0    0    0  0.00000000000E+00  0.00000000000E+00  0.74505805969E-08  0.10566000000E+00  0.10566000000E+00 0.  1.
     999900   -1    0    0    0    0 -0.00000000000E+00 -0.00000000000E+00 -0.74505805969E-08  0.93827000000E+00  0.93827000000E+00 0. -1.
     999902    2    1    2    0    0  0.20205907552E-01 -0.13682262548E-01 -0.12841758900E-02  0.10194937131E+01  0.10192008139E+01 0.  0.
     999903    2    3    3    0    0 -0.62007127975E-01  0.30746994097E-01  0.10611397516E+00  0.12805257379E+00  0.18628589975E-01 0.  0.
         14    1    1    2    0    0 -0.20205907552E-01  0.13682262548E-01  0.12841758900E-02  0.24436286873E-01  0.00000000000E+00 0.  1.
     999901    1    3    3    0    0  0.82213035528E-01 -0.44429256645E-01 -0.10739815105E+00  0.89144113934E+00  0.88000000000E+00 0.  1.
        -11    1    4    4    0    0 -0.17234519395E-01  0.34290670661E-02  0.15923764639E-01  0.23719497486E-01  0.51100000000E-03 0. -1.
         11    1    4    4    0    0 -0.44772608580E-01  0.27317927031E-01  0.90190210518E-01  0.10433307630E+00  0.51100000000E-03 0.  1.
</event>
<event>
 8    1  0.1170483E+005  0.1043930E+01  0.7957747E-01            NaN
         13   -1    0    0    0    0  0.00000000000E+00  0.00000000000E+00  0.74505805969E-08  0.10566000000E+00  0.10566000000E+00 0.  1.
     999900   -1    0    0    0    0 -0.00000000000E+00 -0.00000000000E+00 -0.74505805969E-08  0.93827000000E+00  0.93827000000E+00 0.  1.
     999902    2    1    2    0    0 -0.34317911699E-02  0.10136524545E-01 -0.20925801519E-01  0.10204264792E+01  0.10201557646E+01 0.  0.
     999903    2    3    3    0    0 -0.75744456460E-01  0.39595390265E-01 -0.10026673245E+00  0.13341355391E+00  0.20993835179E-01 0.  0.
         14    1    1    2    0    0  0.34317911699E-02 -0.10136524545E-01  0.20925801519E-01  0.23503520794E-01  0.00000000000E+00 0.  1.
     999901    1    3    3    0    0  0.72312665290E-01 -0.29458865720E-01  0.79340930927E-01  0.88701292530E+00  0.88000000000E+00 0. -1.
        -11    1    4    4    0    0 -0.58186158351E-01  0.22292916256E-01 -0.80576316994E-01  0.10185974239E+00  0.51100000000E-03 0. -1.
         11    1    4    4    0    0 -0.17558298110E-01  0.17302474009E-01 -0.19690415452E-01  0.31553811513E-01  0.51100000000E-03 0.  1.
</event>
<event>
 8    1  0.1170483E+005  0.1043930E+01  0.7957747E-01            NaN
         13   -1    0    0    0    0  0.00000000000E+00  0.00000000000E+00  0.74505805969E-08  0.10566000000E+00  0.10566000000E+00 0. -1.
     999900   -1    0    0    0    0 -0.00000000000E+00 -0.00000000000E+00 -0.74505805969E-08  0.93827000000E+00  0.93827000000E+00 0.  1.
     999902    2    1    2    0    0 -0.28066974883E-02 -0.16811746428E-01  0.16105110086E-01  0.10204803318E+01  0.10202108707E+01 0.  0.
     999903    2    3    3    0    0 -0.57380221596E-01 -0.86989742970E-01 -0.76972766031E-01  0.13111723846E+00  0.20179650619E-01 0.  0.
         14    1    1    2    0    0  0.28066974883E-02  0.16811746428E-01 -0.16105110086E-01  0.23449668220E-01  0.00000000000E+00 0.  1.
     999901    1    3    3    0    0  0.54573524108E-01  0.70177996542E-01  0.93077876117E-01  0.88936309332E+00  0.88000000000E+00 0. -1.
        -11    1    4    4    0    0 -0.52262373411E-02 -0.83277819135E-02 -0.88541751609E-03  0.98848668945E-02  0.51100000000E-03 0.  1.
         11    1    4    4    0    0 -0.52153984255E-01 -0.78661961056E-01 -0.76087348515E-01  0.12123237157E+00  0.51100000000E-03 0. -1.
</event>
<event>
 8    1  0.1170483E+005  0.1043930E+01  0.7957747E-01            NaN
         13   -1    0    0    0    0  0.00000000000E+00  0.00000000000E+00  0.74505805969E-08  0.10566000000E+00  0.10566000000E+00 0. -1.
     999900   -1    0    0    0    0 -0.00000000000E+00 -0.00000000000E+00 -0.74505805969E-08  0.93827000000E+00  0.93827000000E+00 0.  1.
     999902    2    1    2    0    0  0.19595446763E-01 -0.30996700694E-02  0.13558761008E-01  0.10199002374E+01  0.10196171168E+01 0.  0.
     999903    2    3    3    0    0  0.72406604661E-01  0.14367775739E-01  0.10954750646E+00  0.13293464098E+00  0.14893395235E-01 0.  0.
         14    1    1    2    0    0 -0.19595446763E-01  0.30996700694E-02 -0.13558761008E-01  0.24029762555E-01  0.00000000000E+00 0. -1.
     999901    1    3    3    0    0 -0.52811157898E-01 -0.17467445808E-01 -0.95988745455E-01  0.88696559647E+00  0.88000000000E+00 0.  1.
        -11    1    4    4    0    0  0.49249686456E-01  0.39271087290E-02  0.64940902297E-01  0.81599851171E-01  0.51100000000E-03 0. -1.
         11    1    4    4    0    0  0.23156918204E-01  0.10440667010E-01  0.44606604166E-01  0.51334789807E-01  0.51100000000E-03 0.  1.
</event>
<event>
 8    1  0.1170483E+005  0.1043930E+01  0.7957747E-01            NaN
         13   -1    0    0    0    0  0.00000000000E+00  0.00000000000E+00  0.74505805969E-08  0.10566000000E+00  0.10566000000E+00 0. -1.
     999900   -1    0    0    0    0 -0.00000000000E+00 -0.00000000000E+00 -0.74505805969E-08  0.93827000000E+00  0.93827000000E+00 0. -1.
     999902    2    1    2    0    0  0.16987323263E-01  0.94688463066E-02 -0.13001676622E-01  0.10205361590E+01  0.10202679942E+01 0.  0.
     999903    2    3    3    0    0  0.62294604856E-01  0.10980552046E+00 -0.37935914061E-01  0.13332597299E+00  0.19970262414E-01 0.  0.
         14    1    1    2    0    0 -0.16987323263E-01 -0.94688463066E-02  0.13001676622E-01  0.23393841006E-01  0.00000000000E+00 0. -1.
     999901    1    3    3    0    0 -0.45307281593E-01 -0.10033667416E+00  0.24934237438E-01  0.88721018600E+00  0.88000000000E+00 0. -1.
        -11    1    4    4    0    0  0.42429507946E-01  0.56108185757E-01 -0.24725468196E-01  0.74565417937E-01  0.51100000000E-03 0.  1.
         11    1    4    4    0    0  0.19865096909E-01  0.53697334705E-01 -0.13210445865E-01  0.58760555057E-01  0.51100000000E-03 0. -1.
</event>
<event>
 8    1  0.1170483E+005  0.1043930E+01  0.7957747E-01            NaN
         13   -1    0    0    0    0  0.00000000000E+00  0.00000000000E+00  0.74505805969E-08  0.10566000000E+00  0.10566000000E+00 0.  1.
     999900   -1    0    0    0    0 -0.00000000000E+00 -0.00000000000E+00 -0.74505805969E-08  0.93827000000E+00  0.93827000000E+00 0.  1.
     999902    2    1    2    0    0 -0.19727474970E-01 -0.10927760916E-01  0.82990553381E-02  0.10198995288E+01  0.10196163912E+01 0.  0.
     999903    2    3    3    0    0  0.53347270344E-01 -0.46107168488E-01 -0.10601006641E+00  0.12880801584E+00  0.19533779095E-01 0.  0.
         14    1    1    2    0    0  0.19727474970E-01  0.10927760916E-01 -0.82990553381E-02  0.24030471215E-01  0.00000000000E+00 0. -1.
     999901    1    3    3    0    0 -0.73074745314E-01  0.35179407572E-01  0.11430912175E+00  0.89109151294E+00  0.88000000000E+00 0. -1.
        -11    1    4    4    0    0  0.34456384563E-01 -0.16941447401E-01 -0.54371163244E-01  0.66563800904E-01  0.51100000000E-03 0.  1.
         11    1    4    4    0    0  0.18890885781E-01 -0.29165721087E-01 -0.51638903168E-01  0.62244214940E-01  0.51100000000E-03 0. -1.
</event>
<event>
 8    1  0.1170483E+005  0.1043930E+01  0.7957747E-01            NaN
         13   -1    0    0    0    0  0.00000000000E+00  0.00000000000E+00  0.74505805969E-08  0.10566000000E+00  0.10566000000E+00 0.  1.
     999900   -1    0    0    0    0 -0.00000000000E+00 -0.00000000000E+00 -0.74505805969E-08  0.93827000000E+00  0.93827000000E+00 0.  1.
     999902    2    1    2    0    0 -0.12046436335E-01  0.17628714064E-01 -0.95331066759E-02  0.10205469226E+01  0.10202790073E+01 0.  0.
     999903    2    3    3    0    0 -0.35381452448E-01 -0.72050715714E-01  0.99661877951E-01  0.12896940614E+00  0.16045715693E-01 0.  0.
         14    1    1    2    0    0  0.12046436335E-01 -0.17628714064E-01  0.95331066759E-02  0.23383077445E-01  0.00000000000E+00 0.  1.
     999901    1    3    3    0    0  0.23335016113E-01  0.89679429778E-01 -0.10919498463E+00  0.89157751641E+00  0.88000000000E+00 0.  1.
        -11    1    4    4    0    0 -0.19848025663E-01 -0.45086296054E-01  0.48812532979E-01  0.69351587663E-01  0.51100000000E-03 0.  1.
         11    1    4    4    0    0 -0.15533426785E-01 -0.26964419660E-01  0.50849344972E-01  0.59617818480E-01  0.51100000000E-03 0. -1.
</event>
<event>
 8    1  0.1170483E+005  0.1043930E+01  0.7957747E-01            NaN
         13   -1    0    0    0    0  0.00000000000E+00  0.00000000000E+00  0.74505805969E-08  0.10566000000E+00  0.10566000000E+00 0. -1.
     999900   -1    0    0    0    0 -0.00000000000E+00 -0.00000000000E+00 -0.74505805969E-08  0.93827000000E+00  0.93827000000E+00 0.  1.
     999902    2    1    2    0    0 -0.18276788338E-01 -0.64941175519E-02  0.13503801557E-01  0.10202959734E+01  0.10200222087E+01 0.  0.
     999903    2    3    3    0    0 -0.51114973009E-01  0.96456979593E-01  0.72306547224E-01  0.13173813195E+00  0.14491696290E-01 0.  0.
         14    1    1    2    0    0  0.18276788338E-01  0.64941175519E-02 -0.13503801557E-01  0.23634026555E-01  0.00000000000E+00 0. -1.
     999901    1    3    3    0    0  0.32838184671E-01 -0.10295109715E+00 -0.58802745667E-01  0.88855784149E+00  0.88000000000E+00 0.  1.
        -11    1    4    4    0    0 -0.20823250742E-01  0.54690993263E-01  0.38713935672E-01  0.70169384006E-01  0.51100000000E-03 0.  1.
         11    1    4    4    0    0 -0.30291722267E-01  0.41765986331E-01  0.33592611552E-01  0.61568747948E-01  0.51100000000E-03 0. -1.
</event>
<event>
 8    1  0.1170483E+005  0.1043930E+01  0.7957747E-01            NaN
         13   -1    0    0    0    0  0.00000000000E+00  0.00000000000E+00  0.74505805969E-08  0.10566000000E+00  0.10566000000E+00 0.  1.
     999900   -1    0    0    0    0 -0.00000000000E+00 -0.00000000000E+00 -0.74505805969E-08  0.93827000000E+00  0.93827000000E+00 0.  1.
     999902    2    1    2    0    0 -0.10327922361E-01 -0.19452446243E-01  0.95339601728E-02  0.10199308325E+01  0.10196484409E+01 0.  0.
     999903    2    3    3    0    0  0.10912323046E+00 -0.68087680918E-01 -0.11054280165E-01  0.13029166990E+00  0.17604272676E-01 0.  0.
         14    1    1    2    0    0  0.10327922361E-01  0.19452446243E-01 -0.95339601728E-02  0.23999167521E-01  0.00000000000E+00 0.  1.
     999901    1    3    3    0    0 -0.11945115282E+00  0.48635234676E-01  0.20588240338E-01  0.88963916258E+00  0.88000000000E+00 0. -1.
        -11    1    4    4    0    0  0.46037010816E-01 -0.23780045191E-01 -0.12013632597E-01  0.53192907453E-01  0.51100000000E-03 0. -1.
         11    1    4    4    0    0  0.63086219640E-01 -0.44307635727E-01  0.95935243140E-03  0.77098762443E-01  0.51100000000E-03 0.  1.
</event>
<event>
 8    1  0.1170483E+005  0.1043930E+01  0.7957747E-01            NaN
         13   -1    0    0    0    0  0.00000000000E+00  0.00000000000E+00  0.74505805969E-08  0.10566000000E+00  0.10566000000E+00 0.  1.
     999900   -1    0    0    0    0 -0.00000000000E+00 -0.00000000000E+00 -0.74505805969E-08  0.93827000000E+00  0.93827000000E+00 0. -1.
     999902    2    1    2    0    0  0.23549115259E-01  0.11438495878E-01 -0.49588445225E-03  0.10177451586E+01  0.10174082573E+01 0.  0.
     999903    2    3    3    0    0 -0.68514960728E-01  0.80262182654E-02 -0.10458989242E+00  0.12683382732E+00  0.19724455169E-01 0.  0.
         14    1    1    2    0    0 -0.23549115259E-01 -0.11438495878E-01  0.49588445225E-03  0.26184841394E-01  0.00000000000E+00 0.  1.
     999901    1    3    3    0    0  0.92064075987E-01  0.34122776125E-02  0.10409400797E+00  0.89091133129E+00  0.88000000000E+00 0. -1.
        -11    1    4    4    0    0 -0.23689596917E-01  0.39046952624E-02 -0.54092491024E-01  0.59183632478E-01  0.51100000000E-03 0.  1.
         11    1    4    4    0    0 -0.44825363811E-01  0.41215230030E-02 -0.50497401398E-01  0.67650194838E-01  0.51100000000E-03 0. -1.
</event>
<event>
 8    1  0.1170483E+005  0.1043930E+01  0.7957747E-01            NaN
         13   -1    0    0    0    0  0.00000000000E+00  0.00000000000E+00  0.74505805969E-08  0.10566000000E+00  0.10566000000E+00 0.  1.
     999900   -1    0    0    0    0 -0.00000000000E+00 -0.00000000000E+00 -0.74505805969E-08  0.93827000000E+00  0.93827000000E+00 0.  1.
     999902    2    1    2    0    0  0.18109114304E-01 -0.10103505133E-01 -0.11450882109E-01  0.10202415315E+01  0.10199664892E+01 0.  0.
     999903    2    3    3    0    0 -0.28529125757E-01 -0.26698049204E-02  0.12387330419E+00  0.12864575949E+00  0.19598394551E-01 0.  0.
         14    1    1    2    0    0 -0.18109114304E-01  0.10103505133E-01  0.11450882109E-01  0.23688468458E-01  0.00000000000E+00 0. -1.
     999901    1    3    3    0    0  0.46638240060E-01 -0.74337002127E-02 -0.13532418630E+00  0.89159577205E+00  0.88000000000E+00 0.  1.
        -11    1    4    4    0    0 -0.22843615584E-01  0.43068219120E-02  0.63902566098E-01  0.68001312949E-01  0.51100000000E-03 0.  1.
         11    1    4    4    0    0 -0.56855101731E-02 -0.69766268324E-02  0.59970738096E-01  0.60644446545E-01  0.51100000000E-03 0. -1.
</event>
<event>
 8    1  0.1170483E+005  0.1043930E+01  0.7957747E-01            NaN
         13   -1    0    0    0    0  0.00000000000E+00  0.00000000000E+00  0.74505805969E-08  0.10566000000E+00  0.10566000000E+00 0. -1.
     999900   -1    0    0    0    0 -0.00000000000E+00 -0.00000000000E+00 -0.74505805969E-08  0.93827000000E+00  0.93827000000E+00 0. -1.
     999902    2    1    2    0    0 -0.15100653982E-01  0.79936356648E-02  0.16288533139E-01  0.10203239780E+01  0.10200508692E+01 0.  0.
     999903    2    3    3    0    0  0.11083671336E+00  0.24566890082E-01 -0.56227597750E-01  0.12825140110E+00  0.19964218486E-01 0.  0.
         14    1    1    2    0    0  0.15100653982E-01 -0.79936356648E-02 -0.16288533139E-01  0.23606021979E-01  0.00000000000E+00 0.  1.
     999901    1    3    3    0    0 -0.12593736734E+00 -0.16573254417E-01  0.72516130890E-01  0.89207257692E+00  0.88000000000E+00 0. -1.
        -11    1    4    4    0    0  0.61130528599E-01  0.17127264529E-01 -0.20986666395E-01  0.66865432059E-01  0.51100000000E-03 0.  1.
         11    1    4    4    0    0  0.49706184757E-01  0.74396255528E-02 -0.35240931355E-01  0.61385969042E-01  0.51100000000E-03 0. -1.
</event>
<event>
 8    1  0.1170483E+005  0.1043930E+01  0.7957747E-01            NaN
         13   -1    0    0    0    0  0.00000000000E+00  0.00000000000E+00  0.74505805969E-08  0.10566000000E+00  0.10566000000E+00 0. -1.
     999900   -1    0    0    0    0 -0.00000000000E+00 -0.00000000000E+00 -0.74505805969E-08  0.93827000000E+00  0.93827000000E+00 0. -1.
     999902    2    1    2    0    0  0.17756339403E-01  0.16240194191E-01  0.81778884824E-03  0.10198530343E+01  0.10195687870E+01 0.  0.
     999903    2    3    3    0    0 -0.45125644265E-01  0.85272452178E-01  0.86153790037E-01  0.13080757454E+00  0.19504644260E-01 0.  0.
         14    1    1    2    0    0 -0.17756339403E-01 -0.16240194191E-01 -0.81778884824E-03  0.24076965651E-01  0.00000000000E+00 0. -1.
     999901    1    3    3    0    0  0.62881983668E-01 -0.69032257988E-01 -0.85336001189E-01  0.88904545981E+00  0.88000000000E+00 0. -1.
        -11    1    4    4    0    0 -0.38548647172E-01  0.57343058151E-01  0.53891890553E-01  0.87628885108E-01  0.51100000000E-03 0. -1.
         11    1    4    4    0    0 -0.65769970931E-02  0.27929394027E-01  0.32261899485E-01  0.43178689430E-01  0.51100000000E-03 0.  1.
</event>
<event>
 8    1  0.1170483E+005  0.1043930E+01  0.7957747E-01            NaN
         13   -1    0    0    0    0  0.00000000000E+00  0.00000000000E+00  0.74505805969E-08  0.10566000000E+00  0.10566000000E+00 0. -1.
     999900   -1    0    0    0    0 -0.00000000000E+00 -0.00000000000E+00 -0.74505805969E-08  0.93827000000E+00  0.93827000000E+00 0. -1.
     999902    2    1    2    0    0  0.19300424412E-01  0.36540044537E-02  0.85982332509E-02  0.10224873382E+01  0.10222624756E+01 0.  0.
     999903    2    3    3    0    0  0.48384594660E-01 -0.87639481326E-01 -0.84548689263E-01  0.13239928709E+00  0.18956336133E-01 0.  0.
         14    1    1    2    0    0 -0.19300424412E-01 -0.36540044537E-02 -0.85982332509E-02  0.21442661823E-01  0.00000000000E+00 0.  1.
     999901    1    3    3    0    0 -0.29084170248E-01  0.91293485780E-01  0.93146922514E-01  0.89008805108E+00  0.88000000000E+00 0.  1.
        -11    1    4    4    0    0  0.17085600425E-01 -0.43360027355E-01 -0.29678939312E-01  0.55254957006E-01  0.51100000000E-03 0. -1.
         11    1    4    4    0    0  0.31298994234E-01 -0.44279453972E-01 -0.54869749951E-01  0.77144330088E-01  0.51100000000E-03 0.  1.
</event>
<event>
 8    1  0.1170483E+005  0.1043930E+01  0.7957747E-01            NaN
         13   -1    0    0    0    0  0.00000000000E+00  0.00000000000E+00  0.74505805969E-08  0.10566000000E+00  0.10566000000E+00 0.  1.
     999900   -1    0    0    0    0 -0.00000000000E+00 -0.00000000000E+00 -0.74505805969E-08  0.93827000000E+00  0.93827000000E+00 0. -1.
     999902    2    1    2    0    0 -0.31516113441E-02  0.18608480002E-01  0.14192966299E-01  0.10203154182E+01  0.10200421090E+01 0.  0.
     999903    2    3    3    0    0  0.54845253932E-01 -0.10680771980E+00 -0.38007588818E-01  0.12800506998E+00  0.22909173846E-01 0.  0.
         14    1    1    2    0    0  0.31516113441E-02 -0.18608480002E-01 -0.14192966299E-01  0.23614581817E-01  0.00000000000E+00 0. -1.
     999901    1    3    3    0    0 -0.57996865276E-01  0.12541619980E+00  0.52200555116E-01  0.89231034820E+00  0.88000000000E+00 0.  1.
        -11    1    4    4    0    0  0.39181848271E-01 -0.51321862067E-01 -0.19520966620E-01  0.67457245858E-01  0.51100000000E-03 0.  1.
         11    1    4    4    0    0  0.15663405661E-01 -0.55485857729E-01 -0.18486622198E-01  0.60547824123E-01  0.51100000000E-03 0. -1.
</event>
<event>
 8    1  0.1170483E+005  0.1043930E+01  0.7957747E-01            NaN
         13   -1    0    0    0    0  0.00000000000E+00  0.00000000000E+00  0.74505805969E-08  0.10566000000E+00  0.10566000000E+00 0.  1.
     999900   -1    0    0    0    0 -0.00000000000E+00 -0.00000000000E+00 -0.74505805969E-08  0.93827000000E+00  0.93827000000E+00 0. -1.
     999902    2    1    2    0    0  0.97229221081E-02  0.80971218061E-02 -0.20142018974E-01  0.10201434592E+01  0.10198661078E+01 0.  0.
     999903    2    3    3    0    0 -0.80342731606E-01 -0.56380992856E-01 -0.84248577480E-01  0.13088595986E+00  0.19988516807E-01 0.  0.
         14    1    1    2    0    0 -0.97229221081E-02 -0.80971218061E-02  0.20142018974E-01  0.23786540820E-01  0.00000000000E+00 0.  1.
     999901    1    3    3    0    0  0.90065653714E-01  0.64478114662E-01  0.64106558507E-01  0.88925749932E+00  0.88000000000E+00 0.  1.
        -11    1    4    4    0    0 -0.79829394562E-01 -0.51010078351E-01 -0.79257385438E-01  0.12351823589E+00  0.51100000000E-03 0.  1.
         11    1    4    4    0    0 -0.51333704386E-03 -0.53709145059E-02 -0.49911920422E-02  0.73677239736E-02  0.51100000000E-03 0. -1.
</event>
<event>
 8    1  0.1170483E+005  0.1043930E+01  0.7957747E-01            NaN
         13   -1    0    0    0    0  0.00000000000E+00  0.00000000000E+00  0.74505805969E-08  0.10566000000E+00  0.10566000000E+00 0.  1.
     999900   -1    0    0    0    0 -0.00000000000E+00 -0.00000000000E+00 -0.74505805969E-08  0.93827000000E+00  0.93827000000E+00 0. -1.
     999902    2    1    2    0    0  0.28098868243E-02  0.20666221665E-01 -0.11896485912E-01  0.10199192824E+01  0.10196366157E+01 0.  0.
     999903    2    3    3    0    0  0.97318306278E-01  0.74682792693E-01  0.42682379273E-01  0.13153395846E+00  0.20761128742E-01 0.  0.
         14    1    1    2    0    0 -0.28098868243E-02 -0.20666221665E-01  0.11896485912E-01  0.24010717585E-01  0.00000000000E+00 0.  1.
     999901    1    3    3    0    0 -0.94508419454E-01 -0.54016571027E-01 -0.54578865185E-01  0.88838532395E+00  0.88000000000E+00 0. -1.
        -11    1    4    4    0    0  0.86124457146E-01  0.67972984111E-01  0.31006212719E-01  0.11401488954E+00  0.51100000000E-03 0. -1.
         11    1    4    4    0    0  0.11193849132E-01  0.67098085815E-02  0.11676166554E-01  0.17519068925E-01  0.51100000000E-03 0.  1.
</event>
<event>
 8    1  0.1170483E+005  0.1043930E+01  0.7957747E-01            NaN
         13   -1    0    0    0    0  0.00000000000E+00  0.00000000000E+00  0.74505805969E-08  0.10566000000E+00  0.10566000000E+00 0.  1.
     999900   -1    0    0    0    0 -0.00000000000E+00 -0.00000000000E+00 -0.74505805969E-08  0.93827000000E+00  0.93827000000E+00 0. -1.
     999902    2    1    2    0    0 -0.15033486543E-01  0.17416838884E-01  0.64265609435E-02  0.10200416623E+01  0.10197619036E+01 0.  0.
     999903    2    3    3    0    0  0.91568637156E-01  0.64802224029E-01  0.63706364764E-01  0.13049663056E+00  0.19665353436E-01 0.  0.
         14    1    1    2    0    0  0.15033486543E-01 -0.17416838884E-01 -0.64265609435E-02  0.23888337739E-01  0.00000000000E+00 0.  1.
     999901    1    3    3    0    0 -0.10660212370E+00 -0.47385385145E-01 -0.57279803821E-01  0.88954503170E+00  0.88000000000E+00 0.  1.
        -11    1    4    4    0    0  0.12985629080E-01  0.17960642580E-01  0.91852092704E-02  0.23996675496E-01  0.51100000000E-03 0.  1.
         11    1    4    4    0    0  0.78583008075E-01  0.46841581449E-01  0.54521155494E-01  0.10649995506E+00  0.51100000000E-03 0. -1.
</event>
<event>
 8    1  0.1170483E+005  0.1043930E+01  0.7957747E-01            NaN
         13   -1    0    0    0    0  0.00000000000E+00  0.00000000000E+00  0.74505805969E-08  0.10566000000E+00  0.10566000000E+00 0.  1.
     999900   -1    0    0    0    0 -0.00000000000E+00 -0.00000000000E+00 -0.74505805969E-08  0.93827000000E+00  0.93827000000E+00 0. -1.
     999902    2    1    2    0    0 -0.11724728257E-01 -0.11385432233E-01  0.17182532884E-01  0.10202163593E+01  0.10199407252E+01 0.  0.
     999903    2    3    3    0    0  0.56110737804E-01  0.11345707388E+00 -0.51484380193E-02  0.12854042372E+00  0.21799348757E-01 0.  0.
         14    1    1    2    0    0  0.11724728257E-01  0.11385432233E-01 -0.17182532884E-01  0.23713640719E-01  0.00000000000E+00 0. -1.
     999901    1    3    3    0    0 -0.67835466061E-01 -0.12484250612E+00  0.22330970903E-01  0.89167593556E+00  0.88000000000E+00 0.  1.
        -11    1    4    4    0    0  0.34652731022E-01  0.46110151621E-01 -0.19386991211E-03  0.57682376479E-01  0.51100000000E-03 0. -1.
         11    1    4    4    0    0  0.21458006782E-01  0.67346922263E-01 -0.49545681072E-02  0.70858047245E-01  0.51100000000E-03 0.  1.
</event>
<event>
 8    1  0.1170483E+005  0.1043930E+01  0.7957747E-01            NaN
         13   -1    0    0    0    0  0.00000000000E+00  0.00000000000E+00  0.74505805969E-08  0.10566000000E+00  0.10566000000E+00 0. -1.
     999900   -1    0    0    0    0 -0.00000000000E+00 -0.00000000000E+00 -0.74505805969E-08  0.93827000000E+00  0.93827000000E+00 0.  1.
     999902    2    1    2    0    0 -0.16787354569E-01 -0.13029520784E-01  0.12965339657E-01  0.10190365527E+01  0.10187324536E+01 0.  0.
     999903    2    3    3    0    0 -0.65037779859E-01 -0.91626038666E-01  0.68473691660E-01  0.13247764700E+00  0.15376499414E-01 0.  0.
         14    1    1    2    0    0  0.16787354569E-01  0.13029520784E-01 -0.12965339657E-01  0.24893447284E-01  0.00000000000E+00 0. -1.
     999901    1    3    3    0    0  0.48250425290E-01  0.78596517882E-01 -0.55508352002E-01  0.88655890572E+00  0.88000000000E+00 0. -1.
        -11    1    4    4    0    0 -0.96369447902E-02 -0.72287529435E-02  0.40661510804E-02  0.12724789964E-01  0.51100000000E-03 0. -1.
         11    1    4    4    0    0 -0.55400835069E-01 -0.84397285722E-01  0.64407540579E-01  0.11975285704E+00  0.51100000000E-03 0.  1.
</event>
<event>
 8    1  0.1170483E+005  0.1043930E+01  0.7957747E-01            NaN
         13   -1    0    0    0    0  0.00000000000E+00  0.00000000000E+00  0.74505805969E-08  0.10566000000E+00  0.10566000000E+00 0. -1.
     999900   -1    0    0    0    0 -0.00000000000E+00 -0.00000000000E+00 -0.74505805969E-08  0.93827000000E+00  0.93827000000E+00 0. -1.
     999902    2    1    2    0    0  0.13069879414E-01 -0.11776849177E-01  0.18773020746E-01  0.10182017620E+01  0.10178766555E+01 0.  0.
     999903    2    3    3    0    0 -0.16951915142E-02 -0.43112642552E-01  0.12240383025E+00  0.13144402507E+00  0.20814909167E-01 0.  0.
         14    1    1    2    0    0 -0.13069879414E-01  0.11776849177E-01 -0.18773020746E-01  0.25728238035E-01  0.00000000000E+00 0.  1.
     999901    1    3    3    0    0  0.14765070929E-01  0.31335793376E-01 -0.10363080951E+00  0.88675773690E+00  0.88000000000E+00 0. -1.
        -11    1    4    4    0    0  0.53686924296E-02 -0.19394917623E-01  0.78532499722E-01  0.81071575300E-01  0.51100000000E-03 0. -1.
         11    1    4    4    0    0 -0.70638839438E-02 -0.23717724930E-01  0.43871330531E-01  0.50372449770E-01  0.51100000000E-03 0.  1.
</event>
<event>
 8    1  0.1170483E+005  0.1043930E+01  0.7957747E-01            NaN
         13   -1    0    0    0    0  0.00000000000E+00  0.00000000000E+00  0.74505805969E-08  0.10566000000E+00  0.10566000000E+00 0. -1.
     999900   -1    0    0    0    0 -0.00000000000E+00 -0.00000000000E+00 -0.74505805969E-08  0.93827000000E+00  0.93827000000E+00 0. -1.
     999902    2    1    2    0    0  0.15583333660E-03  0.89913610702E-02  0.22010792155E-01  0.10201530399E+01  0.10198759146E+01 0.  0.
     999903    2    3    3    0    0 -0.12493000067E+00  0.34096212416E-01  0.37849081631E-02  0.13076622743E+00  0.17760178449E-01 0.  0.
         14    1    1    2    0    0 -0.15583333660E-03 -0.89913610702E-02 -0.22010792155E-01  0.23776960050E-01  0.00000000000E+00 0.  1.
     999901    1    3    3    0    0  0.12508583401E+00 -0.25104851346E-01  0.18225883992E-01  0.88938681252E+00  0.88000000000E+00 0. -1.
        -11    1    4    4    0    0 -0.73074905137E-01  0.28461830431E-01  0.50718818205E-02  0.78587547732E-01  0.51100000000E-03 0. -1.
         11    1    4    4    0    0 -0.51855095534E-01  0.56343819845E-02 -0.12869736574E-02  0.52178679701E-01  0.51100000000E-03 0.  1.
</event>
<event>
 8    1  0.1170483E+005  0.1043930E+01  0.7957747E-01            NaN
         13   -1    0    0    0    0  0.00000000000E+00  0.00000000000E+00  0.74505805969E-08  0.10566000000E+00  0.10566000000E+00 0.  1.
     999900   -1    0    0    0    0 -0.00000000000E+00 -0.00000000000E+00 -0.74505805969E-08  0.93827000000E+00  0.93827000000E+00 0. -1.
     999902    2    1    2    0    0 -0.81598352494E-02  0.90727758062E-02  0.20526335338E-01  0.10200505399E+01  0.10197709916E+01 0.  0.
     999903    2    3    3    0    0  0.60410691125E-01 -0.60370234478E-01  0.97507327570E-01  0.13131530265E+00  0.21024104443E-01 0.  0.
         14    1    1    2    0    0  0.81598352494E-02 -0.90727758062E-02 -0.20526335338E-01  0.23879460098E-01  0.00000000000E+00 0. -1.
     999901    1    3    3    0    0 -0.68570526375E-01  0.69443010285E-01 -0.76980992232E-01  0.88873523725E+00  0.88000000000E+00 0. -1.
        -11    1    4    4    0    0  0.40565082448E-01 -0.39634607559E-01  0.78659024603E-01  0.96973869176E-01  0.51100000000E-03 0. -1.
         11    1    4    4    0    0  0.19845608678E-01 -0.20735626919E-01  0.18848302967E-01  0.34341433477E-01  0.51100000000E-03 0.  1.
</event>
<event>
 8    1  0.1170483E+005  0.1043930E+01  0.7957747E-01            NaN
         13   -1    0    0    0    0  0.00000000000E+00  0.00000000000E+00  0.74505805969E-08  0.10566000000E+00  0.10566000000E+00 0.  1.
     999900   -1    0    0    0    0 -0.00000000000E+00 -0.00000000000E+00 -0.74505805969E-08  0.93827000000E+00  0.93827000000E+00 0.  1.
     999902    2    1    2    0    0 -0.12454407790E-01  0.67905909861E-02  0.17583536679E-01  0.10213378518E+01  0.10210879503E+01 0.  0.
     999903    2    3    3    0    0 -0.11836365577E+00  0.42661943527E-01 -0.36610767664E-01  0.13260811481E+00  0.20360927584E-01 0.  0.
         14    1    1    2    0    0  0.12454407790E-01 -0.67905909861E-02 -0.17583536679E-01  0.22592148226E-01  0.00000000000E+00 0. -1.
     999901    1    3    3    0    0  0.10590924798E+00 -0.35871352541E-01  0.54194304343E-01  0.88872973696E+00  0.88000000000E+00 0.  1.
        -11    1    4    4    0    0 -0.45772009046E-01  0.88412564272E-02 -0.20448700716E-01  0.50908300986E-01  0.51100000000E-03 0. -1.
         11    1    4    4    0    0 -0.72591646723E-01  0.33820687100E-01 -0.16162066948E-01  0.81699813824E-01  0.51100000000E-03 0.  1.
</event>
<event>
 8    1  0.1170483E+005  0.1043930E+01  0.7957747E-01            NaN
         13   -1    0    0    0    0  0.00000000000E+00  0.00000000000E+00  0.74505805969E-08  0.10566000000E+00  0.10566000000E+00 0.  1.
     999900   -1    0    0    0    0 -0.00000000000E+00 -0.00000000000E+00 -0.74505805969E-08  0.93827000000E+00  0.93827000000E+00 0.  1.
     999902    2    1    2    0    0 -0.13202819122E-01 -0.37065547147E-02 -0.18251595227E-01  0.10211007707E+01  0.10208455369E+01 0.  0.
     999903    2    3    3    0    0  0.52855792527E-01  0.89973746609E-01  0.72972124959E-01  0.12899006787E+00  0.20603317857E-01 0.  0.
         14    1    1    2    0    0  0.13202819122E-01  0.37065547147E-02  0.18251595227E-01  0.22829229268E-01  0.00000000000E+00 0.  1.
     999901    1    3    3    0    0 -0.66058611649E-01 -0.93680301324E-01 -0.91223720186E-01  0.89211070286E+00  0.88000000000E+00 0.  1.
        -11    1    4    4    0    0  0.33441402854E-01  0.43800914290E-01  0.28684130157E-01  0.62127996598E-01  0.51100000000E-03 0.  1.
         11    1    4    4    0    0  0.19414389673E-01  0.46172832319E-01  0.44287994802E-01  0.66862071276E-01  0.51100000000E-03 0. -1.
</event>
<event>
 8    1  0.1170483E+005  0.1043930E+01  0.7957747E-01            NaN
         13   -1    0    0    0    0  0.00000000000E+00  0.00000000000E+00  0.74505805969E-08  0.10566000000E+00  0.10566000000E+00 0. -1.
     999900   -1    0    0    0    0 -0.00000000000E+00 -0.00000000000E+00 -0.74505805969E-08  0.93827000000E+00  0.93827000000E+00 0. -1.
     999902    2    1    2    0    0  0.13334172065E-01  0.11763518204E-01  0.15281083398E-01  0.10204844884E+01  0.10202151239E+01 0.  0.
     999903    2    3    3    0    0  0.14386606974E-01 -0.48795874062E-02  0.13051346137E+00  0.13281529239E+00  0.19374040846E-01 0.  0.
         14    1    1    2    0    0 -0.13334172065E-01 -0.11763518204E-01 -0.15281083398E-01  0.23445511618E-01  0.00000000000E+00 0.  1.
     999901    1    3    3    0    0 -0.10524349094E-02  0.16643105610E-01 -0.11523237798E+00  0.88766919599E+00  0.88000000000E+00 0. -1.
        -11    1    4    4    0    0  0.16397809723E-01 -0.12077959489E-02  0.61158837930E-01  0.63332547025E-01  0.51100000000E-03 0. -1.
         11    1    4    4    0    0 -0.20112027491E-02 -0.36717914573E-02  0.69354623444E-01  0.69482745363E-01  0.51100000000E-03 0.  1.
</event>
<event>
 8    1  0.1170483E+005  0.1043930E+01  0.7957747E-01            NaN
         13   -1    0    0    0    0  0.00000000000E+00  0.00000000000E+00  0.74505805969E-08  0.10566000000E+00  0.10566000000E+00 0. -1.
     999900   -1    0    0    0    0 -0.00000000000E+00 -0.00000000000E+00 -0.74505805969E-08  0.93827000000E+00  0.93827000000E+00 0.  1.
     999902    2    1    2    0    0 -0.20423253295E-01  0.26843023448E-02  0.11763809830E-01  0.10202086599E+01  0.10199328447E+01 0.  0.
     999903    2    3    3    0    0  0.11900450663E+00 -0.41621282518E-01  0.10784899871E-01  0.12813016372E+00  0.20164846466E-01 0.  0.
         14    1    1    2    0    0  0.20423253295E-01 -0.26843023448E-02 -0.11763809830E-01  0.23721340097E-01  0.00000000000E+00 0.  1.
     999901    1    3    3    0    0 -0.13942775993E+00  0.44305584863E-01  0.97890995940E-03  0.89207849618E+00  0.88000000000E+00 0. -1.
        -11    1    4    4    0    0  0.20934299969E-01 -0.14917653295E-01 -0.14657194577E-02  0.25752490162E-01  0.51100000000E-03 0.  1.
         11    1    4    4    0    0  0.98070206661E-01 -0.26703629224E-01  0.12250619329E-01  0.10237767356E+00  0.51100000000E-03 0. -1.
</event>
<event>
 8    1  0.1170483E+005  0.1043930E+01  0.7957747E-01            NaN
         13   -1    0    0    0    0  0.00000000000E+00  0.00000000000E+00  0.74505805969E-08  0.10566000000E+00  0.10566000000E+00 0. -1.
     999900   -1    0    0    0    0 -0.00000000000E+00 -0.00000000000E+00 -0.74505805969E-08  0.93827000000E+00  0.93827000000E+00 0.  1.
     999902    2    1    2    0    0  0.72810906989E-02 -0.26784192822E-01 -0.12962960583E-01  0.10132959403E+01  0.10128327685E+01 0.  0.
     999903    2    3    3    0    0  0.10160714441E+00  0.31125672599E-01 -0.62686641448E-01  0.12496976070E+00  0.19874777579E-01 0.  0.
         14    1    1    2    0    0 -0.72810906989E-02  0.26784192822E-01  0.12962960583E-01  0.30634059704E-01  0.00000000000E+00 0. -1.
     999901    1    3    3    0    0 -0.94326053707E-01 -0.57909865421E-01  0.49723680865E-01  0.88832617960E+00  0.88000000000E+00 0. -1.
        -11    1    4    4    0    0  0.60257336941E-01  0.84615870956E-02 -0.32603038294E-01  0.69034515558E-01  0.51100000000E-03 0.  1.
         11    1    4    4    0    0  0.41349807465E-01  0.22664085503E-01 -0.30083603153E-01  0.55935245139E-01  0.51100000000E-03 0. -1.
</event>
<event>
 8    1  0.1170483E+005  0.1043930E+01  0.7957747E-01            NaN
         13   -1    0    0    0    0  0.00000000000E+00  0.00000000000E+00  0.74505805969E-08  0.10566000000E+00  0.10566000000E+00 0. -1.
     999900   -1    0    0    0    0 -0.00000000000E+00 -0.00000000000E+00 -0.74505805969E-08  0.93827000000E+00  0.93827000000E+00 0.  1.
     999902    2    1    2    0    0 -0.20952030663E-01  0.10227039405E-01 -0.30259559428E-02  0.10204196548E+01  0.10201487811E+01 0.  0.
     999903    2    3    3    0    0 -0.77624997714E-01 -0.10029677257E+00 -0.28336330317E-01  0.13133700773E+00  0.19009974318E-01 0.  0.
         14    1    1    2    0    0  0.20952030663E-01 -0.10227039405E-01  0.30259559428E-02  0.23510345239E-01  0.00000000000E+00 0. -1.
     999901    1    3    3    0    0  0.56672967051E-01  0.11052381198E+00  0.25310374374E-01  0.88908264704E+00  0.88000000000E+00 0. -1.
        -11    1    4    4    0    0 -0.35506544133E-01 -0.41574976672E-01 -0.30019405026E-02  0.54758251701E-01  0.51100000000E-03 0. -1.
         11    1    4    4    0    0 -0.42118453580E-01 -0.58721795903E-01 -0.25334389814E-01  0.76578756025E-01  0.51100000000E-03 0.  1.
</event>
<event>
 8    1  0.1170483E+005  0.1043930E+01  0.7957747E-01            NaN
         13   -1    0    0    0    0  0.00000000000E+00  0.00000000000E+00  0.74505805969E-08  0.10566000000E+00  0.10566000000E+00 0.  1.
     999900   -1    0    0    0    0 -0.00000000000E+00 -0.00000000000E+00 -0.74505805969E-08  0.93827000000E+00  0.93827000000E+00 0.  1.
     999902    2    1    2    0    0  0.39335977310E-02  0.19143234530E-01 -0.13860000402E-01  0.10199709468E+01  0.10196895096E+01 0.  0.
     999903    2    3    3    0    0 -0.14866209885E-01 -0.10322711937E+00  0.70314582289E-01  0.12732695468E+00  0.19778031666E-01 0.  0.
         14    1    1    2    0    0 -0.39335977310E-02 -0.19143234530E-01  0.13860000402E-01  0.23959053206E-01  0.00000000000E+00 0.  1.
     999901    1    3    3    0    0  0.18799807616E-01  0.12237035390E+00 -0.84174582691E-01  0.89264399211E+00  0.88000000000E+00 0.  1.
        -11    1    4    4    0    0 -0.18233628141E-01 -0.76052369108E-01  0.46197390700E-01  0.90834399160E-01  0.51100000000E-03 0.  1.
         11    1    4    4    0    0  0.33674182566E-02 -0.27174750263E-01  0.24117191588E-01  0.36492555524E-01  0.51100000000E-03 0. -1.
</event>
<event>
 8    1  0.1170483E+005  0.1043930E+01  0.7957747E-01            NaN
         13   -1    0    0    0    0  0.00000000000E+00  0.00000000000E+00  0.74505805969E-08  0.10566000000E+00  0.10566000000E+00 0.  1.
     999900   -1    0    0    0    0 -0.00000000000E+00 -0.00000000000E+00 -0.74505805969E-08  0.93827000000E+00  0.93827000000E+00 0.  1.
     999902    2    1    2    0    0 -0.19853844171E-01 -0.12364438099E-01 -0.23687882738E-02  0.10204211588E+01  0.10201503201E+01 0.  0.
     999903    2    3    3    0    0  0.89814119619E-01 -0.90659029224E-01 -0.16359483897E-01  0.13005446755E+00  0.18997266998E-01 0.  0.
         14    1    1    2    0    0  0.19853844171E-01  0.12364438099E-01  0.23687882738E-02  0.23508841225E-01  0.00000000000E+00 0.  1.
     999901    1    3    3    0    0 -0.10966796379E+00  0.78294591125E-01  0.13990695623E-01  0.89036669123E+00  0.88000000000E+00 0.  1.
        -11    1    4    4    0    0  0.38585814792E-01 -0.51676025572E-01 -0.50429596784E-02  0.64691338565E-01  0.51100000000E-03 0. -1.
         11    1    4    4    0    0  0.51228304827E-01 -0.38983003652E-01 -0.11316524218E-01  0.65363128984E-01  0.51100000000E-03 0.  1.
</event>
<event>
 8    1  0.1170483E+005  0.1043930E+01  0.7957747E-01            NaN
         13   -1    0    0    0    0  0.00000000000E+00  0.00000000000E+00  0.74505805969E-08  0.10566000000E+00  0.10566000000E+00 0. -1.
     999900   -1    0    0    0    0 -0.00000000000E+00 -0.00000000000E+00 -0.74505805969E-08  0.93827000000E+00  0.93827000000E+00 0. -1.
     999902    2    1    2    0    0 -0.22399794841E-01 -0.68301458287E-02  0.38873689203E-02  0.10201915641E+01  0.10199153466E+01 0.  0.
     999903    2    3    3    0    0  0.11942736931E+00  0.26754236877E-01 -0.28798223718E-01  0.12760475981E+00  0.21793377599E-01 0.  0.
         14    1    1    2    0    0  0.22399794841E-01  0.68301458287E-02 -0.38873689203E-02  0.23738435881E-01  0.00000000000E+00 0. -1.
     999901    1    3    3    0    0 -0.14182716415E+00 -0.33584382706E-01  0.32685592638E-01  0.89258680430E+00  0.88000000000E+00 0.  1.
        -11    1    4    4    0    0  0.53716034823E-01  0.63162447120E-02 -0.22213206285E-01  0.58472172858E-01  0.51100000000E-03 0. -1.
         11    1    4    4    0    0  0.65711334486E-01  0.20437992165E-01 -0.65850174329E-02  0.69132586956E-01  0.51100000000E-03 0.  1.
</event>
<event>
 8    1  0.1170483E+005  0.1043930E+01  0.7957747E-01            NaN
         13   -1    0    0    0    0  0.00000000000E+00  0.00000000000E+00  0.74505805969E-08  0.10566000000E+00  0.10566000000E+00 0.  1.
     999900   -1    0    0    0    0 -0.00000000000E+00 -0.00000000000E+00 -0.74505805969E-08  0.93827000000E+00  0.93827000000E+00 0.  1.
     999902    2    1    2    0    0  0.31541513890E-03 -0.78480789279E-02 -0.22148953167E-01  0.10204296180E+01  0.10201589765E+01 0.  0.
     999903    2    3    3    0    0 -0.10047735399E+00  0.20918042104E-01  0.74935871631E-01  0.12890724851E+00  0.21643260171E-01 0.  0.
         14    1    1    2    0    0 -0.31541513890E-03  0.78480789279E-02  0.22148953167E-01  0.23500382039E-01  0.00000000000E+00 0.  1.
     999901    1    3    3    0    0  0.10079276913E+00 -0.28766121032E-01 -0.97084824798E-01  0.89152236945E+00  0.88000000000E+00 0.  1.
        -11    1    4    4    0    0 -0.58014723040E-01  0.22784310392E-01  0.46533600282E-01  0.77784766926E-01  0.51100000000E-03 0.  1.
         11    1    4    4    0    0 -0.42462630949E-01 -0.18662682878E-02  0.28402271349E-01  0.51122481583E-01  0.51100000000E-03 0. -1.
</event>
<event>
 8    1  0.1170483E+005  0.1043930E+01  0.7957747E-01            NaN
         13   -1    0    0    0    0  0.00000000000E+00  0.00000000000E+00  0.74505805969E-08  0.10566000000E+00  0.10566000000E+00 0.  1.
     999900   -1    0    0    0    0 -0.00000000000E+00 -0.00000000000E+00 -0.74505805969E-08  0.93827000000E+00  0.93827000000E+00 0. -1.
     999902    2    1    2    0    0 -0.59243342210E-02  0.95458224444E-02 -0.19037955249E-01  0.10218242496E+01  0.10215851080E+01 0.  0.
     999903    2    3    3    0    0 -0.77753207523E-01 -0.79558818826E-01  0.65800663934E-01  0.13036667041E+00  0.17046244343E-01 0.  0.
         14    1    1    2    0    0  0.59243342210E-02 -0.95458224444E-02  0.19037955249E-01  0.22105750432E-01  0.00000000000E+00 0.  1.
     999901    1    3    3    0    0  0.71828873302E-01  0.89104641271E-01 -0.84838619183E-01  0.89145757916E+00  0.88000000000E+00 0. -1.
        -11    1    4    4    0    0 -0.36471042458E-01 -0.26884617272E-01  0.31300981519E-01  0.55072063234E-01  0.51100000000E-03 0.  1.
         11    1    4    4    0    0 -0.41282165065E-01 -0.52674201554E-01  0.34499682415E-01  0.75294607175E-01  0.51100000000E-03 0. -1.
</event>
<event>
 8    1  0.1170483E+005  0.1043930E+01  0.7957747E-01            NaN
         13   -1    0    0    0    0  0.00000000000E+00  0.00000000000E+00  0.74505805969E-08  0.10566000000E+00  0.10566000000E+00 0.  1.
     999900   -1    0    0    0    0 -0.00000000000E+00 -0.00000000000E+00 -0.74505805969E-08  0.93827000000E+00  0.93827000000E+00 0.  1.
     999902    2    1    2    0    0  0.16994749048E-01 -0.14908380564E-01 -0.59697743825E-02  0.10205479660E+01  0.10202800750E+01 0.  0.
     999903    2    3    3    0    0  0.39451804249E-01 -0.20136417300E-02  0.12290990725E+00  0.13078363434E+00  0.20904882200E-01 0.  0.
         14    1    1    2    0    0 -0.16994749048E-01  0.14908380564E-01  0.59697743825E-02  0.23382033966E-01  0.00000000000E+00 0.  1.
     999901    1    3    3    0    0 -0.22457055202E-01 -0.12894738834E-01 -0.12887968163E+00  0.88976433169E+00  0.88000000000E+00 0.  1.
        -11    1    4    4    0    0  0.33913741940E-01  0.24110795010E-02  0.74983100350E-01  0.82332749595E-01  0.51100000000E-03 0. -1.
         11    1    4    4    0    0  0.55380623095E-02 -0.44247212310E-02  0.47926806898E-01  0.48450884745E-01  0.51100000000E-03 0.  1.
</event>
<event>
 8    1  0.1170483E+005  0.1043930E+01  0.7957747E-01            NaN
         13   -1    0    0    0    0  0.00000000000E+00  0.00000000000E+00  0.74505805969E-08  0.10566000000E+00  0.10566000000E+00 0. -1.
     999900   -1    0    0    0    0 -0.00000000000E+00 -0.00000000000E+00 -0.74505805969E-08  0.93827000000E+00  0.93827000000E+00 0. -1.
     999902    2    1    2    0    0  0.41319946211E-02 -0.14777999852E-01  0.17421139791E-01  0.10207145144E+01  0.10204504697E+01 0.  0.
     999903    2    3    3    0    0 -0.94696569165E-01  0.72544635208E-01  0.48459022270E-01  0.13034623232E+00  0.20290370425E-01 0.  0.
         14    1    1    2    0    0 -0.41319946211E-02  0.14777999852E-01 -0.17421139791E-01  0.23215485582E-01  0.00000000000E+00 0.  1.
     999901    1    3    3    0    0  0.98828563786E-01 -0.87322635060E-01 -0.31037882479E-01  0.89036828210E+00  0.88000000000E+00 0. -1.
        -11    1    4    4    0    0 -0.46687141531E-01  0.26817839977E-01  0.29452761082E-01  0.61372729952E-01  0.51100000000E-03 0. -1.
         11    1    4    4    0    0 -0.48009427634E-01  0.45726795231E-01  0.19006261189E-01  0.68973502370E-01  0.51100000000E-03 0.  1.
</event>
<event>
 8    1  0.1170483E+005  0.1043930E+01  0.7957747E-01            NaN
         13   -1    0    0    0    0  0.00000000000E+00  0.00000000000E+00  0.74505805969E-08  0.10566000000E+00  0.10566000000E+00 0. -1.
     999900   -1    0    0    0    0 -0.00000000000E+00 -0.00000000000E+00 -0.74505805969E-08  0.93827000000E+00  0.93827000000E+00 0. -1.
     999902    2    1    2    0    0  0.10919097186E-01 -0.20003727642E-01 -0.68638987722E-02  0.10201289725E+01  0.10198512792E+01 0.  0.
     999903    2    3    3    0    0  0.97804148629E-01 -0.39893831488E-01  0.75591725165E-01  0.13179144752E+00  0.22309357822E-01 0.  0.
         14    1    1    2    0    0 -0.10919097186E-01  0.20003727642E-01  0.68638987722E-02  0.23801027484E-01  0.00000000000E+00 0. -1.
     999901    1    3    3    0    0 -0.86885051443E-01  0.19890103845E-01 -0.82455623937E-01  0.88833752499E+00  0.88000000000E+00 0. -1.
        -11    1    4    4    0    0  0.49497664632E-01 -0.29757467450E-01  0.32531099188E-01  0.66287700280E-01  0.51100000000E-03 0. -1.
         11    1    4    4    0    0  0.48306483997E-01 -0.10136364038E-01  0.43060625977E-01  0.65503747241E-01  0.51100000000E-03 0.  1.
</event>
<event>
 8    1  0.1170483E+005  0.1043930E+01  0.7957747E-01            NaN
         13   -1    0    0    0    0  0.00000000000E+00  0.00000000000E+00  0.74505805969E-08  0.10566000000E+00  0.10566000000E+00 0. -1.
     999900   -1    0    0    0    0 -0.00000000000E+00 -0.00000000000E+00 -0.74505805969E-08  0.93827000000E+00  0.93827000000E+00 0. -1.
     999902    2    1    2    0    0  0.75368002611E-02 -0.16066047944E-02  0.21187658367E-01  0.10213844593E+01  0.10211355994E+01 0.  0.
     999903    2    3    3    0    0  0.12500993616E+00 -0.36548847438E-01  0.19080743539E-01  0.13288834956E+00  0.18219118731E-01 0.  0.
         14    1    1    2    0    0 -0.75368002611E-02  0.16066047944E-02 -0.21187658367E-01  0.22545540672E-01  0.00000000000E+00 0.  1.
     999901    1    3    3    0    0 -0.11747313590E+00  0.34942242644E-01  0.21069148278E-02  0.88849610977E+00  0.88000000000E+00 0.  1.
        -11    1    4    4    0    0  0.77657937129E-01 -0.13778067073E-01  0.89886816032E-02  0.79382919128E-01  0.51100000000E-03 0. -1.
         11    1    4    4    0    0  0.47351999031E-01 -0.22770780365E-01  0.10092061936E-01  0.53505430433E-01  0.51100000000E-03 0.  1.
</event>
<event>
 8    1  0.1170483E+005  0.1043930E+01  0.7957747E-01            NaN
         13   -1    0    0    0    0  0.00000000000E+00  0.00000000000E+00  0.74505805969E-08  0.10566000000E+00  0.10566000000E+00 0. -1.
     999900   -1    0    0    0    0 -0.00000000000E+00 -0.00000000000E+00 -0.74505805969E-08  0.93827000000E+00  0.93827000000E+00 0.  1.
     999902    2    1    2    0    0  0.10523510323E-01 -0.19115624804E-01 -0.91432199382E-02  0.10202709668E+01  0.10199966156E+01 0.  0.
     999903    2    3    3    0    0  0.35179036555E-01  0.10381730641E-01 -0.12492583310E+00  0.13185462157E+00  0.20828646388E-01 0.  0.
         14    1    1    2    0    0 -0.10523510323E-01  0.19115624804E-01  0.91432199382E-02  0.23659033201E-01  0.00000000000E+00 0. -1.
     999901    1    3    3    0    0 -0.24655526232E-01 -0.29497355446E-01  0.11578261316E+00  0.88841634522E+00  0.88000000000E+00 0. -1.
        -11    1    4    4    0    0  0.27339187429E-01  0.23320245141E-02 -0.10870353333E+00  0.11211417746E+00  0.51100000000E-03 0.  1.
         11    1    4    4    0    0  0.78398491263E-02  0.80497061271E-02 -0.16222299773E-01  0.19740444118E-01  0.51100000000E-03 0. -1.
</event>
<event>
 8    1  0.1170483E+005  0.1043930E+01  0.7957747E-01            NaN
         13   -1    0    0    0    0  0.00000000000E+00  0.00000000000E+00  0.74505805969E-08  0.10566000000E+00  0.10566000000E+00 0.  1.
     999900   -1    0    0    0    0 -0.00000000000E+00 -0.00000000000E+00 -0.74505805969E-08  0.93827000000E+00  0.93827000000E+00 0. -1.
     999902    2    1    2    0    0 -0.34002298389E-01 -0.16412405739E-01 -0.29425291776E-02  0.10060594067E+01  0.10053463821E+01 0.  0.
     999903    2    3    3    0    0 -0.10234034332E+00 -0.55029863416E-01  0.30549257847E-01  0.12193096796E+00  0.20786342935E-01 0.  0.
         14    1    1    2    0    0  0.34002298389E-01  0.16412405739E-01  0.29425291776E-02  0.37870593286E-01  0.00000000000E+00 0.  1.
     999901    1    3    3    0    0  0.68338044935E-01  0.38617457677E-01 -0.33491787024E-01  0.88412843876E+00  0.88000000000E+00 0.  1.
        -11    1    4    4    0    0 -0.59657116219E-01 -0.34387826607E-01  0.28340142792E-01  0.74464212537E-01  0.51100000000E-03 0. -1.
         11    1    4    4    0    0 -0.42683227105E-01 -0.20642036808E-01  0.22091150549E-02  0.47466755419E-01  0.51100000000E-03 0.  1.
</event>
<event>
 8    1  0.1170483E+005  0.1043930E+01  0.7957747E-01            NaN
         13   -1    0    0    0    0  0.00000000000E+00  0.00000000000E+00  0.74505805969E-08  0.10566000000E+00  0.10566000000E+00 0. -1.
     999900   -1    0    0    0    0 -0.00000000000E+00 -0.00000000000E+00 -0.74505805969E-08  0.93827000000E+00  0.93827000000E+00 0. -1.
     999902    2    1    2    0    0 -0.36180791446E-02 -0.20514941453E-01 -0.10612408643E-01  0.10205510236E+01  0.10202832035E+01 0.  0.
     999903    2    3    3    0    0 -0.44972565270E-01 -0.44536205591E-02  0.12006631707E+00  0.12979567623E+00  0.19713718826E-01 0.  0.
         14    1    1    2    0    0  0.36180791446E-02  0.20514941453E-01  0.10612408643E-01  0.23378976383E-01  0.00000000000E+00 0.  1.
     999901    1    3    3    0    0  0.41354486125E-01 -0.16061320894E-01 -0.13067872571E+00  0.89075534739E+00  0.88000000000E+00 0. -1.
        -11    1    4    4    0    0 -0.23088525322E-01 -0.73941985798E-02  0.84668109637E-01  0.88072152720E-01  0.51100000000E-03 0. -1.
         11    1    4    4    0    0 -0.21884039948E-01  0.29405780207E-02  0.35398207430E-01  0.41723523507E-01  0.51100000000E-03 0.  1.
</event>
<event>
 8    1  0.1170483E+005  0.1043930E+01  0.7957747E-01            NaN
         13   -1    0    0    0    0  0.00000000000E+00  0.00000000000E+00  0.74505805969E-08  0.10566000000E+00  0.10566000000E+00 0. -1.
     999900   -1    0    0    0    0 -0.00000000000E+00 -0.00000000000E+00 -0.74505805969E-08  0.93827000000E+00  0.93827000000E+00 0.  1.
     999902    2    1    2    0    0  0.79683299061E-02 -0.18021789947E-01 -0.11255142697E-01  0.10212373265E+01  0.10209851711E+01 0.  0.
     999903    2    3    3    0    0  0.11440824627E+00  0.33828115054E-01 -0.53499032664E-01  0.13230402489E+00  0.20214359334E-01 0.  0.
         14    1    1    2    0    0 -0.79683299061E-02  0.18021789947E-01  0.11255142697E-01  0.22692673520E-01  0.00000000000E+00 0.  1.
     999901    1    3    3    0    0 -0.10643991636E+00 -0.51849905000E-01  0.42243889967E-01  0.88893330159E+00  0.88000000000E+00 0. -1.
        -11    1    4    4    0    0  0.64295048994E-01  0.14729193939E-01 -0.39462816955E-01  0.76865971160E-01  0.51100000000E-03 0.  1.
         11    1    4    4    0    0  0.50113197272E-01  0.19098921114E-01 -0.14036215708E-01  0.55438053726E-01  0.51100000000E-03 0. -1.
</event>
<event>
 8    1  0.1170483E+005  0.1043930E+01  0.7957747E-01            NaN
         13   -1    0    0    0    0  0.00000000000E+00  0.00000000000E+00  0.74505805969E-08  0.10566000000E+00  0.10566000000E+00 0. -1.
     999900   -1    0    0    0    0 -0.00000000000E+00 -0.00000000000E+00 -0.74505805969E-08  0.93827000000E+00  0.93827000000E+00 0. -1.
     999902    2    1    2    0    0 -0.10774889184E-03  0.19694349164E-01  0.92099617514E-02  0.10221882799E+01  0.10219570329E+01 0.  0.
     999903    2    3    3    0    0 -0.14049703252E-01 -0.77137583210E-01  0.10439635882E+00  0.13166525860E+00  0.17015865621E-01 0.  0.
         14    1    1    2    0    0  0.10774889184E-03 -0.19694349164E-01 -0.92099617514E-02  0.21741720132E-01  0.00000000000E+00 0.  1.
     999901    1    3    3    0    0  0.13941954360E-01  0.96831932374E-01 -0.95186397069E-01  0.89052302127E+00  0.88000000000E+00 0. -1.
        -11    1    4    4    0    0 -0.52046931357E-02 -0.42716307842E-02  0.72760107184E-02  0.99265861789E-02  0.51100000000E-03 0. -1.
         11    1    4    4    0    0 -0.88450101165E-02 -0.72865952426E-01  0.97120348102E-01  0.12173867242E+00  0.51100000000E-03 0.  1.
</event>
<event>
 8    1  0.1170483E+005  0.1043930E+01  0.7957747E-01            NaN
         13   -1    0    0    0    0  0.00000000000E+00  0.00000000000E+00  0.74505805969E-08  0.10566000000E+00  0.10566000000E+00 0. -1.
     999900   -1    0    0    0    0 -0.00000000000E+00 -0.00000000000E+00 -0.74505805969E-08  0.93827000000E+00  0.93827000000E+00 0. -1.
     999902    2    1    2    0    0  0.13214906484E-02 -0.15221287632E-01 -0.14439855476E-01  0.10229075510E+01  0.10226915051E+01 0.  0.
     999903    2    3    3    0    0 -0.99578501936E-01 -0.10479892258E-01 -0.87448227722E-01  0.13412551264E+00  0.17797595920E-01 0.  0.
         14    1    1    2    0    0 -0.13214906484E-02  0.15221287632E-01  0.14439855476E-01  0.21022448974E-01  0.00000000000E+00 0. -1.
     999901    1    3    3    0    0  0.10089999258E+00 -0.47413953739E-02  0.73008372246E-01  0.88878203838E+00  0.88000000000E+00 0.  1.
        -11    1    4    4    0    0 -0.25317703823E-01  0.33899716677E-02 -0.16008160487E-01  0.30149632800E-01  0.51100000000E-03 0.  1.
         11    1    4    4    0    0 -0.74260798113E-01 -0.13869863926E-01 -0.71440067235E-01  0.10397587984E+00  0.51100000000E-03 0. -1.
</event>
<event>
 8    1  0.1170483E+005  0.1043930E+01  0.7957747E-01            NaN
         13   -1    0    0    0    0  0.00000000000E+00  0.00000000000E+00  0.74505805969E-08  0.10566000000E+00  0.10566000000E+00 0. -1.
     999900   -1    0    0    0    0 -0.00000000000E+00 -0.00000000000E+00 -0.74505805969E-08  0.93827000000E+00  0.93827000000E+00 0. -1.
     999902    2    1    2    0    0 -0.18993664962E-02  0.10296711544E-01 -0.19522049661E-01  0.10217773414E+01  0.10215371726E+01 0.  0.
     999903    2    3    3    0    0 -0.20853456749E-01 -0.10568891194E+00 -0.74067011163E-01  0.13229036832E+00  0.20243681545E-01 0.  0.
         14    1    1    2    0    0  0.18993664962E-02 -0.10296711544E-01  0.19522049661E-01  0.22152658636E-01  0.00000000000E+00 0. -1.
     999901    1    3    3    0    0  0.18954090252E-01  0.11598562348E+00  0.54544961502E-01  0.88948697305E+00  0.88000000000E+00 0. -1.
        -11    1    4    4    0    0 -0.95730188873E-02 -0.17141306358E-01 -0.19456897747E-01  0.27645959293E-01  0.51100000000E-03 0. -1.
         11    1    4    4    0    0 -0.11280437861E-01 -0.88547605578E-01 -0.54610113416E-01  0.10464440903E+00  0.51100000000E-03 0.  1.
</event>
<event>
 8    1  0.1170483E+005  0.1043930E+01  0.7957747E-01            NaN
         13   -1    0    0    0    0  0.00000000000E+00  0.00000000000E+00  0.74505805969E-08  0.10566000000E+00  0.10566000000E+00 0. -1.
     999900   -1    0    0    0    0 -0.00000000000E+00 -0.00000000000E+00 -0.74505805969E-08  0.93827000000E+00  0.93827000000E+00 0.  1.
     999902    2    1    2    0    0 -0.88641753071E-02 -0.17150657325E-01  0.14421092937E-01  0.10198325609E+01  0.10195478241E+01 0.  0.
     999903    2    3    3    0    0 -0.13266689923E-01  0.12663054278E+00  0.45502733746E-02  0.12809838036E+00  0.13311297314E-01 0.  0.
         14    1    1    2    0    0  0.88641753071E-02  0.17150657325E-01 -0.14421092937E-01  0.24097439118E-01  0.00000000000E+00 0.  1.
     999901    1    3    3    0    0  0.44025146163E-02 -0.14378120010E+00  0.98708195626E-02  0.89173418053E+00  0.88000000000E+00 0.  1.
        -11    1    4    4    0    0 -0.13572313039E-01  0.83018039415E-01  0.70043914294E-02  0.84412825861E-01  0.51100000000E-03 0.  1.
         11    1    4    4    0    0  0.30562311600E-03  0.43612503364E-01 -0.24541180548E-02  0.43685554496E-01  0.51100000000E-03 0. -1.
</event>
<event>
 8    1  0.1170483E+005  0.1043930E+01  0.7957747E-01            NaN
         13   -1    0    0    0    0  0.00000000000E+00  0.00000000000E+00  0.74505805969E-08  0.10566000000E+00  0.10566000000E+00 0. -1.
     999900   -1    0    0    0    0 -0.00000000000E+00 -0.00000000000E+00 -0.74505805969E-08  0.93827000000E+00  0.93827000000E+00 0. -1.
     999902    2    1    2    0    0  0.27168030870E-03  0.22467175434E-01  0.42229223544E-02  0.10210677854E+01  0.10208118052E+01 0.  0.
     999903    2    3    3    0    0 -0.81656499647E-01  0.14297777298E-02 -0.10019146038E+00  0.13086715517E+00  0.20446402413E-01 0.  0.
         14    1    1    2    0    0 -0.27168030870E-03 -0.22467175434E-01 -0.42229223544E-02  0.22862214577E-01  0.00000000000E+00 0.  1.
     999901    1    3    3    0    0  0.81928179956E-01  0.21037397704E-01  0.10441438273E+00  0.89020063025E+00  0.88000000000E+00 0.  1.
        -11    1    4    4    0    0 -0.19943495155E-01  0.73332504180E-02 -0.17600907404E-01  0.27596605283E-01  0.51100000000E-03 0.  1.
         11    1    4    4    0    0 -0.61713004493E-01 -0.59034726882E-02 -0.82590552975E-01  0.10327054989E+00  0.51100000000E-03 0. -1.
</event>
<event>
 8    1  0.1170483E+005  0.1043930E+01  0.7957747E-01            NaN
         13   -1    0    0    0    0  0.00000000000E+00  0.00000000000E+00  0.74505805969E-08  0.10566000000E+00  0.10566000000E+00 0. -1.
     999900   -1    0    0    0    0 -0.00000000000E+00 -0.00000000000E+00 -0.74505805969E-08  0.93827000000E+00  0.93827000000E+00 0. -1.
     999902    2    1    2    0    0 -0.32453163405E-02  0.82808359877E-02 -0.21444906763E-01  0.10207138774E+01  0.10204498180E+01 0.  0.
     999903    2    3    3    0    0  0.11571679641E+00  0.38729113886E-01 -0.45739208495E-01  0.13185545504E+00  0.20086428145E-01 0.  0.
         14    1    1    2    0    0  0.32453163405E-02 -0.82808359877E-02  0.21444906763E-01  0.23216122606E-01  0.00000000000E+00 0. -1.
     999901    1    3    3    0    0 -0.11896211275E+00 -0.30448277898E-01  0.24294301732E-01  0.88885842236E+00  0.88000000000E+00 0.  1.
        -11    1    4    4    0    0  0.53259144560E-01  0.27048187757E-01 -0.27392656678E-01  0.65717270949E-01  0.51100000000E-03 0. -1.
         11    1    4    4    0    0  0.62457651851E-01  0.11680926129E-01 -0.18346551817E-01  0.66138184088E-01  0.51100000000E-03 0.  1.
</event>
<event>
 8    1  0.1170483E+005  0.1043930E+01  0.7957747E-01            NaN
         13   -1    0    0    0    0  0.00000000000E+00  0.00000000000E+00  0.74505805969E-08  0.10566000000E+00  0.10566000000E+00 0. -1.
     999900   -1    0    0    0    0 -0.00000000000E+00 -0.00000000000E+00 -0.74505805969E-08  0.93827000000E+00  0.93827000000E+00 0. -1.
     999902    2    1    2    0    0 -0.67631245477E-02  0.21369776081E-01 -0.42569492547E-02  0.10211148997E+01  0.10208599853E+01 0.  0.
     999903    2    3    3    0    0  0.62315841918E-01 -0.24211066913E-01  0.10995841089E+00  0.12988279452E+00  0.17585456323E-01 0.  0.
         14    1    1    2    0    0  0.67631245477E-02 -0.21369776081E-01  0.42569492547E-02  0.22815100270E-01  0.00000000000E+00 0.  1.
     999901    1    3    3    0    0 -0.69078966465E-01  0.45580842994E-01 -0.11421536014E+00  0.89123210520E+00  0.88000000000E+00 0. -1.
        -11    1    4    4    0    0  0.34802481146E-01 -0.62427282479E-02  0.46492432021E-01  0.58412256472E-01  0.51100000000E-03 0. -1.
         11    1    4    4    0    0  0.27513360771E-01 -0.17968338665E-01  0.63465978864E-01  0.71470538052E-01  0.51100000000E-03 0.  1.
</event>
<event>
 8    1  0.1170483E+005  0.1043930E+01  0.7957747E-01            NaN
         13   -1    0    0    0    0  0.00000000000E+00  0.00000000000E+00  0.74505805969E-08  0.10566000000E+00  0.10566000000E+00 0. -1.
     999900   -1    0    0    0    0 -0.00000000000E+00 -0.00000000000E+00 -0.74505805969E-08  0.93827000000E+00  0.93827000000E+00 0. -1.
     999902    2    1    2    0    0  0.23858641839E-01 -0.55919895397E-02  0.54585850890E-03  0.10194187149E+01  0.10191239930E+01 0.  0.
     999903    2    3    3    0    0 -0.60895728851E-01  0.10737765821E+00 -0.25341134258E-01  0.12778225248E+00  0.21163168204E-01 0.  0.
         14    1    1    2    0    0 -0.23858641839E-01  0.55919895397E-02 -0.54585850890E-03  0.24511285134E-01  0.00000000000E+00 0. -1.
     999901    1    3    3    0    0  0.84754370690E-01 -0.11296964775E+00  0.25886992767E-01  0.89163646239E+00  0.88000000000E+00 0.  1.
        -11    1    4    4    0    0 -0.27540604745E-01  0.63823068876E-01 -0.21603690909E-01  0.72793197570E-01  0.51100000000E-03 0. -1.
         11    1    4    4    0    0 -0.33355124106E-01  0.43554589333E-01 -0.37374433487E-02  0.54989054910E-01  0.51100000000E-03 0.  1.
</event>
<event>
 8    1  0.1170483E+005  0.1043930E+01  0.7957747E-01            NaN
         13   -1    0    0    0    0  0.00000000000E+00  0.00000000000E+00  0.74505805969E-08  0.10566000000E+00  0.10566000000E+00 0.  1.
     999900   -1    0    0    0    0 -0.00000000000E+00 -0.00000000000E+00 -0.74505805969E-08  0.93827000000E+00  0.93827000000E+00 0. -1.
     999902    2    1    2    0    0  0.21515757471E-01 -0.72984059867E-02 -0.93114727634E-03  0.10211910118E+01  0.10209378145E+01 0.  0.
     999903    2    3    3    0    0 -0.12002726404E+00  0.40005222007E-01 -0.12001016537E-01  0.12855749115E+00  0.19391808403E-01 0.  0.
         14    1    1    2    0    0 -0.21515757471E-01  0.72984059867E-02  0.93114727634E-03  0.22738988208E-01  0.00000000000E+00 0.  1.
     999901    1    3    3    0    0  0.14154302151E+00 -0.47303627994E-01  0.11069869261E-01  0.89263352064E+00  0.88000000000E+00 0. -1.
        -11    1    4    4    0    0 -0.97950775727E-01  0.26192985777E-01 -0.14355736397E-01  0.10240495719E+00  0.51100000000E-03 0. -1.
         11    1    4    4    0    0 -0.22076488313E-01  0.13812236230E-01  0.23547198599E-02  0.26152533960E-01  0.51100000000E-03 0.  1.
</event>
<event>
 8    1  0.1170483E+005  0.1043930E+01  0.7957747E-01            NaN
         13   -1    0    0    0    0  0.00000000000E+00  0.00000000000E+00  0.74505805969E-08  0.10566000000E+00  0.10566000000E+00 0.  1.
     999900   -1    0    0    0    0 -0.00000000000E+00 -0.00000000000E+00 -0.74505805969E-08  0.93827000000E+00  0.93827000000E+00 0. -1.
     999902    2    1    2    0    0 -0.14405776660E-01  0.99426913708E-02  0.15875912690E-01  0.10202989163E+01  0.10200252205E+01 0.  0.
     999903    2    3    3    0    0 -0.66676704240E-01 -0.95350497141E-01  0.57590310571E-01  0.13150254120E+00  0.20946939537E-01 0.  0.
         14    1    1    2    0    0  0.14405776660E-01 -0.99426913708E-02 -0.15875912690E-01  0.23631083695E-01  0.00000000000E+00 0. -1.
     999901    1    3    3    0    0  0.52270927580E-01  0.10529318851E+00 -0.41714397881E-01  0.88879637511E+00  0.88000000000E+00 0. -1.
        -11    1    4    4    0    0 -0.26936725520E-01 -0.28896309081E-01  0.28804388891E-01  0.48893126312E-01  0.51100000000E-03 0.  1.
         11    1    4    4    0    0 -0.39739978720E-01 -0.66454188060E-01  0.28785921680E-01  0.82609414883E-01  0.51100000000E-03 0. -1.
</event>
<event>
 8    1  0.1170483E+005  0.1043930E+01  0.7957747E-01            NaN
         13   -1    0    0    0    0  0.00000000000E+00  0.00000000000E+00  0.74505805969E-08  0.10566000000E+00  0.10566000000E+00 0. -1.
     999900   -1    0    0    0    0 -0.00000000000E+00 -0.00000000000E+00 -0.74505805969E-08  0.93827000000E+00  0.93827000000E+00 0.  1.
     999902    2    1    2    0    0  0.16471984360E-01 -0.12395889260E-01  0.14141666634E-01  0.10189305785E+01  0.10186238524E+01 0.  0.
     999903    2    3    3    0    0 -0.38773419777E-01 -0.81621502985E-01 -0.89222815640E-01  0.12846527517E+00  0.19420820331E-01 0.  0.
         14    1    1    2    0    0 -0.16471984360E-01  0.12395889260E-01 -0.14141666634E-01  0.24999421483E-01  0.00000000000E+00 0.  1.
     999901    1    3    3    0    0  0.55245404137E-01  0.69225613725E-01  0.10336448227E+00  0.89046530335E+00  0.88000000000E+00 0. -1.
        -11    1    4    4    0    0 -0.31473732788E-01 -0.52067458825E-01 -0.68586850308E-01  0.91684422233E-01  0.51100000000E-03 0.  1.
         11    1    4    4    0    0 -0.72996869891E-02 -0.29554044160E-01 -0.20635965332E-01  0.36780852934E-01  0.51100000000E-03 0. -1.
</event>
<event>
 8    1  0.1170483E+005  0.1043930E+01  0.7957747E-01            NaN
         13   -1    0    0    0    0  0.00000000000E+00  0.00000000000E+00  0.74505805969E-08  0.10566000000E+00  0.10566000000E+00 0.  1.
     999900   -1    0    0    0    0 -0.00000000000E+00 -0.00000000000E+00 -0.74505805969E-08  0.93827000000E+00  0.93827000000E+00 0. -1.
     999902    2    1    2    0    0 -0.61847884819E-02 -0.22828202506E-01 -0.74805446680E-02  0.10191240131E+01  0.10188220733E+01 0.  0.
     999903    2    3    3    0    0 -0.67431504974E-01  0.10446705735E+00 -0.21162489377E-01  0.12775291244E+00  0.20312108348E-01 0.  0.
         14    1    1    2    0    0  0.61847884819E-02  0.22828202506E-01  0.74805446680E-02  0.24805986914E-01  0.00000000000E+00 0.  1.
     999901    1    3    3    0    0  0.61246716492E-01 -0.12729525985E+00  0.13681944709E-01  0.89137110065E+00  0.88000000000E+00 0.  1.
        -11    1    4    4    0    0 -0.74943719566E-02  0.26326939941E-01 -0.69996338541E-02  0.28258262027E-01  0.51100000000E-03 0. -1.
         11    1    4    4    0    0 -0.59937133018E-01  0.78140117406E-01 -0.14162855523E-01  0.99494650410E-01  0.51100000000E-03 0.  1.
</event>
<event>
 8    1  0.1170483E+005  0.1043930E+01  0.7957747E-01            NaN
         13   -1    0    0    0    0  0.00000000000E+00  0.00000000000E+00  0.74505805969E-08  0.10566000000E+00  0.10566000000E+00 0. -1.
     999900   -1    0    0    0    0 -0.00000000000E+00 -0.00000000000E+00 -0.74505805969E-08  0.93827000000E+00  0.93827000000E+00 0.  1.
     999902    2    1    2    0    0 -0.62912248149E-02  0.22795626438E-01  0.15364489587E-02  0.10202323045E+01  0.10199570454E+01 0.  0.
     999903    2    3    3    0    0 -0.68221481790E-01 -0.97162309005E-01  0.45841485623E-01  0.12883553583E+00  0.20061620566E-01 0.  0.
         14    1    1    2    0    0  0.62912248149E-02 -0.22795626438E-01 -0.15364489587E-02  0.23697695453E-01  0.00000000000E+00 0.  1.
     999901    1    3    3    0    0  0.61930256975E-01  0.11995793544E+00 -0.44305036665E-01  0.89139676872E+00  0.88000000000E+00 0.  1.
        -11    1    4    4    0    0 -0.29673008983E-01 -0.27106347595E-01  0.19264423308E-01  0.44571523066E-01  0.51100000000E-03 0.  1.
         11    1    4    4    0    0 -0.38548472807E-01 -0.70055961410E-01  0.26577062315E-01  0.84264012764E-01  0.51100000000E-03 0. -1.
</event>
<event>
 7    1  0.1170483E+005  0.1043930E+01  0.7957747E-01            NaN
         13   -1    0    0    0    0  0.00000000000E+00  0.00000000000E+00  0.74505805969E-08  0.10566000000E+00  0.10566000000E+00 0. -1.
     999900   -1    0    0    0    0 -0.00000000000E+00 -0.00000000000E+00 -0.74505805969E-08  0.93827000000E+00  0.93827000000E+00 0.  1.
     999902    2    1    2    0    0  0.44166459102E-02 -0.51929150119E-02 -0.22678617308E-01  0.10202489356E+01  0.10199740672E+01 0.  0.
         14    1    1    2    0    0 -0.44166459102E-02  0.51929150119E-02  0.22678617308E-01  0.23681064386E-01  0.00000000000E+00 0. -1.
     999901    1    3    3    0    0 -0.39450844951E-01  0.19983792950E-01  0.92185010825E-01  0.88591974657E+00  0.88000000000E+00 0. -1.
        -11    1    3    3    0    0  0.22778603376E-02 -0.10971355928E-01  0.13492886736E-03  0.11217781662E-01  0.51100000000E-03 0.  1.
         11    1    3    3    0    0  0.41589630523E-01 -0.14205352034E-01 -0.11499855700E+00  0.12311140738E+00  0.51100000000E-03 0. -1.
</event>
<event>
 8    1  0.1170483E+005  0.1043930E+01  0.7957747E-01            NaN
         13   -1    0    0    0    0  0.00000000000E+00  0.00000000000E+00  0.74505805969E-08  0.10566000000E+00  0.10566000000E+00 0. -1.
     999900   -1    0    0    0    0 -0.00000000000E+00 -0.00000000000E+00 -0.74505805969E-08  0.93827000000E+00  0.93827000000E+00 0. -1.
     999902    2    1    2    0    0  0.10300855550E-01  0.17593303031E-01  0.96329025285E-02  0.10213817241E+01  0.10211328031E+01 0.  0.
     999903    2    3    3    0    0 -0.11224702483E+00  0.46557562596E-01 -0.44319115965E-01  0.13078207685E+00  0.19307158424E-01 0.  0.
         14    1    1    2    0    0 -0.10300855550E-01 -0.17593303031E-01 -0.96329025285E-02  0.22548275937E-01  0.00000000000E+00 0.  1.
     999901    1    3    3    0    0  0.12254788038E+00 -0.28964259565E-01  0.53952018494E-01  0.89059964721E+00  0.88000000000E+00 0.  1.
        -11    1    4    4    0    0 -0.96175766380E-01  0.36031031630E-01 -0.30590520108E-01  0.10716368004E+00  0.51100000000E-03 0.  1.
         11    1    4    4    0    0 -0.16071258452E-01  0.10526530966E-01 -0.13728595857E-01  0.23618396805E-01  0.51100000000E-03 0. -1.
</event>
<event>
 8    1  0.1170483E+005  0.1043930E+01  0.7957747E-01            NaN
         13   -1    0    0    0    0  0.00000000000E+00  0.00000000000E+00  0.74505805969E-08  0.10566000000E+00  0.10566000000E+00 0. -1.
     999900   -1    0    0    0    0 -0.00000000000E+00 -0.00000000000E+00 -0.74505805969E-08  0.93827000000E+00  0.93827000000E+00 0. -1.
     999902    2    1    2    0    0  0.10254759129E-01  0.55129885747E-02 -0.20862324969E-01  0.10200387939E+01  0.10197589672E+01 0.  0.
     999903    2    3    3    0    0 -0.12351272175E+00 -0.31201812049E-01  0.49285150340E-02  0.12879983434E+00  0.18334709072E-01 0.  0.
         14    1    1    2    0    0 -0.10254759129E-01 -0.55129885747E-02  0.20862324969E-01  0.23891206143E-01  0.00000000000E+00 0. -1.
     999901    1    3    3    0    0  0.13376748088E+00  0.36714800624E-01 -0.25790840003E-01  0.89123895951E+00  0.88000000000E+00 0. -1.
        -11    1    4    4    0    0 -0.10914458955E+00 -0.32163145260E-01  0.79994125211E-02  0.11406691484E+00  0.51100000000E-03 0.  1.
         11    1    4    4    0    0 -0.14368132207E-01  0.96133321042E-03 -0.30708974871E-02  0.14732919502E-01  0.51100000000E-03 0. -1.
</event>
<event>
 8    1  0.1170483E+005  0.1043930E+01  0.7957747E-01            NaN
         13   -1    0    0    0    0  0.00000000000E+00  0.00000000000E+00  0.74505805969E-08  0.10566000000E+00  0.10566000000E+00 0. -1.
     999900   -1    0    0    0    0 -0.00000000000E+00 -0.00000000000E+00 -0.74505805969E-08  0.93827000000E+00  0.93827000000E+00 0.  1.
     999902    2    1    2    0    0  0.68206369925E-02 -0.15333559440E-01 -0.17196383214E-01  0.10199017930E+01  0.10196187095E+01 0.  0.
     999903    2    3    3    0    0  0.62235530102E-01  0.65904856679E-01 -0.93270150155E-01  0.13116240005E+00  0.16957091037E-01 0.  0.
         14    1    1    2    0    0 -0.68206369925E-02  0.15333559440E-01  0.17196383214E-01  0.24028206960E-01  0.00000000000E+00 0.  1.
     999901    1    3    3    0    0 -0.55414893110E-01 -0.81238416120E-01  0.76073766941E-01  0.88873939299E+00  0.88000000000E+00 0. -1.
        -11    1    4    4    0    0  0.46455568194E-01  0.55171015132E-01 -0.65281929524E-01  0.97282846229E-01  0.51100000000E-03 0.  1.
         11    1    4    4    0    0  0.15779961908E-01  0.10733841547E-01 -0.27988220631E-01  0.33879553823E-01  0.51100000000E-03 0. -1.
</event>
<event>
 8    1  0.1170483E+005  0.1043930E+01  0.7957747E-01            NaN
         13   -1    0    0    0    0  0.00000000000E+00  0.00000000000E+00  0.74505805969E-08  0.10566000000E+00  0.10566000000E+00 0. -1.
     999900   -1    0    0    0    0 -0.00000000000E+00 -0.00000000000E+00 -0.74505805969E-08  0.93827000000E+00  0.93827000000E+00 0. -1.
     999902    2    1    2    0    0 -0.22045477290E-01  0.71248434417E-02 -0.39958647120E-02  0.10204197172E+01  0.10201488449E+01 0.  0.
     999903    2    3    3    0    0 -0.20606589359E-01 -0.72228090860E-01 -0.10547279862E+00  0.13103986207E+00  0.20134685721E-01 0.  0.
         14    1    1    2    0    0  0.22045477290E-01 -0.71248434417E-02  0.39958647120E-02  0.23510282810E-01  0.00000000000E+00 0.  1.
     999901    1    3    3    0    0 -0.14388879311E-02  0.79352934301E-01  0.10147693390E+00  0.88937985512E+00  0.88000000000E+00 0.  1.
        -11    1    4    4    0    0 -0.31727499648E-02 -0.42163511308E-01 -0.66641022265E-01  0.78924742620E-01  0.51100000000E-03 0.  1.
         11    1    4    4    0    0 -0.17433839394E-01 -0.30064579552E-01 -0.38831776351E-01  0.52115119449E-01  0.51100000000E-03 0. -1.
</event>
<event>
 8    1  0.1170483E+005  0.1043930E+01  0.7957747E-01            NaN
         13   -1    0    0    0    0  0.00000000000E+00  0.00000000000E+00  0.74505805969E-08  0.10566000000E+00  0.10566000000E+00 0. -1.
     999900   -1    0    0    0    0 -0.00000000000E+00 -0.00000000000E+00 -0.74505805969E-08  0.93827000000E+00  0.93827000000E+00 0.  1.
     999902    2    1    2    0    0  0.13303527680E-02 -0.78097385694E-02  0.20843815064E-01  0.10216314242E+01  0.10213880460E+01 0.  0.
     999903    2    3    3    0    0 -0.27952971315E-01 -0.12704117388E+00 -0.13927313885E-01  0.13242802812E+00  0.20551985182E-01 0.  0.
         14    1    1    2    0    0 -0.13303527680E-02  0.78097385694E-02 -0.20843815064E-01  0.22298575772E-01  0.00000000000E+00 0.  1.
     999901    1    3    3    0    0  0.29283324083E-01  0.11923143531E+00  0.34771128949E-01  0.88920339610E+00  0.88000000000E+00 0. -1.
        -11    1    4    4    0    0 -0.16979759182E-01 -0.55973168182E-01  0.29268963289E-02  0.58567359692E-01  0.51100000000E-03 0. -1.
         11    1    4    4    0    0 -0.10973212133E-01 -0.71068005697E-01 -0.16854210214E-01  0.73860668432E-01  0.51100000000E-03 0.  1.
</event>
<event>
 8    1  0.1170483E+005  0.1043930E+01  0.7957747E-01            NaN
         13   -1    0    0    0    0  0.00000000000E+00  0.00000000000E+00  0.74505805969E-08  0.10566000000E+00  0.10566000000E+00 0.  1.
     999900   -1    0    0    0    0 -0.00000000000E+00 -0.00000000000E+00 -0.74505805969E-08  0.93827000000E+00  0.93827000000E+00 0. -1.
     999902    2    1    2    0    0  0.34978707741E-02  0.22931464523E-01  0.56914269267E-02  0.10200452872E+01  0.10197656145E+01 0.  0.
     999903    2    3    3    0    0 -0.53843376385E-01  0.79285709199E-01  0.89194872705E-01  0.13244366205E+00  0.20006634782E-01 0.  0.
         14    1    1    2    0    0 -0.34978707741E-02 -0.22931464523E-01 -0.56914269267E-02  0.23884712801E-01  0.00000000000E+00 0. -1.
     999901    1    3    3    0    0  0.57341247160E-01 -0.56354244677E-01 -0.83503445778E-01  0.88760162515E+00  0.88000000000E+00 0. -1.
        -11    1    4    4    0    0 -0.28134159712E-01  0.40595514143E-01  0.59401248732E-01  0.77254748613E-01  0.51100000000E-03 0.  1.
         11    1    4    4    0    0 -0.25709216674E-01  0.38690195057E-01  0.29793623972E-01  0.55188913433E-01  0.51100000000E-03 0. -1.
</event>
<event>
 8    1  0.1170483E+005  0.1043930E+01  0.7957747E-01            NaN
         13   -1    0    0    0    0  0.00000000000E+00  0.00000000000E+00  0.74505805969E-08  0.10566000000E+00  0.10566000000E+00 0. -1.
     999900   -1    0    0    0    0 -0.00000000000E+00 -0.00000000000E+00 -0.74505805969E-08  0.93827000000E+00  0.93827000000E+00 0.  1.
     999902    2    1    2    0    0  0.34807733054E-02 -0.17795634372E-01  0.16210021072E-01  0.10196078872E+01  0.10193177515E+01 0.  0.
     999903    2    3    3    0    0  0.24112728305E-01 -0.13985663768E-01  0.12769686785E+00  0.13232579544E+00  0.20654385075E-01 0.  0.
         14    1    1    2    0    0 -0.34807733054E-02  0.17795634372E-01 -0.16210021072E-01  0.24322112751E-01  0.00000000000E+00 0.  1.
     999901    1    3    3    0    0 -0.20631955000E-01 -0.38099706040E-02 -0.11148684678E+00  0.88728209181E+00  0.88000000000E+00 0.  1.
        -11    1    4    4    0    0  0.14021475736E-01 -0.18346457560E-01  0.74318282178E-01  0.77824562149E-01  0.51100000000E-03 0.  1.
         11    1    4    4    0    0  0.10091252569E-01  0.43607937920E-02  0.53378585671E-01  0.54501233290E-01  0.51100000000E-03 0. -1.
</event>
<event>
 8    1  0.1170483E+005  0.1043930E+01  0.7957747E-01            NaN
         13   -1    0    0    0    0  0.00000000000E+00  0.00000000000E+00  0.74505805969E-08  0.10566000000E+00  0.10566000000E+00 0. -1.
     999900   -1    0    0    0    0 -0.00000000000E+00 -0.00000000000E+00 -0.74505805969E-08  0.93827000000E+00  0.93827000000E+00 0.  1.
     999902    2    1    2    0    0 -0.12233584068E-01 -0.18087735795E-01  0.44317511153E-02  0.10216484564E+01  0.10214054540E+01 0.  0.
     999903    2    3    3    0    0 -0.95895501895E-01 -0.26371126472E-01 -0.85778177251E-01  0.13305081846E+00  0.21289457599E-01 0.  0.
         14    1    1    2    0    0  0.12233584068E-01  0.18087735795E-01 -0.44317511153E-02  0.22281543557E-01  0.00000000000E+00 0.  1.
     999901    1    3    3    0    0  0.83661917827E-01  0.82833906765E-02  0.90209928366E-01  0.88859763798E+00  0.88000000000E+00 0. -1.
        -11    1    4    4    0    0 -0.21643378454E-02  0.70530995471E-03 -0.78339520019E-02  0.81739675439E-02  0.51100000000E-03 0. -1.
         11    1    4    4    0    0 -0.93731164049E-01 -0.27076436427E-01 -0.77944225249E-01  0.12487685091E+00  0.51100000000E-03 0.  1.
</event>
<event>
 8    1  0.1170483E+005  0.1043930E+01  0.7957747E-01            NaN
         13   -1    0    0    0    0  0.00000000000E+00  0.00000000000E+00  0.74505805969E-08  0.10566000000E+00  0.10566000000E+00 0.  1.
     999900   -1    0    0    0    0 -0.00000000000E+00 -0.00000000000E+00 -0.74505805969E-08  0.93827000000E+00  0.93827000000E+00 0. -1.
     999902    2    1    2    0    0 -0.17722127786E-02 -0.87142438102E-03 -0.24455374348E-01  0.10193950157E+01  0.10190997167E+01 0.  0.
     999903    2    3    3    0    0 -0.72193129808E-01 -0.58895841162E-01  0.85267591305E-01  0.12789904396E+00  0.20175113888E-01 0.  0.
         14    1    1    2    0    0  0.17722127786E-02  0.87142438102E-03  0.24455374348E-01  0.24534984269E-01  0.00000000000E+00 0.  1.
     999901    1    3    3    0    0  0.70420917030E-01  0.58024416781E-01 -0.10972296565E+00  0.89149597177E+00  0.88000000000E+00 0. -1.
        -11    1    4    4    0    0 -0.13030205856E-01 -0.20291220511E-01  0.15891958327E-01  0.28884863769E-01  0.51100000000E-03 0.  1.
         11    1    4    4    0    0 -0.59162923953E-01 -0.38604620651E-01  0.69375632978E-01  0.99014180188E-01  0.51100000000E-03 0. -1.
</event>
<event>
 8    1  0.1170483E+005  0.1043930E+01  0.7957747E-01            NaN
         13   -1    0    0    0    0  0.00000000000E+00  0.00000000000E+00  0.74505805969E-08  0.10566000000E+00  0.10566000000E+00 0.  1.
     999900   -1    0    0    0    0 -0.00000000000E+00 -0.00000000000E+00 -0.74505805969E-08  0.93827000000E+00  0.93827000000E+00 0. -1.
     999902    2    1    2    0    0  0.12505381407E-01  0.17704992697E-01  0.89900649218E-02  0.10204635857E+01  0.10201937352E+01 0.  0.
     999903    2    3    3    0    0  0.70475537969E-01  0.31237855060E-01 -0.10429281192E+00  0.13120733044E+00  0.19893916232E-01 0.  0.
         14    1    1    2    0    0 -0.12505381407E-01 -0.17704992697E-01 -0.89900649218E-02  0.23466414251E-01  0.00000000000E+00 0. -1.
     999901    1    3    3    0    0 -0.57970156562E-01 -0.13532862364E-01  0.11328287684E+00  0.88925625531E+00  0.88000000000E+00 0.  1.
        -11    1    4    4    0    0  0.35769740573E-01  0.98658567425E-02 -0.63445383054E-01  0.73500933475E-01  0.51100000000E-03 0.  1.
         11    1    4    4    0    0  0.34705797397E-01  0.21371998318E-01 -0.40847428865E-01  0.57706396967E-01  0.51100000000E-03 0. -1.
</event>
<event>
 8    1  0.1170483E+005  0.1043930E+01  0.7957747E-01            NaN
         13   -1    0    0    0    0  0.00000000000E+00  0.00000000000E+00  0.74505805969E-08  0.10566000000E+00  0.10566000000E+00 0.  1.
     999900   -1    0    0    0    0 -0.00000000000E+00 -0.00000000000E+00 -0.74505805969E-08  0.93827000000E+00  0.93827000000E+00 0.  1.
     999902    2    1    2    0    0 -0.20028238649E-01 -0.74848069753E-02 -0.32770076006E-02  0.10222992012E+01  0.10220703328E+01 0.  0.
     999903    2    3    3    0    0  0.12183426223E+00  0.36605544472E-01  0.14953410930E-01  0.12966194204E+00  0.20126136586E-01 0.  0.
         14    1    1    2    0    0  0.20028238649E-01  0.74848069753E-02  0.32770076006E-02  0.21630798822E-01  0.00000000000E+00 0.  1.
     999901    1    3    3    0    0 -0.14186250088E+00 -0.44090351447E-01 -0.18230418531E-01  0.89263725914E+00  0.88000000000E+00 0. -1.
        -11    1    4    4    0    0  0.56992488607E-01  0.91566880375E-02  0.23589125882E-03  0.57726124581E-01  0.51100000000E-03 0. -1.
         11    1    4    4    0    0  0.64841773628E-01  0.27448856434E-01  0.14717519672E-01  0.71935817456E-01  0.51100000000E-03 0.  1.
</event>
<event>
 8    1  0.1170483E+005  0.1043930E+01  0.7957747E-01            NaN
         13   -1    0    0    0    0  0.00000000000E+00  0.00000000000E+00  0.74505805969E-08  0.10566000000E+00  0.10566000000E+00 0.  1.
     999900   -1    0    0    0    0 -0.00000000000E+00 -0.00000000000E+00 -0.74505805969E-08  0.93827000000E+00  0.93827000000E+00 0. -1.
     999902    2    1    2    0    0 -0.11736605423E-01 -0.96555008612E-02  0.17679637254E-01  0.10206159232E+01  0.10203496050E+01 0.  0.
     999903    2    3    3    0    0  0.30903813790E-01 -0.10978208697E+00  0.64507259211E-01  0.13267653069E+00  0.20850011444E-01 0.  0.
         14    1    1    2    0    0  0.11736605423E-01  0.96555008612E-02 -0.17679637254E-01  0.23314076802E-01  0.00000000000E+00 0. -1.
     999901    1    3    3    0    0 -0.42640419212E-01  0.10012658611E+00 -0.46827621958E-01  0.88793939251E+00  0.88000000000E+00 0.  1.
        -11    1    4    4    0    0  0.31175605117E-01 -0.10442025552E+00  0.65567318791E-01  0.12718035435E+00  0.51100000000E-03 0. -1.
         11    1    4    4    0    0 -0.27179132739E-03 -0.53618314484E-02 -0.10600595798E-02  0.54961763363E-02  0.51100000000E-03 0.  1.
</event>
<event>
 8    1  0.1170483E+005  0.1043930E+01  0.7957747E-01            NaN
         13   -1    0    0    0    0  0.00000000000E+00  0.00000000000E+00  0.74505805969E-08  0.10566000000E+00  0.10566000000E+00 0. -1.
     999900   -1    0    0    0    0 -0.00000000000E+00 -0.00000000000E+00 -0.74505805969E-08  0.93827000000E+00  0.93827000000E+00 0.  1.
     999902    2    1    2    0    0  0.53054654168E-02 -0.11200058959E-02  0.23545495632E-01  0.10197681967E+01  0.10194819185E+01 0.  0.
     999903    2    3    3    0    0 -0.54082602332E-01  0.11206025284E-02 -0.11338458567E+00  0.12719785764E+00  0.19926040659E-01 0.  0.
         14    1    1    2    0    0 -0.53054654168E-02  0.11200058959E-02 -0.23545495632E-01  0.24161803348E-01  0.00000000000E+00 0.  1.
     999901    1    3    3    0    0  0.59388067748E-01 -0.22406084243E-02  0.13693008130E+00  0.89257033901E+00  0.88000000000E+00 0. -1.
        -11    1    4    4    0    0 -0.43380026002E-01 -0.52279792932E-02 -0.74521437185E-01  0.86387870356E-01  0.51100000000E-03 0.  1.
         11    1    4    4    0    0 -0.10702576330E-01  0.63485818215E-02 -0.38863148483E-01  0.40809987285E-01  0.51100000000E-03 0. -1.
</event>
<event>
 8    1  0.1170483E+005  0.1043930E+01  0.7957747E-01            NaN
         13   -1    0    0    0    0  0.00000000000E+00  0.00000000000E+00  0.74505805969E-08  0.10566000000E+00  0.10566000000E+00 0.  1.
     999900   -1    0    0    0    0 -0.00000000000E+00 -0.00000000000E+00 -0.74505805969E-08  0.93827000000E+00  0.93827000000E+00 0. -1.
     999902    2    1    2    0    0  0.76982921085E-02 -0.25170685953E-02  0.22939725738E-01  0.10196024364E+01  0.10193121690E+01 0.  0.
     999903    2    3    3    0    0 -0.88049305904E-01 -0.88079304025E-02  0.95139280969E-01  0.13144707087E+00  0.19914561249E-01 0.  0.
         14    1    1    2    0    0 -0.76982921085E-02  0.25170685953E-02 -0.22939725738E-01  0.24327563639E-01  0.00000000000E+00 0. -1.
     999901    1    3    3    0    0  0.95747598013E-01  0.62908618073E-02 -0.72199555232E-01  0.88815536549E+00  0.88000000000E+00 0. -1.
        -11    1    4    4    0    0 -0.67586992686E-01 -0.22706516150E-02  0.81885313718E-01  0.10620086234E+00  0.51100000000E-03 0. -1.
         11    1    4    4    0    0 -0.20462313218E-01 -0.65372787875E-02  0.13253967251E-01  0.25246208529E-01  0.51100000000E-03 0.  1.
</event>
<event>
 8    1  0.1170483E+005  0.1043930E+01  0.7957747E-01            NaN
         13   -1    0    0    0    0  0.00000000000E+00  0.00000000000E+00  0.74505805969E-08  0.10566000000E+00  0.10566000000E+00 0.  1.
     999900   -1    0    0    0    0 -0.00000000000E+00 -0.00000000000E+00 -0.74505805969E-08  0.93827000000E+00  0.93827000000E+00 0.  1.
     999902    2    1    2    0    0  0.10360625681E-01 -0.99734433995E-02 -0.21508865143E-01  0.10180563954E+01  0.10177275572E+01 0.  0.
     999903    2    3    3    0    0  0.71246936712E-01 -0.67111226318E-01 -0.85695866011E-01  0.13177662001E+00  0.21006033412E-01 0.  0.
         14    1    1    2    0    0 -0.10360625681E-01  0.99734433995E-02  0.21508865143E-01  0.25873604648E-01  0.00000000000E+00 0.  1.
     999901    1    3    3    0    0 -0.60886311031E-01  0.57137782919E-01  0.64187000868E-01  0.88627977535E+00  0.88000000000E+00 0. -1.
        -11    1    4    4    0    0  0.61177674648E-01 -0.46211221404E-01 -0.69459018664E-01  0.10345531042E+00  0.51100000000E-03 0. -1.
         11    1    4    4    0    0  0.10069262065E-01 -0.20900004914E-01 -0.16236847347E-01  0.28321309587E-01  0.51100000000E-03 0.  1.
</event>
<event>
 8    1  0.1170483E+005  0.1043930E+01  0.7957747E-01            NaN
         13   -1    0    0    0    0  0.00000000000E+00  0.00000000000E+00  0.74505805969E-08  0.10566000000E+00  0.10566000000E+00 0. -1.
     999900   -1    0    0    0    0 -0.00000000000E+00 -0.00000000000E+00 -0.74505805969E-08  0.93827000000E+00  0.93827000000E+00 0. -1.
     999902    2    1    2    0    0  0.21589363299E-01  0.59846782041E-02 -0.71299100836E-02  0.10204193088E+01  0.10201484271E+01 0.  0.
     999903    2    3    3    0    0 -0.48129682933E-01  0.15450428353E-01 -0.11853491635E+00  0.13060954195E+00  0.21287177827E-01 0.  0.
         14    1    1    2    0    0 -0.21589363299E-01 -0.59846782041E-02  0.71299100836E-02  0.23510691156E-01  0.00000000000E+00 0.  1.
     999901    1    3    3    0    0  0.69719046232E-01 -0.94657501489E-02  0.11140500626E+00  0.88980976689E+00  0.88000000000E+00 0.  1.
        -11    1    4    4    0    0  0.67622309285E-03 -0.10680465062E-02 -0.13984936610E-01  0.14051248130E-01  0.51100000000E-03 0.  1.
         11    1    4    4    0    0 -0.48805906026E-01  0.16518474859E-01 -0.10454997974E+00  0.11655829382E+00  0.51100000000E-03 0. -1.
</event>
<event>
 8    1  0.1170483E+005  0.1043930E+01  0.7957747E-01            NaN
         13   -1    0    0    0    0  0.00000000000E+00  0.00000000000E+00  0.74505805969E-08  0.10566000000E+00  0.10566000000E+00 0. -1.
     999900   -1    0    0    0    0 -0.00000000000E+00 -0.00000000000E+00 -0.74505805969E-08  0.93827000000E+00  0.93827000000E+00 0.  1.
     999902    2    1    2    0    0 -0.68449628222E-02 -0.24705092484E-01  0.25245169503E-02  0.10181701806E+01  0.10178442653E+01 0.  0.
     999903    2    3    3    0    0 -0.10417792580E+00 -0.40558783165E-01  0.64284309804E-01  0.13051072043E+00  0.20062914597E-01 0.  0.
         14    1    1    2    0    0  0.68449628222E-02  0.24705092484E-01 -0.25245169503E-02  0.25759819419E-01  0.00000000000E+00 0. -1.
     999901    1    3    3    0    0  0.97332962983E-01  0.15853690681E-01 -0.61759792853E-01  0.88765946016E+00  0.88000000000E+00 0.  1.
        -11    1    4    4    0    0 -0.96380312196E-01 -0.37534695629E-01  0.52342354291E-01  0.11592239270E+00  0.51100000000E-03 0. -1.
         11    1    4    4    0    0 -0.77976136083E-02 -0.30240875359E-02  0.11941955513E-01  0.14588327727E-01  0.51100000000E-03 0.  1.
</event>
<event>
 8    1  0.1170483E+005  0.1043930E+01  0.7957747E-01            NaN
         13   -1    0    0    0    0  0.00000000000E+00  0.00000000000E+00  0.74505805969E-08  0.10566000000E+00  0.10566000000E+00 0.  1.
     999900   -1    0    0    0    0 -0.00000000000E+00 -0.00000000000E+00 -0.74505805969E-08  0.93827000000E+00  0.93827000000E+00 0. -1.
     999902    2    1    2    0    0 -0.24637014197E-01  0.32398382153E-03 -0.35617417711E-02  0.10190347507E+01  0.10187306070E+01 0.  0.
     999903    2    3    3    0    0  0.17167299196E-01 -0.12377136777E+00  0.20656791052E-01  0.12901576536E+00  0.24582454164E-01 0.  0.
         14    1    1    2    0    0  0.24637014197E-01 -0.32398382153E-03  0.35617417711E-02  0.24895249316E-01  0.00000000000E+00 0.  1.
     999901    1    3    3    0    0 -0.41804313394E-01  0.12409535159E+00 -0.24218532823E-01  0.89001898532E+00  0.88000000000E+00 0. -1.
        -11    1    4    4    0    0  0.11543337750E-01 -0.66400090504E-01  0.23286232433E-01  0.71307295610E-01  0.51100000000E-03 0.  1.
         11    1    4    4    0    0  0.56239614467E-02 -0.57371277269E-01 -0.26294413812E-02  0.57708469749E-01  0.51100000000E-03 0. -1.
</event>
<event>
 8    1  0.1170483E+005  0.1043930E+01  0.7957747E-01            NaN
         13   -1    0    0    0    0  0.00000000000E+00  0.00000000000E+00  0.74505805969E-08  0.10566000000E+00  0.10566000000E+00 0. -1.
     999900   -1    0    0    0    0 -0.00000000000E+00 -0.00000000000E+00 -0.74505805969E-08  0.93827000000E+00  0.93827000000E+00 0.  1.
     999902    2    1    2    0    0  0.19539149820E-01  0.78599978415E-03  0.13462160746E-01  0.10201891924E+01  0.10199129190E+01 0.  0.
     999903    2    3    3    0    0 -0.10354079669E+00 -0.69442163237E-01 -0.22006913590E-01  0.12814730814E+00  0.19862470229E-01 0.  0.
         14    1    1    2    0    0 -0.19539149820E-01 -0.78599978415E-03 -0.13462160746E-01  0.23740807554E-01  0.00000000000E+00 0.  1.
     999901    1    3    3    0    0  0.12307994651E+00  0.70228163021E-01  0.35469074337E-01  0.89204188430E+00  0.88000000000E+00 0. -1.
        -11    1    4    4    0    0 -0.69469904840E-01 -0.38695908539E-01 -0.68615589320E-02  0.79817185669E-01  0.51100000000E-03 0. -1.
         11    1    4    4    0    0 -0.34070891854E-01 -0.30746254698E-01 -0.15145354658E-01  0.48330122474E-01  0.51100000000E-03 0.  1.
</event>
<event>
 8    1  0.1170483E+005  0.1043930E+01  0.7957747E-01            NaN
         13   -1    0    0    0    0  0.00000000000E+00  0.00000000000E+00  0.74505805969E-08  0.10566000000E+00  0.10566000000E+00 0. -1.
     999900   -1    0    0    0    0 -0.00000000000E+00 -0.00000000000E+00 -0.74505805969E-08  0.93827000000E+00  0.93827000000E+00 0. -1.
     999902    2    1    2    0    0 -0.23040468663E-01 -0.23786046152E-02 -0.71903349875E-02  0.10196767142E+01  0.10193882379E+01 0.  0.
     999903    2    3    3    0    0 -0.48065833967E-01 -0.11881413478E+00  0.18390258569E-01  0.13128610844E+00  0.21696028231E-01 0.  0.
         14    1    1    2    0    0  0.23040468663E-01  0.23786046152E-02  0.71903349875E-02  0.24253285826E-01  0.00000000000E+00 0.  1.
     999901    1    3    3    0    0  0.25025365303E-01  0.11643553016E+00 -0.25580593556E-01  0.88839060574E+00  0.88000000000E+00 0.  1.
        -11    1    4    4    0    0 -0.46494614914E-01 -0.91962778852E-01  0.15903338711E-01  0.10426926303E+00  0.51100000000E-03 0.  1.
         11    1    4    4    0    0 -0.15712190527E-02 -0.26851355925E-01  0.24869198579E-02  0.27016845406E-01  0.51100000000E-03 0. -1.
</event>
<event>
 8    1  0.1170483E+005  0.1043930E+01  0.7957747E-01            NaN
         13   -1    0    0    0    0  0.00000000000E+00  0.00000000000E+00  0.74505805969E-08  0.10566000000E+00  0.10566000000E+00 0. -1.
     999900   -1    0    0    0    0 -0.00000000000E+00 -0.00000000000E+00 -0.74505805969E-08  0.93827000000E+00  0.93827000000E+00 0.  1.
     999902    2    1    2    0    0  0.20330708003E-01  0.80997028587E-02 -0.81323100513E-02  0.10205831085E+01  0.10203160315E+01 0.  0.
     999903    2    3    3    0    0 -0.28026707719E-01 -0.52927929830E-01  0.11244506157E+00  0.12895442228E+00  0.19962190540E-01 0.  0.
         14    1    1    2    0    0 -0.20330708003E-01 -0.80997028587E-02  0.81323100513E-02  0.23346891465E-01  0.00000000000E+00 0. -1.
     999901    1    3    3    0    0  0.48357415722E-01  0.61027632689E-01 -0.12057737163E+00  0.89162868626E+00  0.88000000000E+00 0.  1.
        -11    1    4    4    0    0 -0.88404731216E-02 -0.16044997026E-01  0.17657570385E-01  0.25448905821E-01  0.51100000000E-03 0.  1.
         11    1    4    4    0    0 -0.19186234598E-01 -0.36882932804E-01  0.94787491189E-01  0.10350551646E+00  0.51100000000E-03 0. -1.
</event>
<event>
 8    1  0.1170483E+005  0.1043930E+01  0.7957747E-01            NaN
         13   -1    0    0    0    0  0.00000000000E+00  0.00000000000E+00  0.74505805969E-08  0.10566000000E+00  0.10566000000E+00 0. -1.
     999900   -1    0    0    0    0 -0.00000000000E+00 -0.00000000000E+00 -0.74505805969E-08  0.93827000000E+00  0.93827000000E+00 0.  1.
     999902    2    1    2    0    0  0.16879675014E-02  0.20705433917E-01  0.11992829263E-01  0.10199426662E+01  0.10196605564E+01 0.  0.
     999903    2    3    3    0    0 -0.82997353244E-01 -0.77953657017E-01  0.57890483555E-01  0.12920599669E+00  0.19430599782E-01 0.  0.
         14    1    1    2    0    0 -0.16879675014E-02 -0.20705433917E-01 -0.11992829263E-01  0.23987333776E-01  0.00000000000E+00 0.  1.
     999901    1    3    3    0    0  0.84685320746E-01  0.98659090934E-01 -0.45897654292E-01  0.89073666953E+00  0.88000000000E+00 0. -1.
        -11    1    4    4    0    0 -0.58002865156E-01 -0.65357958802E-01  0.41160753199E-01  0.96594326283E-01  0.51100000000E-03 0. -1.
         11    1    4    4    0    0 -0.24994488088E-01 -0.12595698215E-01  0.16729730356E-01  0.32611670412E-01  0.51100000000E-03 0.  1.
</event>
<event>
 8    1  0.1170483E+005  0.1043930E+01  0.7957747E-01            NaN
         13   -1    0    0    0    0  0.00000000000E+00  0.00000000000E+00  0.74505805969E-08  0.10566000000E+00  0.10566000000E+00 0.  1.
     999900   -1    0    0    0    0 -0.00000000000E+00 -0.00000000000E+00 -0.74505805969E-08  0.93827000000E+00  0.93827000000E+00 0.  1.
     999902    2    1    2    0    0  0.12925177908E-02  0.62641295656E-02  0.22869258056E-01  0.10201831500E+01  0.10199067343E+01 0.  0.
     999903    2    3    3    0    0  0.39688443795E-01 -0.59794256486E-01 -0.10380785346E+00  0.12783509677E+00  0.20376845829E-01 0.  0.
         14    1    1    2    0    0 -0.12925177908E-02 -0.62641295656E-02 -0.22869258056E-01  0.23746850012E-01  0.00000000000E+00 0. -1.
     999901    1    3    3    0    0 -0.38395926004E-01  0.66058386051E-01  0.12667711152E+00  0.89234805322E+00  0.88000000000E+00 0. -1.
        -11    1    4    4    0    0  0.83154033578E-02 -0.25370894651E-01 -0.26774127856E-01  0.37814590727E-01  0.51100000000E-03 0.  1.
         11    1    4    4    0    0  0.31373040437E-01 -0.34423361835E-01 -0.77033725607E-01  0.90020506042E-01  0.51100000000E-03 0. -1.
</event>
<event>
 8    1  0.1170483E+005  0.1043930E+01  0.7957747E-01            NaN
         13   -1    0    0    0    0  0.00000000000E+00  0.00000000000E+00  0.74505805969E-08  0.10566000000E+00  0.10566000000E+00 0.  1.
     999900   -1    0    0    0    0 -0.00000000000E+00 -0.00000000000E+00 -0.74505805969E-08  0.93827000000E+00  0.93827000000E+00 0.  1.
     999902    2    1    2    0    0  0.12254719796E-03 -0.14448044453E-01  0.18717309334E-01  0.10202847325E+01  0.10200107042E+01 0.  0.
     999903    2    3    3    0    0  0.88969953561E-01  0.90742767797E-01  0.17090264430E-01  0.12957624154E+00  0.18655366222E-01 0.  0.
         14    1    1    2    0    0 -0.12254719796E-03  0.14448044453E-01 -0.18717309334E-01  0.23645267498E-01  0.00000000000E+00 0.  1.
     999901    1    3    3    0    0 -0.88847406363E-01 -0.10519081225E+00  0.16270449041E-02  0.89070849096E+00  0.88000000000E+00 0. -1.
        -11    1    4    4    0    0  0.57029447991E-01  0.69697077831E-01  0.14684241109E-01  0.91246526806E-01  0.51100000000E-03 0.  1.
         11    1    4    4    0    0  0.31940505570E-01  0.21045689966E-01  0.24060233215E-02  0.38329714733E-01  0.51100000000E-03 0. -1.
</event>
<event>
 8    1  0.1170483E+005  0.1043930E+01  0.7957747E-01            NaN
         13   -1    0    0    0    0  0.00000000000E+00  0.00000000000E+00  0.74505805969E-08  0.10566000000E+00  0.10566000000E+00 0. -1.
     999900   -1    0    0    0    0 -0.00000000000E+00 -0.00000000000E+00 -0.74505805969E-08  0.93827000000E+00  0.93827000000E+00 0. -1.
     999902    2    1    2    0    0 -0.28562701670E-02  0.25027177643E-01  0.56425592955E-02  0.10181161205E+01  0.10177888182E+01 0.  0.
     999903    2    3    3    0    0  0.77975489079E-01  0.99911054053E-02  0.10057272090E+00  0.12920015576E+00  0.19945149151E-01 0.  0.
         14    1    1    2    0    0  0.28562701670E-02 -0.25027177643E-01 -0.56425592955E-02  0.25813879512E-01  0.00000000000E+00 0.  1.
     999901    1    3    3    0    0 -0.80831759246E-01  0.15036072238E-01 -0.94930161602E-01  0.88891596473E+00  0.88000000000E+00 0. -1.
        -11    1    4    4    0    0  0.34514558842E-01 -0.15886863858E-02  0.56486917763E-01  0.66217910688E-01  0.51100000000E-03 0.  1.
         11    1    4    4    0    0  0.43460930236E-01  0.11579791791E-01  0.44085803134E-01  0.62982245069E-01  0.51100000000E-03 0. -1.
</event>
<event>
 8    1  0.1170483E+005  0.1043930E+01  0.7957747E-01            NaN
         13   -1    0    0    0    0  0.00000000000E+00  0.00000000000E+00  0.74505805969E-08  0.10566000000E+00  0.10566000000E+00 0.  1.
     999900   -1    0    0    0    0 -0.00000000000E+00 -0.00000000000E+00 -0.74505805969E-08  0.93827000000E+00  0.93827000000E+00 0.  1.
     999902    2    1    2    0    0  0.77585868951E-02 -0.21734210759E-01 -0.98816042719E-02  0.10188258631E+01  0.10185165298E+01 0.  0.
     999903    2    3    3    0    0 -0.10374611202E+00 -0.61971775352E-01 -0.41874931220E-01  0.13030128128E+00  0.24923028282E-01 0.  0.
         14    1    1    2    0    0 -0.77585868951E-02  0.21734210759E-01  0.98816042719E-02  0.25104136928E-01  0.00000000000E+00 0.  1.
     999901    1    3    3    0    0  0.11150469891E+00  0.40237564594E-01  0.31993326948E-01  0.88852458179E+00  0.88000000000E+00 0. -1.
        -11    1    4    4    0    0 -0.72780562511E-01 -0.35029559517E-01 -0.37391703285E-01  0.89008319358E-01  0.51100000000E-03 0.  1.
         11    1    4    4    0    0 -0.30965549507E-01 -0.26942215835E-01 -0.44832279354E-02  0.41292961920E-01  0.51100000000E-03 0. -1.
</event>
<event>
 8    1  0.1170483E+005  0.1043930E+01  0.7957747E-01            NaN
         13   -1    0    0    0    0  0.00000000000E+00  0.00000000000E+00  0.74505805969E-08  0.10566000000E+00  0.10566000000E+00 0.  1.
     999900   -1    0    0    0    0 -0.00000000000E+00 -0.00000000000E+00 -0.74505805969E-08  0.93827000000E+00  0.93827000000E+00 0. -1.
     999902    2    1    2    0    0 -0.13555059905E-01  0.19302876660E-01 -0.14009808960E-02  0.10203015543E+01  0.10200279204E+01 0.  0.
     999903    2    3    3    0    0  0.13264428208E-01 -0.10410154575E+00  0.71175857325E-01  0.12832883399E+00  0.19728408091E-01 0.  0.
         14    1    1    2    0    0  0.13555059905E-01 -0.19302876660E-01  0.14009808960E-02  0.23628445651E-01  0.00000000000E+00 0. -1.
     999901    1    3    3    0    0 -0.26819488113E-01  0.12340442241E+00 -0.72576838221E-01  0.89197272036E+00  0.88000000000E+00 0. -1.
        -11    1    4    4    0    0 -0.29732687270E-02 -0.81580459119E-02  0.10573850519E-01  0.13691657161E-01  0.51100000000E-03 0.  1.
         11    1    4    4    0    0  0.16237696935E-01 -0.95943499834E-01  0.60602006807E-01  0.11463717683E+00  0.51100000000E-03 0. -1.
</event>
<event>
 8    1  0.1170483E+005  0.1043930E+01  0.7957747E-01            NaN
         13   -1    0    0    0    0  0.00000000000E+00  0.00000000000E+00  0.74505805969E-08  0.10566000000E+00  0.10566000000E+00 0.  1.
     999900   -1    0    0    0    0 -0.00000000000E+00 -0.00000000000E+00 -0.74505805969E-08  0.93827000000E+00  0.93827000000E+00 0.  1.
     999902    2    1    2    0    0  0.16378487041E-01  0.17876483912E-01 -0.14541915379E-01  0.10156582682E+01  0.10152647078E+01 0.  0.
     999903    2    3    3    0    0 -0.79324908724E-01  0.96771899188E-01 -0.80315471588E-02  0.12693670811E+00  0.19778283540E-01 0.  0.
         14    1    1    2    0    0 -0.16378487041E-01 -0.17876483912E-01  0.14541915379E-01  0.28271731778E-01  0.00000000000E+00 0.  1.
     999901    1    3    3    0    0  0.95703395764E-01 -0.78895415276E-01 -0.65103682205E-02  0.88872156011E+00  0.88000000000E+00 0.  1.
        -11    1    4    4    0    0 -0.66469448419E-01  0.76964129711E-01 -0.13788914952E-01  0.10262582585E+00  0.51100000000E-03 0. -1.
         11    1    4    4    0    0 -0.12855460305E-01  0.19807769477E-01  0.57573677928E-02  0.24310882259E-01  0.51100000000E-03 0.  1.
</event>
<event>
 8    1  0.1170483E+005  0.1043930E+01  0.7957747E-01            NaN
         13   -1    0    0    0    0  0.00000000000E+00  0.00000000000E+00  0.74505805969E-08  0.10566000000E+00  0.10566000000E+00 0.  1.
     999900   -1    0    0    0    0 -0.00000000000E+00 -0.00000000000E+00 -0.74505805969E-08  0.93827000000E+00  0.93827000000E+00 0. -1.
     999902    2    1    2    0    0 -0.10253922414E-01  0.15668291802E-01  0.15208527558E-01  0.10198066171E+01  0.10195212595E+01 0.  0.
     999903    2    3    3    0    0 -0.89908313525E-01  0.83145494445E-01 -0.43979759512E-01  0.13166178192E+00  0.20097947267E-01 0.  0.
         14    1    1    2    0    0  0.10253922414E-01 -0.15668291802E-01 -0.15208527558E-01  0.24123382917E-01  0.00000000000E+00 0.  1.
     999901    1    3    3    0    0  0.79654391111E-01 -0.67477202643E-01  0.59188287069E-01  0.88814483516E+00  0.88000000000E+00 0.  1.
        -11    1    4    4    0    0 -0.36988892773E-01  0.45221002470E-01 -0.14531660608E-01  0.60204215251E-01  0.51100000000E-03 0. -1.
         11    1    4    4    0    0 -0.52919420753E-01  0.37924491976E-01 -0.29448098903E-01  0.71457566670E-01  0.51100000000E-03 0.  1.
</event>
<event>
 7    1  0.1170483E+005  0.1043930E+01  0.7957747E-01            NaN
         13   -1    0    0    0    0  0.00000000000E+00  0.00000000000E+00  0.74505805969E-08  0.10566000000E+00  0.10566000000E+00 0. -1.
     999900   -1    0    0    0    0 -0.00000000000E+00 -0.00000000000E+00 -0.74505805969E-08  0.93827000000E+00  0.93827000000E+00 0.  1.
     999902    2    1    2    0    0 -0.13556548218E-01 -0.18352862597E-01  0.68625196227E-02  0.10201035076E+01  0.10198252127E+01 0.  0.
         14    1    1    2    0    0  0.13556548218E-01  0.18352862597E-01 -0.68625196227E-02  0.23826492412E-01  0.00000000000E+00 0. -1.
     999901    1    3    3    0    0 -0.66459344835E-01  0.41530169748E-01 -0.88993624542E-01  0.88795352622E+00  0.88000000000E+00 0.  1.
        -11    1    3    3    0    0  0.23656324903E-01 -0.53084468167E-01  0.77790943135E-01  0.97104451100E-01  0.51100000000E-03 0.  1.
         11    1    3    3    0    0  0.29246471714E-01 -0.67985641783E-02  0.18065201029E-01  0.35045530269E-01  0.51100000000E-03 0. -1.
</event>
<event>
 8    1  0.1170483E+005  0.1043930E+01  0.7957747E-01            NaN
         13   -1    0    0    0    0  0.00000000000E+00  0.00000000000E+00  0.74505805969E-08  0.10566000000E+00  0.10566000000E+00 0. -1.
     999900   -1    0    0    0    0 -0.00000000000E+00 -0.00000000000E+00 -0.74505805969E-08  0.93827000000E+00  0.93827000000E+00 0.  1.
     999902    2    1    2    0    0  0.84264820257E-02 -0.82765136563E-02  0.16331492053E-01  0.10237750028E+01  0.10235765885E+01 0.  0.
     999903    2    3    3    0    0 -0.55961646252E-01 -0.20083831073E-01 -0.11571228494E+00  0.13151898418E+00  0.19309173776E-01 0.  0.
         14    1    1    2    0    0 -0.84264820257E-02  0.82765136563E-02 -0.16331492053E-01  0.20154997155E-01  0.00000000000E+00 0.  1.
     999901    1    3    3    0    0  0.64388128278E-01  0.11807317417E-01  0.13204377699E+00  0.89225601867E+00  0.88000000000E+00 0. -1.
        -11    1    4    4    0    0 -0.83670033432E-02 -0.95779269346E-02 -0.34853347136E-01  0.37104721491E-01  0.51100000000E-03 0.  1.
         11    1    4    4    0    0 -0.47594642909E-01 -0.10505904139E-01 -0.80858937800E-01  0.94414262686E-01  0.51100000000E-03 0. -1.
</event>
<event>
 8    1  0.1170483E+005  0.1043930E+01  0.7957747E-01            NaN
         13   -1    0    0    0    0  0.00000000000E+00  0.00000000000E+00  0.74505805969E-08  0.10566000000E+00  0.10566000000E+00 0. -1.
     999900   -1    0    0    0    0 -0.00000000000E+00 -0.00000000000E+00 -0.74505805969E-08  0.93827000000E+00  0.93827000000E+00 0. -1.
     999902    2    1    2    0    0  0.13359039877E-01  0.81503009228E-02  0.10314916991E-01  0.10251872984E+01  0.10250159549E+01 0.  0.
     999903    2    3    3    0    0  0.83395195590E-01 -0.38159789061E-01 -0.96276912646E-01  0.13478766580E+00  0.22080371275E-01 0.  0.
         14    1    1    2    0    0 -0.13359039877E-01 -0.81503009228E-02 -0.10314916991E-01  0.18742701623E-01  0.00000000000E+00 0.  1.
     999901    1    3    3    0    0 -0.70036155713E-01  0.46310089984E-01  0.10659182964E+00  0.89039963257E+00  0.88000000000E+00 0.  1.
        -11    1    4    4    0    0  0.61064820425E-01 -0.36484543576E-01 -0.80284160391E-01  0.10726528676E+00  0.51100000000E-03 0. -1.
         11    1    4    4    0    0  0.22330375165E-01 -0.16752454852E-02 -0.15992752255E-01  0.27522379042E-01  0.51100000000E-03 0.  1.
</event>
<event>
 8    1  0.1170483E+005  0.1043930E+01  0.7957747E-01            NaN
         13   -1    0    0    0    0  0.00000000000E+00  0.00000000000E+00  0.74505805969E-08  0.10566000000E+00  0.10566000000E+00 0. -1.
     999900   -1    0    0    0    0 -0.00000000000E+00 -0.00000000000E+00 -0.74505805969E-08  0.93827000000E+00  0.93827000000E+00 0.  1.
     999902    2    1    2    0    0 -0.12082529183E-01  0.19906994677E-01  0.83475344532E-03  0.10206282241E+01  0.10203621901E+01 0.  0.
     999903    2    3    3    0    0 -0.26620239182E-01 -0.11345716700E+00  0.51671847041E-01  0.12901073056E+00  0.19814715362E-01 0.  0.
         14    1    1    2    0    0  0.12082529183E-01 -0.19906994677E-01 -0.83475344532E-03  0.23301775937E-01  0.00000000000E+00 0.  1.
     999901    1    3    3    0    0  0.14537709999E-01  0.13336416168E+00 -0.50837093596E-01  0.89161749350E+00  0.88000000000E+00 0.  1.
        -11    1    4    4    0    0 -0.15957331155E-01 -0.29950334205E-01  0.12655559932E-01  0.36222689779E-01  0.51100000000E-03 0.  1.
         11    1    4    4    0    0 -0.10662908026E-01 -0.83506832797E-01  0.39016287109E-01  0.92788040782E-01  0.51100000000E-03 0. -1.
</event>
<event>
 8    1  0.1170483E+005  0.1043930E+01  0.7957747E-01            NaN
         13   -1    0    0    0    0  0.00000000000E+00  0.00000000000E+00  0.74505805969E-08  0.10566000000E+00  0.10566000000E+00 0. -1.
     999900   -1    0    0    0    0 -0.00000000000E+00 -0.00000000000E+00 -0.74505805969E-08  0.93827000000E+00  0.93827000000E+00 0. -1.
     999902    2    1    2    0    0  0.13927779824E-03 -0.18903907227E-01  0.14213828756E-01  0.10202781494E+01  0.10200039668E+01 0.  0.
     999903    2    3    3    0    0 -0.77552254874E-01  0.70184274384E-01  0.75073468507E-01  0.13029131016E+00  0.19990378250E-01 0.  0.
         14    1    1    2    0    0 -0.13927779824E-03  0.18903907227E-01 -0.14213828756E-01  0.23651850555E-01  0.00000000000E+00 0. -1.
     999901    1    3    3    0    0  0.77691532672E-01 -0.89088181611E-01 -0.60859639751E-01  0.88998683929E+00  0.88000000000E+00 0. -1.
        -11    1    4    4    0    0 -0.72084245288E-01  0.59509977596E-01  0.60225544615E-01  0.11119781112E+00  0.51100000000E-03 0. -1.
         11    1    4    4    0    0 -0.54680095860E-02  0.10674296789E-01  0.14847923892E-01  0.19093499042E-01  0.51100000000E-03 0.  1.
</event>
<event>
 8    1  0.1170483E+005  0.1043930E+01  0.7957747E-01            NaN
         13   -1    0    0    0    0  0.00000000000E+00  0.00000000000E+00  0.74505805969E-08  0.10566000000E+00  0.10566000000E+00 0.  1.
     999900   -1    0    0    0    0 -0.00000000000E+00 -0.00000000000E+00 -0.74505805969E-08  0.93827000000E+00  0.93827000000E+00 0. -1.
     999902    2    1    2    0    0  0.58927248656E-02 -0.18183042336E-01  0.12953522536E-01  0.10208401542E+01  0.10205789922E+01 0.  0.
     999903    2    3    3    0    0 -0.67946458480E-01  0.10056909793E+00 -0.37304876182E-01  0.12838275884E+00  0.18963499187E-01 0.  0.
         14    1    1    2    0    0 -0.58927248656E-02  0.18183042336E-01 -0.12953522536E-01  0.23089845842E-01  0.00000000000E+00 0. -1.
     999901    1    3    3    0    0  0.73839183346E-01 -0.11875214027E+00  0.50258398717E-01  0.89245739532E+00  0.88000000000E+00 0. -1.
        -11    1    4    4    0    0 -0.35273323136E-01  0.37300516642E-01 -0.20025692505E-01  0.55107398307E-01  0.51100000000E-03 0. -1.
         11    1    4    4    0    0 -0.32673135344E-01  0.63268581291E-01 -0.17279183677E-01  0.73275360533E-01  0.51100000000E-03 0.  1.
</event>
<event>
 8    1  0.1170483E+005  0.1043930E+01  0.7957747E-01            NaN
         13   -1    0    0    0    0  0.00000000000E+00  0.00000000000E+00  0.74505805969E-08  0.10566000000E+00  0.10566000000E+00 0.  1.
     999900   -1    0    0    0    0 -0.00000000000E+00 -0.00000000000E+00 -0.74505805969E-08  0.93827000000E+00  0.93827000000E+00 0.  1.
     999902    2    1    2    0    0 -0.13096656359E-01 -0.16787842805E-01  0.46742636862E-02  0.10221308529E+01  0.10218983695E+01 0.  0.
     999903    2    3    3    0    0 -0.65414440492E-01  0.91557377812E-01  0.65671941420E-01  0.13185193364E+00  0.20256506564E-01 0.  0.
         14    1    1    2    0    0  0.13096656359E-01  0.16787842805E-01 -0.46742636862E-02  0.21799147112E-01  0.00000000000E+00 0.  1.
     999901    1    3    3    0    0  0.52317784133E-01 -0.10834522062E+00 -0.60997677734E-01  0.89027891925E+00  0.88000000000E+00 0.  1.
        -11    1    4    4    0    0 -0.13553493893E-01  0.11855818869E-01  0.38183767834E-02  0.18414634399E-01  0.51100000000E-03 0.  1.
         11    1    4    4    0    0 -0.51860946598E-01  0.79701558943E-01  0.61853564637E-01  0.11343729924E+00  0.51100000000E-03 0. -1.
</event>
<event>
 8    1  0.1170483E+005  0.1043930E+01  0.7957747E-01            NaN
         13   -1    0    0    0    0  0.00000000000E+00  0.00000000000E+00  0.74505805969E-08  0.10566000000E+00  0.10566000000E+00 0.  1.
     999900   -1    0    0    0    0 -0.00000000000E+00 -0.00000000000E+00 -0.74505805969E-08  0.93827000000E+00  0.93827000000E+00 0. -1.
     999902    2    1    2    0    0 -0.23226969918E-01 -0.24242607463E-03 -0.37103841863E-02  0.10204072907E+01  0.10201361287E+01 0.  0.
     999903    2    3    3    0    0  0.21604826386E-01  0.12470090642E+00  0.22404568229E-01  0.13006875001E+00  0.19970740285E-01 0.  0.
         14    1    1    2    0    0  0.23226969918E-01  0.24242607463E-03  0.37103841863E-02  0.23522709299E-01  0.00000000000E+00 0. -1.
     999901    1    3    3    0    0 -0.44831796304E-01 -0.12494333249E+00 -0.26114952415E-01  0.89033854069E+00  0.88000000000E+00 0.  1.
        -11    1    4    4    0    0 -0.32654251068E-02  0.92168110242E-02 -0.19578777640E-03  0.97934702959E-02  0.51100000000E-03 0.  1.
         11    1    4    4    0    0  0.24870251493E-01  0.11548409539E+00  0.22600356005E-01  0.12027527972E+00  0.51100000000E-03 0. -1.
</event>
<event>
 8    1  0.1170483E+005  0.1043930E+01  0.7957747E-01            NaN
         13   -1    0    0    0    0  0.00000000000E+00  0.00000000000E+00  0.74505805969E-08  0.10566000000E+00  0.10566000000E+00 0.  1.
     999900   -1    0    0    0    0 -0.00000000000E+00 -0.00000000000E+00 -0.74505805969E-08  0.93827000000E+00  0.93827000000E+00 0. -1.
     999902    2    1    2    0    0  0.99543850086E-02 -0.90256652011E-02  0.19179718693E-01  0.10205117588E+01  0.10202430278E+01 0.  0.
     999903    2    3    3    0    0 -0.23892956302E-01  0.12231009587E+00 -0.26117278823E-01  0.12897009253E+00  0.20507062270E-01 0.  0.
         14    1    1    2    0    0 -0.99543850086E-02  0.90256652011E-02 -0.19179718693E-01  0.23418241231E-01  0.00000000000E+00 0. -1.
     999901    1    3    3    0    0  0.33847341311E-01 -0.13133576107E+00  0.45296997517E-01  0.89154166624E+00  0.88000000000E+00 0.  1.
        -11    1    4    4    0    0 -0.81554482249E-02  0.89271033617E-01 -0.20258263575E-01  0.91904772144E-01  0.51100000000E-03 0. -1.
         11    1    4    4    0    0 -0.15737508077E-01  0.33039062251E-01 -0.58590152483E-02  0.37065320390E-01  0.51100000000E-03 0.  1.
</event>
<event>
 8    1  0.1260945E+005  0.1043930E+01  0.7957747E-01            NaN
         13   -1    0    0    0    0  0.00000000000E+00  0.00000000000E+00  0.74505805969E-08  0.10566000000E+00  0.10566000000E+00 0.  1.
     999900   -1    0    0    0    0 -0.00000000000E+00 -0.00000000000E+00 -0.74505805969E-08  0.93827000000E+00  0.93827000000E+00 0. -1.
     999902    2    1    2    0    0 -0.82938748094E-02 -0.23493322659E-01 -0.18139537206E-01  0.10131117038E+01  0.10126428576E+01 0.  0.
     999903    2    3    3    0    0 -0.95303933277E-02  0.77195724286E-02 -0.12397895806E+00  0.12621951376E+00  0.20252491620E-01 0.  0.
         14    1    1    2    0    0  0.82938748094E-02  0.23493322659E-01  0.18139537206E-01  0.30818296172E-01  0.00000000000E+00 0.  1.
     999901    1    3    3    0    0  0.12365185182E-02 -0.31212895087E-01  0.10583942085E+00  0.88689219007E+00  0.88000000000E+00 0.  1.
        -11    1    4    4    0    0  0.51266386837E-02  0.72863218638E-02 -0.41945185315E-01  0.42883943412E-01  0.51100000000E-03 0.  1.
         11    1    4    4    0    0 -0.14657032011E-01  0.43325056476E-03 -0.82033772744E-01  0.83335570347E-01  0.51100000000E-03 0. -1.
</event>
<event>
 8    1  0.1170483E+005  0.1043930E+01  0.7957747E-01            NaN
         13   -1    0    0    0    0  0.00000000000E+00  0.00000000000E+00  0.74505805969E-08  0.10566000000E+00  0.10566000000E+00 0.  1.
     999900   -1    0    0    0    0 -0.00000000000E+00 -0.00000000000E+00 -0.74505805969E-08  0.93827000000E+00  0.93827000000E+00 0. -1.
     999902    2    1    2    0    0 -0.69313527210E-02  0.71280487953E-02  0.21826735691E-01  0.10199454399E+01  0.10196633961E+01 0.  0.
     999903    2    3    3    0    0  0.12318610525E+00  0.70596513487E-02  0.36586798685E-01  0.13025537199E+00  0.20080161641E-01 0.  0.
         14    1    1    2    0    0  0.69313527210E-02 -0.71280487953E-02 -0.21826735691E-01  0.23984560056E-01  0.00000000000E+00 0. -1.
     999901    1    3    3    0    0 -0.13011745797E+00  0.68397446651E-04 -0.14760062994E-01  0.88969006795E+00  0.88000000000E+00 0.  1.
        -11    1    4    4    0    0  0.32910869605E-01  0.98633880910E-02  0.14357306882E-01  0.37239832770E-01  0.51100000000E-03 0. -1.
         11    1    4    4    0    0  0.90275235645E-01 -0.28037367424E-02  0.22229491803E-01  0.93015539225E-01  0.51100000000E-03 0.  1.
</event>
<event>
 8    1  0.1170483E+005  0.1043930E+01  0.7957747E-01            NaN
         13   -1    0    0    0    0  0.00000000000E+00  0.00000000000E+00  0.74505805969E-08  0.10566000000E+00  0.10566000000E+00 0.  1.
     999900   -1    0    0    0    0 -0.00000000000E+00 -0.00000000000E+00 -0.74505805969E-08  0.93827000000E+00  0.93827000000E+00 0.  1.
     999902    2    1    2    0    0 -0.14551584170E-01 -0.15988442731E-01  0.12113950804E-01  0.10191484200E+01  0.10188470814E+01 0.  0.
     999903    2    3    3    0    0 -0.11414829080E+00  0.10112031381E-01  0.62303872221E-01  0.13172531521E+00  0.18376634640E-01 0.  0.
         14    1    1    2    0    0  0.14551584170E-01  0.15988442731E-01 -0.12113950804E-01  0.24781579992E-01  0.00000000000E+00 0. -1.
     999901    1    3    3    0    0  0.99596706635E-01 -0.26100474111E-01 -0.50189921417E-01  0.88742310480E+00  0.88000000000E+00 0. -1.
        -11    1    4    4    0    0 -0.65864014114E-01 -0.10848069847E-02  0.42217047835E-01  0.78241839257E-01  0.51100000000E-03 0.  1.
         11    1    4    4    0    0 -0.48284276691E-01  0.11196838365E-01  0.20086824386E-01  0.53483475951E-01  0.51100000000E-03 0. -1.
</event>
<event>
 8    1  0.1170483E+005  0.1043930E+01  0.7957747E-01            NaN
         13   -1    0    0    0    0  0.00000000000E+00  0.00000000000E+00  0.74505805969E-08  0.10566000000E+00  0.10566000000E+00 0. -1.
     999900   -1    0    0    0    0 -0.00000000000E+00 -0.00000000000E+00 -0.74505805969E-08  0.93827000000E+00  0.93827000000E+00 0.  1.
     999902    2    1    2    0    0 -0.23167257227E-01 -0.41340622181E-02  0.28439228096E-02  0.10202255663E+01  0.10199501488E+01 0.  0.
     999903    2    3    3    0    0  0.12361013619E+00  0.18817701930E-01  0.16587744887E-01  0.12766784869E+00  0.19757394452E-01 0.  0.
         14    1    1    2    0    0  0.23167257227E-01  0.41340622181E-02 -0.28439228096E-02  0.23704433653E-01  0.00000000000E+00 0. -1.
     999901    1    3    3    0    0 -0.14677739342E+00 -0.22951764148E-01 -0.13743822077E-01  0.89255771765E+00  0.88000000000E+00 0.  1.
        -11    1    4    4    0    0  0.86488386890E-01  0.16967945434E-01  0.33249480463E-02  0.88201296133E-01  0.51100000000E-03 0. -1.
         11    1    4    4    0    0  0.37121749299E-01  0.18497564962E-02  0.13262796841E-01  0.39466552562E-01  0.51100000000E-03 0.  1.
</event>
<event>
 8    1  0.1170483E+005  0.1043930E+01  0.7957747E-01            NaN
         13   -1    0    0    0    0  0.00000000000E+00  0.00000000000E+00  0.74505805969E-08  0.10566000000E+00  0.10566000000E+00 0.  1.
     999900   -1    0    0    0    0 -0.00000000000E+00 -0.00000000000E+00 -0.74505805969E-08  0.93827000000E+00  0.93827000000E+00 0.  1.
     999902    2    1    2    0    0  0.20443564772E-01 -0.51585977161E-02  0.20652092696E-01  0.10144162845E+01  0.10139868534E+01 0.  0.
     999903    2    3    3    0    0 -0.82487068458E-01  0.15605739914E-01 -0.85782978846E-01  0.12180534044E+00  0.20740441610E-01 0.  0.
         14    1    1    2    0    0 -0.20443564772E-01  0.51585977161E-02 -0.20652092696E-01  0.29513715519E-01  0.00000000000E+00 0. -1.
     999901    1    3    3    0    0  0.10293063323E+00 -0.20764337630E-01  0.10643507154E+00  0.89261094404E+00  0.88000000000E+00 0. -1.
        -11    1    4    4    0    0 -0.67167347973E-01  0.84051380822E-02 -0.57396379140E-01  0.88750799654E-01  0.51100000000E-03 0.  1.
         11    1    4    4    0    0 -0.15319720485E-01  0.72006018316E-02 -0.28386599706E-01  0.33054540783E-01  0.51100000000E-03 0. -1.
</event>
<event>
 8    1  0.1170483E+005  0.1043930E+01  0.7957747E-01            NaN
         13   -1    0    0    0    0  0.00000000000E+00  0.00000000000E+00  0.74505805969E-08  0.10566000000E+00  0.10566000000E+00 0. -1.
     999900   -1    0    0    0    0 -0.00000000000E+00 -0.00000000000E+00 -0.74505805969E-08  0.93827000000E+00  0.93827000000E+00 0. -1.
     999902    2    1    2    0    0 -0.13253324821E-01  0.20580581039E-01 -0.56478238524E-03  0.10194447000E+01  0.10191506103E+01 0.  0.
     999903    2    3    3    0    0  0.10848492416E+00  0.49685210792E-01 -0.46192064295E-01  0.12941709958E+00  0.19428842459E-01 0.  0.
         14    1    1    2    0    0  0.13253324821E-01 -0.20580581039E-01  0.56478238524E-03  0.24485299954E-01  0.00000000000E+00 0. -1.
     999901    1    3    3    0    0 -0.12173824898E+00 -0.29104629753E-01  0.45627281910E-01  0.89002760047E+00  0.88000000000E+00 0. -1.
        -11    1    4    4    0    0  0.36908142988E-01  0.15994058204E-01 -0.59715148916E-02  0.40668673788E-01  0.51100000000E-03 0.  1.
         11    1    4    4    0    0  0.71576781168E-01  0.33691152588E-01 -0.40220549404E-01  0.88748425791E-01  0.51100000000E-03 0. -1.
</event>
<event>
 8    1  0.1170483E+005  0.1043930E+01  0.7957747E-01            NaN
         13   -1    0    0    0    0  0.00000000000E+00  0.00000000000E+00  0.74505805969E-08  0.10566000000E+00  0.10566000000E+00 0.  1.
     999900   -1    0    0    0    0 -0.00000000000E+00 -0.00000000000E+00 -0.74505805969E-08  0.93827000000E+00  0.93827000000E+00 0.  1.
     999902    2    1    2    0    0  0.59282194806E-04  0.21082157684E-01  0.11032170358E-01  0.10201356799E+01  0.10198581449E+01 0.  0.
     999903    2    3    3    0    0 -0.12040777473E+00  0.49241610855E-02  0.46943049337E-01  0.13105582752E+00  0.21206142207E-01 0.  0.
         14    1    1    2    0    0 -0.59282194806E-04 -0.21082157684E-01 -0.11032170358E-01  0.23794320116E-01  0.00000000000E+00 0. -1.
     999901    1    3    3    0    0  0.12046705692E+00  0.16157996598E-01 -0.35910878979E-01  0.88907985237E+00  0.88000000000E+00 0.  1.
        -11    1    4    4    0    0 -0.71162782406E-01  0.11375475640E-01  0.34241952647E-01  0.79789194054E-01  0.51100000000E-03 0.  1.
         11    1    4    4    0    0 -0.49244992323E-01 -0.64513145540E-02  0.12701096690E-01  0.51266633462E-01  0.51100000000E-03 0. -1.
</event>
<event>
 8    1  0.1170483E+005  0.1043930E+01  0.7957747E-01            NaN
         13   -1    0    0    0    0  0.00000000000E+00  0.00000000000E+00  0.74505805969E-08  0.10566000000E+00  0.10566000000E+00 0. -1.
     999900   -1    0    0    0    0 -0.00000000000E+00 -0.00000000000E+00 -0.74505805969E-08  0.93827000000E+00  0.93827000000E+00 0.  1.
     999902    2    1    2    0    0  0.70869278201E-02  0.74471992895E-02  0.21572852504E-01  0.10200328602E+01  0.10197528930E+01 0.  0.
     999903    2    3    3    0    0 -0.53391914164E-01  0.10900533547E+00 -0.41788950407E-01  0.12987194029E+00  0.19686158593E-01 0.  0.
         14    1    1    2    0    0 -0.70869278201E-02 -0.74471992895E-02 -0.21572852504E-01  0.23897139753E-01  0.00000000000E+00 0.  1.
     999901    1    3    3    0    0  0.60478841984E-01 -0.10155813618E+00  0.63361802911E-01  0.89016091996E+00  0.88000000000E+00 0. -1.
        -11    1    4    4    0    0 -0.11204127014E-01  0.44165723134E-01 -0.17085434513E-01  0.48665354777E-01  0.51100000000E-03 0.  1.
         11    1    4    4    0    0 -0.42187787150E-01  0.64839612333E-01 -0.24703515893E-01  0.81206585512E-01  0.51100000000E-03 0. -1.
</event>
<event>
 8    1  0.1170483E+005  0.1043930E+01  0.7957747E-01            NaN
         13   -1    0    0    0    0  0.00000000000E+00  0.00000000000E+00  0.74505805969E-08  0.10566000000E+00  0.10566000000E+00 0. -1.
     999900   -1    0    0    0    0 -0.00000000000E+00 -0.00000000000E+00 -0.74505805969E-08  0.93827000000E+00  0.93827000000E+00 0.  1.
     999902    2    1    2    0    0 -0.13527831388E-01 -0.16350399651E-01 -0.48354291023E-02  0.10221649095E+01  0.10219331598E+01 0.  0.
     999903    2    3    3    0    0  0.11833226974E+00 -0.57338440929E-02 -0.52649052588E-01  0.13099380351E+00  0.18763016563E-01 0.  0.
         14    1    1    2    0    0  0.13527831388E-01  0.16350399651E-01  0.48354291023E-02  0.21765090521E-01  0.00000000000E+00 0. -1.
     999901    1    3    3    0    0 -0.13186010113E+00 -0.10616555558E-01  0.47813623486E-01  0.89117110597E+00  0.88000000000E+00 0. -1.
        -11    1    4    4    0    0  0.46667181588E-01  0.68831165021E-02 -0.20195411970E-01  0.51315873917E-01  0.51100000000E-03 0.  1.
         11    1    4    4    0    0  0.71665088150E-01 -0.12616960595E-01 -0.32453640618E-01  0.79677929595E-01  0.51100000000E-03 0. -1.
</event>
<event>
 8    1  0.1170483E+005  0.1043930E+01  0.7957747E-01            NaN
         13   -1    0    0    0    0  0.00000000000E+00  0.00000000000E+00  0.74505805969E-08  0.10566000000E+00  0.10566000000E+00 0.  1.
     999900   -1    0    0    0    0 -0.00000000000E+00 -0.00000000000E+00 -0.74505805969E-08  0.93827000000E+00  0.93827000000E+00 0.  1.
     999902    2    1    2    0    0  0.10141372474E-02 -0.67678790904E-02 -0.23801343772E-01  0.10191643660E+01  0.10188634199E+01 0.  0.
     999903    2    3    3    0    0 -0.44786932157E-01 -0.68167237116E-01  0.96414639821E-01  0.12769395044E+00  0.18902928306E-01 0.  0.
         14    1    1    2    0    0 -0.10141372474E-02  0.67678790904E-02  0.23801343772E-01  0.24765633993E-01  0.00000000000E+00 0.  1.
     999901    1    3    3    0    0  0.45801069405E-01  0.61399358025E-01 -0.12021598359E+00  0.89147041557E+00  0.88000000000E+00 0.  1.
        -11    1    4    4    0    0 -0.34112940596E-02 -0.99059281210E-02  0.22810451797E-01  0.25106616085E-01  0.51100000000E-03 0.  1.
         11    1    4    4    0    0 -0.41375638098E-01 -0.58261308995E-01  0.73604188024E-01  0.10258733435E+00  0.51100000000E-03 0. -1.
</event>
<event>
 8    1  0.1170483E+005  0.1043930E+01  0.7957747E-01            NaN
         13   -1    0    0    0    0  0.00000000000E+00  0.00000000000E+00  0.74505805969E-08  0.10566000000E+00  0.10566000000E+00 0.  1.
     999900   -1    0    0    0    0 -0.00000000000E+00 -0.00000000000E+00 -0.74505805969E-08  0.93827000000E+00  0.93827000000E+00 0.  1.
     999902    2    1    2    0    0 -0.47328693674E-03 -0.18572540670E-01 -0.15856285217E-01  0.10195049095E+01  0.10192122818E+01 0.  0.
     999903    2    3    3    0    0  0.11370389373E+00  0.22419513878E-01  0.52235841832E-01  0.12857656503E+00  0.19290926658E-01 0.  0.
         14    1    1    2    0    0  0.47328693674E-03  0.18572540670E-01  0.15856285217E-01  0.24425090550E-01  0.00000000000E+00 0. -1.
     999901    1    3    3    0    0 -0.11417718067E+00 -0.40992054548E-01 -0.68092127049E-01  0.89092834442E+00  0.88000000000E+00 0.  1.
        -11    1    4    4    0    0  0.31899417725E-01  0.48654350740E-02  0.24193450907E-01  0.40333974482E-01  0.51100000000E-03 0. -1.
         11    1    4    4    0    0  0.81804476006E-01  0.17554078804E-01  0.28042390925E-01  0.88242590551E-01  0.51100000000E-03 0.  1.
</event>
<event>
 8    1  0.1170483E+005  0.1043930E+01  0.7957747E-01            NaN
         13   -1    0    0    0    0  0.00000000000E+00  0.00000000000E+00  0.74505805969E-08  0.10566000000E+00  0.10566000000E+00 0.  1.
     999900   -1    0    0    0    0 -0.00000000000E+00 -0.00000000000E+00 -0.74505805969E-08  0.93827000000E+00  0.93827000000E+00 0.  1.
     999902    2    1    2    0    0 -0.19670666489E-01 -0.12101557966E-01  0.48477039984E-02  0.10203316302E+01  0.10200587005E+01 0.  0.
     999903    2    3    3    0    0 -0.98745265620E-02  0.61773838354E-01 -0.11149149513E+00  0.12955200096E+00  0.20972698553E-01 0.  0.
         14    1    1    2    0    0  0.19670666489E-01  0.12101557966E-01 -0.48477039984E-02  0.23598369846E-01  0.00000000000E+00 0. -1.
     999901    1    3    3    0    0 -0.97961399275E-02 -0.73875396320E-01  0.11633919913E+00  0.89077962920E+00  0.88000000000E+00 0. -1.
        -11    1    4    4    0    0 -0.12296169095E-01  0.29281792698E-01 -0.40754824268E-01  0.51670455583E-01  0.51100000000E-03 0. -1.
         11    1    4    4    0    0  0.24216425326E-02  0.32492045655E-01 -0.70736670866E-01  0.77881545373E-01  0.51100000000E-03 0.  1.
</event>
<event>
 8    1  0.1170483E+005  0.1043930E+01  0.7957747E-01            NaN
         13   -1    0    0    0    0  0.00000000000E+00  0.00000000000E+00  0.74505805969E-08  0.10566000000E+00  0.10566000000E+00 0.  1.
     999900   -1    0    0    0    0 -0.00000000000E+00 -0.00000000000E+00 -0.74505805969E-08  0.93827000000E+00  0.93827000000E+00 0.  1.
     999902    2    1    2    0    0 -0.47212890342E-02 -0.22122433620E-01 -0.59161261427E-02  0.10205485290E+01  0.10202806510E+01 0.  0.
     999903    2    3    3    0    0 -0.72046651804E-01  0.15231076639E-01  0.10528084724E+00  0.13021558220E+00  0.21197530973E-01 0.  0.
         14    1    1    2    0    0  0.47212890342E-02  0.22122433620E-01  0.59161261427E-02  0.23381471039E-01  0.00000000000E+00 0.  1.
     999901    1    3    3    0    0  0.67325362769E-01 -0.37353510259E-01 -0.11119697339E+00  0.89033294676E+00  0.88000000000E+00 0.  1.
        -11    1    4    4    0    0 -0.40959073566E-01 -0.16956247132E-02  0.61513381428E-01  0.73923460865E-01  0.51100000000E-03 0.  1.
         11    1    4    4    0    0 -0.31087578238E-01  0.16926701352E-01  0.43767465815E-01  0.56292121333E-01  0.51100000000E-03 0. -1.
</event>
<event>
 8    1  0.1170483E+005  0.1043930E+01  0.7957747E-01            NaN
         13   -1    0    0    0    0  0.00000000000E+00  0.00000000000E+00  0.74505805969E-08  0.10566000000E+00  0.10566000000E+00 0.  1.
     999900   -1    0    0    0    0 -0.00000000000E+00 -0.00000000000E+00 -0.74505805969E-08  0.93827000000E+00  0.93827000000E+00 0.  1.
     999902    2    1    2    0    0 -0.71620492686E-02 -0.21831130967E-01 -0.29069068588E-02  0.10207709124E+01  0.10205081638E+01 0.  0.
     999903    2    3    3    0    0 -0.90126086785E-01  0.86547324107E-01  0.28915203760E-01  0.12968081163E+00  0.19180017382E-01 0.  0.
         14    1    1    2    0    0  0.71620492686E-02  0.21831130967E-01  0.29069068588E-02  0.23159087558E-01  0.00000000000E+00 0.  1.
     999901    1    3    3    0    0  0.82964037516E-01 -0.10837845507E+00 -0.31822110619E-01  0.89109010081E+00  0.88000000000E+00 0.  1.
        -11    1    4    4    0    0 -0.73617720574E-01  0.79192746460E-01  0.22117126401E-01  0.11036524940E+00  0.51100000000E-03 0. -1.
         11    1    4    4    0    0 -0.16508366211E-01  0.73545776471E-02  0.67980773591E-02  0.19315562226E-01  0.51100000000E-03 0.  1.
</event>
<event>
 8    1  0.1170483E+005  0.1043930E+01  0.7957747E-01            NaN
         13   -1    0    0    0    0  0.00000000000E+00  0.00000000000E+00  0.74505805969E-08  0.10566000000E+00  0.10566000000E+00 0. -1.
     999900   -1    0    0    0    0 -0.00000000000E+00 -0.00000000000E+00 -0.74505805969E-08  0.93827000000E+00  0.93827000000E+00 0.  1.
     999902    2    1    2    0    0  0.86897361495E-02  0.15552014892E-01  0.13274120689E-01  0.10217133630E+01  0.10214717897E+01 0.  0.
     999903    2    3    3    0    0  0.97338622087E-01 -0.72966118185E-01 -0.46424418468E-01  0.13083851179E+00  0.12830735915E-01 0.  0.
         14    1    1    2    0    0 -0.86897361495E-02 -0.15552014892E-01 -0.13274120689E-01  0.22216637046E-01  0.00000000000E+00 0.  1.
     999901    1    3    3    0    0 -0.88648885938E-01  0.88518133078E-01  0.59698539157E-01  0.89087485117E+00  0.88000000000E+00 0.  1.
        -11    1    4    4    0    0  0.64696298757E-01 -0.42829624871E-01 -0.25041679746E-01  0.81531188419E-01  0.51100000000E-03 0.  1.
         11    1    4    4    0    0  0.32642323330E-01 -0.30136493314E-01 -0.21382738722E-01  0.49307323370E-01  0.51100000000E-03 0. -1.
</event>
<event>
 8    1  0.1170483E+005  0.1043930E+01  0.7957747E-01            NaN
         13   -1    0    0    0    0  0.00000000000E+00  0.00000000000E+00  0.74505805969E-08  0.10566000000E+00  0.10566000000E+00 0. -1.
     999900   -1    0    0    0    0 -0.00000000000E+00 -0.00000000000E+00 -0.74505805969E-08  0.93827000000E+00  0.93827000000E+00 0. -1.
     999902    2    1    2    0    0 -0.16852159937E-01  0.13928814587E-01  0.96788597133E-02  0.10200200126E+01  0.10197397407E+01 0.  0.
     999903    2    3    3    0    0 -0.35718145580E-01 -0.12287073856E+00  0.10411721585E-01  0.12925035653E+00  0.14974858897E-01 0.  0.
         14    1    1    2    0    0  0.16852159937E-01 -0.13928814587E-01 -0.96788597133E-02  0.23909987363E-01  0.00000000000E+00 0.  1.
     999901    1    3    3    0    0  0.18865985643E-01  0.13679955315E+00 -0.73286187143E-03  0.89076965611E+00  0.88000000000E+00 0. -1.
        -11    1    4    4    0    0 -0.37931773215E-02 -0.37047548102E-01  0.39191720028E-02  0.37450367752E-01  0.51100000000E-03 0.  1.
         11    1    4    4    0    0 -0.31924968259E-01 -0.85823190457E-01  0.64925495819E-02  0.91799988778E-01  0.51100000000E-03 0. -1.
</event>
<event>
 8    1  0.1170483E+005  0.1043930E+01  0.7957747E-01            NaN
         13   -1    0    0    0    0  0.00000000000E+00  0.00000000000E+00  0.74505805969E-08  0.10566000000E+00  0.10566000000E+00 0.  1.
     999900   -1    0    0    0    0 -0.00000000000E+00 -0.00000000000E+00 -0.74505805969E-08  0.93827000000E+00  0.93827000000E+00 0.  1.
     999902    2    1    2    0    0  0.23555055975E-01 -0.15204334655E-02 -0.95623281617E-03  0.10203065633E+01  0.10200330467E+01 0.  0.
     999903    2    3    3    0    0  0.10216631466E+00  0.76343998019E-01  0.32202332961E-01  0.13275820397E+00  0.17927314021E-01 0.  0.
         14    1    1    2    0    0 -0.23555055975E-01  0.15204334655E-02  0.95623281617E-03  0.23623436691E-01  0.00000000000E+00 0. -1.
     999901    1    3    3    0    0 -0.78611258686E-01 -0.77864431484E-01 -0.33158565777E-01  0.88754835934E+00  0.88000000000E+00 0. -1.
        -11    1    4    4    0    0  0.26574047237E-01  0.23055653333E-01  0.11776595230E-02  0.35204987432E-01  0.51100000000E-03 0.  1.
         11    1    4    4    0    0  0.75592267424E-01  0.53288344686E-01  0.31024673438E-01  0.97553216537E-01  0.51100000000E-03 0. -1.
</event>
<event>
 8    1  0.1170483E+005  0.1043930E+01  0.7957747E-01            NaN
         13   -1    0    0    0    0  0.00000000000E+00  0.00000000000E+00  0.74505805969E-08  0.10566000000E+00  0.10566000000E+00 0. -1.
     999900   -1    0    0    0    0 -0.00000000000E+00 -0.00000000000E+00 -0.74505805969E-08  0.93827000000E+00  0.93827000000E+00 0.  1.
     999902    2    1    2    0    0 -0.22354764490E-01  0.11138963774E-01  0.17716074904E-02  0.10188910183E+01  0.10185833086E+01 0.  0.
     999903    2    3    3    0    0 -0.12403887199E+00  0.97219268269E-02  0.40013910791E-01  0.13220948618E+00  0.19951880982E-01 0.  0.
         14    1    1    2    0    0  0.22354764490E-01 -0.11138963774E-01 -0.17716074904E-02  0.25038981658E-01  0.00000000000E+00 0. -1.
     999901    1    3    3    0    0  0.10168410750E+00  0.14170369475E-02 -0.38242303300E-01  0.88668153216E+00  0.88000000000E+00 0.  1.
        -11    1    4    4    0    0 -0.10443942641E+00  0.98283766007E-02  0.40874810522E-01  0.11258419974E+00  0.51100000000E-03 0. -1.
         11    1    4    4    0    0 -0.19599445581E-01 -0.10644977379E-03 -0.86089973115E-03  0.19625286443E-01  0.51100000000E-03 0.  1.
</event>
<event>
 8    1  0.1170483E+005  0.1043930E+01  0.7957747E-01            NaN
         13   -1    0    0    0    0  0.00000000000E+00  0.00000000000E+00  0.74505805969E-08  0.10566000000E+00  0.10566000000E+00 0.  1.
     999900   -1    0    0    0    0 -0.00000000000E+00 -0.00000000000E+00 -0.74505805969E-08  0.93827000000E+00  0.93827000000E+00 0. -1.
     999902    2    1    2    0    0 -0.19215888683E-01  0.70348064385E-02  0.10577304147E-01  0.10208948477E+01  0.10206349356E+01 0.  0.
     999903    2    3    3    0    0 -0.91414281291E-01 -0.65439952407E-01  0.68395819332E-01  0.13308395607E+00  0.19859331942E-01 0.  0.
         14    1    1    2    0    0  0.19215888683E-01 -0.70348064385E-02 -0.10577304147E-01  0.23035152323E-01  0.00000000000E+00 0. -1.
     999901    1    3    3    0    0  0.72198392608E-01  0.72474758845E-01 -0.57818515186E-01  0.88781089161E+00  0.88000000000E+00 0.  1.
        -11    1    4    4    0    0 -0.87089346073E-01 -0.57443229559E-01  0.66681561875E-01  0.12381829686E+00  0.51100000000E-03 0.  1.
         11    1    4    4    0    0 -0.43249352182E-02 -0.79967228481E-02  0.17142574573E-02  0.92656592092E-02  0.51100000000E-03 0. -1.
</event>
<event>
 8    1  0.1170483E+005  0.1043930E+01  0.7957747E-01            NaN
         13   -1    0    0    0    0  0.00000000000E+00  0.00000000000E+00  0.74505805969E-08  0.10566000000E+00  0.10566000000E+00 0. -1.
     999900   -1    0    0    0    0 -0.00000000000E+00 -0.00000000000E+00 -0.74505805969E-08  0.93827000000E+00  0.93827000000E+00 0. -1.
     999902    2    1    2    0    0 -0.27126559070E-02 -0.20938101744E-01 -0.12753691404E-01  0.10192638440E+01  0.10189653402E+01 0.  0.
     999903    2    3    3    0    0  0.10294462343E+00 -0.29577613113E-01  0.69354073763E-01  0.12910667422E+00  0.19649811448E-01 0.  0.
         14    1    1    2    0    0  0.27126559070E-02  0.20938101744E-01  0.12753691404E-01  0.24666155987E-01  0.00000000000E+00 0. -1.
     999901    1    3    3    0    0 -0.10565727934E+00  0.86395113688E-02 -0.82107765167E-01  0.89015716979E+00  0.88000000000E+00 0.  1.
        -11    1    4    4    0    0  0.41598422988E-01 -0.21226280086E-01  0.34418553835E-01  0.58016219547E-01  0.51100000000E-03 0. -1.
         11    1    4    4    0    0  0.61346200442E-01 -0.83513330270E-02  0.34935519928E-01  0.71090454673E-01  0.51100000000E-03 0.  1.
</event>
<event>
 8    1  0.1170483E+005  0.1043930E+01  0.7957747E-01            NaN
         13   -1    0    0    0    0  0.00000000000E+00  0.00000000000E+00  0.74505805969E-08  0.10566000000E+00  0.10566000000E+00 0. -1.
     999900   -1    0    0    0    0 -0.00000000000E+00 -0.00000000000E+00 -0.74505805969E-08  0.93827000000E+00  0.93827000000E+00 0.  1.
     999902    2    1    2    0    0 -0.12471734494E-01 -0.11527785521E-01 -0.16436747902E-01  0.10202952654E+01  0.10200214840E+01 0.  0.
     999903    2    3    3    0    0 -0.59570849247E-01  0.66315043612E-01  0.91147462699E-01  0.12908698721E+00  0.20229167580E-01 0.  0.
         14    1    1    2    0    0  0.12471734494E-01  0.11527785521E-01  0.16436747902E-01  0.23634734649E-01  0.00000000000E+00 0. -1.
     999901    1    3    3    0    0  0.47099114754E-01 -0.77842829133E-01 -0.10758421060E+00  0.89120827814E+00  0.88000000000E+00 0.  1.
        -11    1    4    4    0    0 -0.25819849364E-01  0.34822050897E-01  0.57254531733E-01  0.71816309950E-01  0.51100000000E-03 0.  1.
         11    1    4    4    0    0 -0.33750999883E-01  0.31492992715E-01  0.33892930966E-01  0.57270677260E-01  0.51100000000E-03 0. -1.
</event>
<event>
 8    1  0.1170483E+005  0.1043930E+01  0.7957747E-01            NaN
         13   -1    0    0    0    0  0.00000000000E+00  0.00000000000E+00  0.74505805969E-08  0.10566000000E+00  0.10566000000E+00 0.  1.
     999900   -1    0    0    0    0 -0.00000000000E+00 -0.00000000000E+00 -0.74505805969E-08  0.93827000000E+00  0.93827000000E+00 0.  1.
     999902    2    1    2    0    0 -0.11981164814E-01 -0.20130969487E-01  0.15190686128E-02  0.10204542293E+01  0.10201841609E+01 0.  0.
     999903    2    3    3    0    0  0.42942976227E-02 -0.12652435190E+00 -0.35481493629E-01  0.13312481798E+00  0.20890862968E-01 0.  0.
         14    1    1    2    0    0  0.11981164814E-01  0.20130969487E-01 -0.15190686128E-02  0.23475770749E-01  0.00000000000E+00 0. -1.
     999901    1    3    3    0    0 -0.16275462437E-01  0.10639338242E+00  0.37000562242E-01  0.88732941127E+00  0.88000000000E+00 0.  1.
        -11    1    4    4    0    0  0.11938158998E-02 -0.12136555039E+00 -0.30133854449E-01  0.12505731615E+00  0.51100000000E-03 0. -1.
         11    1    4    4    0    0  0.31004817228E-02 -0.51588015129E-02 -0.53476391805E-02  0.80675018295E-02  0.51100000000E-03 0.  1.
</event>
<event>
 8    1  0.1170483E+005  0.1043930E+01  0.7957747E-01            NaN
         13   -1    0    0    0    0  0.00000000000E+00  0.00000000000E+00  0.74505805969E-08  0.10566000000E+00  0.10566000000E+00 0.  1.
     999900   -1    0    0    0    0 -0.00000000000E+00 -0.00000000000E+00 -0.74505805969E-08  0.93827000000E+00  0.93827000000E+00 0. -1.
     999902    2    1    2    0    0  0.88922142754E-02  0.81067786937E-02 -0.17736252583E-01  0.10224971749E+01  0.10222725208E+01 0.  0.
     999903    2    3    3    0    0  0.10709331714E+00  0.66510216619E-01  0.39611585577E-01  0.13325975290E+00  0.17219074892E-01 0.  0.
         14    1    1    2    0    0 -0.88922142754E-02 -0.81067786937E-02  0.17736252583E-01  0.21432825087E-01  0.00000000000E+00 0.  1.
     999901    1    3    3    0    0 -0.98201102866E-01 -0.58403437925E-01 -0.57347838161E-01  0.88923742201E+00  0.88000000000E+00 0. -1.
        -11    1    4    4    0    0  0.31641459533E-01  0.28893513364E-01  0.15504368663E-01  0.45570425108E-01  0.51100000000E-03 0.  1.
         11    1    4    4    0    0  0.75451857609E-01  0.37616703254E-01  0.24107216914E-01  0.87689327792E-01  0.51100000000E-03 0. -1.
</event>
<event>
 8    1  0.1170483E+005  0.1043930E+01  0.7957747E-01            NaN
         13   -1    0    0    0    0  0.00000000000E+00  0.00000000000E+00  0.74505805969E-08  0.10566000000E+00  0.10566000000E+00 0.  1.
     999900   -1    0    0    0    0 -0.00000000000E+00 -0.00000000000E+00 -0.74505805969E-08  0.93827000000E+00  0.93827000000E+00 0. -1.
     999902    2    1    2    0    0 -0.22034538807E-01 -0.31319792331E-03  0.78067069102E-02  0.10205512989E+01  0.10202834851E+01 0.  0.
     999903    2    3    3    0    0 -0.13018081815E+00 -0.15887153135E-01 -0.11394694816E-01  0.13358632795E+00  0.22716093373E-01 0.  0.
         14    1    1    2    0    0  0.22034538807E-01  0.31319792331E-03 -0.78067069102E-02  0.23378701122E-01  0.00000000000E+00 0.  1.
     999901    1    3    3    0    0  0.10814627934E+00  0.15573955212E-01  0.19201401726E-01  0.88696497092E+00  0.88000000000E+00 0.  1.
        -11    1    4    4    0    0 -0.95143426760E-01 -0.16960941334E-01 -0.16862913369E-01  0.98104863054E-01  0.51100000000E-03 0. -1.
         11    1    4    4    0    0 -0.35037391387E-01  0.10737881991E-02  0.54682185528E-02  0.35481464900E-01  0.51100000000E-03 0.  1.
</event>
<event>
 8    1  0.1170483E+005  0.1043930E+01  0.7957747E-01            NaN
         13   -1    0    0    0    0  0.00000000000E+00  0.00000000000E+00  0.74505805969E-08  0.10566000000E+00  0.10566000000E+00 0.  1.
     999900   -1    0    0    0    0 -0.00000000000E+00 -0.00000000000E+00 -0.74505805969E-08  0.93827000000E+00  0.93827000000E+00 0. -1.
     999902    2    1    2    0    0 -0.13949493810E-02  0.59514728275E-02 -0.25674793203E-01  0.10175375594E+01  0.10171952241E+01 0.  0.
     999903    2    3    3    0    0 -0.10471037853E+00  0.31518309726E-01  0.61277406278E-01  0.12687015460E+00  0.19581838268E-01 0.  0.
         14    1    1    2    0    0  0.13949493810E-02 -0.59514728275E-02  0.25674793203E-01  0.26392440558E-01  0.00000000000E+00 0.  1.
     999901    1    3    3    0    0  0.10331542914E+00 -0.25566836898E-01 -0.86952199480E-01  0.89066740484E+00  0.88000000000E+00 0. -1.
        -11    1    4    4    0    0 -0.52174252018E-01  0.62005758835E-02  0.25009307544E-01  0.58192149812E-01  0.51100000000E-03 0. -1.
         11    1    4    4    0    0 -0.52536126508E-01  0.25317733842E-01  0.36268098734E-01  0.68678004791E-01  0.51100000000E-03 0.  1.
</event>
<event>
 8    1  0.1170483E+005  0.1043930E+01  0.7957747E-01            NaN
         13   -1    0    0    0    0  0.00000000000E+00  0.00000000000E+00  0.74505805969E-08  0.10566000000E+00  0.10566000000E+00 0. -1.
     999900   -1    0    0    0    0 -0.00000000000E+00 -0.00000000000E+00 -0.74505805969E-08  0.93827000000E+00  0.93827000000E+00 0.  1.
     999902    2    1    2    0    0  0.14830286857E-01  0.17612054844E-01 -0.46642429283E-02  0.10204379365E+01  0.10201674888E+01 0.  0.
     999903    2    3    3    0    0 -0.84298590243E-01 -0.82628829514E-01  0.44622970841E-01  0.12785516803E+00  0.20541632898E-01 0.  0.
         14    1    1    2    0    0 -0.14830286857E-01 -0.17612054844E-01  0.46642429283E-02  0.23492063473E-01  0.00000000000E+00 0. -1.
     999901    1    3    3    0    0  0.99128877101E-01  0.10024088436E+00 -0.49287213770E-01  0.89258276849E+00  0.88000000000E+00 0.  1.
        -11    1    4    4    0    0 -0.35786111845E-01 -0.25355396036E-01  0.24073093004E-01  0.50033157375E-01  0.51100000000E-03 0. -1.
         11    1    4    4    0    0 -0.48512478399E-01 -0.57273433478E-01  0.20549877838E-01  0.77822010658E-01  0.51100000000E-03 0.  1.
</event>
<event>
 8    1  0.1170483E+005  0.1043930E+01  0.7957747E-01            NaN
         13   -1    0    0    0    0  0.00000000000E+00  0.00000000000E+00  0.74505805969E-08  0.10566000000E+00  0.10566000000E+00 0.  1.
     999900   -1    0    0    0    0 -0.00000000000E+00 -0.00000000000E+00 -0.74505805969E-08  0.93827000000E+00  0.93827000000E+00 0. -1.
     999902    2    1    2    0    0 -0.18942796766E-01  0.66575367191E-02 -0.11618643538E-01  0.10207320427E+01  0.10204684012E+01 0.  0.
     999903    2    3    3    0    0  0.82526598798E-01  0.55412163321E-01 -0.82552633283E-01  0.13072941196E+00  0.19851814440E-01 0.  0.
         14    1    1    2    0    0  0.18942796766E-01 -0.66575367191E-02  0.11618643538E-01  0.23197957283E-01  0.00000000000E+00 0. -1.
     999901    1    3    3    0    0 -0.10146939556E+00 -0.48754626602E-01  0.70933989745E-01  0.89000263076E+00  0.88000000000E+00 0.  1.
        -11    1    4    4    0    0  0.21013292545E-01  0.85558723384E-02 -0.10386852260E-01  0.24958149689E-01  0.51100000000E-03 0.  1.
         11    1    4    4    0    0  0.61513306253E-01  0.46856290983E-01 -0.72165781023E-01  0.10577126227E+00  0.51100000000E-03 0. -1.
</event>
<event>
 8    1  0.1170483E+005  0.1043930E+01  0.7957747E-01            NaN
         13   -1    0    0    0    0  0.00000000000E+00  0.00000000000E+00  0.74505805969E-08  0.10566000000E+00  0.10566000000E+00 0.  1.
     999900   -1    0    0    0    0 -0.00000000000E+00 -0.00000000000E+00 -0.74505805969E-08  0.93827000000E+00  0.93827000000E+00 0.  1.
     999902    2    1    2    0    0 -0.10502695642E-01  0.97652950358E-02 -0.19042664449E-01  0.10200911520E+01  0.10198125650E+01 0.  0.
     999903    2    3    3    0    0 -0.55910202704E-01  0.14528512630E-01  0.11345354744E+00  0.12900205655E+00  0.20803718908E-01 0.  0.
         14    1    1    2    0    0  0.10502695642E-01 -0.97652950358E-02  0.19042664449E-01  0.23838847963E-01  0.00000000000E+00 0.  1.
     999901    1    3    3    0    0  0.45407507062E-01 -0.47632175939E-02 -0.13249621189E+00  0.89108909549E+00  0.88000000000E+00 0. -1.
        -11    1    4    4    0    0 -0.23189319364E-01  0.78588880730E-02  0.27695892024E-01  0.36970666890E-01  0.51100000000E-03 0.  1.
         11    1    4    4    0    0 -0.32720883340E-01  0.66696245567E-02  0.85757655417E-01  0.92031389655E-01  0.51100000000E-03 0. -1.
</event>
<event>
 8    1  0.1170483E+005  0.1043930E+01  0.7957747E-01            NaN
         13   -1    0    0    0    0  0.00000000000E+00  0.00000000000E+00  0.74505805969E-08  0.10566000000E+00  0.10566000000E+00 0.  1.
     999900   -1    0    0    0    0 -0.00000000000E+00 -0.00000000000E+00 -0.74505805969E-08  0.93827000000E+00  0.93827000000E+00 0.  1.
     999902    2    1    2    0    0 -0.22099258855E-01  0.12988060895E-01 -0.12790753696E-02  0.10182647901E+01  0.10179412948E+01 0.  0.
     999903    2    3    3    0    0  0.77497598780E-01  0.85933597500E-01 -0.51564700038E-01  0.12822589798E+00  0.19811653799E-01 0.  0.
         14    1    1    2    0    0  0.22099258855E-01 -0.12988060895E-01  0.12790753696E-02  0.25665209945E-01  0.00000000000E+00 0. -1.
     999901    1    3    3    0    0 -0.99596857635E-01 -0.72945536606E-01  0.50285624668E-01  0.89003889208E+00  0.88000000000E+00 0. -1.
        -11    1    4    4    0    0  0.42737463950E-01  0.59471671289E-01 -0.37819063504E-01  0.82425197580E-01  0.51100000000E-03 0. -1.
         11    1    4    4    0    0  0.34760134830E-01  0.26461926211E-01 -0.13745636534E-01  0.45800700398E-01  0.51100000000E-03 0.  1.
</event>
<event>
 8    1  0.1170483E+005  0.1043930E+01  0.7957747E-01            NaN
         13   -1    0    0    0    0  0.00000000000E+00  0.00000000000E+00  0.74505805969E-08  0.10566000000E+00  0.10566000000E+00 0. -1.
     999900   -1    0    0    0    0 -0.00000000000E+00 -0.00000000000E+00 -0.74505805969E-08  0.93827000000E+00  0.93827000000E+00 0.  1.
     999902    2    1    2    0    0 -0.16871825560E-01  0.15019028220E-01  0.31999808800E-02  0.10211161975E+01  0.10208613124E+01 0.  0.
     999903    2    3    3    0    0 -0.10650501627E+00 -0.17299162197E-01 -0.73531829237E-01  0.13265328608E+00  0.23396258096E-01 0.  0.
         14    1    1    2    0    0  0.16871825560E-01 -0.15019028220E-01 -0.31999808800E-02  0.22813802490E-01  0.00000000000E+00 0.  1.
     999901    1    3    3    0    0  0.89633190708E-01  0.32318190417E-01  0.76731810117E-01  0.88846291143E+00  0.88000000000E+00 0. -1.
        -11    1    4    4    0    0 -0.51332218061E-01 -0.91774141385E-03 -0.45638605489E-01  0.68694849096E-01  0.51100000000E-03 0. -1.
         11    1    4    4    0    0 -0.55172798208E-01 -0.16381420783E-01 -0.27893223748E-01  0.63958436981E-01  0.51100000000E-03 0.  1.
</event>
<event>
 8    1  0.1170483E+005  0.1043930E+01  0.7957747E-01            NaN
         13   -1    0    0    0    0  0.00000000000E+00  0.00000000000E+00  0.74505805969E-08  0.10566000000E+00  0.10566000000E+00 0.  1.
     999900   -1    0    0    0    0 -0.00000000000E+00 -0.00000000000E+00 -0.74505805969E-08  0.93827000000E+00  0.93827000000E+00 0.  1.
     999902    2    1    2    0    0 -0.15397343387E-01 -0.14360480077E-01  0.13749791003E-01  0.10187832641E+01  0.10184728671E+01 0.  0.
     999903    2    3    3    0    0  0.56511340558E-01 -0.10484107532E+00 -0.45574738794E-01  0.12924574567E+00  0.21029105366E-01 0.  0.
         14    1    1    2    0    0  0.15397343387E-01  0.14360480077E-01 -0.13749791003E-01  0.25146735853E-01  0.00000000000E+00 0.  1.
     999901    1    3    3    0    0 -0.71908683945E-01  0.90480595240E-01  0.59324529797E-01  0.88953751848E+00  0.88000000000E+00 0. -1.
        -11    1    4    4    0    0  0.89322641949E-02 -0.20472365193E-01 -0.17553147805E-01  0.28412623939E-01  0.51100000000E-03 0.  1.
         11    1    4    4    0    0  0.47579076363E-01 -0.84368710124E-01 -0.28021590989E-01  0.10083312173E+00  0.51100000000E-03 0. -1.
</event>
<event>
 8    1  0.1170483E+005  0.1043930E+01  0.7957747E-01            NaN
         13   -1    0    0    0    0  0.00000000000E+00  0.00000000000E+00  0.74505805969E-08  0.10566000000E+00  0.10566000000E+00 0. -1.
     999900   -1    0    0    0    0 -0.00000000000E+00 -0.00000000000E+00 -0.74505805969E-08  0.93827000000E+00  0.93827000000E+00 0. -1.
     999902    2    1    2    0    0  0.16625280783E-02 -0.19263570752E-01  0.13834559854E-01  0.10201551350E+01  0.10198780591E+01 0.  0.
     999903    2    3    3    0    0 -0.27141699109E-01 -0.12323650531E+00  0.37798148022E-01  0.13324233877E+00  0.20022806362E-01 0.  0.
         14    1    1    2    0    0 -0.16625280783E-02  0.19263570752E-01 -0.13834559854E-01  0.23774864965E-01  0.00000000000E+00 0.  1.
     999901    1    3    3    0    0  0.28804227188E-01  0.10397293456E+00 -0.23963588168E-01  0.88691279627E+00  0.88000000000E+00 0. -1.
        -11    1    4    4    0    0 -0.15357228931E-01 -0.10298601713E+00  0.27874390860E-01  0.10779242549E+00  0.51100000000E-03 0.  1.
         11    1    4    4    0    0 -0.11784470178E-01 -0.20250488178E-01  0.99237571629E-02  0.25449913282E-01  0.51100000000E-03 0. -1.
</event>
<event>
 8    1  0.1170483E+005  0.1043930E+01  0.7957747E-01            NaN
         13   -1    0    0    0    0  0.00000000000E+00  0.00000000000E+00  0.74505805969E-08  0.10566000000E+00  0.10566000000E+00 0.  1.
     999900   -1    0    0    0    0 -0.00000000000E+00 -0.00000000000E+00 -0.74505805969E-08  0.93827000000E+00  0.93827000000E+00 0.  1.
     999902    2    1    2    0    0 -0.53494753850E-02 -0.22014420939E-01  0.22149286847E-01  0.10122465260E+01  0.10117505557E+01 0.  0.
     999903    2    3    3    0    0 -0.63870833370E-01 -0.43758882593E-01  0.98287423894E-01  0.12675537029E+00  0.20302291486E-01 0.  0.
         14    1    1    2    0    0  0.53494753850E-02  0.22014420939E-01 -0.22149286847E-01  0.31683473989E-01  0.00000000000E+00 0. -1.
     999901    1    3    3    0    0  0.58521357985E-01  0.21744461655E-01 -0.76138137048E-01  0.88549115572E+00  0.88000000000E+00 0. -1.
        -11    1    4    4    0    0 -0.45773577950E-01 -0.20950030074E-01  0.69405784384E-01  0.85741169956E-01  0.51100000000E-03 0. -1.
         11    1    4    4    0    0 -0.18097255420E-01 -0.22808852519E-01  0.28881639511E-01  0.41014200331E-01  0.51100000000E-03 0.  1.
</event>
<event>
 8    1  0.1170483E+005  0.1043930E+01  0.7957747E-01            NaN
         13   -1    0    0    0    0  0.00000000000E+00  0.00000000000E+00  0.74505805969E-08  0.10566000000E+00  0.10566000000E+00 0.  1.
     999900   -1    0    0    0    0 -0.00000000000E+00 -0.00000000000E+00 -0.74505805969E-08  0.93827000000E+00  0.93827000000E+00 0. -1.
     999902    2    1    2    0    0 -0.19305917742E-01  0.10663231332E-01 -0.85527396987E-02  0.10202747190E+01  0.10200004559E+01 0.  0.
     999903    2    3    3    0    0  0.70805350459E-01  0.10611085316E+00 -0.20368324945E-01  0.13046018933E+00  0.18223104240E-01 0.  0.
         14    1    1    2    0    0  0.19305917742E-01 -0.10663231332E-01  0.85527396987E-02  0.23655280989E-01  0.00000000000E+00 0. -1.
     999901    1    3    3    0    0 -0.90111268202E-01 -0.95447621827E-01  0.11815585246E-01  0.88981452968E+00  0.88000000000E+00 0.  1.
        -11    1    4    4    0    0  0.28746454372E-01  0.43462606025E-01  0.69722426684E-03  0.52116254702E-01  0.51100000000E-03 0. -1.
         11    1    4    4    0    0  0.42058896088E-01  0.62648247134E-01 -0.21065549212E-01  0.78343934632E-01  0.51100000000E-03 0.  1.
</event>
<event>
 8    1  0.1170483E+005  0.1043930E+01  0.7957747E-01            NaN
         13   -1    0    0    0    0  0.00000000000E+00  0.00000000000E+00  0.74505805969E-08  0.10566000000E+00  0.10566000000E+00 0. -1.
     999900   -1    0    0    0    0 -0.00000000000E+00 -0.00000000000E+00 -0.74505805969E-08  0.93827000000E+00  0.93827000000E+00 0. -1.
     999902    2    1    2    0    0  0.37412630400E-02  0.16094694561E-01  0.16731089403E-01  0.10204147795E+01  0.10201437921E+01 0.  0.
     999903    2    3    3    0    0 -0.12454407655E+00 -0.12324912217E-01 -0.27049675353E-01  0.12958283252E+00  0.19922225853E-01 0.  0.
         14    1    1    2    0    0 -0.37412630400E-02 -0.16094694561E-01 -0.16731089403E-01  0.23515220492E-01  0.00000000000E+00 0. -1.
     999901    1    3    3    0    0  0.12828533959E+00  0.28419606777E-01  0.43780764756E-01  0.89083194698E+00  0.88000000000E+00 0.  1.
        -11    1    4    4    0    0 -0.42878769282E-01  0.21271934785E-03 -0.17848017294E-01  0.46448325556E-01  0.51100000000E-03 0. -1.
         11    1    4    4    0    0 -0.81665307271E-01 -0.12537631565E-01 -0.92016580589E-02  0.83134506969E-01  0.51100000000E-03 0.  1.
</event>
<event>
 8    1  0.1170483E+005  0.1043930E+01  0.7957747E-01            NaN
         13   -1    0    0    0    0  0.00000000000E+00  0.00000000000E+00  0.74505805969E-08  0.10566000000E+00  0.10566000000E+00 0.  1.
     999900   -1    0    0    0    0 -0.00000000000E+00 -0.00000000000E+00 -0.74505805969E-08  0.93827000000E+00  0.93827000000E+00 0. -1.
     999902    2    1    2    0    0 -0.19187371448E-01  0.13806838245E-01 -0.27254153815E-02  0.10201347926E+01  0.10198572367E+01 0.  0.
     999903    2    3    3    0    0 -0.77613075186E-01 -0.72414011191E-01 -0.74139365898E-01  0.13111986020E+00  0.20692841908E-01 0.  0.
         14    1    1    2    0    0  0.19187371448E-01 -0.13806838245E-01  0.27254153815E-02  0.23795207383E-01  0.00000000000E+00 0. -1.
     999901    1    3    3    0    0  0.58425703738E-01  0.86220849435E-01  0.71413950516E-01  0.88901493242E+00  0.88000000000E+00 0. -1.
        -11    1    4    4    0    0 -0.15569516388E-01 -0.50483133261E-02 -0.14100549934E-01  0.21609764863E-01  0.51100000000E-03 0. -1.
         11    1    4    4    0    0 -0.62043558798E-01 -0.67365697865E-01 -0.60038815964E-01  0.10951009534E+00  0.51100000000E-03 0.  1.
</event>
<event>
 8    1  0.1170483E+005  0.1043930E+01  0.7957747E-01            NaN
         13   -1    0    0    0    0  0.00000000000E+00  0.00000000000E+00  0.74505805969E-08  0.10566000000E+00  0.10566000000E+00 0. -1.
     999900   -1    0    0    0    0 -0.00000000000E+00 -0.00000000000E+00 -0.74505805969E-08  0.93827000000E+00  0.93827000000E+00 0.  1.
     999902    2    1    2    0    0  0.12850337036E-01  0.10006639878E-02  0.20165730118E-01  0.10199969859E+01  0.10197161675E+01 0.  0.
     999903    2    3    3    0    0 -0.11142347240E-01  0.29057353959E-01  0.12747391817E+00  0.13271018115E+00  0.19847182301E-01 0.  0.
         14    1    1    2    0    0 -0.12850337036E-01 -0.10006639878E-02 -0.20165730118E-01  0.23933014051E-01  0.00000000000E+00 0.  1.
     999901    1    3    3    0    0  0.23992684277E-01 -0.28056689971E-01 -0.10730818805E+00  0.88728680480E+00  0.88000000000E+00 0.  1.
        -11    1    4    4    0    0  0.32030059876E-02  0.19254850006E-01  0.66696750772E-01  0.69496231413E-01  0.51100000000E-03 0.  1.
         11    1    4    4    0    0 -0.14345353228E-01  0.98025039537E-02  0.60777167399E-01  0.63213949735E-01  0.51100000000E-03 0. -1.
</event>
<event>
 8    1  0.1170483E+005  0.1043930E+01  0.7957747E-01            NaN
         13   -1    0    0    0    0  0.00000000000E+00  0.00000000000E+00  0.74505805969E-08  0.10566000000E+00  0.10566000000E+00 0. -1.
     999900   -1    0    0    0    0 -0.00000000000E+00 -0.00000000000E+00 -0.74505805969E-08  0.93827000000E+00  0.93827000000E+00 0. -1.
     999902    2    1    2    0    0  0.99706382040E-02  0.15552835480E-01  0.14582189815E-01  0.10203939728E+01  0.10201225000E+01 0.  0.
     999903    2    3    3    0    0 -0.12241059014E+00  0.37104125608E-01 -0.12728795710E-01  0.12981262464E+00  0.18117024031E-01 0.  0.
         14    1    1    2    0    0 -0.99706382040E-02 -0.15552835480E-01 -0.14582189815E-01  0.23536027224E-01  0.00000000000E+00 0.  1.
     999901    1    3    3    0    0  0.13238122834E+00 -0.21551290128E-01  0.27310985525E-01  0.89058134814E+00  0.88000000000E+00 0.  1.
        -11    1    4    4    0    0 -0.88222091465E-01  0.19210055832E-01 -0.48226289846E-02  0.90419480970E-01  0.51100000000E-03 0. -1.
         11    1    4    4    0    0 -0.34188498673E-01  0.17894069776E-01 -0.79061667251E-02  0.39393143667E-01  0.51100000000E-03 0.  1.
</event>
<event>
 8    1  0.1401248E+005  0.1043930E+01  0.7957747E-01            NaN
         13   -1    0    0    0    0  0.00000000000E+00  0.00000000000E+00  0.74505805969E-08  0.10566000000E+00  0.10566000000E+00 0. -1.
     999900   -1    0    0    0    0 -0.00000000000E+00 -0.00000000000E+00 -0.74505805969E-08  0.93827000000E+00  0.93827000000E+00 0. -1.
     999902    2    1    2    0    0 -0.20541943998E-01 -0.93047864880E-02  0.10833261650E-01  0.10189118052E+01  0.10186046125E+01 0.  0.
     999903    2    3    3    0    0 -0.43829240895E-01 -0.30732217112E-01 -0.11586345934E+00  0.12927508600E+00  0.20548360627E-01 0.  0.
         14    1    1    2    0    0  0.20541943998E-01  0.93047864880E-02 -0.10833261650E-01  0.25018194834E-01  0.00000000000E+00 0.  1.
     999901    1    3    3    0    0  0.23287296898E-01  0.21427430624E-01  0.12669672099E+00  0.88963671917E+00  0.88000000000E+00 0.  1.
        -11    1    4    4    0    0 -0.77963040042E-02 -0.16884772298E-01 -0.33720603092E-01  0.38512570488E-01  0.51100000000E-03 0. -1.
         11    1    4    4    0    0 -0.36032936891E-01 -0.13847444814E-01 -0.82142856246E-01  0.90762515512E-01  0.51100000000E-03 0.  1.
</event>
<event>
 8    1  0.1170483E+005  0.1043930E+01  0.7957747E-01            NaN
         13   -1    0    0    0    0  0.00000000000E+00  0.00000000000E+00  0.74505805969E-08  0.10566000000E+00  0.10566000000E+00 0. -1.
     999900   -1    0    0    0    0 -0.00000000000E+00 -0.00000000000E+00 -0.74505805969E-08  0.93827000000E+00  0.93827000000E+00 0. -1.
     999902    2    1    2    0    0 -0.46768400992E-02 -0.83778863482E-02 -0.21046139827E-01  0.10207998938E+01  0.10205378098E+01 0.  0.
     999903    2    3    3    0    0 -0.51242695577E-01  0.27112872743E-01  0.11321864567E+00  0.12869283432E+00  0.19556639815E-01 0.  0.
         14    1    1    2    0    0  0.46768400992E-02  0.83778863482E-02  0.21046139827E-01  0.23130106238E-01  0.00000000000E+00 0. -1.
     999901    1    3    3    0    0  0.46565855478E-01 -0.35490759091E-01 -0.13426478549E+00  0.89210705944E+00  0.88000000000E+00 0. -1.
        -11    1    4    4    0    0 -0.88039205776E-02 -0.77300044615E-03  0.29266760281E-01  0.30576313145E-01  0.51100000000E-03 0. -1.
         11    1    4    4    0    0 -0.42438774999E-01  0.27885873189E-01  0.83951885387E-01  0.98116521177E-01  0.51100000000E-03 0.  1.
</event>
<event>
 8    1  0.1170483E+005  0.1043930E+01  0.7957747E-01            NaN
         13   -1    0    0    0    0  0.00000000000E+00  0.00000000000E+00  0.74505805969E-08  0.10566000000E+00  0.10566000000E+00 0. -1.
     999900   -1    0    0    0    0 -0.00000000000E+00 -0.00000000000E+00 -0.74505805969E-08  0.93827000000E+00  0.93827000000E+00 0.  1.
     999902    2    1    2    0    0  0.14951629375E-01  0.82243283636E-02  0.12156188907E-01  0.10229785388E+01  0.10227639645E+01 0.  0.
     999903    2    3    3    0    0  0.26196500562E-01 -0.63288926873E-01 -0.11048595050E+00  0.13152933263E+00  0.20026861408E-01 0.  0.
         14    1    1    2    0    0 -0.14951629375E-01 -0.82243283636E-02 -0.12156188907E-01  0.20951461208E-01  0.00000000000E+00 0.  1.
     999901    1    3    3    0    0 -0.11244871187E-01  0.71513255236E-01  0.12264213941E+00  0.89144920616E+00  0.88000000000E+00 0. -1.
        -11    1    4    4    0    0  0.12897789241E-01 -0.10027468965E-01 -0.22242612915E-01  0.27602500819E-01  0.51100000000E-03 0.  1.
         11    1    4    4    0    0  0.13298711321E-01 -0.53261457908E-01 -0.88243337588E-01  0.10392683181E+00  0.51100000000E-03 0. -1.
</event>
<event>
 8    1  0.1170483E+005  0.1043930E+01  0.7957747E-01            NaN
         13   -1    0    0    0    0  0.00000000000E+00  0.00000000000E+00  0.74505805969E-08  0.10566000000E+00  0.10566000000E+00 0. -1.
     999900   -1    0    0    0    0 -0.00000000000E+00 -0.00000000000E+00 -0.74505805969E-08  0.93827000000E+00  0.93827000000E+00 0.  1.
     999902    2    1    2    0    0  0.13094321545E-01  0.11527638636E-01 -0.16621962119E-01  0.10198335825E+01  0.10195488702E+01 0.  0.
     999903    2    3    3    0    0 -0.59178508236E-01 -0.10755118632E+00 -0.33406844763E-01  0.12871918991E+00  0.19577003337E-01 0.  0.
         14    1    1    2    0    0 -0.13094321545E-01 -0.11527638636E-01  0.16621962119E-01  0.24096417450E-01  0.00000000000E+00 0. -1.
     999901    1    3    3    0    0  0.72272829780E-01  0.11907882495E+00  0.16784882643E-01  0.89111439264E+00  0.88000000000E+00 0. -1.
        -11    1    4    4    0    0 -0.22931037106E-01 -0.30709474357E-01 -0.18098120079E-01  0.42387584850E-01  0.51100000000E-03 0.  1.
         11    1    4    4    0    0 -0.36247471129E-01 -0.76841711962E-01 -0.15308724684E-01  0.86331605064E-01  0.51100000000E-03 0. -1.
</event>
<event>
 8    1  0.1170483E+005  0.1043930E+01  0.7957747E-01            NaN
         13   -1    0    0    0    0  0.00000000000E+00  0.00000000000E+00  0.74505805969E-08  0.10566000000E+00  0.10566000000E+00 0. -1.
     999900   -1    0    0    0    0 -0.00000000000E+00 -0.00000000000E+00 -0.74505805969E-08  0.93827000000E+00  0.93827000000E+00 0. -1.
     999902    2    1    2    0    0  0.50447187898E-02 -0.48803939052E-02 -0.21220713859E-01  0.10215785766E+01  0.10213340306E+01 0.  0.
     999903    2    3    3    0    0  0.11149355704E+00 -0.39264812023E-01  0.53936550405E-01  0.13131891909E+00  0.19051727402E-01 0.  0.
         14    1    1    2    0    0 -0.50447187898E-02  0.48803939052E-02  0.21220713859E-01  0.22351423423E-01  0.00000000000E+00 0. -1.
     999901    1    3    3    0    0 -0.10644883825E+00  0.34384418118E-01 -0.75157264264E-01  0.89025965749E+00  0.88000000000E+00 0.  1.
        -11    1    4    4    0    0  0.92273331872E-02 -0.85778790196E-02  0.89182173047E-02  0.15444073527E-01  0.51100000000E-03 0. -1.
         11    1    4    4    0    0  0.10226622385E+00 -0.30686933004E-01  0.45018333101E-01  0.11587484556E+00  0.51100000000E-03 0.  1.
</event>
<event>
 8    1  0.1170483E+005  0.1043930E+01  0.7957747E-01            NaN
         13   -1    0    0    0    0  0.00000000000E+00  0.00000000000E+00  0.74505805969E-08  0.10566000000E+00  0.10566000000E+00 0. -1.
     999900   -1    0    0    0    0 -0.00000000000E+00 -0.00000000000E+00 -0.74505805969E-08  0.93827000000E+00  0.93827000000E+00 0. -1.
     999902    2    1    2    0    0  0.23210066561E-02  0.21554035269E-01 -0.10367110069E-01  0.10199000088E+01  0.10196168826E+01 0.  0.
     999903    2    3    3    0    0  0.58136613347E-01  0.37420593294E-02 -0.11628627612E+00  0.13161428998E+00  0.20148312427E-01 0.  0.
         14    1    1    2    0    0 -0.23210066561E-02 -0.21554035269E-01  0.10367110069E-01  0.24029991249E-01  0.00000000000E+00 0. -1.
     999901    1    3    3    0    0 -0.55815606691E-01  0.17811975939E-01  0.10591916605E+00  0.88828571877E+00  0.88000000000E+00 0.  1.
        -11    1    4    4    0    0  0.96879586256E-02 -0.68908855920E-02 -0.26149236648E-01  0.28729506519E-01  0.51100000000E-03 0. -1.
         11    1    4    4    0    0  0.48448654721E-01  0.10632944921E-01 -0.90137039471E-01  0.10288478346E+00  0.51100000000E-03 0.  1.
</event>
<event>
 8    1  0.1170483E+005  0.1043930E+01  0.7957747E-01            NaN
         13   -1    0    0    0    0  0.00000000000E+00  0.00000000000E+00  0.74505805969E-08  0.10566000000E+00  0.10566000000E+00 0.  1.
     999900   -1    0    0    0    0 -0.00000000000E+00 -0.00000000000E+00 -0.74505805969E-08  0.93827000000E+00  0.93827000000E+00 0. -1.
     999902    2    1    2    0    0 -0.49654802987E-02 -0.20783997484E-01  0.13376023863E-01  0.10187199115E+01  0.10184079289E+01 0.  0.
     999903    2    3    3    0    0 -0.12389895029E-01  0.12452824992E+00  0.38389438677E-02  0.12672118560E+00  0.19563406239E-01 0.  0.
         14    1    1    2    0    0  0.49654802987E-02  0.20783997484E-01 -0.13376023863E-01  0.25210088464E-01  0.00000000000E+00 0. -1.
     999901    1    3    3    0    0  0.74244147303E-02 -0.14531224740E+00  0.95370799948E-02  0.89199872594E+00  0.88000000000E+00 0. -1.
        -11    1    4    4    0    0 -0.53378522003E-02  0.23574062470E-01 -0.63833254806E-02  0.25004740603E-01  0.51100000000E-03 0.  1.
         11    1    4    4    0    0 -0.70520428288E-02  0.10095418745E+00  0.10222269348E-01  0.10171644500E+00  0.51100000000E-03 0. -1.
</event>
<event>
 8    1  0.1170483E+005  0.1043930E+01  0.7957747E-01            NaN
         13   -1    0    0    0    0  0.00000000000E+00  0.00000000000E+00  0.74505805969E-08  0.10566000000E+00  0.10566000000E+00 0. -1.
     999900   -1    0    0    0    0 -0.00000000000E+00 -0.00000000000E+00 -0.74505805969E-08  0.93827000000E+00  0.93827000000E+00 0. -1.
     999902    2    1    2    0    0 -0.20412749144E-01  0.36820130104E-02 -0.12749504511E-01  0.10195827740E+01  0.10192920316E+01 0.  0.
     999903    2    3    3    0    0  0.56716387252E-01 -0.59423632054E-01 -0.98474143642E-01  0.12981879415E+00  0.20195190526E-01 0.  0.
         14    1    1    2    0    0  0.20412749144E-01 -0.36820130104E-02  0.12749504511E-01  0.24347225975E-01  0.00000000000E+00 0. -1.
     999901    1    3    3    0    0 -0.77129136395E-01  0.63105645064E-01  0.85724639131E-01  0.88976397987E+00  0.88000000000E+00 0. -1.
        -11    1    4    4    0    0  0.39116676988E-01 -0.52441768884E-01 -0.80176281302E-01  0.10348309401E+00  0.51100000000E-03 0. -1.
         11    1    4    4    0    0  0.17599710264E-01 -0.69818631702E-02 -0.18297862340E-01  0.26335700141E-01  0.51100000000E-03 0.  1.
</event>
<event>
 8    1  0.1170483E+005  0.1043930E+01  0.7957747E-01            NaN
         13   -1    0    0    0    0  0.00000000000E+00  0.00000000000E+00  0.74505805969E-08  0.10566000000E+00  0.10566000000E+00 0.  1.
     999900   -1    0    0    0    0 -0.00000000000E+00 -0.00000000000E+00 -0.74505805969E-08  0.93827000000E+00  0.93827000000E+00 0.  1.
     999902    2    1    2    0    0  0.23501852664E-01 -0.47079279342E-02  0.87382130480E-02  0.10184180806E+01  0.10180984868E+01 0.  0.
     999903    2    3    3    0    0  0.10382739041E+00  0.28525333372E-01 -0.71320491065E-01  0.13051829021E+00  0.18830560003E-01 0.  0.
         14    1    1    2    0    0 -0.23501852664E-01  0.47079279342E-02 -0.87382130480E-02  0.25511919398E-01  0.00000000000E+00 0. -1.
     999901    1    3    3    0    0 -0.80325537748E-01 -0.33233261306E-01  0.80058704113E-01  0.88789979039E+00  0.88000000000E+00 0. -1.
        -11    1    4    4    0    0  0.69558337068E-01  0.24650420575E-01 -0.56658492923E-01  0.93040052834E-01  0.51100000000E-03 0. -1.
         11    1    4    4    0    0  0.34269053345E-01  0.38749127969E-02 -0.14661998142E-01  0.37478237377E-01  0.51100000000E-03 0.  1.
</event>
<event>
 8    1  0.1170483E+005  0.1043930E+01  0.7957747E-01            NaN
         13   -1    0    0    0    0  0.00000000000E+00  0.00000000000E+00  0.74505805969E-08  0.10566000000E+00  0.10566000000E+00 0. -1.
     999900   -1    0    0    0    0 -0.00000000000E+00 -0.00000000000E+00 -0.74505805969E-08  0.93827000000E+00  0.93827000000E+00 0.  1.
     999902    2    1    2    0    0  0.12038010012E-01 -0.28232069412E-02  0.19418328150E-01  0.10209092344E+01  0.10206496505E+01 0.  0.
     999903    2    3    3    0    0  0.89598237789E-01  0.75941422942E-02 -0.92391525638E-01  0.13038941229E+00  0.19485625858E-01 0.  0.
         14    1    1    2    0    0 -0.12038010012E-01  0.28232069412E-02 -0.19418328150E-01  0.23020765640E-01  0.00000000000E+00 0.  1.
     999901    1    3    3    0    0 -0.77560227777E-01 -0.10417349235E-01  0.11180985379E+00  0.89051982207E+00  0.88000000000E+00 0. -1.
        -11    1    4    4    0    0  0.10580198379E-01  0.70733160956E-02 -0.96868107059E-02  0.16002119265E-01  0.51100000000E-03 0. -1.
         11    1    4    4    0    0  0.79018039410E-01  0.52082619863E-03 -0.82704714932E-01  0.11438729302E+00  0.51100000000E-03 0.  1.
</event>
<event>
 8    1  0.1170483E+005  0.1043930E+01  0.7957747E-01            NaN
         13   -1    0    0    0    0  0.00000000000E+00  0.00000000000E+00  0.74505805969E-08  0.10566000000E+00  0.10566000000E+00 0.  1.
     999900   -1    0    0    0    0 -0.00000000000E+00 -0.00000000000E+00 -0.74505805969E-08  0.93827000000E+00  0.93827000000E+00 0. -1.
     999902    2    1    2    0    0  0.19215514481E-01  0.93061396122E-02  0.97207982281E-02  0.10204707982E+01  0.10202011154E+01 0.  0.
     999903    2    3    3    0    0  0.11470944366E+00 -0.62259244204E-01 -0.86717070691E-02  0.13222591139E+00  0.19339679067E-01 0.  0.
         14    1    1    2    0    0 -0.19215514481E-01 -0.93061396122E-02 -0.97207982281E-02  0.23459201807E-01  0.00000000000E+00 0. -1.
     999901    1    3    3    0    0 -0.95493929182E-01  0.71565383816E-01  0.18392505297E-01  0.88824488680E+00  0.88000000000E+00 0.  1.
        -11    1    4    4    0    0  0.68134610172E-01 -0.26941179168E-01 -0.85970965200E-02  0.73772104673E-01  0.51100000000E-03 0. -1.
         11    1    4    4    0    0  0.46574833491E-01 -0.35318065035E-01 -0.74610549046E-04  0.58453806722E-01  0.51100000000E-03 0.  1.
</event>
<event>
 8    1  0.1170483E+005  0.1043930E+01  0.7957747E-01            NaN
         13   -1    0    0    0    0  0.00000000000E+00  0.00000000000E+00  0.74505805969E-08  0.10566000000E+00  0.10566000000E+00 0.  1.
     999900   -1    0    0    0    0 -0.00000000000E+00 -0.00000000000E+00 -0.74505805969E-08  0.93827000000E+00  0.93827000000E+00 0.  1.
     999902    2    1    2    0    0  0.19561663898E-02  0.22778133725E-01 -0.64882384088E-02  0.10201651688E+01  0.10198883294E+01 0.  0.
     999903    2    3    3    0    0  0.88747824979E-01 -0.84652635909E-01 -0.33132957751E-01  0.12899509340E+00  0.22353881722E-01 0.  0.
         14    1    1    2    0    0 -0.19561663898E-02 -0.22778133725E-01  0.64882384088E-02  0.23764831171E-01  0.00000000000E+00 0. -1.
     999901    1    3    3    0    0 -0.86791658590E-01  0.10743076963E+00  0.26644719343E-01  0.89117007543E+00  0.88000000000E+00 0. -1.
        -11    1    4    4    0    0  0.68642058731E-01 -0.76401171738E-01 -0.24400150905E-01  0.10556751278E+00  0.51100000000E-03 0. -1.
         11    1    4    4    0    0  0.20105766248E-01 -0.82514641715E-02 -0.87328068459E-02  0.23427580622E-01  0.51100000000E-03 0.  1.
</event>
<event>
 8    1  0.1170483E+005  0.1043930E+01  0.7957747E-01            NaN
         13   -1    0    0    0    0  0.00000000000E+00  0.00000000000E+00  0.74505805969E-08  0.10566000000E+00  0.10566000000E+00 0.  1.
     999900   -1    0    0    0    0 -0.00000000000E+00 -0.00000000000E+00 -0.74505805969E-08  0.93827000000E+00  0.93827000000E+00 0. -1.
     999902    2    1    2    0    0  0.49913052174E-02 -0.23355881072E-01  0.35772244517E-02  0.10197803242E+01  0.10194943368E+01 0.  0.
     999903    2    3    3    0    0  0.39476990564E-01 -0.36715513573E-01  0.11836800112E+00  0.13155475333E+00  0.19728347940E-01 0.  0.
         14    1    1    2    0    0 -0.49913052174E-02  0.23355881072E-01 -0.35772244517E-02  0.24149675840E-01  0.00000000000E+00 0.  1.
     999901    1    3    3    0    0 -0.34485685346E-01  0.13359632502E-01 -0.11479077667E+00  0.88822557083E+00  0.88000000000E+00 0. -1.
        -11    1    4    4    0    0  0.17905444929E-01 -0.17895164479E-01  0.33535162952E-01  0.42020353938E-01  0.51100000000E-03 0. -1.
         11    1    4    4    0    0  0.21571545635E-01 -0.18820349095E-01  0.84832838168E-01  0.89534399388E-01  0.51100000000E-03 0.  1.
</event>
<event>
 8    1  0.1170483E+005  0.1043930E+01  0.7957747E-01            NaN
         13   -1    0    0    0    0  0.00000000000E+00  0.00000000000E+00  0.74505805969E-08  0.10566000000E+00  0.10566000000E+00 0. -1.
     999900   -1    0    0    0    0 -0.00000000000E+00 -0.00000000000E+00 -0.74505805969E-08  0.93827000000E+00  0.93827000000E+00 0.  1.
     999902    2    1    2    0    0 -0.14419106773E-01  0.10002133047E-01 -0.16006003068E-01  0.10201782540E+01  0.10199017229E+01 0.  0.
     999903    2    3    3    0    0 -0.10066379863E+00  0.82433211123E-01 -0.18899119613E-01  0.13299575973E+00  0.20056438727E-01 0.  0.
         14    1    1    2    0    0  0.14419106773E-01 -0.10002133047E-01  0.16006003068E-01  0.23751746037E-01  0.00000000000E+00 0. -1.
     999901    1    3    3    0    0  0.86244691856E-01 -0.72431078076E-01  0.28931165458E-02  0.88718249423E+00  0.88000000000E+00 0.  1.
        -11    1    4    4    0    0 -0.35472363754E-01  0.39263148507E-01 -0.17451138394E-02  0.52945159971E-01  0.51100000000E-03 0.  1.
         11    1    4    4    0    0 -0.65191434874E-01  0.43170062616E-01 -0.17154005774E-01  0.80050599762E-01  0.51100000000E-03 0. -1.
</event>
<event>
 8    1  0.1170483E+005  0.1043930E+01  0.7957747E-01            NaN
         13   -1    0    0    0    0  0.00000000000E+00  0.00000000000E+00  0.74505805969E-08  0.10566000000E+00  0.10566000000E+00 0. -1.
     999900   -1    0    0    0    0 -0.00000000000E+00 -0.00000000000E+00 -0.74505805969E-08  0.93827000000E+00  0.93827000000E+00 0. -1.
     999902    2    1    2    0    0  0.17940590476E-01  0.23637305742E-02  0.13916664586E-01  0.10211018253E+01  0.10208466153E+01 0.  0.
     999903    2    3    3    0    0  0.86329771062E-01 -0.97067756337E-01  0.18359597559E-01  0.13285442714E+00  0.20934309073E-01 0.  0.
         14    1    1    2    0    0 -0.17940590476E-01 -0.23637305742E-02 -0.13916664586E-01  0.22828174742E-01  0.00000000000E+00 0.  1.
     999901    1    3    3    0    0 -0.68389180586E-01  0.99431486911E-01 -0.44429329723E-02  0.88824739812E+00  0.88000000000E+00 0. -1.
        -11    1    4    4    0    0  0.39786391931E-01 -0.48066148309E-01 -0.14858257820E-02  0.62416186967E-01  0.51100000000E-03 0.  1.
         11    1    4    4    0    0  0.46543379130E-01 -0.49001608027E-01  0.19845423341E-01  0.70438240173E-01  0.51100000000E-03 0. -1.
</event>
<event>
 8    1  0.1170483E+005  0.1043930E+01  0.7957747E-01            NaN
         13   -1    0    0    0    0  0.00000000000E+00  0.00000000000E+00  0.74505805969E-08  0.10566000000E+00  0.10566000000E+00 0.  1.
     999900   -1    0    0    0    0 -0.00000000000E+00 -0.00000000000E+00 -0.74505805969E-08  0.93827000000E+00  0.93827000000E+00 0. -1.
     999902    2    1    2    0    0 -0.19981305172E-01  0.15518062279E-01 -0.10897562246E-02  0.10186070779E+01  0.10182922610E+01 0.  0.
     999903    2    3    3    0    0  0.12163935150E-01 -0.12488148493E+00  0.80144433662E-02  0.12685137384E+00  0.16843192874E-01 0.  0.
         14    1    1    2    0    0  0.19981305172E-01 -0.15518062279E-01  0.10897562246E-02  0.25322922065E-01  0.00000000000E+00 0.  1.
     999901    1    3    3    0    0 -0.32145240322E-01  0.14039954721E+00 -0.91041995909E-02  0.89175570409E+00  0.88000000000E+00 0.  1.
        -11    1    4    4    0    0 -0.25015990649E-02 -0.48057957253E-01 -0.88749470939E-03  0.48133917575E-01  0.51100000000E-03 0.  1.
         11    1    4    4    0    0  0.14665534215E-01 -0.76823527678E-01  0.89019380756E-02  0.78717456267E-01  0.51100000000E-03 0. -1.
</event>
<event>
 8    1  0.1170483E+005  0.1043930E+01  0.7957747E-01            NaN
         13   -1    0    0    0    0  0.00000000000E+00  0.00000000000E+00  0.74505805969E-08  0.10566000000E+00  0.10566000000E+00 0.  1.
     999900   -1    0    0    0    0 -0.00000000000E+00 -0.00000000000E+00 -0.74505805969E-08  0.93827000000E+00  0.93827000000E+00 0. -1.
     999902    2    1    2    0    0  0.18292286973E-01  0.11015631224E-01 -0.98303640945E-02  0.10204228106E+01  0.10201520105E+01 0.  0.
     999903    2    3    3    0    0 -0.10042175664E+00  0.35977098625E-01  0.68904499586E-01  0.12861830415E+00  0.20395030458E-01 0.  0.
         14    1    1    2    0    0 -0.18292286973E-01 -0.11015631224E-01  0.98303640945E-02  0.23507189373E-01  0.00000000000E+00 0.  1.
     999901    1    3    3    0    0  0.11871404362E+00 -0.24961467401E-01 -0.78734863681E-01  0.89180450647E+00  0.88000000000E+00 0. -1.
        -11    1    4    4    0    0 -0.54312707065E-01  0.27693158870E-01  0.31238723154E-01  0.68504745399E-01  0.51100000000E-03 0.  1.
         11    1    4    4    0    0 -0.46109049579E-01  0.82839397545E-02  0.37665776432E-01  0.60113558755E-01  0.51100000000E-03 0. -1.
</event>
<event>
 8    1  0.1170483E+005  0.1043930E+01  0.7957747E-01            NaN
         13   -1    0    0    0    0  0.00000000000E+00  0.00000000000E+00  0.74505805969E-08  0.10566000000E+00  0.10566000000E+00 0.  1.
     999900   -1    0    0    0    0 -0.00000000000E+00 -0.00000000000E+00 -0.74505805969E-08  0.93827000000E+00  0.93827000000E+00 0. -1.
     999902    2    1    2    0    0  0.21616354047E-01  0.74291647220E-03 -0.28295586330E-02  0.10221165846E+01  0.10218837936E+01 0.  0.
     999903    2    3    3    0    0  0.12475030584E+00  0.13550076969E-01  0.44550225400E-01  0.13473533665E+00  0.20558330769E-01 0.  0.
         14    1    1    2    0    0 -0.21616354047E-01 -0.74291647220E-03  0.28295586330E-02  0.21813415350E-01  0.00000000000E+00 0. -1.
     999901    1    3    3    0    0 -0.10313395180E+00 -0.12807160497E-01 -0.47379784033E-01  0.88738124800E+00  0.88000000000E+00 0.  1.
        -11    1    4    4    0    0  0.40036722287E-01 -0.12282966421E-02  0.60395816332E-02  0.40511547878E-01  0.51100000000E-03 0.  1.
         11    1    4    4    0    0  0.84713583557E-01  0.14778373611E-01  0.38510643766E-01  0.94223788769E-01  0.51100000000E-03 0. -1.
</event>
<event>
 8    1  0.1170483E+005  0.1043930E+01  0.7957747E-01            NaN
         13   -1    0    0    0    0  0.00000000000E+00  0.00000000000E+00  0.74505805969E-08  0.10566000000E+00  0.10566000000E+00 0.  1.
     999900   -1    0    0    0    0 -0.00000000000E+00 -0.00000000000E+00 -0.74505805969E-08  0.93827000000E+00  0.93827000000E+00 0. -1.
     999902    2    1    2    0    0 -0.23284956786E-01  0.12307829430E-02  0.66810804686E-02  0.10196742610E+01  0.10193857256E+01 0.  0.
     999903    2    3    3    0    0  0.93265821296E-01  0.48230638775E-01  0.71089634848E-01  0.12841586287E+00  0.20302455908E-01 0.  0.
         14    1    1    2    0    0  0.23284956786E-01 -0.12307829430E-02 -0.66810804686E-02  0.24255739020E-01  0.00000000000E+00 0. -1.
     999901    1    3    3    0    0 -0.11655077808E+00 -0.46999855832E-01 -0.64408554379E-01  0.89125839811E+00  0.88000000000E+00 0. -1.
        -11    1    4    4    0    0  0.38888059061E-01  0.13895829411E-01  0.18126618498E-01  0.45102224244E-01  0.51100000000E-03 0.  1.
         11    1    4    4    0    0  0.54377762235E-01  0.34334809364E-01  0.52963016350E-01  0.83313638629E-01  0.51100000000E-03 0. -1.
</event>
<event>
 8    1  0.1170483E+005  0.1043930E+01  0.7957747E-01            NaN
         13   -1    0    0    0    0  0.00000000000E+00  0.00000000000E+00  0.74505805969E-08  0.10566000000E+00  0.10566000000E+00 0.  1.
     999900   -1    0    0    0    0 -0.00000000000E+00 -0.00000000000E+00 -0.74505805969E-08  0.93827000000E+00  0.93827000000E+00 0.  1.
     999902    2    1    2    0    0  0.10994025857E-02  0.20920176242E-01  0.10798305123E-01  0.10203616769E+01  0.10200894499E+01 0.  0.
     999903    2    3    3    0    0 -0.26166568840E-02  0.13071309732E+00  0.17850603669E-01  0.13350315970E+00  0.20290118163E-01 0.  0.
         14    1    1    2    0    0 -0.10994025857E-02 -0.20920176242E-01 -0.10798305123E-01  0.23568323096E-01  0.00000000000E+00 0. -1.
     999901    1    3    3    0    0  0.37160594697E-02 -0.10979292108E+00 -0.70522985460E-02  0.88685851720E+00  0.88000000000E+00 0.  1.
        -11    1    4    4    0    0 -0.77746293617E-02  0.63276967076E-01  0.83387743171E-03  0.63760300318E-01  0.51100000000E-03 0. -1.
         11    1    4    4    0    0  0.51579724776E-02  0.67436130244E-01  0.17016726237E-01  0.69742859385E-01  0.51100000000E-03 0.  1.
</event>
<event>
 8    1  0.1170483E+005  0.1043930E+01  0.7957747E-01            NaN
         13   -1    0    0    0    0  0.00000000000E+00  0.00000000000E+00  0.74505805969E-08  0.10566000000E+00  0.10566000000E+00 0. -1.
     999900   -1    0    0    0    0 -0.00000000000E+00 -0.00000000000E+00 -0.74505805969E-08  0.93827000000E+00  0.93827000000E+00 0.  1.
     999902    2    1    2    0    0  0.44097636106E-02 -0.12024690606E-01 -0.21284647529E-01  0.10190889972E+01  0.10187861939E+01 0.  0.
     999903    2    3    3    0    0 -0.68395655738E-01  0.57974964484E-01 -0.92455658156E-01  0.13045752491E+00  0.20785929150E-01 0.  0.
         14    1    1    2    0    0 -0.44097636106E-02  0.12024690606E-01  0.21284647529E-01  0.24841002792E-01  0.00000000000E+00 0. -1.
     999901    1    3    3    0    0  0.72805419348E-01 -0.69999655090E-01  0.71171010627E-01  0.88863147229E+00  0.88000000000E+00 0. -1.
        -11    1    4    4    0    0 -0.11936063741E-01  0.20037238172E-01 -0.30897708467E-01  0.38715501298E-01  0.51100000000E-03 0. -1.
         11    1    4    4    0    0 -0.56459591997E-01  0.37937726312E-01 -0.61557949689E-01  0.91742023615E-01  0.51100000000E-03 0.  1.
</event>
<event>
 8    1  0.1170483E+005  0.1043930E+01  0.7957747E-01            NaN
         13   -1    0    0    0    0  0.00000000000E+00  0.00000000000E+00  0.74505805969E-08  0.10566000000E+00  0.10566000000E+00 0.  1.
     999900   -1    0    0    0    0 -0.00000000000E+00 -0.00000000000E+00 -0.74505805969E-08  0.93827000000E+00  0.93827000000E+00 0. -1.
     999902    2    1    2    0    0  0.41251380735E-03  0.23479406988E-01 -0.23094405577E-02  0.10203336817E+01  0.10200608001E+01 0.  0.
     999903    2    3    3    0    0  0.87330264365E-01  0.14596101768E-02  0.94885884161E-01  0.13045363478E+00  0.19649790799E-01 0.  0.
         14    1    1    2    0    0 -0.41251380735E-03 -0.23479406988E-01  0.23094405577E-02  0.23596318269E-01  0.00000000000E+00 0. -1.
     999901    1    3    3    0    0 -0.86917750558E-01  0.22019796812E-01 -0.97195324718E-01  0.88988004695E+00  0.88000000000E+00 0. -1.
        -11    1    4    4    0    0  0.65446976630E-01  0.21004749731E-02  0.57591554352E-01  0.87205315198E-01  0.51100000000E-03 0. -1.
         11    1    4    4    0    0  0.21883287735E-01 -0.64086479629E-03  0.37294329809E-01  0.43248319582E-01  0.51100000000E-03 0.  1.
</event>
<event>
 8    1  0.1170483E+005  0.1043930E+01  0.7957747E-01            NaN
         13   -1    0    0    0    0  0.00000000000E+00  0.00000000000E+00  0.74505805969E-08  0.10566000000E+00  0.10566000000E+00 0.  1.
     999900   -1    0    0    0    0 -0.00000000000E+00 -0.00000000000E+00 -0.74505805969E-08  0.93827000000E+00  0.93827000000E+00 0. -1.
     999902    2    1    2    0    0 -0.11802991922E-01  0.80783438922E-02  0.19889296806E-01  0.10194319514E+01  0.10191375516E+01 0.  0.
     999903    2    3    3    0    0  0.72781153377E-01  0.13231458818E-01 -0.10131281315E+00  0.12709177876E+00  0.20392800923E-01 0.  0.
         14    1    1    2    0    0  0.11802991922E-01 -0.80783438922E-02 -0.19889296806E-01  0.24498048612E-01  0.00000000000E+00 0. -1.
     999901    1    3    3    0    0 -0.84584145299E-01 -0.51531149256E-02  0.12120210996E+00  0.89234017263E+00  0.88000000000E+00 0.  1.
        -11    1    4    4    0    0  0.61741589576E-01  0.13336896948E-01 -0.72093214262E-01  0.95851913738E-01  0.51100000000E-03 0. -1.
         11    1    4    4    0    0  0.11039563802E-01 -0.10543812997E-03 -0.29219598892E-01  0.31239865021E-01  0.51100000000E-03 0.  1.
</event>
<event>
 8    1  0.1170483E+005  0.1043930E+01  0.7957747E-01            NaN
         13   -1    0    0    0    0  0.00000000000E+00  0.00000000000E+00  0.74505805969E-08  0.10566000000E+00  0.10566000000E+00 0. -1.
     999900   -1    0    0    0    0 -0.00000000000E+00 -0.00000000000E+00 -0.74505805969E-08  0.93827000000E+00  0.93827000000E+00 0. -1.
     999902    2    1    2    0    0 -0.92499022566E-02 -0.12841655856E-01 -0.16993579090E-01  0.10207082312E+01  0.10204440419E+01 0.  0.
     999903    2    3    3    0    0 -0.39078997479E-01  0.11714220144E+00  0.32561016636E-01  0.12928171372E+00  0.20101698833E-01 0.  0.
         14    1    1    2    0    0  0.92499022566E-02  0.12841655856E-01  0.16993579090E-01  0.23221768821E-01  0.00000000000E+00 0. -1.
     999901    1    3    3    0    0  0.29829095223E-01 -0.12998385729E+00 -0.49554595726E-01  0.89142651746E+00  0.88000000000E+00 0. -1.
        -11    1    4    4    0    0 -0.18791548279E-01  0.64491608184E-01  0.76793181031E-02  0.67613037651E-01  0.51100000000E-03 0.  1.
         11    1    4    4    0    0 -0.20287449200E-01  0.52650593252E-01  0.24881698533E-01  0.61668676065E-01  0.51100000000E-03 0. -1.
</event>
<event>
 8    1  0.1170483E+005  0.1043930E+01  0.7957747E-01            NaN
         13   -1    0    0    0    0  0.00000000000E+00  0.00000000000E+00  0.74505805969E-08  0.10566000000E+00  0.10566000000E+00 0. -1.
     999900   -1    0    0    0    0 -0.00000000000E+00 -0.00000000000E+00 -0.74505805969E-08  0.93827000000E+00  0.93827000000E+00 0.  1.
     999902    2    1    2    0    0  0.19920596989E-01 -0.23306064608E-02  0.14699364871E-01  0.10190636927E+01  0.10187602645E+01 0.  0.
     999903    2    3    3    0    0  0.79827039899E-02  0.17560420001E-01 -0.12474284444E+00  0.12778242624E+00  0.19886661434E-01 0.  0.
         14    1    1    2    0    0 -0.19920596989E-01  0.23306064608E-02 -0.14699364871E-01  0.24866307295E-01  0.00000000000E+00 0.  1.
     999901    1    3    3    0    0  0.11937892999E-01 -0.19891026462E-01  0.13944220931E+00  0.89128126647E+00  0.88000000000E+00 0. -1.
        -11    1    4    4    0    0 -0.64476638741E-02  0.82376629947E-02 -0.43782485387E-01  0.45017758815E-01  0.51100000000E-03 0. -1.
         11    1    4    4    0    0  0.14430367864E-01  0.93227570064E-02 -0.80960359049E-01  0.82764667421E-01  0.51100000000E-03 0.  1.
</event>
<event>
 8    1  0.1170483E+005  0.1043930E+01  0.7957747E-01            NaN
         13   -1    0    0    0    0  0.00000000000E+00  0.00000000000E+00  0.74505805969E-08  0.10566000000E+00  0.10566000000E+00 0.  1.
     999900   -1    0    0    0    0 -0.00000000000E+00 -0.00000000000E+00 -0.74505805969E-08  0.93827000000E+00  0.93827000000E+00 0. -1.
     999902    2    1    2    0    0 -0.58382336304E-02 -0.16934581207E-01 -0.16788196989E-01  0.10193798764E+01  0.10190842084E+01 0.  0.
     999903    2    3    3    0    0 -0.87826416522E-01  0.42167145165E-01  0.80775847923E-01  0.12823801389E+00  0.20705144947E-01 0.  0.
         14    1    1    2    0    0  0.58382336304E-02  0.16934581207E-01  0.16788196989E-01  0.24550123640E-01  0.00000000000E+00 0.  1.
     999901    1    3    3    0    0  0.81988182892E-01 -0.59101726373E-01 -0.97564044912E-01  0.89114186247E+00  0.88000000000E+00 0. -1.
        -11    1    4    4    0    0 -0.32923467209E-03 -0.15116344360E-02  0.24543572405E-02  0.29459165979E-02  0.51100000000E-03 0.  1.
         11    1    4    4    0    0 -0.87497181850E-01  0.43678779601E-01  0.78321490682E-01  0.12529209729E+00  0.51100000000E-03 0. -1.
</event>
<event>
 8    1  0.1170483E+005  0.1043930E+01  0.7957747E-01            NaN
         13   -1    0    0    0    0  0.00000000000E+00  0.00000000000E+00  0.74505805969E-08  0.10566000000E+00  0.10566000000E+00 0.  1.
     999900   -1    0    0    0    0 -0.00000000000E+00 -0.00000000000E+00 -0.74505805969E-08  0.93827000000E+00  0.93827000000E+00 0. -1.
     999902    2    1    2    0    0  0.15926293808E-01 -0.85995243913E-02  0.14986358772E-01  0.10204312851E+01  0.10201606824E+01 0.  0.
     999903    2    3    3    0    0  0.46344870320E-01 -0.10014347601E+00  0.72162157466E-01  0.13331536433E+00  0.19724264352E-01 0.  0.
         14    1    1    2    0    0 -0.15926293808E-01  0.85995243913E-02 -0.14986358772E-01  0.23498714932E-01  0.00000000000E+00 0. -1.
     999901    1    3    3    0    0 -0.30418576512E-01  0.91543951614E-01 -0.57175798694E-01  0.88711592074E+00  0.88000000000E+00 0. -1.
        -11    1    4    4    0    0  0.42621379857E-01 -0.89710011145E-01  0.56950843369E-01  0.11449073239E+00  0.51100000000E-03 0.  1.
         11    1    4    4    0    0  0.37234904625E-02 -0.10433464860E-01  0.15211314097E-01  0.18824631943E-01  0.51100000000E-03 0. -1.
</event>
<event>
 8    1  0.1170483E+005  0.1043930E+01  0.7957747E-01            NaN
         13   -1    0    0    0    0  0.00000000000E+00  0.00000000000E+00  0.74505805969E-08  0.10566000000E+00  0.10566000000E+00 0. -1.
     999900   -1    0    0    0    0 -0.00000000000E+00 -0.00000000000E+00 -0.74505805969E-08  0.93827000000E+00  0.93827000000E+00 0. -1.
     999902    2    1    2    0    0 -0.21647524861E-01  0.20836338343E-02 -0.80884356932E-02  0.10207269904E+01  0.10204632327E+01 0.  0.
     999903    2    3    3    0    0  0.39474575332E-01  0.80778790856E-01 -0.93023330624E-01  0.13104009309E+00  0.20849719576E-01 0.  0.
         14    1    1    2    0    0  0.21647524861E-01 -0.20836338343E-02  0.80884356932E-02  0.23203009600E-01  0.00000000000E+00 0. -1.
     999901    1    3    3    0    0 -0.61122100193E-01 -0.78695157022E-01  0.84934894931E-01  0.88968689731E+00  0.88000000000E+00 0.  1.
        -11    1    4    4    0    0  0.68830568696E-02  0.14370790315E-01 -0.65341025742E-02  0.17229384887E-01  0.51100000000E-03 0. -1.
         11    1    4    4    0    0  0.32591518463E-01  0.66408000541E-01 -0.86489228050E-01  0.11381070820E+00  0.51100000000E-03 0.  1.
</event>
<event>
 8    1  0.1170483E+005  0.1043930E+01  0.7957747E-01            NaN
         13   -1    0    0    0    0  0.00000000000E+00  0.00000000000E+00  0.74505805969E-08  0.10566000000E+00  0.10566000000E+00 0. -1.
     999900   -1    0    0    0    0 -0.00000000000E+00 -0.00000000000E+00 -0.74505805969E-08  0.93827000000E+00  0.93827000000E+00 0.  1.
     999902    2    1    2    0    0  0.19484204444E-01  0.31491032763E-02 -0.12636904450E-01  0.10204940782E+01  0.10202249366E+01 0.  0.
     999903    2    3    3    0    0  0.44082841134E-01  0.12002198824E+00 -0.27638748297E-01  0.13229960659E+00  0.19766409692E-01 0.  0.
         14    1    1    2    0    0 -0.19484204444E-01 -0.31491032763E-02  0.12636904450E-01  0.23435921752E-01  0.00000000000E+00 0. -1.
     999901    1    3    3    0    0 -0.24598636690E-01 -0.11687288497E+00  0.15001843847E-01  0.88819447166E+00  0.88000000000E+00 0. -1.
        -11    1    4    4    0    0  0.18300861209E-01  0.46133559001E-01 -0.10417476370E-02  0.49644467428E-01  0.51100000000E-03 0.  1.
         11    1    4    4    0    0  0.25781979926E-01  0.73888429241E-01 -0.26597000660E-01  0.82655139161E-01  0.51100000000E-03 0. -1.
</event>
<event>
 8    1  0.1170483E+005  0.1043930E+01  0.7957747E-01            NaN
         13   -1    0    0    0    0  0.00000000000E+00  0.00000000000E+00  0.74505805969E-08  0.10566000000E+00  0.10566000000E+00 0. -1.
     999900   -1    0    0    0    0 -0.00000000000E+00 -0.00000000000E+00 -0.74505805969E-08  0.93827000000E+00  0.93827000000E+00 0.  1.
     999902    2    1    2    0    0  0.15080102322E-01  0.51729638664E-02 -0.16437385215E-01  0.10210311644E+01  0.10207743541E+01 0.  0.
     999903    2    3    3    0    0 -0.46880384308E-01 -0.11661912986E+00 -0.28577812382E-01  0.13040228206E+00  0.19755301184E-01 0.  0.
         14    1    1    2    0    0 -0.15080102322E-01 -0.51729638664E-02  0.16437385215E-01  0.22898835645E-01  0.00000000000E+00 0. -1.
     999901    1    3    3    0    0  0.61960486630E-01  0.12179209373E+00  0.12140427168E-01  0.89062888229E+00  0.88000000000E+00 0.  1.
        -11    1    4    4    0    0 -0.35046281293E-01 -0.10395757180E+00 -0.27074919835E-01  0.11299880960E+00  0.51100000000E-03 0. -1.
         11    1    4    4    0    0 -0.11834103015E-01 -0.12661558065E-01 -0.15028925469E-02  0.17403472464E-01  0.51100000000E-03 0.  1.
</event>
<event>
 8    1  0.1170483E+005  0.1043930E+01  0.7957747E-01            NaN
         13   -1    0    0    0    0  0.00000000000E+00  0.00000000000E+00  0.74505805969E-08  0.10566000000E+00  0.10566000000E+00 0.  1.
     999900   -1    0    0    0    0 -0.00000000000E+00 -0.00000000000E+00 -0.74505805969E-08  0.93827000000E+00  0.93827000000E+00 0. -1.
     999902    2    1    2    0    0  0.16742842472E-01 -0.16403407144E-01  0.27737236606E-02  0.10203272865E+01  0.10200542552E+01 0.  0.
     999903    2    3    3    0    0  0.10511205322E+00  0.59697865480E-01 -0.46641683344E-01  0.13125900819E+00  0.21002422029E-01 0.  0.
         14    1    1    2    0    0 -0.16742842472E-01  0.16403407144E-01 -0.27737236606E-02  0.23602713465E-01  0.00000000000E+00 0.  1.
     999901    1    3    3    0    0 -0.88369210752E-01 -0.76101272623E-01  0.49415407005E-01  0.88906827834E+00  0.88000000000E+00 0. -1.
        -11    1    4    4    0    0  0.52677679215E-01  0.20441333829E-01 -0.28512685042E-01  0.63293130318E-01  0.51100000000E-03 0. -1.
         11    1    4    4    0    0  0.52434374009E-01  0.39256531651E-01 -0.18128998303E-01  0.67965877876E-01  0.51100000000E-03 0.  1.
</event>
<event>
 8    1  0.1170483E+005  0.1043930E+01  0.7957747E-01            NaN
         13   -1    0    0    0    0  0.00000000000E+00  0.00000000000E+00  0.74505805969E-08  0.10566000000E+00  0.10566000000E+00 0.  1.
     999900   -1    0    0    0    0 -0.00000000000E+00 -0.00000000000E+00 -0.74505805969E-08  0.93827000000E+00  0.93827000000E+00 0.  1.
     999902    2    1    2    0    0 -0.47751689847E-02  0.24070324700E-01  0.85577499116E-02  0.10179411975E+01  0.10176093866E+01 0.  0.
     999903    2    3    3    0    0  0.12251303287E+00 -0.39361432185E-02  0.30152038774E-01  0.12807999382E+00  0.21688774237E-01 0.  0.
         14    1    1    2    0    0  0.47751689847E-02 -0.24070324700E-01 -0.85577499116E-02  0.25988802464E-01  0.00000000000E+00 0.  1.
     999901    1    3    3    0    0 -0.12728820185E+00  0.28006467918E-01 -0.21594288862E-01  0.88986120372E+00  0.88000000000E+00 0.  1.
        -11    1    4    4    0    0  0.72880037530E-01  0.31116624308E-02  0.27218633221E-01  0.77860756668E-01  0.51100000000E-03 0.  1.
         11    1    4    4    0    0  0.49632995336E-01 -0.70478056492E-02  0.29334055530E-02  0.50219237147E-01  0.51100000000E-03 0. -1.
</event>
<event>
 8    1  0.1170483E+005  0.1043930E+01  0.7957747E-01            NaN
         13   -1    0    0    0    0  0.00000000000E+00  0.00000000000E+00  0.74505805969E-08  0.10566000000E+00  0.10566000000E+00 0. -1.
     999900   -1    0    0    0    0 -0.00000000000E+00 -0.00000000000E+00 -0.74505805969E-08  0.93827000000E+00  0.93827000000E+00 0.  1.
     999902    2    1    2    0    0  0.16153722448E-01  0.13960311475E-01  0.87474220877E-02  0.10208572793E+01  0.10205965091E+01 0.  0.
     999903    2    3    3    0    0  0.12477155441E+00  0.67749875954E-02 -0.40341668851E-01  0.13279241620E+00  0.19812478563E-01 0.  0.
         14    1    1    2    0    0 -0.16153722448E-01 -0.13960311475E-01 -0.87474220877E-02  0.23072720659E-01  0.00000000000E+00 0. -1.
     999901    1    3    3    0    0 -0.10861783196E+00  0.71853238799E-02  0.49089090939E-01  0.88806486314E+00  0.88000000000E+00 0. -1.
        -11    1    4    4    0    0  0.10269362406E+00  0.12075636718E-01 -0.28917247976E-01  0.10736978056E+00  0.51100000000E-03 0. -1.
         11    1    4    4    0    0  0.22077930348E-01 -0.53006491228E-02 -0.11424420875E-01  0.25422635640E-01  0.51100000000E-03 0.  1.
</event>
<event>
 8    1  0.1170483E+005  0.1043930E+01  0.7957747E-01            NaN
         13   -1    0    0    0    0  0.00000000000E+00  0.00000000000E+00  0.74505805969E-08  0.10566000000E+00  0.10566000000E+00 0.  1.
     999900   -1    0    0    0    0 -0.00000000000E+00 -0.00000000000E+00 -0.74505805969E-08  0.93827000000E+00  0.93827000000E+00 0.  1.
     999902    2    1    2    0    0  0.96583773612E-02  0.21711217953E-02 -0.22029414043E-01  0.10197785382E+01  0.10194925080E+01 0.  0.
     999903    2    3    3    0    0 -0.93190608337E-01  0.70916435089E-02  0.84142162810E-01  0.12743637900E+00  0.20623923962E-01 0.  0.
         14    1    1    2    0    0 -0.96583773612E-02 -0.21711217953E-02  0.22029414043E-01  0.24151461781E-01  0.00000000000E+00 0.  1.
     999901    1    3    3    0    0  0.10284898570E+00 -0.49205217137E-02 -0.10617157685E+00  0.89234215922E+00  0.88000000000E+00 0.  1.
        -11    1    4    4    0    0 -0.56491767311E-01  0.95777636436E-02  0.39526611287E-01  0.69610828548E-01  0.51100000000E-03 0. -1.
         11    1    4    4    0    0 -0.36698841026E-01 -0.24861201347E-02  0.44615551523E-01  0.57825550448E-01  0.51100000000E-03 0.  1.
</event>
<event>
 8    1  0.1170483E+005  0.1043930E+01  0.7957747E-01            NaN
         13   -1    0    0    0    0  0.00000000000E+00  0.00000000000E+00  0.74505805969E-08  0.10566000000E+00  0.10566000000E+00 0.  1.
     999900   -1    0    0    0    0 -0.00000000000E+00 -0.00000000000E+00 -0.74505805969E-08  0.93827000000E+00  0.93827000000E+00 0.  1.
     999902    2    1    2    0    0 -0.17287774818E-01  0.13123728811E-01  0.87849019248E-02  0.10205147503E+01  0.10202460888E+01 0.  0.
     999903    2    3    3    0    0  0.37369281808E-01  0.29642708549E-01 -0.11870171447E+00  0.12949673260E+00  0.20103565421E-01 0.  0.
         14    1    1    2    0    0  0.17287774818E-01 -0.13123728811E-01 -0.87849019248E-02  0.23415249687E-01  0.00000000000E+00 0. -1.
     999901    1    3    3    0    0 -0.54657056626E-01 -0.16518979738E-01  0.12748661640E+00  0.89101801771E+00  0.88000000000E+00 0. -1.
        -11    1    4    4    0    0  0.30449817698E-01  0.14615399210E-01 -0.92814318864E-01  0.98770239440E-01  0.51100000000E-03 0. -1.
         11    1    4    4    0    0  0.69194641099E-02  0.15027309340E-01 -0.25887395607E-01  0.30726493160E-01  0.51100000000E-03 0.  1.
</event>
<event>
 8    1  0.1170483E+005  0.1043930E+01  0.7957747E-01            NaN
         13   -1    0    0    0    0  0.00000000000E+00  0.00000000000E+00  0.74505805969E-08  0.10566000000E+00  0.10566000000E+00 0.  1.
     999900   -1    0    0    0    0 -0.00000000000E+00 -0.00000000000E+00 -0.74505805969E-08  0.93827000000E+00  0.93827000000E+00 0.  1.
     999902    2    1    2    0    0  0.22057110689E-01 -0.82472843284E-02 -0.44274169826E-02  0.10199688679E+01  0.10196873813E+01 0.  0.
     999903    2    3    3    0    0 -0.35855390305E-01 -0.12397189576E+00 -0.54387880531E-03  0.13049648196E+00  0.19349316473E-01 0.  0.
         14    1    1    2    0    0 -0.22057110689E-01  0.82472843284E-02  0.44274169826E-02  0.23961132107E-01  0.00000000000E+00 0. -1.
     999901    1    3    3    0    0  0.57912500994E-01  0.11572461143E+00 -0.38835381773E-02  0.88947238593E+00  0.88000000000E+00 0.  1.
        -11    1    4    4    0    0 -0.41294703865E-02 -0.15830904267E-01 -0.65645121637E-02  0.17635872435E-01  0.51100000000E-03 0. -1.
         11    1    4    4    0    0 -0.31725919919E-01 -0.10814099149E+00  0.60206333584E-02  0.11286060953E+00  0.51100000000E-03 0.  1.
</event>
<event>
 8    1  0.1170483E+005  0.1043930E+01  0.7957747E-01            NaN
         13   -1    0    0    0    0  0.00000000000E+00  0.00000000000E+00  0.74505805969E-08  0.10566000000E+00  0.10566000000E+00 0. -1.
     999900   -1    0    0    0    0 -0.00000000000E+00 -0.00000000000E+00 -0.74505805969E-08  0.93827000000E+00  0.93827000000E+00 0. -1.
     999902    2    1    2    0    0 -0.13117503105E-01  0.56505174843E-02  0.18537229750E-01  0.10205285872E+01  0.10202602468E+01 0.  0.
     999903    2    3    3    0    0 -0.10765963270E+00 -0.72896456371E-01  0.77178897502E-02  0.13192018102E+00  0.20949426559E-01 0.  0.
         14    1    1    2    0    0  0.13117503105E-01 -0.56505174843E-02 -0.18537229750E-01  0.23401412828E-01  0.00000000000E+00 0.  1.
     999901    1    3    3    0    0  0.94542129595E-01  0.78546973855E-01  0.10819340000E-01  0.88860840615E+00  0.88000000000E+00 0.  1.
        -11    1    4    4    0    0 -0.90663262011E-01 -0.57195903210E-01 -0.96065692277E-03  0.10720252985E+00  0.51100000000E-03 0. -1.
         11    1    4    4    0    0 -0.16996370688E-01 -0.15700553161E-01  0.86785466729E-02  0.24717651173E-01  0.51100000000E-03 0.  1.
</event>
<event>
 8    1  0.1170483E+005  0.1043930E+01  0.7957747E-01            NaN
         13   -1    0    0    0    0  0.00000000000E+00  0.00000000000E+00  0.74505805969E-08  0.10566000000E+00  0.10566000000E+00 0.  1.
     999900   -1    0    0    0    0 -0.00000000000E+00 -0.00000000000E+00 -0.74505805969E-08  0.93827000000E+00  0.93827000000E+00 0.  1.
     999902    2    1    2    0    0 -0.13945277344E-01 -0.79090422473E-02  0.16921443010E-01  0.10206199390E+01  0.10203537137E+01 0.  0.
     999903    2    3    3    0    0  0.64786296535E-01 -0.77529543568E-01  0.82371738815E-01  0.13195272563E+00  0.20452972922E-01 0.  0.
         14    1    1    2    0    0  0.13945277344E-01  0.79090422473E-02 -0.16921443010E-01  0.23310060982E-01  0.00000000000E+00 0. -1.
     999901    1    3    3    0    0 -0.78731573878E-01  0.69620501320E-01 -0.65450295805E-01  0.88866721339E+00  0.88000000000E+00 0.  1.
        -11    1    4    4    0    0  0.44555682546E-01 -0.51859993806E-01  0.42959386024E-01  0.80749227694E-01  0.51100000000E-03 0.  1.
         11    1    4    4    0    0  0.20230613988E-01 -0.25669549762E-01  0.39412352791E-01  0.51203497936E-01  0.51100000000E-03 0. -1.
</event>
<event>
 8    1  0.1170483E+005  0.1043930E+01  0.7957747E-01            NaN
         13   -1    0    0    0    0  0.00000000000E+00  0.00000000000E+00  0.74505805969E-08  0.10566000000E+00  0.10566000000E+00 0. -1.
     999900   -1    0    0    0    0 -0.00000000000E+00 -0.00000000000E+00 -0.74505805969E-08  0.93827000000E+00  0.93827000000E+00 0. -1.
     999902    2    1    2    0    0 -0.18838971276E-01 -0.81121894924E-03 -0.14582076422E-01  0.10200930147E+01  0.10198144718E+01 0.  0.
     999903    2    3    3    0    0 -0.51258786704E-01 -0.11324038417E+00 -0.40158306448E-01  0.13197956184E+00  0.18843230775E-01 0.  0.
         14    1    1    2    0    0  0.18838971276E-01  0.81121894924E-03  0.14582076422E-01  0.23836985289E-01  0.00000000000E+00 0. -1.
     999901    1    3    3    0    0  0.32419815429E-01  0.11242916522E+00  0.25576230026E-01  0.88811345287E+00  0.88000000000E+00 0.  1.
        -11    1    4    4    0    0 -0.72332780997E-02 -0.32669971577E-01 -0.59011751687E-02  0.33981352891E-01  0.51100000000E-03 0. -1.
         11    1    4    4    0    0 -0.44025508604E-01 -0.80570412591E-01 -0.34257131280E-01  0.97998208951E-01  0.51100000000E-03 0.  1.
</event>
<event>
 8    1  0.1170483E+005  0.1043930E+01  0.7957747E-01            NaN
         13   -1    0    0    0    0  0.00000000000E+00  0.00000000000E+00  0.74505805969E-08  0.10566000000E+00  0.10566000000E+00 0.  1.
     999900   -1    0    0    0    0 -0.00000000000E+00 -0.00000000000E+00 -0.74505805969E-08  0.93827000000E+00  0.93827000000E+00 0.  1.
     999902    2    1    2    0    0 -0.23189012392E-01  0.37770855842E-02  0.14766176351E-02  0.10203890342E+01  0.10201174462E+01 0.  0.
     999903    2    3    3    0    0  0.93314979660E-01 -0.66985597674E-02 -0.85586920367E-01  0.12838960653E+00  0.20154751190E-01 0.  0.
         14    1    1    2    0    0  0.23189012392E-01 -0.37770855842E-02 -0.14766176351E-02  0.23540965801E-01  0.00000000000E+00 0. -1.
     999901    1    3    3    0    0 -0.11650399205E+00  0.10475645352E-01  0.87063538002E-01  0.89199942767E+00  0.88000000000E+00 0. -1.
        -11    1    4    4    0    0  0.75895891932E-02 -0.44273396308E-02 -0.14673919517E-01  0.17111055938E-01  0.51100000000E-03 0. -1.
         11    1    4    4    0    0  0.85725390467E-01 -0.22712201366E-02 -0.70913000850E-01  0.11127855059E+00  0.51100000000E-03 0.  1.
</event>
<event>
 8    1  0.1170483E+005  0.1043930E+01  0.7957747E-01            NaN
         13   -1    0    0    0    0  0.00000000000E+00  0.00000000000E+00  0.74505805969E-08  0.10566000000E+00  0.10566000000E+00 0. -1.
     999900   -1    0    0    0    0 -0.00000000000E+00 -0.00000000000E+00 -0.74505805969E-08  0.93827000000E+00  0.93827000000E+00 0.  1.
     999902    2    1    2    0    0  0.35893984152E-02  0.81767035113E-02  0.22262226803E-01  0.10199435663E+01  0.10196614778E+01 0.  0.
     999903    2    3    3    0    0 -0.18575096926E-01 -0.11421530875E+00  0.57540060452E-01  0.13049677467E+00  0.18121221371E-01 0.  0.
         14    1    1    2    0    0 -0.35893984152E-02 -0.81767035113E-02 -0.22262226803E-01  0.23986433739E-01  0.00000000000E+00 0.  1.
     999901    1    3    3    0    0  0.22164495341E-01  0.12239201226E+00 -0.35277833649E-01  0.88944679159E+00  0.88000000000E+00 0. -1.
        -11    1    4    4    0    0 -0.12927212776E-01 -0.62597458922E-01  0.41243223186E-01  0.76071146129E-01  0.51100000000E-03 0. -1.
         11    1    4    4    0    0 -0.56478841499E-02 -0.51617849830E-01  0.16296837266E-01  0.54425628544E-01  0.51100000000E-03 0.  1.
</event>
<event>
 8    1  0.1170483E+005  0.1043930E+01  0.7957747E-01            NaN
         13   -1    0    0    0    0  0.00000000000E+00  0.00000000000E+00  0.74505805969E-08  0.10566000000E+00  0.10566000000E+00 0.  1.
     999900   -1    0    0    0    0 -0.00000000000E+00 -0.00000000000E+00 -0.74505805969E-08  0.93827000000E+00  0.93827000000E+00 0.  1.
     999902    2    1    2    0    0  0.26417882592E-02  0.19644752631E-01 -0.13581441775E-01  0.10199018725E+01  0.10196187908E+01 0.  0.
     999903    2    3    3    0    0 -0.65902685988E-01 -0.40240661252E-01 -0.10371131651E+00  0.13062801025E+00  0.18578618096E-01 0.  0.
         14    1    1    2    0    0 -0.26417882592E-02 -0.19644752631E-01  0.13581441775E-01  0.24028127513E-01  0.00000000000E+00 0. -1.
     999901    1    3    3    0    0  0.68544474247E-01  0.59885413883E-01  0.90129874734E-01  0.88927386224E+00  0.88000000000E+00 0. -1.
        -11    1    4    4    0    0 -0.64037242561E-01 -0.33612065230E-01 -0.91897253583E-01  0.11694402807E+00  0.51100000000E-03 0.  1.
         11    1    4    4    0    0 -0.18654434267E-02 -0.66285960225E-02 -0.11814062926E-01  0.13683982177E-01  0.51100000000E-03 0. -1.
</event>
<event>
 8    1  0.1170483E+005  0.1043930E+01  0.7957747E-01            NaN
         13   -1    0    0    0    0  0.00000000000E+00  0.00000000000E+00  0.74505805969E-08  0.10566000000E+00  0.10566000000E+00 0.  1.
     999900   -1    0    0    0    0 -0.00000000000E+00 -0.00000000000E+00 -0.74505805969E-08  0.93827000000E+00  0.93827000000E+00 0.  1.
     999902    2    1    2    0    0 -0.20335886085E-01  0.25831874236E-02  0.10915136802E-01  0.10207058459E+01  0.10204416018E+01 0.  0.
     999903    2    3    3    0    0  0.11169919228E+00 -0.60706286133E-01  0.22109545936E-02  0.12856539615E+00  0.19031816382E-01 0.  0.
         14    1    1    2    0    0  0.20335886085E-01 -0.25831874236E-02 -0.10915136802E-01  0.23224154054E-01  0.00000000000E+00 0. -1.
     999901    1    3    3    0    0 -0.13203507836E+00  0.63289473557E-01  0.87041822082E-02  0.89214044980E+00  0.88000000000E+00 0.  1.
        -11    1    4    4    0    0  0.59610214916E-01 -0.21778889258E-01  0.28928514907E-02  0.63532097796E-01  0.51100000000E-03 0. -1.
         11    1    4    4    0    0  0.52088977360E-01 -0.38927396875E-01 -0.68189689710E-03  0.65033298350E-01  0.51100000000E-03 0.  1.
</event>
<event>
 8    1  0.1170483E+005  0.1043930E+01  0.7957747E-01            NaN
         13   -1    0    0    0    0  0.00000000000E+00  0.00000000000E+00  0.74505805969E-08  0.10566000000E+00  0.10566000000E+00 0.  1.
     999900   -1    0    0    0    0 -0.00000000000E+00 -0.00000000000E+00 -0.74505805969E-08  0.93827000000E+00  0.93827000000E+00 0.  1.
     999902    2    1    2    0    0 -0.15459383942E-01  0.16435982959E-01  0.86794882397E-02  0.10197542352E+01  0.10194676221E+01 0.  0.
     999903    2    3    3    0    0 -0.12152110727E-01  0.11032013728E+00  0.69886952125E-01  0.13264007900E+00  0.19773669273E-01 0.  0.
         14    1    1    2    0    0  0.15459383942E-01 -0.16435982959E-01 -0.86794882397E-02  0.24175764803E-01  0.00000000000E+00 0.  1.
     999901    1    3    3    0    0 -0.33072732150E-02 -0.93884154317E-01 -0.61207463886E-01  0.88711415620E+00  0.88000000000E+00 0.  1.
        -11    1    4    4    0    0  0.35344181227E-02  0.20534405296E-01  0.19247491250E-01  0.28370423908E-01  0.51100000000E-03 0.  1.
         11    1    4    4    0    0 -0.15686528850E-01  0.89785731980E-01  0.50639460875E-01  0.10426965509E+00  0.51100000000E-03 0. -1.
</event>
<event>
 8    1  0.1170483E+005  0.1043930E+01  0.7957747E-01            NaN
         13   -1    0    0    0    0  0.00000000000E+00  0.00000000000E+00  0.74505805969E-08  0.10566000000E+00  0.10566000000E+00 0. -1.
     999900   -1    0    0    0    0 -0.00000000000E+00 -0.00000000000E+00 -0.74505805969E-08  0.93827000000E+00  0.93827000000E+00 0.  1.
     999902    2    1    2    0    0 -0.51479727493E-02  0.16218520398E-01  0.15783630286E-01  0.10207208421E+01  0.10204569429E+01 0.  0.
     999903    2    3    3    0    0 -0.43645824090E-01 -0.41905722263E-01  0.11523281863E+00  0.13237932372E+00  0.24179233650E-01 0.  0.
         14    1    1    2    0    0  0.51479727493E-02 -0.16218520398E-01 -0.15783630286E-01  0.23209157941E-01  0.00000000000E+00 0.  1.
     999901    1    3    3    0    0  0.38497851341E-01  0.58124242661E-01 -0.99449188345E-01  0.88834151834E+00  0.88000000000E+00 0.  1.
        -11    1    4    4    0    0 -0.11177482218E-01 -0.15436556815E-01  0.16834199465E-01  0.25433733262E-01  0.51100000000E-03 0. -1.
         11    1    4    4    0    0 -0.32468341872E-01 -0.26469165448E-01  0.98398619166E-01  0.10694559046E+00  0.51100000000E-03 0.  1.
</event>
<event>
 8    1  0.1170483E+005  0.1043930E+01  0.7957747E-01            NaN
         13   -1    0    0    0    0  0.00000000000E+00  0.00000000000E+00  0.74505805969E-08  0.10566000000E+00  0.10566000000E+00 0. -1.
     999900   -1    0    0    0    0 -0.00000000000E+00 -0.00000000000E+00 -0.74505805969E-08  0.93827000000E+00  0.93827000000E+00 0. -1.
     999902    2    1    2    0    0  0.18722507040E-01 -0.13468399537E-01 -0.42377766447E-02  0.10204802920E+01  0.10202108299E+01 0.  0.
     999903    2    3    3    0    0 -0.29712051997E-01 -0.73901417371E-01 -0.10207441220E+00  0.13167769104E+00  0.23991731242E-01 0.  0.
         14    1    1    2    0    0 -0.18722507040E-01  0.13468399537E-01  0.42377766447E-02  0.23449708033E-01  0.00000000000E+00 0.  1.
     999901    1    3    3    0    0  0.48434559037E-01  0.60433017834E-01  0.97836635559E-01  0.88880260093E+00  0.88000000000E+00 0.  1.
        -11    1    4    4    0    0 -0.22288872321E-01 -0.29489988035E-01 -0.57187583503E-01  0.68096505428E-01  0.51100000000E-03 0. -1.
         11    1    4    4    0    0 -0.74231796763E-02 -0.44411429336E-01 -0.44886828701E-01  0.63581185614E-01  0.51100000000E-03 0.  1.
</event>
<event>
 8    1  0.1170483E+005  0.1043930E+01  0.7957747E-01            NaN
         13   -1    0    0    0    0  0.00000000000E+00  0.00000000000E+00  0.74505805969E-08  0.10566000000E+00  0.10566000000E+00 0.  1.
     999900   -1    0    0    0    0 -0.00000000000E+00 -0.00000000000E+00 -0.74505805969E-08  0.93827000000E+00  0.93827000000E+00 0.  1.
     999902    2    1    2    0    0 -0.20193906571E-02 -0.10680633656E-02 -0.25364465391E-01  0.10184628682E+01  0.10181444097E+01 0.  0.
     999903    2    3    3    0    0 -0.37782924189E-01 -0.48102383316E-01  0.10877854117E+00  0.12633865947E+00  0.19679868316E-01 0.  0.
         14    1    1    2    0    0  0.20193906571E-02  0.10680633656E-02  0.25364465391E-01  0.25467131808E-01  0.00000000000E+00 0.  1.
     999901    1    3    3    0    0  0.35763533532E-01  0.47034319950E-01 -0.13414300656E+00  0.89212420872E+00  0.88000000000E+00 0.  1.
        -11    1    4    4    0    0 -0.30146611644E-01 -0.37400126893E-01  0.66341371788E-01  0.81908646778E-01  0.51100000000E-03 0. -1.
         11    1    4    4    0    0 -0.76363125449E-02 -0.10702256423E-01  0.42437169377E-01  0.44430012690E-01  0.51100000000E-03 0.  1.
</event>
<event>
 8    1  0.1170483E+005  0.1043930E+01  0.7957747E-01            NaN
         13   -1    0    0    0    0  0.00000000000E+00  0.00000000000E+00  0.74505805969E-08  0.10566000000E+00  0.10566000000E+00 0.  1.
     999900   -1    0    0    0    0 -0.00000000000E+00 -0.00000000000E+00 -0.74505805969E-08  0.93827000000E+00  0.93827000000E+00 0. -1.
     999902    2    1    2    0    0 -0.12470956644E-01  0.14638576450E-01 -0.12301014274E-01  0.10211017799E+01  0.10208465689E+01 0.  0.
     999903    2    3    3    0    0 -0.10403627673E-02  0.50829741073E-01 -0.12144266646E+00  0.13354763559E+00  0.22403231951E-01 0.  0.
         14    1    1    2    0    0  0.12470956644E-01 -0.14638576450E-01  0.12301014274E-01  0.22828220085E-01  0.00000000000E+00 0. -1.
     999901    1    3    3    0    0 -0.11430593876E-01 -0.36191164623E-01  0.10914165218E+00  0.88755414433E+00  0.88000000000E+00 0.  1.
        -11    1    4    4    0    0 -0.60032878988E-02  0.22681933219E-01 -0.32245548515E-01  0.39881650921E-01  0.51100000000E-03 0.  1.
         11    1    4    4    0    0  0.49629251316E-02  0.28147807854E-01 -0.89197117943E-01  0.93665984665E-01  0.51100000000E-03 0. -1.
</event>
<event>
 8    1  0.1170483E+005  0.1043930E+01  0.7957747E-01            NaN
         13   -1    0    0    0    0  0.00000000000E+00  0.00000000000E+00  0.74505805969E-08  0.10566000000E+00  0.10566000000E+00 0. -1.
     999900   -1    0    0    0    0 -0.00000000000E+00 -0.00000000000E+00 -0.74505805969E-08  0.93827000000E+00  0.93827000000E+00 0.  1.
     999902    2    1    2    0    0  0.10750508031E-01 -0.11264619672E-01 -0.11631075621E-01  0.10244942855E+01  0.10243099111E+01 0.  0.
     999903    2    3    3    0    0 -0.81263473111E-01 -0.24357124031E-01 -0.10293086119E+00  0.13490244803E+00  0.20171433896E-01 0.  0.
         14    1    1    2    0    0 -0.10750508031E-01  0.11264619672E-01  0.11631075621E-01  0.19435714533E-01  0.00000000000E+00 0. -1.
     999901    1    3    3    0    0  0.92013981142E-01  0.13092504359E-01  0.91299785568E-01  0.88959183744E+00  0.88000000000E+00 0. -1.
        -11    1    4    4    0    0 -0.34889345673E-01 -0.22349843319E-02 -0.32627951769E-01  0.47823696575E-01  0.51100000000E-03 0. -1.
         11    1    4    4    0    0 -0.46374127438E-01 -0.22122139699E-01 -0.70302909421E-01  0.87078751452E-01  0.51100000000E-03 0.  1.
</event>
<event>
 8    1  0.1170483E+005  0.1043930E+01  0.7957747E-01            NaN
         13   -1    0    0    0    0  0.00000000000E+00  0.00000000000E+00  0.74505805969E-08  0.10566000000E+00  0.10566000000E+00 0. -1.
     999900   -1    0    0    0    0 -0.00000000000E+00 -0.00000000000E+00 -0.74505805969E-08  0.93827000000E+00  0.93827000000E+00 0.  1.
     999902    2    1    2    0    0 -0.96374937887E-02 -0.40189513110E-02 -0.24164813635E-01  0.10176056486E+01  0.10172651005E+01 0.  0.
     999903    2    3    3    0    0  0.51251629311E-01  0.11374876194E+00 -0.18125115396E-01  0.12765441540E+00  0.20040449443E-01 0.  0.
         14    1    1    2    0    0  0.96374937887E-02  0.40189513110E-02  0.24164813635E-01  0.26324351353E-01  0.00000000000E+00 0. -1.
     999901    1    3    3    0    0 -0.60889123100E-01 -0.11776771325E+00 -0.60396982395E-02  0.88995123324E+00  0.88000000000E+00 0.  1.
        -11    1    4    4    0    0  0.30107334609E-01  0.43090254458E-01 -0.90482552071E-02  0.53341856640E-01  0.51100000000E-03 0.  1.
         11    1    4    4    0    0  0.21144294702E-01  0.70658507482E-01 -0.90768601885E-02  0.74312558763E-01  0.51100000000E-03 0. -1.
</event>
<event>
 7    1  0.1170483E+005  0.1043930E+01  0.7957747E-01            NaN
         13   -1    0    0    0    0  0.00000000000E+00  0.00000000000E+00  0.74505805969E-08  0.10566000000E+00  0.10566000000E+00 0. -1.
     999900   -1    0    0    0    0 -0.00000000000E+00 -0.00000000000E+00 -0.74505805969E-08  0.93827000000E+00  0.93827000000E+00 0.  1.
     999903    2    1    2    0    0  0.96724534185E-02 -0.63428121967E-01  0.72951240758E-01  0.99256608864E-01  0.20329974513E-01 0.  0.
         14    1    1    2    0    0 -0.13268725817E-01  0.24959440812E-01  0.47855101213E-01  0.55580063714E-01  0.00000000000E+00 0. -1.
     999901    1    1    2    0    0  0.35962723980E-02  0.38468681155E-01 -0.12080634197E+00  0.88909332742E+00  0.88000000000E+00 0.  1.
        -11    1    3    3    0    0  0.47240592143E-03 -0.12726306474E-01  0.28428590325E-01  0.31154901904E-01  0.51100000000E-03 0. -1.
         11    1    3    3    0    0  0.92000474971E-02 -0.50701815493E-01  0.44522650433E-01  0.68101706960E-01  0.51100000000E-03 0.  1.
</event>
<event>
 8    1  0.1170483E+005  0.1043930E+01  0.7957747E-01            NaN
         13   -1    0    0    0    0  0.00000000000E+00  0.00000000000E+00  0.74505805969E-08  0.10566000000E+00  0.10566000000E+00 0.  1.
     999900   -1    0    0    0    0 -0.00000000000E+00 -0.00000000000E+00 -0.74505805969E-08  0.93827000000E+00  0.93827000000E+00 0.  1.
     999902    2    1    2    0    0 -0.22279522960E-01  0.59813991464E-02  0.16316804999E-02  0.10208038966E+01  0.10205419044E+01 0.  0.
     999903    2    3    3    0    0  0.32320672247E-01  0.11690085710E+00 -0.45096922153E-01  0.13093431635E+00  0.19990661988E-01 0.  0.
         14    1    1    2    0    0  0.22279522960E-01 -0.59813991464E-02 -0.16316804999E-02  0.23126103440E-01  0.00000000000E+00 0.  1.
     999901    1    3    3    0    0 -0.54600195208E-01 -0.11091945795E+00  0.46728602653E-01  0.88986958021E+00  0.88000000000E+00 0. -1.
        -11    1    4    4    0    0  0.26009230802E-01  0.59755155895E-01 -0.28162797879E-01  0.70996922808E-01  0.51100000000E-03 0. -1.
         11    1    4    4    0    0  0.63114414455E-02  0.57145701204E-01 -0.16934124274E-01  0.59937393546E-01  0.51100000000E-03 0.  1.
</event>
<event>
 8    1  0.1170483E+005  0.1043930E+01  0.7957747E-01            NaN
         13   -1    0    0    0    0  0.00000000000E+00  0.00000000000E+00  0.74505805969E-08  0.10566000000E+00  0.10566000000E+00 0. -1.
     999900   -1    0    0    0    0 -0.00000000000E+00 -0.00000000000E+00 -0.74505805969E-08  0.93827000000E+00  0.93827000000E+00 0.  1.
     999902    2    1    2    0    0  0.15284435946E-01 -0.13645333880E-01 -0.12867623715E-01  0.10197352721E+01  0.10194482038E+01 0.  0.
     999903    2    3    3    0    0 -0.94574380345E-01 -0.53995661066E-01 -0.68618378518E-01  0.13023807980E+00  0.19840129220E-01 0.  0.
         14    1    1    2    0    0 -0.15284435946E-01  0.13645333880E-01  0.12867623715E-01  0.24194727917E-01  0.00000000000E+00 0.  1.
     999901    1    3    3    0    0  0.10985881629E+00  0.40350327186E-01  0.55750754803E-01  0.88949719228E+00  0.88000000000E+00 0. -1.
        -11    1    4    4    0    0 -0.12949020743E-01 -0.71242836789E-02 -0.20030282705E-02  0.14923330707E-01  0.51100000000E-03 0. -1.
         11    1    4    4    0    0 -0.81625359602E-01 -0.46871377387E-01 -0.66615350248E-01  0.11531474909E+00  0.51100000000E-03 0.  1.
</event>
<event>
 8    1  0.1170483E+005  0.1043930E+01  0.7957747E-01            NaN
         13   -1    0    0    0    0  0.00000000000E+00  0.00000000000E+00  0.74505805969E-08  0.10566000000E+00  0.10566000000E+00 0. -1.
     999900   -1    0    0    0    0 -0.00000000000E+00 -0.00000000000E+00 -0.74505805969E-08  0.93827000000E+00  0.93827000000E+00 0. -1.
     999902    2    1    2    0    0  0.48365116366E-02 -0.18143848889E-01 -0.14390203074E-01  0.10202726747E+01  0.10199983635E+01 0.  0.
     999903    2    3    3    0    0  0.11864015585E+00 -0.30568657672E-01  0.41828189068E-01  0.13107857160E+00  0.20544223538E-01 0.  0.
         14    1    1    2    0    0 -0.48365116366E-02  0.18143848889E-01  0.14390203074E-01  0.23657325331E-01  0.00000000000E+00 0. -1.
     999901    1    3    3    0    0 -0.11380364421E+00  0.12424808783E-01 -0.56218392143E-01  0.88919410306E+00  0.88000000000E+00 0.  1.
        -11    1    4    4    0    0  0.47717146133E-02  0.26157897627E-02  0.54467641513E-03  0.54926687348E-02  0.51100000000E-03 0. -1.
         11    1    4    4    0    0  0.11386844124E+00 -0.33184447435E-01  0.41283512653E-01  0.12558590287E+00  0.51100000000E-03 0.  1.
</event>
<event>
 8    1  0.1170483E+005  0.1043930E+01  0.7957747E-01            NaN
         13   -1    0    0    0    0  0.00000000000E+00  0.00000000000E+00  0.74505805969E-08  0.10566000000E+00  0.10566000000E+00 0. -1.
     999900   -1    0    0    0    0 -0.00000000000E+00 -0.00000000000E+00 -0.74505805969E-08  0.93827000000E+00  0.93827000000E+00 0.  1.
     999902    2    1    2    0    0  0.38741080672E-03  0.82900910339E-02 -0.22908454071E-01  0.10195645949E+01  0.10192734129E+01 0.  0.
     999903    2    3    3    0    0  0.11377068992E+00  0.90669911797E-02 -0.61899183187E-01  0.13143360880E+00  0.20428030515E-01 0.  0.
         14    1    1    2    0    0 -0.38741080672E-03 -0.82900910339E-02  0.22908454071E-01  0.24365405073E-01  0.00000000000E+00 0. -1.
     999901    1    3    3    0    0 -0.11338327911E+00 -0.77690014586E-03  0.38990729116E-01  0.88813098612E+00  0.88000000000E+00 0. -1.
        -11    1    4    4    0    0  0.99892598777E-01  0.14670759339E-01 -0.54279766805E-01  0.11463122033E+00  0.51100000000E-03 0. -1.
         11    1    4    4    0    0  0.13878091139E-01 -0.56037681588E-02 -0.76194163815E-02  0.16802388469E-01  0.51100000000E-03 0.  1.
</event>
<event>
 8    1  0.1308519E+005  0.1043930E+01  0.7957747E-01            NaN
         13   -1    0    0    0    0  0.00000000000E+00  0.00000000000E+00  0.74505805969E-08  0.10566000000E+00  0.10566000000E+00 0. -1.
     999900   -1    0    0    0    0 -0.00000000000E+00 -0.00000000000E+00 -0.74505805969E-08  0.93827000000E+00  0.93827000000E+00 0.  1.
     999902    2    1    2    0    0 -0.20275492104E-01  0.88784437892E-02  0.50440501825E-02  0.10212283528E+01  0.10209759957E+01 0.  0.
     999903    2    3    3    0    0 -0.11398830726E+00 -0.26752944686E-01  0.61159301249E-01  0.13375970039E+00  0.21027198560E-01 0.  0.
         14    1    1    2    0    0  0.20275492104E-01 -0.88784437892E-02 -0.50440501825E-02  0.22701647219E-01  0.00000000000E+00 0.  1.
     999901    1    3    3    0    0  0.93712815154E-01  0.35631388475E-01 -0.56115251066E-01  0.88746865239E+00  0.88000000000E+00 0.  1.
        -11    1    4    4    0    0 -0.35325491514E-01 -0.16565538780E-02  0.26571826307E-01  0.44237513444E-01  0.51100000000E-03 0.  1.
         11    1    4    4    0    0 -0.78662815744E-01 -0.25096390808E-01  0.34587474942E-01  0.89522186949E-01  0.51100000000E-03 0. -1.
</event>
<event>
 8    1  0.1170483E+005  0.1043930E+01  0.7957747E-01            NaN
         13   -1    0    0    0    0  0.00000000000E+00  0.00000000000E+00  0.74505805969E-08  0.10566000000E+00  0.10566000000E+00 0.  1.
     999900   -1    0    0    0    0 -0.00000000000E+00 -0.00000000000E+00 -0.74505805969E-08  0.93827000000E+00  0.93827000000E+00 0.  1.
     999902    2    1    2    0    0  0.49065700756E-02  0.14357710058E-01 -0.18659083475E-01  0.10198804748E+01  0.10195968827E+01 0.  0.
     999903    2    3    3    0    0  0.44831062919E-01  0.12111505924E+00  0.17054734616E-01  0.13181146081E+00  0.20117540902E-01 0.  0.
         14    1    1    2    0    0 -0.49065700756E-02 -0.14357710058E-01  0.18659083475E-01  0.24049525237E-01  0.00000000000E+00 0.  1.
     999901    1    3    3    0    0 -0.39924492844E-01 -0.10675734918E+00 -0.35713818091E-01  0.88806901395E+00  0.88000000000E+00 0. -1.
        -11    1    4    4    0    0  0.38338450546E-01  0.76034343608E-01  0.11176350404E-01  0.85884981967E-01  0.51100000000E-03 0. -1.
         11    1    4    4    0    0  0.64926123733E-02  0.45080715632E-01  0.58783842115E-02  0.45926478847E-01  0.51100000000E-03 0.  1.
</event>
<event>
 7    1  0.1170483E+005  0.1043930E+01  0.7957747E-01            NaN
         13   -1    0    0    0    0  0.00000000000E+00  0.00000000000E+00  0.74505805969E-08  0.10566000000E+00  0.10566000000E+00 0.  1.
     999900   -1    0    0    0    0 -0.00000000000E+00 -0.00000000000E+00 -0.74505805969E-08  0.93827000000E+00  0.93827000000E+00 0.  1.
     999902    2    1    2    0    0 -0.79104353923E-02 -0.17823892930E-01  0.12661571241E-01  0.10206795907E+01  0.10204147418E+01 0.  0.
         14    1    1    2    0    0  0.79104353923E-02  0.17823892930E-01 -0.12661571241E-01  0.23250409320E-01  0.00000000000E+00 0. -1.
     999901    1    3    3    0    0  0.81894637037E-01 -0.76314598520E-01  0.75218094986E-01  0.89027434611E+00  0.88000000000E+00 0.  1.
        -11    1    3    3    0    0 -0.78638022737E-01  0.53602445838E-01 -0.37044698862E-01  0.10212605767E+00  0.51100000000E-03 0.  1.
         11    1    3    3    0    0 -0.11167049693E-01  0.48882597527E-02 -0.25511824883E-01  0.28279186906E-01  0.51100000000E-03 0. -1.
</event>
<event>
 8    1  0.1170483E+005  0.1043930E+01  0.7957747E-01            NaN
         13   -1    0    0    0    0  0.00000000000E+00  0.00000000000E+00  0.74505805969E-08  0.10566000000E+00  0.10566000000E+00 0. -1.
     999900   -1    0    0    0    0 -0.00000000000E+00 -0.00000000000E+00 -0.74505805969E-08  0.93827000000E+00  0.93827000000E+00 0. -1.
     999902    2    1    2    0    0 -0.17241330360E-01 -0.45729382911E-02 -0.83724137229E-02  0.10242253673E+01  0.10240358053E+01 0.  0.
     999903    2    3    3    0    0  0.27292992337E-01 -0.63045229481E-01 -0.11431095885E+00  0.13482934188E+00  0.19807769415E-01 0.  0.
         14    1    1    2    0    0  0.17241330360E-01  0.45729382911E-02  0.83724137229E-02  0.19704632672E-01  0.00000000000E+00 0.  1.
     999901    1    3    3    0    0 -0.44534322697E-01  0.58472291190E-01  0.10593854512E+00  0.88939602545E+00  0.88000000000E+00 0.  1.
        -11    1    4    4    0    0 -0.68128241376E-03 -0.20530057558E-01 -0.35299896794E-01  0.40844721125E-01  0.51100000000E-03 0.  1.
         11    1    4    4    0    0  0.27974274751E-01 -0.42515171923E-01 -0.79011062052E-01  0.93984620758E-01  0.51100000000E-03 0. -1.
</event>
<event>
 8    1  0.1170483E+005  0.1043930E+01  0.7957747E-01            NaN
         13   -1    0    0    0    0  0.00000000000E+00  0.00000000000E+00  0.74505805969E-08  0.10566000000E+00  0.10566000000E+00 0. -1.
     999900   -1    0    0    0    0 -0.00000000000E+00 -0.00000000000E+00 -0.74505805969E-08  0.93827000000E+00  0.93827000000E+00 0.  1.
     999902    2    1    2    0    0 -0.16414803373E-01  0.88934167544E-02 -0.12585171756E-01  0.10214150010E+01  0.10211668224E+01 0.  0.
     999903    2    3    3    0    0  0.62073565739E-01 -0.78971007799E-01 -0.81878401058E-01  0.13086341193E+00  0.18210227500E-01 0.  0.
         14    1    1    2    0    0  0.16414803373E-01 -0.88934167544E-02  0.12585171756E-01  0.22514998989E-01  0.00000000000E+00 0. -1.
     999901    1    3    3    0    0 -0.78488369112E-01  0.87864424554E-01  0.69293229302E-01  0.89055158908E+00  0.88000000000E+00 0. -1.
        -11    1    4    4    0    0  0.76125635543E-02 -0.45504449743E-02 -0.26161431809E-02  0.92608314678E-02  0.51100000000E-03 0.  1.
         11    1    4    4    0    0  0.54461002185E-01 -0.74420562825E-01 -0.79262257877E-01  0.12160258046E+00  0.51100000000E-03 0. -1.
</event>
<event>
 8    1  0.1170483E+005  0.1043930E+01  0.7957747E-01            NaN
         13   -1    0    0    0    0  0.00000000000E+00  0.00000000000E+00  0.74505805969E-08  0.10566000000E+00  0.10566000000E+00 0. -1.
     999900   -1    0    0    0    0 -0.00000000000E+00 -0.00000000000E+00 -0.74505805969E-08  0.93827000000E+00  0.93827000000E+00 0.  1.
     999902    2    1    2    0    0 -0.17020618989E-03 -0.17726200125E-03 -0.24138411490E-01  0.10197903376E+01  0.10195045902E+01 0.  0.
     999903    2    3    3    0    0  0.19007860554E-02 -0.12146118152E+00 -0.45402631409E-01  0.13121493551E+00  0.19988215466E-01 0.  0.
         14    1    1    2    0    0  0.17020618989E-03  0.17726200125E-03  0.24138411490E-01  0.24139662409E-01  0.00000000000E+00 0. -1.
     999901    1    3    3    0    0 -0.20709922453E-02  0.12128391952E+00  0.21264219919E-01  0.88857540209E+00  0.88000000000E+00 0. -1.
        -11    1    4    4    0    0 -0.25414383743E-02 -0.69468926938E-02 -0.74027172887E-02  0.10477574689E-01  0.51100000000E-03 0.  1.
         11    1    4    4    0    0  0.44422244297E-02 -0.11451428882E+00 -0.37999914121E-01  0.12073736082E+00  0.51100000000E-03 0. -1.
</event>
<event>
 8    1  0.1170483E+005  0.1043930E+01  0.7957747E-01            NaN
         13   -1    0    0    0    0  0.00000000000E+00  0.00000000000E+00  0.74505805969E-08  0.10566000000E+00  0.10566000000E+00 0.  1.
     999900   -1    0    0    0    0 -0.00000000000E+00 -0.00000000000E+00 -0.74505805969E-08  0.93827000000E+00  0.93827000000E+00 0. -1.
     999902    2    1    2    0    0  0.54415708981E-02 -0.35592076328E-02  0.21994172837E-01  0.10209948241E+01  0.10207371888E+01 0.  0.
     999903    2    3    3    0    0  0.12466498944E+00  0.37498467234E-01 -0.21830615353E-02  0.13167795437E+00  0.19667823276E-01 0.  0.
         14    1    1    2    0    0 -0.54415708981E-02  0.35592076328E-02 -0.21994172837E-01  0.22935175858E-01  0.00000000000E+00 0. -1.
     999901    1    3    3    0    0 -0.11922341854E+00 -0.41057674867E-01  0.24177234373E-01  0.88931686977E+00  0.88000000000E+00 0. -1.
        -11    1    4    4    0    0  0.60005934847E-01  0.26370991864E-01  0.46492736032E-02  0.65711629829E-01  0.51100000000E-03 0.  1.
         11    1    4    4    0    0  0.64659054596E-01  0.11127475370E-01 -0.68323351385E-02  0.65966324543E-01  0.51100000000E-03 0. -1.
</event>
<event>
 8    1  0.1170483E+005  0.1043930E+01  0.7957747E-01            NaN
         13   -1    0    0    0    0  0.00000000000E+00  0.00000000000E+00  0.74505805969E-08  0.10566000000E+00  0.10566000000E+00 0.  1.
     999900   -1    0    0    0    0 -0.00000000000E+00 -0.00000000000E+00 -0.74505805969E-08  0.93827000000E+00  0.93827000000E+00 0.  1.
     999902    2    1    2    0    0  0.12935751297E-01  0.16996123417E-01  0.49954925451E-02  0.10219947129E+01  0.10217592850E+01 0.  0.
     999903    2    3    3    0    0  0.73285823755E-01 -0.35506781955E-01  0.10461809004E+00  0.13276844913E+00  0.71395232621E-02 0.  0.
         14    1    1    2    0    0 -0.12935751297E-01 -0.16996123417E-01 -0.49954925451E-02  0.21935287064E-01  0.00000000000E+00 0.  1.
     999901    1    3    3    0    0 -0.60350072458E-01  0.52502905371E-01 -0.99622597491E-01  0.88922626381E+00  0.88000000000E+00 0.  1.
        -11    1    4    4    0    0  0.69626614786E-01 -0.35215974785E-01  0.99365923653E-01  0.12634032718E+00  0.51100000000E-03 0.  1.
         11    1    4    4    0    0  0.36592089692E-02 -0.29080716951E-03  0.52521663829E-02  0.64281219500E-02  0.51100000000E-03 0. -1.
</event>
<event>
 8    1  0.1170483E+005  0.1043930E+01  0.7957747E-01            NaN
         13   -1    0    0    0    0  0.00000000000E+00  0.00000000000E+00  0.74505805969E-08  0.10566000000E+00  0.10566000000E+00 0. -1.
     999900   -1    0    0    0    0 -0.00000000000E+00 -0.00000000000E+00 -0.74505805969E-08  0.93827000000E+00  0.93827000000E+00 0.  1.
     999902    2    1    2    0    0  0.44827672488E-02 -0.11169827608E-01 -0.20624240941E-01  0.10200507294E+01  0.10197711856E+01 0.  0.
     999903    2    3    3    0    0  0.16517394606E-01 -0.12315962653E+00  0.36432717548E-01  0.13103889378E+00  0.20068154985E-01 0.  0.
         14    1    1    2    0    0 -0.44827672488E-02  0.11169827608E-01  0.20624240941E-01  0.23879270621E-01  0.00000000000E+00 0. -1.
     999901    1    3    3    0    0 -0.12034627357E-01  0.11198979892E+00 -0.57056958489E-01  0.88901183560E+00  0.88000000000E+00 0.  1.
        -11    1    4    4    0    0  0.70366506088E-02 -0.14964944912E-01  0.97312984025E-02  0.19194356400E-01  0.51100000000E-03 0. -1.
         11    1    4    4    0    0  0.94807439973E-02 -0.10819468162E+00  0.26701419145E-01  0.11184453738E+00  0.51100000000E-03 0.  1.
</event>
<event>
 8    1  0.1170483E+005  0.1043930E+01  0.7957747E-01            NaN
         13   -1    0    0    0    0  0.00000000000E+00  0.00000000000E+00  0.74505805969E-08  0.10566000000E+00  0.10566000000E+00 0.  1.
     999900   -1    0    0    0    0 -0.00000000000E+00 -0.00000000000E+00 -0.74505805969E-08  0.93827000000E+00  0.93827000000E+00 0.  1.
     999902    2    1    2    0    0 -0.18057676795E-01 -0.71132901511E-02 -0.13224793581E-01  0.10204443926E+01  0.10201740953E+01 0.  0.
     999903    2    3    3    0    0 -0.47354612535E-01 -0.33500380968E-01 -0.11854516612E+00  0.13328771545E+00  0.18652716302E-01 0.  0.
         14    1    1    2    0    0  0.18057676795E-01  0.71132901511E-02  0.13224793581E-01  0.23485607364E-01  0.00000000000E+00 0.  1.
     999901    1    3    3    0    0  0.29296935740E-01  0.26387090817E-01  0.10532037254E+00  0.88715667719E+00  0.88000000000E+00 0. -1.
        -11    1    4    4    0    0 -0.22230233088E-01 -0.21330431627E-01 -0.79699833653E-01  0.85448786895E-01  0.51100000000E-03 0.  1.
         11    1    4    4    0    0 -0.25124379447E-01 -0.12169949341E-01 -0.38845332468E-01  0.47838928553E-01  0.51100000000E-03 0. -1.
</event>
<event>
 8    1  0.1170483E+005  0.1043930E+01  0.7957747E-01            NaN
         13   -1    0    0    0    0  0.00000000000E+00  0.00000000000E+00  0.74505805969E-08  0.10566000000E+00  0.10566000000E+00 0. -1.
     999900   -1    0    0    0    0 -0.00000000000E+00 -0.00000000000E+00 -0.74505805969E-08  0.93827000000E+00  0.93827000000E+00 0.  1.
     999902    2    1    2    0    0  0.20996118316E-01  0.20159961612E-01  0.18082528640E-02  0.10147661385E+01  0.10143469747E+01 0.  0.
     999903    2    3    3    0    0  0.28540624871E-02 -0.47215166251E-01 -0.11310146739E+00  0.12455673293E+00  0.22023174053E-01 0.  0.
         14    1    1    2    0    0 -0.20996118316E-01 -0.20159961612E-01 -0.18082528640E-02  0.29163861455E-01  0.00000000000E+00 0.  1.
     999901    1    3    3    0    0  0.18142055829E-01  0.67375127863E-01  0.11490972025E+00  0.89020940562E+00  0.88000000000E+00 0. -1.
        -11    1    4    4    0    0  0.17649835719E-02 -0.24076761689E-01 -0.83754627557E-01  0.87165958829E-01  0.51100000000E-03 0.  1.
         11    1    4    4    0    0  0.10890789153E-02 -0.23138404562E-01 -0.29346839830E-01  0.37390774097E-01  0.51100000000E-03 0. -1.
</event>
<event>
 8    1  0.1170483E+005  0.1043930E+01  0.7957747E-01            NaN
         13   -1    0    0    0    0  0.00000000000E+00  0.00000000000E+00  0.74505805969E-08  0.10566000000E+00  0.10566000000E+00 0. -1.
     999900   -1    0    0    0    0 -0.00000000000E+00 -0.00000000000E+00 -0.74505805969E-08  0.93827000000E+00  0.93827000000E+00 0.  1.
     999902    2    1    2    0    0 -0.20762087145E-01  0.25441414435E-02 -0.12316631814E-01  0.10196558092E+01  0.10193668294E+01 0.  0.
     999903    2    3    3    0    0 -0.94119523715E-01  0.90987628131E-01  0.30354682652E-03  0.13209576464E+00  0.17662550179E-01 0.  0.
         14    1    1    2    0    0  0.20762087145E-01 -0.25441414435E-02  0.12316631814E-01  0.24274190770E-01  0.00000000000E+00 0. -1.
     999901    1    3    3    0    0  0.73357436570E-01 -0.88443486687E-01 -0.12620178641E-01  0.88756004459E+00  0.88000000000E+00 0.  1.
        -11    1    4    4    0    0 -0.55221324415E-01  0.42554996644E-01  0.42658342709E-02  0.69848270362E-01  0.51100000000E-03 0. -1.
         11    1    4    4    0    0 -0.38898199300E-01  0.48432631487E-01 -0.39622874443E-02  0.62247494281E-01  0.51100000000E-03 0.  1.
</event>
<event>
 8    1  0.1170483E+005  0.1043930E+01  0.7957747E-01            NaN
         13   -1    0    0    0    0  0.00000000000E+00  0.00000000000E+00  0.74505805969E-08  0.10566000000E+00  0.10566000000E+00 0.  1.
     999900   -1    0    0    0    0 -0.00000000000E+00 -0.00000000000E+00 -0.74505805969E-08  0.93827000000E+00  0.93827000000E+00 0. -1.
     999902    2    1    2    0    0 -0.12666265602E-01  0.18708102308E-01 -0.81313775061E-02  0.10199186136E+01  0.10196359310E+01 0.  0.
     999903    2    3    3    0    0 -0.82925914417E-01  0.96997063233E-01 -0.33764956972E-01  0.13328302891E+00  0.18416186334E-01 0.  0.
         14    1    1    2    0    0  0.12666265602E-01 -0.18708102308E-01  0.81313775061E-02  0.24011386391E-01  0.00000000000E+00 0. -1.
     999901    1    3    3    0    0  0.70259648815E-01 -0.78288960925E-01  0.25633579466E-01  0.88663558470E+00  0.88000000000E+00 0.  1.
        -11    1    4    4    0    0 -0.31338241693E-01  0.31279544737E-01 -0.34873513993E-02  0.44417542167E-01  0.51100000000E-03 0.  1.
         11    1    4    4    0    0 -0.51587672724E-01  0.65717518496E-01 -0.30277605572E-01  0.88865486746E-01  0.51100000000E-03 0. -1.
</event>
<event>
 8    1  0.1170483E+005  0.1043930E+01  0.7957747E-01            NaN
         13   -1    0    0    0    0  0.00000000000E+00  0.00000000000E+00  0.74505805969E-08  0.10566000000E+00  0.10566000000E+00 0. -1.
     999900   -1    0    0    0    0 -0.00000000000E+00 -0.00000000000E+00 -0.74505805969E-08  0.93827000000E+00  0.93827000000E+00 0. -1.
     999902    2    1    2    0    0 -0.21978433432E-01 -0.30462264835E-02 -0.76585896549E-02  0.10204569297E+01  0.10201869243E+01 0.  0.
     999903    2    3    3    0    0 -0.12670608309E+00 -0.37256335635E-01 -0.82275792378E-03  0.13356068961E+00  0.19882526012E-01 0.  0.
         14    1    1    2    0    0  0.21978433432E-01  0.30462264835E-02  0.76585896549E-02  0.23473070260E-01  0.00000000000E+00 0.  1.
     999901    1    3    3    0    0  0.10472764966E+00  0.34210109151E-01 -0.68358317312E-02  0.88689624014E+00  0.88000000000E+00 0. -1.
        -11    1    4    4    0    0 -0.23643053241E-01 -0.51946617595E-02  0.73833306561E-02  0.25313102732E-01  0.51100000000E-03 0.  1.
         11    1    4    4    0    0 -0.10306302985E+00 -0.32061673875E-01 -0.82060885799E-02  0.10824758687E+00  0.51100000000E-03 0. -1.
</event>
<event>
 8    1  0.1170483E+005  0.1043930E+01  0.7957747E-01            NaN
         13   -1    0    0    0    0  0.00000000000E+00  0.00000000000E+00  0.74505805969E-08  0.10566000000E+00  0.10566000000E+00 0.  1.
     999900   -1    0    0    0    0 -0.00000000000E+00 -0.00000000000E+00 -0.74505805969E-08  0.93827000000E+00  0.93827000000E+00 0. -1.
     999902    2    1    2    0    0  0.48709362059E-02 -0.13083905772E-01  0.17873005713E-01  0.10212505171E+01  0.10209986581E+01 0.  0.
     999903    2    3    3    0    0  0.59872946375E-02 -0.13113895333E+00 -0.42874414696E-02  0.13308987517E+00  0.21476963031E-01 0.  0.
         14    1    1    2    0    0 -0.48709362059E-02  0.13083905772E-01 -0.17873005713E-01  0.22679482864E-01  0.00000000000E+00 0. -1.
     999901    1    3    3    0    0 -0.11163584317E-02  0.11805504756E+00  0.22160447182E-01  0.88816064196E+00  0.88000000000E+00 0.  1.
        -11    1    4    4    0    0 -0.23885399724E-02 -0.83835943610E-01  0.55369278876E-02  0.84054085300E-01  0.51100000000E-03 0.  1.
         11    1    4    4    0    0  0.83758346100E-02 -0.47303009724E-01 -0.98243693572E-02  0.49035789875E-01  0.51100000000E-03 0. -1.
</event>
<event>
 8    1  0.1170483E+005  0.1043930E+01  0.7957747E-01            NaN
         13   -1    0    0    0    0  0.00000000000E+00  0.00000000000E+00  0.74505805969E-08  0.10566000000E+00  0.10566000000E+00 0. -1.
     999900   -1    0    0    0    0 -0.00000000000E+00 -0.00000000000E+00 -0.74505805969E-08  0.93827000000E+00  0.93827000000E+00 0.  1.
     999902    2    1    2    0    0  0.10156582002E-01 -0.58003870797E-02  0.19626847276E-01  0.10210823791E+01  0.10208267292E+01 0.  0.
     999903    2    3    3    0    0  0.78693157016E-01  0.10155320418E+00  0.20777380004E-01  0.13191232818E+00  0.21528970368E-01 0.  0.
         14    1    1    2    0    0 -0.10156582002E-01  0.58003870797E-02 -0.19626847276E-01  0.22847620932E-01  0.00000000000E+00 0.  1.
     999901    1    3    3    0    0 -0.68536575014E-01 -0.10735359126E+00 -0.11505327275E-02  0.88917005089E+00  0.88000000000E+00 0.  1.
        -11    1    4    4    0    0  0.78419979750E-01  0.94725257908E-01  0.17168378180E-01  0.12416755631E+00  0.51100000000E-03 0.  1.
         11    1    4    4    0    0  0.27317726576E-03  0.68279462747E-02  0.36090018235E-02  0.77447718695E-02  0.51100000000E-03 0. -1.
</event>
<event>
 8    1  0.1170483E+005  0.1043930E+01  0.7957747E-01            NaN
         13   -1    0    0    0    0  0.00000000000E+00  0.00000000000E+00  0.74505805969E-08  0.10566000000E+00  0.10566000000E+00 0. -1.
     999900   -1    0    0    0    0 -0.00000000000E+00 -0.00000000000E+00 -0.74505805969E-08  0.93827000000E+00  0.93827000000E+00 0.  1.
     999902    2    1    2    0    0  0.19856193308E-01 -0.12625348331E-02  0.11898383132E-01  0.10207473787E+01  0.10204840897E+01 0.  0.
     999903    2    3    3    0    0  0.36030848959E-01 -0.62819997463E-01  0.10923205970E+00  0.13309610416E+00  0.23202498069E-01 0.  0.
         14    1    1    2    0    0 -0.19856193308E-01  0.12625348331E-02 -0.11898383132E-01  0.23182621250E-01  0.00000000000E+00 0.  1.
     999901    1    3    3    0    0 -0.16174655651E-01  0.61557462630E-01 -0.97333676572E-01  0.88765127459E+00  0.88000000000E+00 0.  1.
        -11    1    4    4    0    0  0.28015258732E-01 -0.50488768794E-01  0.67407890572E-01  0.88758409903E-01  0.51100000000E-03 0.  1.
         11    1    4    4    0    0  0.80155902278E-02 -0.12331228669E-01  0.41824169132E-01  0.44337694254E-01  0.51100000000E-03 0. -1.
</event>
<event>
 8    1  0.1170483E+005  0.1043930E+01  0.7957747E-01            NaN
         13   -1    0    0    0    0  0.00000000000E+00  0.00000000000E+00  0.74505805969E-08  0.10566000000E+00  0.10566000000E+00 0. -1.
     999900   -1    0    0    0    0 -0.00000000000E+00 -0.00000000000E+00 -0.74505805969E-08  0.93827000000E+00  0.93827000000E+00 0.  1.
     999902    2    1    2    0    0  0.66881884706E-02 -0.19543781886E-01  0.68937046503E-02  0.10221535347E+01  0.10219215401E+01 0.  0.
     999903    2    3    3    0    0  0.48948454149E-01 -0.64360493717E-01 -0.10395991528E+00  0.13306242987E+00  0.18966337053E-01 0.  0.
         14    1    1    2    0    0 -0.66881884706E-02  0.19543781886E-01 -0.68937046503E-02  0.21776465260E-01  0.00000000000E+00 0. -1.
     999901    1    3    3    0    0 -0.42260265678E-01  0.44816711831E-01  0.11085361993E+00  0.88909110487E+00  0.88000000000E+00 0. -1.
        -11    1    4    4    0    0  0.63628934223E-02 -0.21790061972E-02 -0.38930373166E-02  0.77878971012E-02  0.51100000000E-03 0.  1.
         11    1    4    4    0    0  0.42585560726E-01 -0.62181487520E-01 -0.10006687797E+00  0.12527453276E+00  0.51100000000E-03 0. -1.
</event>
<event>
 8    1  0.1170483E+005  0.1043930E+01  0.7957747E-01            NaN
         13   -1    0    0    0    0  0.00000000000E+00  0.00000000000E+00  0.74505805969E-08  0.10566000000E+00  0.10566000000E+00 0.  1.
     999900   -1    0    0    0    0 -0.00000000000E+00 -0.00000000000E+00 -0.74505805969E-08  0.93827000000E+00  0.93827000000E+00 0.  1.
     999902    2    1    2    0    0  0.96967277054E-03  0.21806710138E-01  0.88623545666E-02  0.10203712606E+01  0.10200992576E+01 0.  0.
     999903    2    3    3    0    0  0.15831728556E-03  0.20495556133E-01 -0.12667978159E+00  0.12999266245E+00  0.20742042856E-01 0.  0.
         14    1    1    2    0    0 -0.96967277054E-03 -0.21806710138E-01 -0.88623545666E-02  0.23558739372E-01  0.00000000000E+00 0. -1.
     999901    1    3    3    0    0  0.81135548498E-03  0.13111540044E-02  0.13554213615E+00  0.89037859818E+00  0.88000000000E+00 0. -1.
        -11    1    4    4    0    0  0.90884521238E-02  0.16986473165E-01 -0.75648633320E-01  0.78064826118E-01  0.51100000000E-03 0.  1.
         11    1    4    4    0    0 -0.89301348382E-02  0.35090829680E-02 -0.51031148268E-01  0.51927836331E-01  0.51100000000E-03 0. -1.
</event>
<event>
 8    1  0.1170483E+005  0.1043930E+01  0.7957747E-01            NaN
         13   -1    0    0    0    0  0.00000000000E+00  0.00000000000E+00  0.74505805969E-08  0.10566000000E+00  0.10566000000E+00 0.  1.
     999900   -1    0    0    0    0 -0.00000000000E+00 -0.00000000000E+00 -0.74505805969E-08  0.93827000000E+00  0.93827000000E+00 0.  1.
     999902    2    1    2    0    0  0.21942873496E-02  0.87835327464E-02  0.22029876500E-01  0.10201123426E+01  0.10198342565E+01 0.  0.
     999903    2    3    3    0    0  0.67339748289E-01  0.41904575506E-01 -0.99376115330E-01  0.12877607083E+00  0.20421287245E-01 0.  0.
         14    1    1    2    0    0 -0.21942873496E-02 -0.87835327464E-02 -0.22029876500E-01  0.23817657380E-01  0.00000000000E+00 0. -1.
     999901    1    3    3    0    0 -0.65145460939E-01 -0.33121042760E-01  0.12140599183E+00  0.89133627179E+00  0.88000000000E+00 0. -1.
        -11    1    4    4    0    0  0.20073642932E-01  0.25483313585E-02 -0.21323100537E-01  0.29400354943E-01  0.51100000000E-03 0.  1.
         11    1    4    4    0    0  0.47266105356E-01  0.39356244147E-01 -0.78053014793E-01  0.99375715888E-01  0.51100000000E-03 0. -1.
</event>
<event>
 8    1  0.1170483E+005  0.1043930E+01  0.7957747E-01            NaN
         13   -1    0    0    0    0  0.00000000000E+00  0.00000000000E+00  0.74505805969E-08  0.10566000000E+00  0.10566000000E+00 0. -1.
     999900   -1    0    0    0    0 -0.00000000000E+00 -0.00000000000E+00 -0.74505805969E-08  0.93827000000E+00  0.93827000000E+00 0.  1.
     999902    2    1    2    0    0  0.29640069012E-02 -0.14754013611E-02 -0.27157040132E-01  0.10165718755E+01  0.10162036760E+01 0.  0.
     999903    2    3    3    0    0 -0.10385144208E+00 -0.44475095261E-01 -0.58076905064E-01  0.12853215126E+00  0.19606909144E-01 0.  0.
         14    1    1    2    0    0 -0.29640069012E-02  0.14754013611E-02  0.27157040132E-01  0.27358124476E-01  0.00000000000E+00 0. -1.
     999901    1    3    3    0    0  0.10681544898E+00  0.42999693900E-01  0.30919864932E-01  0.88803972426E+00  0.88000000000E+00 0. -1.
        -11    1    4    4    0    0 -0.21965956350E-01 -0.13769458846E-01 -0.21706040123E-01  0.33815891739E-01  0.51100000000E-03 0.  1.
         11    1    4    4    0    0 -0.81885485730E-01 -0.30705636415E-01 -0.36370864941E-01  0.94716259526E-01  0.51100000000E-03 0. -1.
</event>
<event>
 8    1  0.1170483E+005  0.1043930E+01  0.7957747E-01            NaN
         13   -1    0    0    0    0  0.00000000000E+00  0.00000000000E+00  0.74505805969E-08  0.10566000000E+00  0.10566000000E+00 0.  1.
     999900   -1    0    0    0    0 -0.00000000000E+00 -0.00000000000E+00 -0.74505805969E-08  0.93827000000E+00  0.93827000000E+00 0. -1.
     999902    2    1    2    0    0 -0.37450414660E-02 -0.20707209707E-01 -0.82718005471E-02  0.10213194592E+01  0.10210691462E+01 0.  0.
     999903    2    3    3    0    0  0.22293373579E-01 -0.12975432191E+00 -0.15987005385E-01  0.13417302480E+00  0.20338084578E-01 0.  0.
         14    1    1    2    0    0  0.37450414660E-02  0.20707209707E-01  0.82718005471E-02  0.22610540765E-01  0.00000000000E+00 0.  1.
     999901    1    3    3    0    0 -0.26038415045E-01  0.10904711220E+00  0.77152048383E-02  0.88714643443E+00  0.88000000000E+00 0. -1.
        -11    1    4    4    0    0  0.62026281547E-02 -0.90842708802E-01 -0.12657525139E-01  0.91931193847E-01  0.51100000000E-03 0.  1.
         11    1    4    4    0    0  0.16090745424E-01 -0.38911613107E-01 -0.33294802468E-02  0.42241830957E-01  0.51100000000E-03 0. -1.
</event>
<event>
 8    1  0.1170483E+005  0.1043930E+01  0.7957747E-01            NaN
         13   -1    0    0    0    0  0.00000000000E+00  0.00000000000E+00  0.74505805969E-08  0.10566000000E+00  0.10566000000E+00 0.  1.
     999900   -1    0    0    0    0 -0.00000000000E+00 -0.00000000000E+00 -0.74505805969E-08  0.93827000000E+00  0.93827000000E+00 0. -1.
     999902    2    1    2    0    0  0.57007397190E-02 -0.18850318236E-01 -0.14043589666E-01  0.10197420827E+01  0.10194551780E+01 0.  0.
     999903    2    3    3    0    0  0.69832933614E-01  0.42209436802E-01  0.97150658461E-01  0.12833566993E+00  0.19326628357E-01 0.  0.
         14    1    1    2    0    0 -0.57007397190E-02  0.18850318236E-01  0.14043589666E-01  0.24187917266E-01  0.00000000000E+00 0. -1.
     999901    1    3    3    0    0 -0.64132193895E-01 -0.61059755038E-01 -0.11119424813E+00  0.89140641281E+00  0.88000000000E+00 0. -1.
        -11    1    4    4    0    0  0.34779400220E-01  0.28990427361E-01  0.42686933144E-01  0.62229309337E-01  0.51100000000E-03 0. -1.
         11    1    4    4    0    0  0.35053533394E-01  0.13219009441E-01  0.54463725316E-01  0.66106360589E-01  0.51100000000E-03 0.  1.
</event>
<event>
 8    1  0.1170483E+005  0.1043930E+01  0.7957747E-01            NaN
         13   -1    0    0    0    0  0.00000000000E+00  0.00000000000E+00  0.74505805969E-08  0.10566000000E+00  0.10566000000E+00 0. -1.
     999900   -1    0    0    0    0 -0.00000000000E+00 -0.00000000000E+00 -0.74505805969E-08  0.93827000000E+00  0.93827000000E+00 0.  1.
     999902    2    1    2    0    0  0.19590061290E-02 -0.17228148392E-01 -0.16653517066E-01  0.10198886516E+01  0.10196052546E+01 0.  0.
     999903    2    3    3    0    0 -0.19195815132E-01 -0.11642048827E+00  0.54008012651E-01  0.13124941179E+00  0.19680783957E-01 0.  0.
         14    1    1    2    0    0 -0.19590061290E-02  0.17228148392E-01  0.16653517066E-01  0.24041348396E-01  0.00000000000E+00 0. -1.
     999901    1    3    3    0    0  0.21154821261E-01  0.99192339878E-01 -0.70661529717E-01  0.88863923981E+00  0.88000000000E+00 0.  1.
        -11    1    4    4    0    0 -0.51356163106E-02 -0.62964102918E-01  0.19632260661E-01  0.66155419966E-01  0.51100000000E-03 0.  1.
         11    1    4    4    0    0 -0.14060198821E-01 -0.53456385353E-01  0.34375751990E-01  0.65093991825E-01  0.51100000000E-03 0. -1.
</event>
<event>
 8    1  0.1170483E+005  0.1043930E+01  0.7957747E-01            NaN
         13   -1    0    0    0    0  0.00000000000E+00  0.00000000000E+00  0.74505805969E-08  0.10566000000E+00  0.10566000000E+00 0.  1.
     999900   -1    0    0    0    0 -0.00000000000E+00 -0.00000000000E+00 -0.74505805969E-08  0.93827000000E+00  0.93827000000E+00 0. -1.
     999902    2    1    2    0    0  0.63873995232E-02  0.17702344286E-01 -0.15088479275E-01  0.10198087630E+01  0.10195234569E+01 0.  0.
     999903    2    3    3    0    0  0.47461866691E-03 -0.11292491929E+00  0.55475660434E-01  0.12735274687E+00  0.19720815795E-01 0.  0.
         14    1    1    2    0    0 -0.63873995232E-02 -0.17702344286E-01  0.15088479275E-01  0.24121236965E-01  0.00000000000E+00 0.  1.
     999901    1    3    3    0    0  0.59127808563E-02  0.13062726358E+00 -0.70564139710E-01  0.89245601616E+00  0.88000000000E+00 0. -1.
        -11    1    4    4    0    0 -0.58793336487E-02 -0.90833000778E-01  0.38799158675E-01  0.98948655521E-01  0.51100000000E-03 0.  1.
         11    1    4    4    0    0  0.63539523156E-02 -0.22091918515E-01  0.16676501759E-01  0.28404091354E-01  0.51100000000E-03 0. -1.
</event>
<event>
 8    1  0.1170483E+005  0.1043930E+01  0.7957747E-01            NaN
         13   -1    0    0    0    0  0.00000000000E+00  0.00000000000E+00  0.74505805969E-08  0.10566000000E+00  0.10566000000E+00 0.  1.
     999900   -1    0    0    0    0 -0.00000000000E+00 -0.00000000000E+00 -0.74505805969E-08  0.93827000000E+00  0.93827000000E+00 0.  1.
     999902    2    1    2    0    0  0.19888748127E-01 -0.70777965245E-02 -0.49173089038E-02  0.10222542663E+01  0.10220244359E+01 0.  0.
     999903    2    3    3    0    0 -0.17550695436E-01 -0.12992667913E+00 -0.12087496789E-01  0.13290339542E+00  0.18117286669E-01 0.  0.
         14    1    1    2    0    0 -0.19888748127E-01  0.70777965245E-02  0.49173089038E-02  0.21675733726E-01  0.00000000000E+00 0.  1.
     999901    1    3    3    0    0  0.37439443563E-01  0.12284888260E+00  0.71701878852E-02  0.88935087085E+00  0.88000000000E+00 0.  1.
        -11    1    4    4    0    0 -0.11440032061E-01 -0.12050124362E+00 -0.12207790730E-01  0.12165819053E+00  0.51100000000E-03 0. -1.
         11    1    4    4    0    0 -0.61106633749E-02 -0.94254355060E-02  0.12029394120E-03  0.11245204889E-01  0.51100000000E-03 0.  1.
</event>
<event>
 8    1  0.1170483E+005  0.1043930E+01  0.7957747E-01            NaN
         13   -1    0    0    0    0  0.00000000000E+00  0.00000000000E+00  0.74505805969E-08  0.10566000000E+00  0.10566000000E+00 0.  1.
     999900   -1    0    0    0    0 -0.00000000000E+00 -0.00000000000E+00 -0.74505805969E-08  0.93827000000E+00  0.93827000000E+00 0.  1.
     999902    2    1    2    0    0  0.91023643454E-02 -0.22544616062E-01  0.23208311937E-02  0.10195066708E+01  0.10192140859E+01 0.  0.
     999903    2    3    3    0    0  0.15434788487E-01  0.96472764607E-01 -0.79664452909E-01  0.12769569125E+00  0.20360194014E-01 0.  0.
         14    1    1    2    0    0 -0.91023643454E-02  0.22544616062E-01 -0.23208311937E-02  0.24423329165E-01  0.00000000000E+00 0. -1.
     999901    1    3    3    0    0 -0.63324241420E-02 -0.11901738067E+00  0.81985284103E-01  0.89181097958E+00  0.88000000000E+00 0. -1.
        -11    1    4    4    0    0 -0.37851685518E-02  0.26780565780E-01 -0.16449524163E-01  0.31660293281E-01  0.51100000000E-03 0. -1.
         11    1    4    4    0    0  0.19219957039E-01  0.69692198828E-01 -0.63214928746E-01  0.96035397971E-01  0.51100000000E-03 0.  1.
</event>
<event>
 8    1  0.1170483E+005  0.1043930E+01  0.7957747E-01            NaN
         13   -1    0    0    0    0  0.00000000000E+00  0.00000000000E+00  0.74505805969E-08  0.10566000000E+00  0.10566000000E+00 0.  1.
     999900   -1    0    0    0    0 -0.00000000000E+00 -0.00000000000E+00 -0.74505805969E-08  0.93827000000E+00  0.93827000000E+00 0.  1.
     999902    2    1    2    0    0 -0.22606269873E-01 -0.30719618296E-02  0.53687844482E-02  0.10204927597E+01  0.10202235874E+01 0.  0.
     999903    2    3    3    0    0  0.99059477790E-01 -0.45349215305E-01 -0.63879365052E-01  0.12842481019E+00  0.23302942372E-01 0.  0.
         14    1    1    2    0    0  0.22606269873E-01  0.30719618296E-02 -0.53687844482E-02  0.23437240313E-01  0.00000000000E+00 0. -1.
     999901    1    3    3    0    0 -0.12166574766E+00  0.42277253475E-01  0.69248149500E-01  0.89206794950E+00  0.88000000000E+00 0. -1.
        -11    1    4    4    0    0  0.84482895666E-02 -0.99691024121E-02 -0.13813797687E-01  0.19022058959E-01  0.51100000000E-03 0. -1.
         11    1    4    4    0    0  0.90611188223E-01 -0.35380112892E-01 -0.50065567365E-01  0.10940275123E+00  0.51100000000E-03 0.  1.
</event>
<event>
 8    1  0.1170483E+005  0.1043930E+01  0.7957747E-01            NaN
         13   -1    0    0    0    0  0.00000000000E+00  0.00000000000E+00  0.74505805969E-08  0.10566000000E+00  0.10566000000E+00 0. -1.
     999900   -1    0    0    0    0 -0.00000000000E+00 -0.00000000000E+00 -0.74505805969E-08  0.93827000000E+00  0.93827000000E+00 0.  1.
     999902    2    1    2    0    0  0.12364755640E-01 -0.38324930738E-02  0.20354840714E-01  0.10198075058E+01  0.10195221695E+01 0.  0.
     999903    2    3    3    0    0  0.52365753242E-01 -0.15194756559E-01 -0.11548851793E+00  0.12841387844E+00  0.13396778025E-01 0.  0.
         14    1    1    2    0    0 -0.12364755640E-01  0.38324930738E-02 -0.20354840714E-01  0.24122494185E-01  0.00000000000E+00 0. -1.
     999901    1    3    3    0    0 -0.40000997603E-01  0.11362263485E-01  0.13584335865E+00  0.89139362738E+00  0.88000000000E+00 0. -1.
        -11    1    4    4    0    0  0.25087838742E-01 -0.14027471945E-01 -0.62895601804E-01  0.69154084978E-01  0.51100000000E-03 0. -1.
         11    1    4    4    0    0  0.27277914500E-01 -0.11672846135E-02 -0.52592916130E-01  0.59259793460E-01  0.51100000000E-03 0.  1.
</event>
<event>
 8    1  0.1170483E+005  0.1043930E+01  0.7957747E-01            NaN
         13   -1    0    0    0    0  0.00000000000E+00  0.00000000000E+00  0.74505805969E-08  0.10566000000E+00  0.10566000000E+00 0.  1.
     999900   -1    0    0    0    0 -0.00000000000E+00 -0.00000000000E+00 -0.74505805969E-08  0.93827000000E+00  0.93827000000E+00 0. -1.
     999902    2    1    2    0    0  0.20911949407E-02 -0.22516964816E-01  0.67368708590E-02  0.10203339785E+01  0.10200611038E+01 0.  0.
     999903    2    3    3    0    0 -0.10098701420E+00 -0.28761619458E-01 -0.74392493964E-01  0.13058902251E+00  0.22218052366E-01 0.  0.
         14    1    1    2    0    0 -0.20911949407E-02  0.22516964816E-01 -0.67368708590E-02  0.23596021481E-01  0.00000000000E+00 0. -1.
     999901    1    3    3    0    0  0.10307820914E+00  0.62446546421E-02  0.81129364823E-01  0.88974495601E+00  0.88000000000E+00 0.  1.
        -11    1    4    4    0    0 -0.64296547282E-01 -0.70313987559E-02 -0.44712443949E-01  0.78631738667E-01  0.51100000000E-03 0. -1.
         11    1    4    4    0    0 -0.36690466915E-01 -0.21730220702E-01 -0.29680050016E-01  0.51957283841E-01  0.51100000000E-03 0.  1.
</event>
<event>
 8    1  0.1170483E+005  0.1043930E+01  0.7957747E-01            NaN
         13   -1    0    0    0    0  0.00000000000E+00  0.00000000000E+00  0.74505805969E-08  0.10566000000E+00  0.10566000000E+00 0.  1.
     999900   -1    0    0    0    0 -0.00000000000E+00 -0.00000000000E+00 -0.74505805969E-08  0.93827000000E+00  0.93827000000E+00 0.  1.
     999902    2    1    2    0    0  0.23827892712E-01  0.10659952671E-01  0.94967901962E-03  0.10178090323E+01  0.10174737939E+01 0.  0.
     999903    2    3    3    0    0 -0.79234265746E-01 -0.75614461937E-02 -0.96033613074E-01  0.12631613453E+00  0.19951608067E-01 0.  0.
         14    1    1    2    0    0 -0.23827892712E-01 -0.10659952671E-01 -0.94967901962E-03  0.26120967675E-01  0.00000000000E+00 0.  1.
     999901    1    3    3    0    0  0.10306215846E+00  0.18221398865E-01  0.96983292094E-01  0.89149289780E+00  0.88000000000E+00 0.  1.
        -11    1    4    4    0    0 -0.14814071942E-01  0.59183824399E-02 -0.23071869568E-01  0.28054523068E-01  0.51100000000E-03 0. -1.
         11    1    4    4    0    0 -0.64420193804E-01 -0.13479828634E-01 -0.72961743506E-01  0.98261611457E-01  0.51100000000E-03 0.  1.
</event>
<event>
 8    1  0.1170483E+005  0.1043930E+01  0.7957747E-01            NaN
         13   -1    0    0    0    0  0.00000000000E+00  0.00000000000E+00  0.74505805969E-08  0.10566000000E+00  0.10566000000E+00 0.  1.
     999900   -1    0    0    0    0 -0.00000000000E+00 -0.00000000000E+00 -0.74505805969E-08  0.93827000000E+00  0.93827000000E+00 0.  1.
     999902    2    1    2    0    0  0.86115303930E-02 -0.22169890732E-01  0.63098248385E-02  0.10193235699E+01  0.10190265275E+01 0.  0.
     999903    2    3    3    0    0 -0.75292085489E-01 -0.86696693221E-01 -0.58654142555E-01  0.13060323032E+00  0.20776924175E-01 0.  0.
         14    1    1    2    0    0 -0.86115303930E-02  0.22169890732E-01 -0.63098248385E-02  0.24606430060E-01  0.00000000000E+00 0.  1.
     999901    1    3    3    0    0  0.83903615882E-01  0.64526802489E-01  0.64963967394E-01  0.88872033962E+00  0.88000000000E+00 0. -1.
        -11    1    4    4    0    0 -0.16182741809E-01 -0.33318683043E-01 -0.18959368044E-01  0.41614114550E-01  0.51100000000E-03 0. -1.
         11    1    4    4    0    0 -0.59109343680E-01 -0.53378010178E-01 -0.39694774512E-01  0.88989115769E-01  0.51100000000E-03 0.  1.
</event>
<event>
 8    1  0.1170483E+005  0.1043930E+01  0.7957747E-01            NaN
         13   -1    0    0    0    0  0.00000000000E+00  0.00000000000E+00  0.74505805969E-08  0.10566000000E+00  0.10566000000E+00 0.  1.
     999900   -1    0    0    0    0 -0.00000000000E+00 -0.00000000000E+00 -0.74505805969E-08  0.93827000000E+00  0.93827000000E+00 0. -1.
     999902    2    1    2    0    0  0.15811400719E-02 -0.13062260747E-01 -0.15424944042E-01  0.10236555935E+01  0.10234547975E+01 0.  0.
     999903    2    3    3    0    0  0.72849337808E-01 -0.65923500207E-01 -0.91767899558E-01  0.13590466363E+00  0.19894630158E-01 0.  0.
         14    1    1    2    0    0 -0.15811400719E-02  0.13062260747E-01  0.15424944042E-01  0.20274406488E-01  0.00000000000E+00 0.  1.
     999901    1    3    3    0    0 -0.71268197736E-01  0.52861239461E-01  0.76342955516E-01  0.88775092988E+00  0.88000000000E+00 0.  1.
        -11    1    4    4    0    0  0.28681941415E-01 -0.32987328660E-01 -0.29388284735E-01  0.52675895969E-01  0.51100000000E-03 0.  1.
         11    1    4    4    0    0  0.44167396393E-01 -0.32936171547E-01 -0.62379614823E-01  0.83228767663E-01  0.51100000000E-03 0. -1.
</event>
<event>
 8    1  0.1170483E+005  0.1043930E+01  0.7957747E-01            NaN
         13   -1    0    0    0    0  0.00000000000E+00  0.00000000000E+00  0.74505805969E-08  0.10566000000E+00  0.10566000000E+00 0. -1.
     999900   -1    0    0    0    0 -0.00000000000E+00 -0.00000000000E+00 -0.74505805969E-08  0.93827000000E+00  0.93827000000E+00 0.  1.
     999902    2    1    2    0    0  0.26622754151E-02  0.14080800275E-01 -0.19092776044E-01  0.10200576155E+01  0.10197782348E+01 0.  0.
     999903    2    3    3    0    0  0.12619855093E+00  0.21957043255E-01 -0.21033056518E-01  0.13139175516E+00  0.20327760620E-01 0.  0.
         14    1    1    2    0    0 -0.26622754151E-02 -0.14080800275E-01  0.19092776044E-01  0.23872384544E-01  0.00000000000E+00 0. -1.
     999901    1    3    3    0    0 -0.12353627551E+00 -0.78762429802E-02  0.19402804739E-02  0.88866586030E+00  0.88000000000E+00 0.  1.
        -11    1    4    4    0    0  0.10614085396E-01 -0.17161856043E-02  0.25756403182E-02  0.11067933225E-01  0.51100000000E-03 0.  1.
         11    1    4    4    0    0  0.11558446553E+00  0.23673228860E-01 -0.23608696836E-01  0.12032382193E+00  0.51100000000E-03 0. -1.
</event>
<event>
 8    1  0.1170483E+005  0.1043930E+01  0.7957747E-01            NaN
         13   -1    0    0    0    0  0.00000000000E+00  0.00000000000E+00  0.74505805969E-08  0.10566000000E+00  0.10566000000E+00 0. -1.
     999900   -1    0    0    0    0 -0.00000000000E+00 -0.00000000000E+00 -0.74505805969E-08  0.93827000000E+00  0.93827000000E+00 0. -1.
     999902    2    1    2    0    0 -0.23274411876E-01 -0.26829961207E-02 -0.64854859335E-02  0.10196203673E+01  0.10193305328E+01 0.  0.
     999903    2    3    3    0    0  0.51443833176E-02  0.12776865496E+00  0.40235256382E-03  0.12952334810E+00  0.20611694356E-01 0.  0.
         14    1    1    2    0    0  0.23274411876E-01  0.26829961207E-02  0.64854859335E-02  0.24309632744E-01  0.00000000000E+00 0.  1.
     999901    1    3    3    0    0 -0.28418795194E-01 -0.13045165109E+00 -0.68878384973E-02  0.89009701916E+00  0.88000000000E+00 0. -1.
        -11    1    4    4    0    0  0.84842523673E-02  0.93742083301E-01  0.80973971951E-02  0.94474280533E-01  0.51100000000E-03 0.  1.
         11    1    4    4    0    0 -0.33398690497E-02  0.34026571663E-01 -0.76950446313E-02  0.35049067567E-01  0.51100000000E-03 0. -1.
</event>
<event>
 8    1  0.1170483E+005  0.1043930E+01  0.7957747E-01            NaN
         13   -1    0    0    0    0  0.00000000000E+00  0.00000000000E+00  0.74505805969E-08  0.10566000000E+00  0.10566000000E+00 0.  1.
     999900   -1    0    0    0    0 -0.00000000000E+00 -0.00000000000E+00 -0.74505805969E-08  0.93827000000E+00  0.93827000000E+00 0. -1.
     999902    2    1    2    0    0  0.11850282144E-01  0.26179652609E-02 -0.31060002531E-01  0.10105832357E+01  0.10100329052E+01 0.  0.
     999903    2    3    3    0    0  0.10436601545E+00 -0.35929883360E-01  0.46703637010E-01  0.12148690734E+00  0.19864975381E-01 0.  0.
         14    1    1    2    0    0 -0.11850282144E-01 -0.26179652609E-02  0.31060002531E-01  0.33346764254E-01  0.00000000000E+00 0. -1.
     999901    1    3    3    0    0 -0.92515733306E-01  0.38547848621E-01 -0.77763639541E-01  0.88909632840E+00  0.88000000000E+00 0. -1.
        -11    1    4    4    0    0  0.39507724483E-01 -0.36017767022E-02  0.15939795804E-01  0.42757119881E-01  0.51100000000E-03 0.  1.
         11    1    4    4    0    0  0.64858290967E-01 -0.32328106658E-01  0.30763841206E-01  0.78729787464E-01  0.51100000000E-03 0. -1.
</event>
<event>
 8    1  0.1170483E+005  0.1043930E+01  0.7957747E-01            NaN
         13   -1    0    0    0    0  0.00000000000E+00  0.00000000000E+00  0.74505805969E-08  0.10566000000E+00  0.10566000000E+00 0.  1.
     999900   -1    0    0    0    0 -0.00000000000E+00 -0.00000000000E+00 -0.74505805969E-08  0.93827000000E+00  0.93827000000E+00 0. -1.
     999902    2    1    2    0    0 -0.24078988354E-01  0.78787609254E-02 -0.52961939185E-02  0.10180471442E+01  0.10177180678E+01 0.  0.
     999903    2    3    3    0    0  0.74777712360E-01  0.66505146189E-01  0.75480632038E-01  0.12690484584E+00  0.19821033025E-01 0.  0.
         14    1    1    2    0    0  0.24078988354E-01 -0.78787609254E-02  0.52961939185E-02  0.25882855791E-01  0.00000000000E+00 0.  1.
     999901    1    3    3    0    0 -0.98856700714E-01 -0.58626385264E-01 -0.80776825956E-01  0.89114229837E+00  0.88000000000E+00 0. -1.
        -11    1    4    4    0    0  0.22579255897E-01  0.10888124889E-01  0.12653658404E-01  0.28084697835E-01  0.51100000000E-03 0.  1.
         11    1    4    4    0    0  0.52198456463E-01  0.55617021300E-01  0.62826973634E-01  0.98820148008E-01  0.51100000000E-03 0. -1.
</event>
<event>
 8    1  0.1170483E+005  0.1043930E+01  0.7957747E-01            NaN
         13   -1    0    0    0    0  0.00000000000E+00  0.00000000000E+00  0.74505805969E-08  0.10566000000E+00  0.10566000000E+00 0.  1.
     999900   -1    0    0    0    0 -0.00000000000E+00 -0.00000000000E+00 -0.74505805969E-08  0.93827000000E+00  0.93827000000E+00 0.  1.
     999902    2    1    2    0    0  0.62831958566E-02 -0.22140381468E-01 -0.47203105169E-02  0.10204362482E+01  0.10201657612E+01 0.  0.
     999903    2    3    3    0    0 -0.98358355175E-01 -0.78224249923E-02  0.81797316219E-01  0.12990822630E+00  0.21208252011E-01 0.  0.
         14    1    1    2    0    0 -0.62831958566E-02  0.22140381468E-01  0.47203105169E-02  0.23493751789E-01  0.00000000000E+00 0.  1.
     999901    1    3    3    0    0  0.10464155103E+00 -0.14317956476E-01 -0.86517626736E-01  0.89052802192E+00  0.88000000000E+00 0.  1.
        -11    1    4    4    0    0 -0.69237631750E-01 -0.11897363797E-01  0.47890620687E-01  0.85024523441E-01  0.51100000000E-03 0. -1.
         11    1    4    4    0    0 -0.29120723425E-01  0.40749388043E-02  0.33906695533E-01  0.44883702855E-01  0.51100000000E-03 0.  1.
</event>
<event>
 8    1  0.1170483E+005  0.1043930E+01  0.7957747E-01            NaN
         13   -1    0    0    0    0  0.00000000000E+00  0.00000000000E+00  0.74505805969E-08  0.10566000000E+00  0.10566000000E+00 0. -1.
     999900   -1    0    0    0    0 -0.00000000000E+00 -0.00000000000E+00 -0.74505805969E-08  0.93827000000E+00  0.93827000000E+00 0.  1.
     999902    2    1    2    0    0 -0.62941988139E-02 -0.18542272297E-02 -0.20666877327E-01  0.10222464829E+01  0.10220164856E+01 0.  0.
     999903    2    3    3    0    0 -0.58317319910E-01 -0.38948925160E-01 -0.11341227790E+00  0.13506886193E+00  0.21524964866E-01 0.  0.
         14    1    1    2    0    0  0.62941988139E-02  0.18542272297E-02  0.20666877327E-01  0.21683517145E-01  0.00000000000E+00 0. -1.
     999901    1    3    3    0    0  0.52023121096E-01  0.37094697931E-01  0.92745400572E-01  0.88717762093E+00  0.88000000000E+00 0. -1.
        -11    1    4    4    0    0 -0.33250034797E-01 -0.10927271066E-01 -0.64361702614E-01  0.73264315675E-01  0.51100000000E-03 0.  1.
         11    1    4    4    0    0 -0.25067285113E-01 -0.28021654095E-01 -0.49050575285E-01  0.61804546256E-01  0.51100000000E-03 0. -1.
</event>
<event>
 8    1  0.1170483E+005  0.1043930E+01  0.7957747E-01            NaN
         13   -1    0    0    0    0  0.00000000000E+00  0.00000000000E+00  0.74505805969E-08  0.10566000000E+00  0.10566000000E+00 0.  1.
     999900   -1    0    0    0    0 -0.00000000000E+00 -0.00000000000E+00 -0.74505805969E-08  0.93827000000E+00  0.93827000000E+00 0.  1.
     999902    2    1    2    0    0 -0.14647702313E-01 -0.11290837375E-01 -0.15304034663E-01  0.10199247575E+01  0.10196422212E+01 0.  0.
     999903    2    3    3    0    0  0.80689501219E-01  0.32308843084E-01 -0.94697477776E-01  0.13015319504E+00  0.20434894991E-01 0.  0.
         14    1    1    2    0    0  0.14647702313E-01  0.11290837375E-01  0.15304034663E-01  0.24005242524E-01  0.00000000000E+00 0. -1.
     999901    1    3    3    0    0 -0.95337203531E-01 -0.43599680458E-01  0.79393443114E-01  0.88977156244E+00  0.88000000000E+00 0. -1.
        -11    1    4    4    0    0  0.78281969559E-01  0.27407238215E-01 -0.92510520015E-01  0.12424846437E+00  0.51100000000E-03 0. -1.
         11    1    4    4    0    0  0.24075316594E-02  0.49016048689E-02 -0.21869577609E-02  0.59047306653E-02  0.51100000000E-03 0.  1.
</event>
<event>
 8    1  0.1170483E+005  0.1043930E+01  0.7957747E-01            NaN
         13   -1    0    0    0    0  0.00000000000E+00  0.00000000000E+00  0.74505805969E-08  0.10566000000E+00  0.10566000000E+00 0. -1.
     999900   -1    0    0    0    0 -0.00000000000E+00 -0.00000000000E+00 -0.74505805969E-08  0.93827000000E+00  0.93827000000E+00 0. -1.
     999902    2    1    2    0    0 -0.23261649623E-01 -0.11570023870E-03 -0.44668033543E-02  0.10202430825E+01  0.10199680766E+01 0.  0.
     999903    2    3    3    0    0  0.11569226966E+00 -0.50686091419E-01 -0.10862899195E-02  0.12789954772E+00  0.20083156075E-01 0.  0.
         14    1    1    2    0    0  0.23261649623E-01  0.11570023870E-03  0.44668033543E-02  0.23686917527E-01  0.00000000000E+00 0. -1.
     999901    1    3    3    0    0 -0.13895391928E+00  0.50570391180E-01 -0.33805134348E-02  0.89234353476E+00  0.88000000000E+00 0. -1.
        -11    1    4    4    0    0  0.10262244714E+00 -0.38233073720E-01 -0.40943661764E-02  0.10959087342E+00  0.51100000000E-03 0.  1.
         11    1    4    4    0    0  0.13069822523E-01 -0.12453017698E-01  0.30080762569E-02  0.18308674292E-01  0.51100000000E-03 0. -1.
</event>
<event>
 8    1  0.1170483E+005  0.1043930E+01  0.7957747E-01            NaN
         13   -1    0    0    0    0  0.00000000000E+00  0.00000000000E+00  0.74505805969E-08  0.10566000000E+00  0.10566000000E+00 0.  1.
     999900   -1    0    0    0    0 -0.00000000000E+00 -0.00000000000E+00 -0.74505805969E-08  0.93827000000E+00  0.93827000000E+00 0. -1.
     999902    2    1    2    0    0  0.12099057182E-01  0.21141397695E-01  0.13859356455E-03  0.10195709136E+01  0.10192798844E+01 0.  0.
     999903    2    3    3    0    0 -0.10718109647E+00  0.64083384879E-01 -0.29027636283E-01  0.13000785330E+00  0.21563176762E-01 0.  0.
         14    1    1    2    0    0 -0.12099057182E-01 -0.21141397695E-01 -0.13859356455E-03  0.24359086383E-01  0.00000000000E+00 0. -1.
     999901    1    3    3    0    0  0.11928015366E+00 -0.42941987184E-01  0.29166229847E-01  0.88956306032E+00  0.88000000000E+00 0. -1.
        -11    1    4    4    0    0 -0.52575160039E-01  0.24140210873E-01 -0.22350310479E-01  0.62021727915E-01  0.51100000000E-03 0.  1.
         11    1    4    4    0    0 -0.54605936436E-01  0.39943174007E-01 -0.66773258037E-02  0.67986125384E-01  0.51100000000E-03 0. -1.
</event>
<event>
 8    1  0.1170483E+005  0.1043930E+01  0.7957747E-01            NaN
         13   -1    0    0    0    0  0.00000000000E+00  0.00000000000E+00  0.74505805969E-08  0.10566000000E+00  0.10566000000E+00 0. -1.
     999900   -1    0    0    0    0 -0.00000000000E+00 -0.00000000000E+00 -0.74505805969E-08  0.93827000000E+00  0.93827000000E+00 0. -1.
     999902    2    1    2    0    0  0.75303986237E-02 -0.20697848290E-01  0.10787433246E-01  0.10194049813E+01  0.10191099250E+01 0.  0.
     999903    2    3    3    0    0  0.24572314979E-01  0.11168484106E+00  0.55155655957E-01  0.12823488386E+00  0.18020451381E-01 0.  0.
         14    1    1    2    0    0 -0.75303986237E-02  0.20697848290E-01 -0.10787433246E-01  0.24525018722E-01  0.00000000000E+00 0. -1.
     999901    1    3    3    0    0 -0.17041916356E-01 -0.13238268935E+00 -0.44368222711E-01  0.89117009742E+00  0.88000000000E+00 0.  1.
        -11    1    4    4    0    0  0.47740543355E-02  0.29993842789E-01  0.63380440865E-02  0.31029890814E-01  0.51100000000E-03 0.  1.
         11    1    4    4    0    0  0.19798260644E-01  0.81690998269E-01  0.48817611871E-01  0.97204993043E-01  0.51100000000E-03 0. -1.
</event>
<event>
 8    1  0.1170483E+005  0.1043930E+01  0.7957747E-01            NaN
         13   -1    0    0    0    0  0.00000000000E+00  0.00000000000E+00  0.74505805969E-08  0.10566000000E+00  0.10566000000E+00 0. -1.
     999900   -1    0    0    0    0 -0.00000000000E+00 -0.00000000000E+00 -0.74505805969E-08  0.93827000000E+00  0.93827000000E+00 0. -1.
     999902    2    1    2    0    0  0.23357731263E-01 -0.21741165047E-02 -0.35841706436E-02  0.10201990777E+01  0.10199230371E+01 0.  0.
     999903    2    3    3    0    0  0.98716321478E-01 -0.17614859174E-01 -0.85017487091E-01  0.13309777648E+00  0.20780991412E-01 0.  0.
         14    1    1    2    0    0 -0.23357731263E-01  0.21741165047E-02  0.35841706436E-02  0.23730922264E-01  0.00000000000E+00 0.  1.
     999901    1    3    3    0    0 -0.75358590216E-01  0.15440742669E-01  0.81433316447E-01  0.88710130125E+00  0.88000000000E+00 0.  1.
        -11    1    4    4    0    0  0.79553435826E-01 -0.18652358956E-01 -0.59102395924E-01  0.10084648715E+00  0.51100000000E-03 0. -1.
         11    1    4    4    0    0  0.19162885652E-01  0.10374997823E-02 -0.25915091167E-01  0.32251289331E-01  0.51100000000E-03 0.  1.
</event>
<event>
 8    1  0.1170483E+005  0.1043930E+01  0.7957747E-01            NaN
         13   -1    0    0    0    0  0.00000000000E+00  0.00000000000E+00  0.74505805969E-08  0.10566000000E+00  0.10566000000E+00 0. -1.
     999900   -1    0    0    0    0 -0.00000000000E+00 -0.00000000000E+00 -0.74505805969E-08  0.93827000000E+00  0.93827000000E+00 0. -1.
     999902    2    1    2    0    0  0.10554319935E-01  0.69064730784E-02 -0.19835968053E-01  0.10204234335E+01  0.10201526479E+01 0.  0.
     999903    2    3    3    0    0 -0.77383506024E-01  0.34467766219E-01  0.94507996514E-01  0.12825347865E+00  0.18465087827E-01 0.  0.
         14    1    1    2    0    0 -0.10554319935E-01 -0.69064730784E-02  0.19835968053E-01  0.23506566493E-01  0.00000000000E+00 0. -1.
     999901    1    3    3    0    0  0.87937825959E-01 -0.27561293141E-01 -0.11434396457E+00  0.89216995486E+00  0.88000000000E+00 0. -1.
        -11    1    4    4    0    0 -0.18301200050E-01  0.13043733465E-01  0.35661576637E-01  0.42155451310E-01  0.51100000000E-03 0. -1.
         11    1    4    4    0    0 -0.59082305974E-01  0.21424032754E-01  0.58846419878E-01  0.86098027341E-01  0.51100000000E-03 0.  1.
</event>
<event>
 8    1  0.1170483E+005  0.1043930E+01  0.7957747E-01            NaN
         13   -1    0    0    0    0  0.00000000000E+00  0.00000000000E+00  0.74505805969E-08  0.10566000000E+00  0.10566000000E+00 0. -1.
     999900   -1    0    0    0    0 -0.00000000000E+00 -0.00000000000E+00 -0.74505805969E-08  0.93827000000E+00  0.93827000000E+00 0. -1.
     999902    2    1    2    0    0  0.71183856807E-02  0.19493658271E-01 -0.18645672456E-01  0.10160313400E+01  0.10156482406E+01 0.  0.
     999903    2    3    3    0    0  0.12501336301E+00 -0.38243661840E-02 -0.16949774125E-01  0.12786140582E+00  0.20451834786E-01 0.  0.
         14    1    1    2    0    0 -0.71183856807E-02 -0.19493658271E-01  0.18645672456E-01  0.27898659982E-01  0.00000000000E+00 0. -1.
     999901    1    3    3    0    0 -0.11789497733E+00  0.23318024455E-01 -0.16958983308E-02  0.88816993420E+00  0.88000000000E+00 0. -1.
        -11    1    4    4    0    0  0.42308391445E-01  0.48791417514E-02  0.17265589751E-02  0.42626847617E-01  0.51100000000E-03 0. -1.
         11    1    4    4    0    0  0.82704971569E-01 -0.87035079354E-02 -0.18676333100E-01  0.85234558201E-01  0.51100000000E-03 0.  1.
</event>
<event>
 8    1  0.1170483E+005  0.1043930E+01  0.7957747E-01            NaN
         13   -1    0    0    0    0  0.00000000000E+00  0.00000000000E+00  0.74505805969E-08  0.10566000000E+00  0.10566000000E+00 0.  1.
     999900   -1    0    0    0    0 -0.00000000000E+00 -0.00000000000E+00 -0.74505805969E-08  0.93827000000E+00  0.93827000000E+00 0.  1.
     999902    2    1    2    0    0  0.33160045204E-02 -0.94225084911E-03 -0.23515646276E-01  0.10201630199E+01  0.10198861298E+01 0.  0.
     999903    2    3    3    0    0 -0.86047932235E-02  0.90356418917E-01 -0.94452323558E-01  0.13252031888E+00  0.20051647904E-01 0.  0.
         14    1    1    2    0    0 -0.33160045204E-02  0.94225084911E-03  0.23515646276E-01  0.23766980087E-01  0.00000000000E+00 0.  1.
     999901    1    3    3    0    0  0.11920797744E-01 -0.91298669766E-01  0.70936677282E-01  0.88764270104E+00  0.88000000000E+00 0.  1.
        -11    1    4    4    0    0 -0.44351854222E-02  0.74714743305E-01 -0.66046328966E-01  0.99821552922E-01  0.51100000000E-03 0. -1.
         11    1    4    4    0    0 -0.41696078013E-02  0.15641675612E-01 -0.28405994593E-01  0.32698765955E-01  0.51100000000E-03 0.  1.
</event>
<event>
 7    1  0.1170483E+005  0.1043930E+01  0.7957747E-01            NaN
         13   -1    0    0    0    0  0.00000000000E+00  0.00000000000E+00  0.74505805969E-08  0.10566000000E+00  0.10566000000E+00 0. -1.
     999900   -1    0    0    0    0 -0.00000000000E+00 -0.00000000000E+00 -0.74505805969E-08  0.93827000000E+00  0.93827000000E+00 0. -1.
     999903    2    1    2    0    0  0.67583376189E-01 -0.86905423781E-02 -0.13572189743E-01  0.72310580930E-01  0.20039399094E-01 0.  0.
         14    1    1    2    0    0  0.68907996988E-01 -0.38957221101E-01  0.10237025089E-01  0.79817127281E-01  0.00000000000E+00 0. -1.
     999901    1    1    2    0    0 -0.13649137318E+00  0.47647763479E-01  0.33351646540E-02  0.89180229179E+00  0.88000000000E+00 0. -1.
        -11    1    3    3    0    0  0.60283317173E-01 -0.50465213682E-02 -0.53765732121E-02  0.60734787131E-01  0.51100000000E-03 0. -1.
         11    1    3    3    0    0  0.73000590163E-02 -0.36440210099E-02 -0.81956165309E-02  0.11575793799E-01  0.51100000000E-03 0.  1.
</event>
<event>
 8    1  0.1170483E+005  0.1043930E+01  0.7957747E-01            NaN
         13   -1    0    0    0    0  0.00000000000E+00  0.00000000000E+00  0.74505805969E-08  0.10566000000E+00  0.10566000000E+00 0. -1.
     999900   -1    0    0    0    0 -0.00000000000E+00 -0.00000000000E+00 -0.74505805969E-08  0.93827000000E+00  0.93827000000E+00 0. -1.
     999902    2    1    2    0    0 -0.14051994605E-02  0.14555364926E-01  0.18008458004E-01  0.10207322028E+01  0.10204685650E+01 0.  0.
     999903    2    3    3    0    0  0.12409909036E+00  0.23777521365E-01  0.31960479934E-01  0.13167031868E+00  0.18698817966E-01 0.  0.
         14    1    1    2    0    0  0.14051994605E-02 -0.14555364926E-01 -0.18008458004E-01  0.23197797165E-01  0.00000000000E+00 0.  1.
     999901    1    3    3    0    0 -0.12550428982E+00 -0.92221564390E-02 -0.13952021930E-01  0.88906188415E+00  0.88000000000E+00 0. -1.
        -11    1    4    4    0    0  0.91133797701E-01  0.25517932019E-01  0.21682917763E-01  0.97092450694E-01  0.51100000000E-03 0. -1.
         11    1    4    4    0    0  0.32965292662E-01 -0.17404106542E-02  0.10277562171E-01  0.34577867990E-01  0.51100000000E-03 0.  1.
</event>
<event>
 8    1  0.1170483E+005  0.1043930E+01  0.7957747E-01            NaN
         13   -1    0    0    0    0  0.00000000000E+00  0.00000000000E+00  0.74505805969E-08  0.10566000000E+00  0.10566000000E+00 0. -1.
     999900   -1    0    0    0    0 -0.00000000000E+00 -0.00000000000E+00 -0.74505805969E-08  0.93827000000E+00  0.93827000000E+00 0.  1.
     999902    2    1    2    0    0 -0.23407532375E-01 -0.11525035898E-01  0.10665032678E-01  0.10157434439E+01  0.10153522846E+01 0.  0.
     999903    2    3    3    0    0  0.85190877665E-01  0.87610694164E-01 -0.61900560709E-02  0.12338387416E+00  0.15879050337E-01 0.  0.
         14    1    1    2    0    0  0.23407532375E-01  0.11525035898E-01 -0.10665032678E-01  0.28186556128E-01  0.00000000000E+00 0. -1.
     999901    1    3    3    0    0 -0.10859841004E+00 -0.99135730062E-01  0.16855088749E-01  0.89235956971E+00  0.88000000000E+00 0.  1.
        -11    1    4    4    0    0  0.76481479100E-01  0.71809288351E-01 -0.23878989888E-02  0.10493785647E+00  0.51100000000E-03 0.  1.
         11    1    4    4    0    0  0.87093985649E-02  0.15801405813E-01 -0.38021570821E-02  0.18446017687E-01  0.51100000000E-03 0. -1.
</event>
<event>
 8    1  0.1170483E+005  0.1043930E+01  0.7957747E-01            NaN
         13   -1    0    0    0    0  0.00000000000E+00  0.00000000000E+00  0.74505805969E-08  0.10566000000E+00  0.10566000000E+00 0.  1.
     999900   -1    0    0    0    0 -0.00000000000E+00 -0.00000000000E+00 -0.74505805969E-08  0.93827000000E+00  0.93827000000E+00 0. -1.
     999902    2    1    2    0    0 -0.61630456714E-02  0.61955927387E-03  0.24879782678E-01  0.10182907611E+01  0.10179679285E+01 0.  0.
     999903    2    3    3    0    0  0.58571473017E-01 -0.11163214031E+00  0.17154125848E-01  0.12876803078E+00  0.19864277349E-01 0.  0.
         14    1    1    2    0    0  0.61630456714E-02 -0.61955927387E-03 -0.24879782678E-01  0.25639238907E-01  0.00000000000E+00 0. -1.
     999901    1    3    3    0    0 -0.64734518689E-01  0.11225169959E+00  0.77256568300E-02  0.88952273031E+00  0.88000000000E+00 0.  1.
        -11    1    4    4    0    0  0.23963655692E-01 -0.66611475425E-01  0.11121788967E-01  0.71661012854E-01  0.51100000000E-03 0.  1.
         11    1    4    4    0    0  0.34607817325E-01 -0.45020664889E-01  0.60323368811E-02  0.57107017925E-01  0.51100000000E-03 0. -1.
</event>
<event>
 8    1  0.1170483E+005  0.1043930E+01  0.7957747E-01            NaN
         13   -1    0    0    0    0  0.00000000000E+00  0.00000000000E+00  0.74505805969E-08  0.10566000000E+00  0.10566000000E+00 0. -1.
     999900   -1    0    0    0    0 -0.00000000000E+00 -0.00000000000E+00 -0.74505805969E-08  0.93827000000E+00  0.93827000000E+00 0. -1.
     999902    2    1    2    0    0  0.15270263713E-01  0.20453382324E-01 -0.32239930694E-03  0.10184030389E+01  0.10180830633E+01 0.  0.
     999903    2    3    3    0    0  0.12819621363E+00  0.15337727680E-01  0.79032891419E-02  0.13113413825E+00  0.21544956620E-01 0.  0.
         14    1    1    2    0    0 -0.15270263713E-01 -0.20453382324E-01  0.32239930694E-03  0.25526961113E-01  0.00000000000E+00 0.  1.
     999901    1    3    3    0    0 -0.11292594992E+00  0.51156546439E-02 -0.82256884489E-02  0.88726890064E+00  0.88000000000E+00 0.  1.
        -11    1    4    4    0    0  0.89907848066E-01  0.20545633619E-01  0.44108165123E-02  0.92332337932E-01  0.51100000000E-03 0.  1.
         11    1    4    4    0    0  0.38288365564E-01 -0.52079059388E-02  0.34924726297E-02  0.38801800318E-01  0.51100000000E-03 0. -1.
</event>
<event>
 8    1  0.1170483E+005  0.1043930E+01  0.7957747E-01            NaN
         13   -1    0    0    0    0  0.00000000000E+00  0.00000000000E+00  0.74505805969E-08  0.10566000000E+00  0.10566000000E+00 0.  1.
     999900   -1    0    0    0    0 -0.00000000000E+00 -0.00000000000E+00 -0.74505805969E-08  0.93827000000E+00  0.93827000000E+00 0.  1.
     999902    2    1    2    0    0 -0.22565815322E-01 -0.81985740807E-03 -0.71230989521E-02  0.10202524426E+01  0.10199776565E+01 0.  0.
     999903    2    3    3    0    0  0.51087340988E-01 -0.75213317716E-01  0.89254434040E-01  0.12882224158E+00  0.19022522388E-01 0.  0.
         14    1    1    2    0    0  0.22565815322E-01  0.81985740807E-03  0.71230989521E-02  0.23677557433E-01  0.00000000000E+00 0.  1.
     999901    1    3    3    0    0 -0.73653156310E-01  0.74393460308E-01 -0.96377532992E-01  0.89143020099E+00  0.88000000000E+00 0.  1.
        -11    1    4    4    0    0  0.33206715224E-02 -0.85905936342E-03  0.82050553689E-02  0.89077997820E-02  0.51100000000E-03 0.  1.
         11    1    4    4    0    0  0.47766669466E-01 -0.74354258353E-01  0.81049378671E-01  0.11991444179E+00  0.51100000000E-03 0. -1.
</event>
<event>
 8    1  0.1170483E+005  0.1043930E+01  0.7957747E-01            NaN
         13   -1    0    0    0    0  0.00000000000E+00  0.00000000000E+00  0.74505805969E-08  0.10566000000E+00  0.10566000000E+00 0. -1.
     999900   -1    0    0    0    0 -0.00000000000E+00 -0.00000000000E+00 -0.74505805969E-08  0.93827000000E+00  0.93827000000E+00 0.  1.
     999902    2    1    2    0    0  0.16290623351E-01 -0.13245864395E-01 -0.51920547869E-02  0.10223014363E+01  0.10220726158E+01 0.  0.
     999903    2    3    3    0    0  0.11763366332E+00 -0.20418374265E-01  0.57817005305E-01  0.13421810788E+00  0.20423163963E-01 0.  0.
         14    1    1    2    0    0 -0.16290623351E-01  0.13245864395E-01  0.51920547869E-02  0.21628563652E-01  0.00000000000E+00 0.  1.
     999901    1    3    3    0    0 -0.10134303997E+00  0.71725098707E-02 -0.63009060092E-01  0.88808332847E+00  0.88000000000E+00 0.  1.
        -11    1    4    4    0    0  0.82906682092E-01 -0.23420876943E-01  0.43771283339E-01  0.96634578585E-01  0.51100000000E-03 0. -1.
         11    1    4    4    0    0  0.34726981231E-01  0.30025026772E-02  0.14045721966E-01  0.37583529295E-01  0.51100000000E-03 0.  1.
</event>
<event>
 8    1  0.1170483E+005  0.1043930E+01  0.7957747E-01            NaN
         13   -1    0    0    0    0  0.00000000000E+00  0.00000000000E+00  0.74505805969E-08  0.10566000000E+00  0.10566000000E+00 0. -1.
     999900   -1    0    0    0    0 -0.00000000000E+00 -0.00000000000E+00 -0.74505805969E-08  0.93827000000E+00  0.93827000000E+00 0. -1.
     999902    2    1    2    0    0 -0.16827597338E-02 -0.10800824264E-01 -0.21240696685E-01  0.10200415785E+01  0.10197618179E+01 0.  0.
     999903    2    3    3    0    0  0.13764836587E-01  0.90167647387E-01 -0.92317106471E-01  0.13128676614E+00  0.19851736831E-01 0.  0.
         14    1    1    2    0    0  0.16827597338E-02  0.10800824264E-01  0.21240696685E-01  0.23888421479E-01  0.00000000000E+00 0. -1.
     999901    1    3    3    0    0 -0.15447596321E-01 -0.10096847165E+00  0.71076409786E-01  0.88875481238E+00  0.88000000000E+00 0.  1.
        -11    1    4    4    0    0  0.18643677317E-01  0.62847373098E-01 -0.63223370252E-01  0.91075982983E-01  0.51100000000E-03 0.  1.
         11    1    4    4    0    0 -0.48788407298E-02  0.27320274288E-01 -0.29093736218E-01  0.40210783158E-01  0.51100000000E-03 0. -1.
</event>
<event>
 8    1  0.1170483E+005  0.1043930E+01  0.7957747E-01            NaN
         13   -1    0    0    0    0  0.00000000000E+00  0.00000000000E+00  0.74505805969E-08  0.10566000000E+00  0.10566000000E+00 0.  1.
     999900   -1    0    0    0    0 -0.00000000000E+00 -0.00000000000E+00 -0.74505805969E-08  0.93827000000E+00  0.93827000000E+00 0.  1.
     999902    2    1    2    0    0  0.28337849167E-02  0.11109096416E-01  0.21060678993E-01  0.10199509558E+01  0.10196690432E+01 0.  0.
     999903    2    3    3    0    0 -0.85779191312E-01  0.19119431792E-01 -0.91427898226E-01  0.12833999524E+00  0.19709679582E-01 0.  0.
         14    1    1    2    0    0 -0.28337849167E-02 -0.11109096416E-01 -0.21060678993E-01  0.23979044179E-01  0.00000000000E+00 0. -1.
     999901    1    3    3    0    0  0.88612976228E-01 -0.80103353765E-02  0.11248857722E+00  0.89161096058E+00  0.88000000000E+00 0. -1.
        -11    1    4    4    0    0 -0.66012998947E-01  0.23018806093E-01 -0.71134795088E-01  0.99739669426E-01  0.51100000000E-03 0.  1.
         11    1    4    4    0    0 -0.19766192364E-01 -0.38993743010E-02 -0.20293103138E-01  0.28600325811E-01  0.51100000000E-03 0. -1.
</event>
<event>
 8    1  0.1170483E+005  0.1043930E+01  0.7957747E-01            NaN
         13   -1    0    0    0    0  0.00000000000E+00  0.00000000000E+00  0.74505805969E-08  0.10566000000E+00  0.10566000000E+00 0.  1.
     999900   -1    0    0    0    0 -0.00000000000E+00 -0.00000000000E+00 -0.74505805969E-08  0.93827000000E+00  0.93827000000E+00 0. -1.
     999902    2    1    2    0    0  0.87133606067E-02 -0.19613454544E-02  0.21836481966E-01  0.10203375971E+01  0.10200648071E+01 0.  0.
     999903    2    3    3    0    0 -0.93232463781E-01  0.41878059987E-01 -0.74453300131E-01  0.12815680450E+00  0.20852060540E-01 0.  0.
         14    1    1    2    0    0 -0.87133606067E-02  0.19613454544E-02 -0.21836481966E-01  0.23592402881E-01  0.00000000000E+00 0. -1.
     999901    1    3    3    0    0  0.10194582439E+00 -0.43839405441E-01  0.96289782096E-01  0.89218079262E+00  0.88000000000E+00 0. -1.
        -11    1    4    4    0    0 -0.73690074957E-01  0.23479737476E-01 -0.57962025962E-01  0.96650829245E-01  0.51100000000E-03 0. -1.
         11    1    4    4    0    0 -0.19542388824E-01  0.18398322511E-01 -0.16491274169E-01  0.31505975256E-01  0.51100000000E-03 0.  1.
</event>
<event>
 8    1  0.1170483E+005  0.1043930E+01  0.7957747E-01            NaN
         13   -1    0    0    0    0  0.00000000000E+00  0.00000000000E+00  0.74505805969E-08  0.10566000000E+00  0.10566000000E+00 0. -1.
     999900   -1    0    0    0    0 -0.00000000000E+00 -0.00000000000E+00 -0.74505805969E-08  0.93827000000E+00  0.93827000000E+00 0. -1.
     999902    2    1    2    0    0  0.19940555320E-01 -0.57576584869E-02  0.11100289215E-01  0.10203929484E+01  0.10201214518E+01 0.  0.
     999903    2    3    3    0    0 -0.29715781215E-01  0.30732252858E-01  0.12237996414E+00  0.13124704842E+00  0.20528835240E-01 0.  0.
         14    1    1    2    0    0 -0.19940555320E-01  0.57576584869E-02 -0.11100289215E-01  0.23537051608E-01  0.00000000000E+00 0.  1.
     999901    1    3    3    0    0  0.49656336535E-01 -0.36489911345E-01 -0.11127967493E+00  0.88914589997E+00  0.88000000000E+00 0. -1.
        -11    1    4    4    0    0 -0.24116921406E-01  0.31382725350E-01  0.89200969063E-01  0.97588807510E-01  0.51100000000E-03 0. -1.
         11    1    4    4    0    0 -0.55988598094E-02 -0.65047249120E-03  0.33178995079E-01  0.33658240909E-01  0.51100000000E-03 0.  1.
</event>
<event>
 7    1  0.1170483E+005  0.1043930E+01  0.7957747E-01            NaN
         13   -1    0    0    0    0  0.00000000000E+00  0.00000000000E+00  0.74505805969E-08  0.10566000000E+00  0.10566000000E+00 0. -1.
     999900   -1    0    0    0    0 -0.00000000000E+00 -0.00000000000E+00 -0.74505805969E-08  0.93827000000E+00  0.93827000000E+00 0. -1.
     999902    2    1    2    0    0  0.78532743908E-02 -0.15236193897E-01 -0.16665741817E-01  0.10200226272E+01  0.10197424173E+01 0.  0.
         14    1    1    2    0    0 -0.78532743908E-02  0.15236193897E-01  0.16665741817E-01  0.23907372784E-01  0.00000000000E+00 0. -1.
     999901    1    3    3    0    0 -0.97451663659E-01 -0.27589075242E-01 -0.83755363583E-01  0.88976004897E+00  0.88000000000E+00 0. -1.
        -11    1    3    3    0    0  0.94397604638E-01 -0.74220811435E-03  0.53895932905E-01  0.10870368595E+00  0.51100000000E-03 0. -1.
         11    1    3    3    0    0  0.10907333412E-01  0.13095089459E-01  0.13193688860E-01  0.21558892292E-01  0.51100000000E-03 0.  1.
</event>
<event>
 8    1  0.1170483E+005  0.1043930E+01  0.7957747E-01            NaN
         13   -1    0    0    0    0  0.00000000000E+00  0.00000000000E+00  0.74505805969E-08  0.10566000000E+00  0.10566000000E+00 0.  1.
     999900   -1    0    0    0    0 -0.00000000000E+00 -0.00000000000E+00 -0.74505805969E-08  0.93827000000E+00  0.93827000000E+00 0.  1.
     999902    2    1    2    0    0 -0.13712044238E-01  0.27574832140E-02  0.16381391933E-01  0.10223899472E+01  0.10221630156E+01 0.  0.
     999903    2    3    3    0    0  0.67179869511E-01 -0.29453075718E-01 -0.10514545648E+00  0.12978152431E+00  0.20175690726E-01 0.  0.
         14    1    1    2    0    0  0.13712044238E-01 -0.27574832140E-02 -0.16381391933E-01  0.21540052751E-01  0.00000000000E+00 0.  1.
     999901    1    3    3    0    0 -0.80891913749E-01  0.32210558932E-01  0.12152684842E+00  0.89260842294E+00  0.88000000000E+00 0. -1.
        -11    1    4    4    0    0  0.46763463173E-01 -0.29995699788E-01 -0.79581758963E-01  0.97057101618E-01  0.51100000000E-03 0.  1.
         11    1    4    4    0    0  0.20416406337E-01  0.54262406978E-03 -0.25563697520E-01  0.32724422692E-01  0.51100000000E-03 0. -1.
</event>
<event>
 8    1  0.1170483E+005  0.1043930E+01  0.7957747E-01            NaN
         13   -1    0    0    0    0  0.00000000000E+00  0.00000000000E+00  0.74505805969E-08  0.10566000000E+00  0.10566000000E+00 0. -1.
     999900   -1    0    0    0    0 -0.00000000000E+00 -0.00000000000E+00 -0.74505805969E-08  0.93827000000E+00  0.93827000000E+00 0.  1.
     999902    2    1    2    0    0 -0.21064614982E-01 -0.90126550327E-02  0.11248624789E-02  0.10209907047E+01  0.10207329757E+01 0.  0.
     999903    2    3    3    0    0 -0.11836490256E+00  0.57273864415E-01 -0.27629299656E-02  0.13314141365E+00  0.20699191859E-01 0.  0.
         14    1    1    2    0    0  0.21064614982E-01  0.90126550327E-02 -0.11248624789E-02  0.22939295340E-01  0.00000000000E+00 0.  1.
     999901    1    3    3    0    0  0.97300287574E-01 -0.66286519448E-01  0.38877924445E-02  0.88784929101E+00  0.88000000000E+00 0. -1.
        -11    1    4    4    0    0 -0.86656405566E-01  0.51606451629E-01 -0.34437376174E-02  0.10091917026E+00  0.51100000000E-03 0. -1.
         11    1    4    4    0    0 -0.31708496990E-01  0.56674127861E-02  0.68080765182E-03  0.32222243391E-01  0.51100000000E-03 0.  1.
</event>
<event>
 8    1  0.1170483E+005  0.1043930E+01  0.7957747E-01            NaN
         13   -1    0    0    0    0  0.00000000000E+00  0.00000000000E+00  0.74505805969E-08  0.10566000000E+00  0.10566000000E+00 0.  1.
     999900   -1    0    0    0    0 -0.00000000000E+00 -0.00000000000E+00 -0.74505805969E-08  0.93827000000E+00  0.93827000000E+00 0. -1.
     999902    2    1    2    0    0 -0.19975175693E-01  0.11903714037E-01  0.23359643572E-02  0.10205598742E+01  0.10202922591E+01 0.  0.
     999903    2    3    3    0    0 -0.24421256325E-01  0.75124248488E-01 -0.10375301835E+00  0.13192526092E+00  0.19988376167E-01 0.  0.
         14    1    1    2    0    0  0.19975175693E-01 -0.11903714037E-01 -0.23359643572E-02  0.23370125830E-01  0.00000000000E+00 0. -1.
     999901    1    3    3    0    0  0.44460806326E-02 -0.63220534451E-01  0.10608898271E+00  0.88863461325E+00  0.88000000000E+00 0.  1.
        -11    1    4    4    0    0 -0.16445177856E-01  0.22691707492E-01 -0.29695880779E-01  0.40834592196E-01  0.51100000000E-03 0. -1.
         11    1    4    4    0    0 -0.79760784693E-02  0.52432540996E-01 -0.74057137570E-01  0.91090668727E-01  0.51100000000E-03 0.  1.
</event>
<event>
 8    1  0.1170483E+005  0.1043930E+01  0.7957747E-01            NaN
         13   -1    0    0    0    0  0.00000000000E+00  0.00000000000E+00  0.74505805969E-08  0.10566000000E+00  0.10566000000E+00 0. -1.
     999900   -1    0    0    0    0 -0.00000000000E+00 -0.00000000000E+00 -0.74505805969E-08  0.93827000000E+00  0.93827000000E+00 0. -1.
     999902    2    1    2    0    0  0.35517965253E-02 -0.29375275321E-01  0.19365061377E-01  0.10085671995E+01  0.10079470562E+01 0.  0.
     999903    2    3    3    0    0 -0.42587948200E-01 -0.11220737733E+00  0.66743010086E-02  0.12338298782E+00  0.27831394709E-01 0.  0.
         14    1    1    2    0    0 -0.35517965253E-02  0.29375275321E-01 -0.19365061377E-01  0.35362800523E-01  0.00000000000E+00 0.  1.
     999901    1    3    3    0    0  0.46139744725E-01  0.82832102005E-01  0.12690760368E-01  0.88518421166E+00  0.88000000000E+00 0. -1.
        -11    1    4    4    0    0 -0.17470626520E-01 -0.82319810469E-01  0.50125069613E-02  0.84303975788E-01  0.51100000000E-03 0. -1.
         11    1    4    4    0    0 -0.25117321680E-01 -0.29887566857E-01  0.16617940473E-02  0.39079012033E-01  0.51100000000E-03 0.  1.
</event>
<event>
 8    1  0.1170483E+005  0.1043930E+01  0.7957747E-01            NaN
         13   -1    0    0    0    0  0.00000000000E+00  0.00000000000E+00  0.74505805969E-08  0.10566000000E+00  0.10566000000E+00 0.  1.
     999900   -1    0    0    0    0 -0.00000000000E+00 -0.00000000000E+00 -0.74505805969E-08  0.93827000000E+00  0.93827000000E+00 0.  1.
     999902    2    1    2    0    0 -0.92604379724E-02 -0.78792972668E-02  0.20160223268E-01  0.10203869832E+01  0.10201153473E+01 0.  0.
     999903    2    3    3    0    0 -0.38711143954E-01  0.12426564049E-01  0.12551569660E+00  0.13338109381E+00  0.19579426269E-01 0.  0.
         14    1    1    2    0    0  0.92604379724E-02  0.78792972668E-02 -0.20160223268E-01  0.23543016779E-01  0.00000000000E+00 0. -1.
     999901    1    3    3    0    0  0.29450705982E-01 -0.20305861316E-01 -0.10535547333E+00  0.88700588941E+00  0.88000000000E+00 0.  1.
        -11    1    4    4    0    0 -0.18814776113E-01 -0.28333598190E-02  0.40618987801E-01  0.44857407627E-01  0.51100000000E-03 0.  1.
         11    1    4    4    0    0 -0.19896367841E-01  0.15259923868E-01  0.84896708798E-01  0.88523686184E-01  0.51100000000E-03 0. -1.
</event>
<event>
 8    1  0.1170483E+005  0.1043930E+01  0.7957747E-01            NaN
         13   -1    0    0    0    0  0.00000000000E+00  0.00000000000E+00  0.74505805969E-08  0.10566000000E+00  0.10566000000E+00 0. -1.
     999900   -1    0    0    0    0 -0.00000000000E+00 -0.00000000000E+00 -0.74505805969E-08  0.93827000000E+00  0.93827000000E+00 0. -1.
     999902    2    1    2    0    0  0.17680772994E-01 -0.95705535908E-03 -0.18448783654E-01  0.10183588579E+01  0.10180377597E+01 0.  0.
     999903    2    3    3    0    0  0.89798380302E-01  0.11468774386E-01  0.89353947823E-01  0.12876525440E+00  0.20027003205E-01 0.  0.
         14    1    1    2    0    0 -0.17680772994E-01  0.95705535908E-03  0.18448783654E-01  0.25571142074E-01  0.00000000000E+00 0. -1.
     999901    1    3    3    0    0 -0.72117607308E-01 -0.12425829745E-01 -0.10780273148E+00  0.88959360353E+00  0.88000000000E+00 0. -1.
        -11    1    4    4    0    0  0.36517112646E-01  0.10515356132E-01  0.26352136032E-01  0.46246820702E-01  0.51100000000E-03 0.  1.
         11    1    4    4    0    0  0.53281267655E-01  0.95341825340E-03  0.63001811790E-01  0.82518433693E-01  0.51100000000E-03 0. -1.
</event>
<event>
 8    1  0.1170483E+005  0.1043930E+01  0.7957747E-01            NaN
         13   -1    0    0    0    0  0.00000000000E+00  0.00000000000E+00  0.74505805969E-08  0.10566000000E+00  0.10566000000E+00 0.  1.
     999900   -1    0    0    0    0 -0.00000000000E+00 -0.00000000000E+00 -0.74505805969E-08  0.93827000000E+00  0.93827000000E+00 0.  1.
     999902    2    1    2    0    0  0.12090724431E-02  0.33294583642E-02  0.20325666356E-01  0.10232979894E+01  0.10230899742E+01 0.  0.
     999903    2    3    3    0    0 -0.12171305816E+00  0.34687288890E-01 -0.33764205037E-01  0.13255735490E+00  0.20350780318E-01 0.  0.
         14    1    1    2    0    0 -0.12090724431E-02 -0.33294583642E-02 -0.20325666356E-01  0.20632010614E-01  0.00000000000E+00 0. -1.
     999901    1    3    3    0    0  0.12292213061E+00 -0.31357830526E-01  0.54089871393E-01  0.89074063448E+00  0.88000000000E+00 0. -1.
        -11    1    4    4    0    0 -0.52569325364E-01  0.15742474077E-01 -0.43047085870E-02  0.55046808230E-01  0.51100000000E-03 0. -1.
         11    1    4    4    0    0 -0.69143732799E-01  0.18944814813E-01 -0.29459496450E-01  0.77510546675E-01  0.51100000000E-03 0.  1.
</event>
<event>
 8    1  0.1170483E+005  0.1043930E+01  0.7957747E-01            NaN
         13   -1    0    0    0    0  0.00000000000E+00  0.00000000000E+00  0.74505805969E-08  0.10566000000E+00  0.10566000000E+00 0.  1.
     999900   -1    0    0    0    0 -0.00000000000E+00 -0.00000000000E+00 -0.74505805969E-08  0.93827000000E+00  0.93827000000E+00 0. -1.
     999902    2    1    2    0    0 -0.94832753556E-02 -0.47386890130E-02  0.21134244352E-01  0.10202858893E+01  0.10200118882E+01 0.  0.
     999903    2    3    3    0    0 -0.78029542849E-01 -0.16729766376E-01 -0.99807903148E-01  0.12929241025E+00  0.19657445836E-01 0.  0.
         14    1    1    2    0    0  0.94832753556E-02  0.47386890130E-02 -0.21134244352E-01  0.23644110670E-01  0.00000000000E+00 0. -1.
     999901    1    3    3    0    0  0.68546267493E-01  0.11991077363E-01  0.12094214750E+00  0.89099347908E+00  0.88000000000E+00 0.  1.
        -11    1    4    4    0    0 -0.13183504910E-01 -0.95625092566E-02 -0.13895353696E-01  0.21414676283E-01  0.51100000000E-03 0. -1.
         11    1    4    4    0    0 -0.64846037939E-01 -0.71672571194E-02 -0.85912549453E-01  0.10787773397E+00  0.51100000000E-03 0.  1.
</event>
<event>
 8    1  0.1170483E+005  0.1043930E+01  0.7957747E-01            NaN
         13   -1    0    0    0    0  0.00000000000E+00  0.00000000000E+00  0.74505805969E-08  0.10566000000E+00  0.10566000000E+00 0.  1.
     999900   -1    0    0    0    0 -0.00000000000E+00 -0.00000000000E+00 -0.74505805969E-08  0.93827000000E+00  0.93827000000E+00 0. -1.
     999902    2    1    2    0    0  0.20304602411E-01  0.11247597934E-01 -0.10799724823E-01  0.10183288400E+01  0.10180069778E+01 0.  0.
     999903    2    3    3    0    0  0.11641902360E+00  0.32735625745E-01 -0.48952268062E-01  0.13201324502E+00  0.20153462824E-01 0.  0.
         14    1    1    2    0    0 -0.20304602411E-01 -0.11247597934E-01  0.10799724823E-01  0.25601160024E-01  0.00000000000E+00 0.  1.
     999901    1    3    3    0    0 -0.96114421191E-01 -0.21488027812E-01  0.38152543240E-01  0.88631559495E+00  0.88000000000E+00 0. -1.
        -11    1    4    4    0    0  0.33345779129E-01  0.10890634520E-01 -0.24197752522E-01  0.42618531815E-01  0.51100000000E-03 0. -1.
         11    1    4    4    0    0  0.83073244473E-01  0.21844991225E-01 -0.24754515540E-01  0.89394713208E-01  0.51100000000E-03 0.  1.
</event>
<event>
 8    1  0.1170483E+005  0.1043930E+01  0.7957747E-01            NaN
         13   -1    0    0    0    0  0.00000000000E+00  0.00000000000E+00  0.74505805969E-08  0.10566000000E+00  0.10566000000E+00 0.  1.
     999900   -1    0    0    0    0 -0.00000000000E+00 -0.00000000000E+00 -0.74505805969E-08  0.93827000000E+00  0.93827000000E+00 0.  1.
     999902    2    1    2    0    0 -0.10591721971E-01 -0.80020058484E-02  0.19996955000E-01  0.10199280234E+01  0.10196455649E+01 0.  0.
     999903    2    3    3    0    0 -0.63554832553E-01 -0.11352746402E+00  0.92951655880E-02  0.13197800132E+00  0.20102012344E-01 0.  0.
         14    1    1    2    0    0  0.10591721971E-01  0.80020058484E-02 -0.19996955000E-01  0.24001976610E-01  0.00000000000E+00 0. -1.
     999901    1    3    3    0    0  0.52963110583E-01  0.10552545817E+00  0.10701789412E-01  0.88795002207E+00  0.88000000000E+00 0. -1.
        -11    1    4    4    0    0 -0.21004685831E-01 -0.57442255366E-01  0.19595595846E-02  0.61195674056E-01  0.51100000000E-03 0.  1.
         11    1    4    4    0    0 -0.42550146723E-01 -0.56085208654E-01  0.73356060034E-02  0.70782327260E-01  0.51100000000E-03 0. -1.
</event>
<event>
 8    1  0.1170483E+005  0.1043930E+01  0.7957747E-01            NaN
         13   -1    0    0    0    0  0.00000000000E+00  0.00000000000E+00  0.74505805969E-08  0.10566000000E+00  0.10566000000E+00 0.  1.
     999900   -1    0    0    0    0 -0.00000000000E+00 -0.00000000000E+00 -0.74505805969E-08  0.93827000000E+00  0.93827000000E+00 0.  1.
     999902    2    1    2    0    0  0.39127431224E-02 -0.18564167788E-01 -0.12419005042E-01  0.10212546925E+01  0.10210029272E+01 0.  0.
     999903    2    3    3    0    0 -0.12141279492E+00 -0.44128801170E-01 -0.18887451183E-01  0.13198427144E+00  0.19357020227E-01 0.  0.
         14    1    1    2    0    0 -0.39127431224E-02  0.18564167788E-01  0.12419005042E-01  0.22675307509E-01  0.00000000000E+00 0.  1.
     999901    1    3    3    0    0  0.12532553804E+00  0.25564633382E-01  0.64684461405E-02  0.88927042105E+00  0.88000000000E+00 0.  1.
        -11    1    4    4    0    0 -0.74188749733E-01 -0.30462994262E-01 -0.20549349600E-01  0.82791916854E-01  0.51100000000E-03 0. -1.
         11    1    4    4    0    0 -0.47224045185E-01 -0.13665806908E-01  0.16618984176E-02  0.49192354583E-01  0.51100000000E-03 0.  1.
</event>
<event>
 8    1  0.1170483E+005  0.1043930E+01  0.7957747E-01            NaN
         13   -1    0    0    0    0  0.00000000000E+00  0.00000000000E+00  0.74505805969E-08  0.10566000000E+00  0.10566000000E+00 0.  1.
     999900   -1    0    0    0    0 -0.00000000000E+00 -0.00000000000E+00 -0.74505805969E-08  0.93827000000E+00  0.93827000000E+00 0. -1.
     999902    2    1    2    0    0 -0.80358950480E-02 -0.14105824524E-01 -0.17023002404E-01  0.10204069792E+01  0.10201358100E+01 0.  0.
     999903    2    3    3    0    0  0.62730886412E-01  0.10830447004E+00  0.20631390715E-01  0.12832510470E+00  0.19407624089E-01 0.  0.
         14    1    1    2    0    0  0.80358950480E-02  0.14105824524E-01  0.17023002404E-01  0.23523020758E-01  0.00000000000E+00 0.  1.
     999901    1    3    3    0    0 -0.70766781460E-01 -0.12241029456E+00 -0.37654393119E-01  0.89208187455E+00  0.88000000000E+00 0. -1.
        -11    1    4    4    0    0  0.42080741136E-01  0.84195268915E-01  0.21555169796E-01  0.96563546684E-01  0.51100000000E-03 0.  1.
         11    1    4    4    0    0  0.20650145276E-01  0.24109201120E-01 -0.92377908095E-03  0.31761558012E-01  0.51100000000E-03 0. -1.
</event>
<event>
 8    1  0.1170483E+005  0.1043930E+01  0.7957747E-01            NaN
         13   -1    0    0    0    0  0.00000000000E+00  0.00000000000E+00  0.74505805969E-08  0.10566000000E+00  0.10566000000E+00 0. -1.
     999900   -1    0    0    0    0 -0.00000000000E+00 -0.00000000000E+00 -0.74505805969E-08  0.93827000000E+00  0.93827000000E+00 0. -1.
     999902    2    1    2    0    0  0.12444437999E-01  0.20339512278E-01  0.91026993233E-02  0.10184070901E+01  0.10180872174E+01 0.  0.
     999903    2    3    3    0    0  0.74231251720E-01 -0.62486738980E-01 -0.80607201138E-01  0.12783106047E+00  0.20697532805E-01 0.  0.
         14    1    1    2    0    0 -0.12444437999E-01 -0.20339512278E-01 -0.91026993233E-02  0.25522909940E-01  0.00000000000E+00 0. -1.
     999901    1    3    3    0    0 -0.61786813721E-01  0.82826251258E-01  0.89709900462E-01  0.89057602959E+00  0.88000000000E+00 0. -1.
        -11    1    4    4    0    0  0.32398236284E-01 -0.14577268028E-01 -0.31338314661E-01  0.47376086207E-01  0.51100000000E-03 0.  1.
         11    1    4    4    0    0  0.41833015437E-01 -0.47909470952E-01 -0.49268886477E-01  0.80454974259E-01  0.51100000000E-03 0. -1.
</event>
<event>
 8    1  0.1170483E+005  0.1043930E+01  0.7957747E-01            NaN
         13   -1    0    0    0    0  0.00000000000E+00  0.00000000000E+00  0.74505805969E-08  0.10566000000E+00  0.10566000000E+00 0.  1.
     999900   -1    0    0    0    0 -0.00000000000E+00 -0.00000000000E+00 -0.74505805969E-08  0.93827000000E+00  0.93827000000E+00 0.  1.
     999902    2    1    2    0    0  0.71445410940E-02 -0.64453269953E-02  0.20457833580E-01  0.10213222654E+01  0.10210720152E+01 0.  0.
     999903    2    3    3    0    0  0.75684357974E-01  0.10345946223E+00  0.23669061422E-01  0.13183528904E+00  0.19706257872E-01 0.  0.
         14    1    1    2    0    0 -0.71445410940E-02  0.64453269953E-02 -0.20457833580E-01  0.22607734568E-01  0.00000000000E+00 0. -1.
     999901    1    3    3    0    0 -0.68539816880E-01 -0.10990478923E+00 -0.32112278420E-02  0.88948697640E+00  0.88000000000E+00 0.  1.
        -11    1    4    4    0    0  0.41570397871E-01  0.61497840621E-01  0.41794993916E-02  0.74349254982E-01  0.51100000000E-03 0.  1.
         11    1    4    4    0    0  0.34113960103E-01  0.41961621612E-01  0.19489562030E-01  0.57486034055E-01  0.51100000000E-03 0. -1.
</event>
<event>
 8    1  0.1170483E+005  0.1043930E+01  0.7957747E-01            NaN
         13   -1    0    0    0    0  0.00000000000E+00  0.00000000000E+00  0.74505805969E-08  0.10566000000E+00  0.10566000000E+00 0. -1.
     999900   -1    0    0    0    0 -0.00000000000E+00 -0.00000000000E+00 -0.74505805969E-08  0.93827000000E+00  0.93827000000E+00 0.  1.
     999902    2    1    2    0    0 -0.96288018470E-02  0.21607816473E-01 -0.55645327951E-02  0.10196282391E+01  0.10193385946E+01 0.  0.
     999903    2    3    3    0    0  0.49975697786E-01  0.11507248240E+00  0.34094736152E-01  0.13178748887E+00  0.21592698167E-01 0.  0.
         14    1    1    2    0    0  0.96288018470E-02 -0.21607816473E-01  0.55645327951E-02  0.24301760903E-01  0.00000000000E+00 0. -1.
     999901    1    3    3    0    0 -0.59604499633E-01 -0.93464665926E-01 -0.39659268947E-01  0.88784075023E+00  0.88000000000E+00 0.  1.
        -11    1    4    4    0    0  0.20491604856E-01  0.70089827026E-01  0.25314004582E-01  0.77288742202E-01  0.51100000000E-03 0.  1.
         11    1    4    4    0    0  0.29484092930E-01  0.44982655373E-01  0.87807315699E-02  0.54498746666E-01  0.51100000000E-03 0. -1.
</event>
<event>
 8    1  0.1170483E+005  0.1043930E+01  0.7957747E-01            NaN
         13   -1    0    0    0    0  0.00000000000E+00  0.00000000000E+00  0.74505805969E-08  0.10566000000E+00  0.10566000000E+00 0. -1.
     999900   -1    0    0    0    0 -0.00000000000E+00 -0.00000000000E+00 -0.74505805969E-08  0.93827000000E+00  0.93827000000E+00 0.  1.
     999902    2    1    2    0    0  0.21717869443E-01 -0.19173707161E-02 -0.10345903308E-01  0.10197974519E+01  0.10195118749E+01 0.  0.
     999903    2    3    3    0    0  0.11962363795E+00  0.41985142798E-01 -0.34436974050E-01  0.13295284887E+00  0.20444751568E-01 0.  0.
         14    1    1    2    0    0 -0.21717869443E-01  0.19173707161E-02  0.10345903308E-01  0.24132548123E-01  0.00000000000E+00 0.  1.
     999901    1    3    3    0    0 -0.97905768511E-01 -0.43902513514E-01  0.24091070741E-01  0.88684460301E+00  0.88000000000E+00 0. -1.
        -11    1    4    4    0    0  0.21513822252E-01  0.40635554751E-02 -0.13432180145E-01  0.25691275084E-01  0.51100000000E-03 0. -1.
         11    1    4    4    0    0  0.98109815702E-01  0.37921587323E-01 -0.21004793905E-01  0.10726157378E+00  0.51100000000E-03 0.  1.
</event>
<event>
 8    1  0.1170483E+005  0.1043930E+01  0.7957747E-01            NaN
         13   -1    0    0    0    0  0.00000000000E+00  0.00000000000E+00  0.74505805969E-08  0.10566000000E+00  0.10566000000E+00 0.  1.
     999900   -1    0    0    0    0 -0.00000000000E+00 -0.00000000000E+00 -0.74505805969E-08  0.93827000000E+00  0.93827000000E+00 0.  1.
     999902    2    1    2    0    0  0.21902639099E-01  0.75939957601E-02 -0.54926636187E-02  0.10201064040E+01  0.10198281776E+01 0.  0.
     999903    2    3    3    0    0  0.11657240151E+00 -0.59567042971E-01  0.14275504064E-02  0.13245734140E+00  0.20138321356E-01 0.  0.
         14    1    1    2    0    0 -0.21902639099E-01 -0.75939957601E-02  0.54926636187E-02  0.23823595966E-01  0.00000000000E+00 0.  1.
     999901    1    3    3    0    0 -0.94669762414E-01  0.67161038731E-01 -0.69202140251E-02  0.88764906264E+00  0.88000000000E+00 0.  1.
        -11    1    4    4    0    0  0.44489573793E-01 -0.27277160681E-01  0.95484729354E-02  0.53054689967E-01  0.51100000000E-03 0. -1.
         11    1    4    4    0    0  0.72082827720E-01 -0.32289882290E-01 -0.81209225290E-02  0.79402651430E-01  0.51100000000E-03 0.  1.
</event>
<event>
 8    1  0.1170483E+005  0.1043930E+01  0.7957747E-01            NaN
         13   -1    0    0    0    0  0.00000000000E+00  0.00000000000E+00  0.74505805969E-08  0.10566000000E+00  0.10566000000E+00 0. -1.
     999900   -1    0    0    0    0 -0.00000000000E+00 -0.00000000000E+00 -0.74505805969E-08  0.93827000000E+00  0.93827000000E+00 0. -1.
     999902    2    1    2    0    0 -0.57745324402E-02  0.14952467855E-01 -0.17080627893E-01  0.10205063075E+01  0.10202374500E+01 0.  0.
     999903    2    3    3    0    0  0.89287046427E-01  0.24940155541E-01  0.87834357031E-01  0.12913454909E+00  0.19148615482E-01 0.  0.
         14    1    1    2    0    0  0.57745324402E-02 -0.14952467855E-01  0.17080627893E-01  0.23423692473E-01  0.00000000000E+00 0. -1.
     999901    1    3    3    0    0 -0.95061578867E-01 -0.99876876859E-02 -0.10491498492E+00  0.89137175844E+00  0.88000000000E+00 0. -1.
        -11    1    4    4    0    0  0.60358376424E-01  0.24686782361E-01  0.66862203713E-01  0.93399069772E-01  0.51100000000E-03 0.  1.
         11    1    4    4    0    0  0.28928670003E-01  0.25337317984E-03  0.20972153317E-01  0.35735479315E-01  0.51100000000E-03 0. -1.
</event>
<event>
 8    1  0.1170483E+005  0.1043930E+01  0.7957747E-01            NaN
         13   -1    0    0    0    0  0.00000000000E+00  0.00000000000E+00  0.74505805969E-08  0.10566000000E+00  0.10566000000E+00 0.  1.
     999900   -1    0    0    0    0 -0.00000000000E+00 -0.00000000000E+00 -0.74505805969E-08  0.93827000000E+00  0.93827000000E+00 0. -1.
     999902    2    1    2    0    0 -0.84939965035E-02 -0.41672112135E-02 -0.16189888749E-01  0.10251783034E+01  0.10250067940E+01 0.  0.
     999903    2    3    3    0    0  0.36100463795E-03  0.12372666761E+00  0.46597159846E-01  0.13367537650E+00  0.19733027472E-01 0.  0.
         14    1    1    2    0    0  0.84939965035E-02  0.41672112135E-02  0.16189888749E-01  0.18751696553E-01  0.00000000000E+00 0.  1.
     999901    1    3    3    0    0 -0.88550011414E-02 -0.12789387883E+00 -0.62787048596E-01  0.89150292695E+00  0.88000000000E+00 0. -1.
        -11    1    4    4    0    0 -0.76484865650E-02  0.69915222851E-01  0.32452700837E-01  0.77460161668E-01  0.51100000000E-03 0. -1.
         11    1    4    4    0    0  0.80094912029E-02  0.53811444763E-01  0.14144459009E-01  0.56215214830E-01  0.51100000000E-03 0.  1.
</event>
<event>
 8    1  0.1170483E+005  0.1043930E+01  0.7957747E-01            NaN
         13   -1    0    0    0    0  0.00000000000E+00  0.00000000000E+00  0.74505805969E-08  0.10566000000E+00  0.10566000000E+00 0.  1.
     999900   -1    0    0    0    0 -0.00000000000E+00 -0.00000000000E+00 -0.74505805969E-08  0.93827000000E+00  0.93827000000E+00 0.  1.
     999902    2    1    2    0    0 -0.12434142431E-01 -0.15738603100E-01 -0.16471695417E-01  0.10179756502E+01  0.10176447298E+01 0.  0.
     999903    2    3    3    0    0  0.69428682730E-01 -0.10719510185E+00 -0.16151872343E-02  0.12933256706E+00  0.20326638334E-01 0.  0.
         14    1    1    2    0    0  0.12434142431E-01  0.15738603100E-01  0.16471695417E-01  0.25954349837E-01  0.00000000000E+00 0. -1.
     999901    1    3    3    0    0 -0.81862825161E-01  0.91456498754E-01 -0.14856508183E-01  0.88864308310E+00  0.88000000000E+00 0.  1.
        -11    1    4    4    0    0  0.39265319390E-01 -0.46073176955E-01  0.55724465199E-02  0.60793225138E-01  0.51100000000E-03 0.  1.
         11    1    4    4    0    0  0.30163363340E-01 -0.61121924899E-01 -0.71876337542E-02  0.68539341924E-01  0.51100000000E-03 0. -1.
</event>
<event>
 8    1  0.1560516E+005  0.1043930E+01  0.7957747E-01            NaN
         13   -1    0    0    0    0  0.00000000000E+00  0.00000000000E+00  0.74505805969E-08  0.10566000000E+00  0.10566000000E+00 0. -1.
     999900   -1    0    0    0    0 -0.00000000000E+00 -0.00000000000E+00 -0.74505805969E-08  0.93827000000E+00  0.93827000000E+00 0.  1.
     999902    2    1    2    0    0  0.23378321519E-01 -0.76870263596E-02  0.51419717442E-02  0.10187888750E+01  0.10184786182E+01 0.  0.
     999903    2    3    3    0    0 -0.51592931075E-01  0.56048335857E-01 -0.10019686437E+00  0.12706069027E+00  0.17371266278E-01 0.  0.
         14    1    1    2    0    0 -0.23378321519E-01  0.76870263596E-02 -0.51419717442E-02  0.25141124969E-01  0.00000000000E+00 0.  1.
     999901    1    3    3    0    0  0.74971252594E-01 -0.63735362216E-01  0.10533883611E+00  0.89172818477E+00  0.88000000000E+00 0.  1.
        -11    1    4    4    0    0 -0.34780645322E-01  0.48269470889E-01 -0.73514801759E-01  0.94574427345E-01  0.51100000000E-03 0. -1.
         11    1    4    4    0    0 -0.16812285753E-01  0.77788649682E-02 -0.26682062609E-01  0.32486262920E-01  0.51100000000E-03 0.  1.
</event>
<event>
 8    1  0.1170483E+005  0.1043930E+01  0.7957747E-01            NaN
         13   -1    0    0    0    0  0.00000000000E+00  0.00000000000E+00  0.74505805969E-08  0.10566000000E+00  0.10566000000E+00 0.  1.
     999900   -1    0    0    0    0 -0.00000000000E+00 -0.00000000000E+00 -0.74505805969E-08  0.93827000000E+00  0.93827000000E+00 0.  1.
     999902    2    1    2    0    0 -0.12597915613E-01 -0.13538637927E-01 -0.14860947596E-01  0.10202055409E+01  0.10199296524E+01 0.  0.
     999903    2    3    3    0    0  0.62799477946E-01  0.85499651880E-01 -0.71343207140E-01  0.12965313065E+00  0.21589723982E-01 0.  0.
         14    1    1    2    0    0  0.12597915613E-01  0.13538637927E-01  0.14860947596E-01  0.23724459071E-01  0.00000000000E+00 0.  1.
     999901    1    3    3    0    0 -0.75397393559E-01 -0.99038289807E-01  0.56482259544E-01  0.89055241028E+00  0.88000000000E+00 0. -1.
        -11    1    4    4    0    0  0.30381876927E-01  0.28839147351E-01 -0.36984157219E-01  0.55882411113E-01  0.51100000000E-03 0. -1.
         11    1    4    4    0    0  0.32417601019E-01  0.56660504528E-01 -0.34359049921E-01  0.73770719542E-01  0.51100000000E-03 0.  1.
</event>
<event>
 8    1  0.1170483E+005  0.1043930E+01  0.7957747E-01            NaN
         13   -1    0    0    0    0  0.00000000000E+00  0.00000000000E+00  0.74505805969E-08  0.10566000000E+00  0.10566000000E+00 0.  1.
     999900   -1    0    0    0    0 -0.00000000000E+00 -0.00000000000E+00 -0.74505805969E-08  0.93827000000E+00  0.93827000000E+00 0. -1.
     999902    2    1    2    0    0  0.21736728881E-01  0.78710214838E-02  0.64283548313E-02  0.10199349566E+01  0.10196526632E+01 0.  0.
     999903    2    3    3    0    0  0.11087822759E+00 -0.49949111330E-01 -0.47165477277E-01  0.13192500543E+00  0.19766884788E-01 0.  0.
         14    1    1    2    0    0 -0.21736728881E-01 -0.78710214838E-02 -0.64283548313E-02  0.23995043394E-01  0.00000000000E+00 0. -1.
     999901    1    3    3    0    0 -0.89141498709E-01  0.57820132814E-01  0.53593832109E-01  0.88800995118E+00  0.88000000000E+00 0.  1.
        -11    1    4    4    0    0  0.87252518751E-01 -0.43456104831E-01 -0.29944354030E-01  0.10197235182E+00  0.51100000000E-03 0.  1.
         11    1    4    4    0    0  0.23625708840E-01 -0.64930064992E-02 -0.17221123247E-01  0.29952653613E-01  0.51100000000E-03 0. -1.
</event>
<event>
 8    1  0.1170483E+005  0.1043930E+01  0.7957747E-01            NaN
         13   -1    0    0    0    0  0.00000000000E+00  0.00000000000E+00  0.74505805969E-08  0.10566000000E+00  0.10566000000E+00 0.  1.
     999900   -1    0    0    0    0 -0.00000000000E+00 -0.00000000000E+00 -0.74505805969E-08  0.93827000000E+00  0.93827000000E+00 0.  1.
     999902    2    1    2    0    0  0.12579562921E-01 -0.17226426446E-01  0.11031849148E-01  0.10199154863E+01  0.10196327292E+01 0.  0.
     999903    2    3    3    0    0  0.15615695677E-01 -0.11050727821E+00  0.69498242309E-01  0.13305086614E+00  0.20416140861E-01 0.  0.
         14    1    1    2    0    0 -0.12579562921E-01  0.17226426446E-01 -0.11031849148E-01  0.24014513674E-01  0.00000000000E+00 0. -1.
     999901    1    3    3    0    0 -0.30361327557E-02  0.93280851764E-01 -0.58466393161E-01  0.88686462019E+00  0.88000000000E+00 0.  1.
        -11    1    4    4    0    0  0.93156401909E-02 -0.84483396094E-01  0.62104423680E-01  0.10526844698E+00  0.51100000000E-03 0.  1.
         11    1    4    4    0    0  0.63000554857E-02 -0.26023882117E-01  0.73938186296E-02  0.27782419162E-01  0.51100000000E-03 0. -1.
</event>
<event>
 8    1  0.1170483E+005  0.1043930E+01  0.7957747E-01            NaN
         13   -1    0    0    0    0  0.00000000000E+00  0.00000000000E+00  0.74505805969E-08  0.10566000000E+00  0.10566000000E+00 0. -1.
     999900   -1    0    0    0    0 -0.00000000000E+00 -0.00000000000E+00 -0.74505805969E-08  0.93827000000E+00  0.93827000000E+00 0.  1.
     999902    2    1    2    0    0  0.13897913455E-01 -0.15707111777E-02  0.18685473874E-01  0.10205897758E+01  0.10203228530E+01 0.  0.
     999903    2    3    3    0    0 -0.15360499126E-01  0.52481407775E-01 -0.11444229886E+00  0.12845711181E+00  0.20345680401E-01 0.  0.
         14    1    1    2    0    0 -0.13897913455E-01  0.15707111777E-02 -0.18685473874E-01  0.23340224204E-01  0.00000000000E+00 0.  1.
     999901    1    3    3    0    0  0.29258412581E-01 -0.54052118952E-01  0.13312777274E+00  0.89213266398E+00  0.88000000000E+00 0. -1.
        -11    1    4    4    0    0 -0.86863730161E-03  0.11029350231E-01 -0.91233398555E-02  0.14349130580E-01  0.51100000000E-03 0. -1.
         11    1    4    4    0    0 -0.14491861824E-01  0.41452057544E-01 -0.10531895901E+00  0.11410798123E+00  0.51100000000E-03 0.  1.
</event>
<event>
 8    1  0.1170483E+005  0.1043930E+01  0.7957747E-01            NaN
         13   -1    0    0    0    0  0.00000000000E+00  0.00000000000E+00  0.74505805969E-08  0.10566000000E+00  0.10566000000E+00 0. -1.
     999900   -1    0    0    0    0 -0.00000000000E+00 -0.00000000000E+00 -0.74505805969E-08  0.93827000000E+00  0.93827000000E+00 0.  1.
     999902    2    1    2    0    0  0.16767196926E-01 -0.57533175528E-02  0.15032342756E-01  0.10206875629E+01  0.10204228977E+01 0.  0.
     999903    2    3    3    0    0  0.90746605378E-01  0.67709659403E-01 -0.62910856775E-01  0.13111187512E+00  0.20322488365E-01 0.  0.
         14    1    1    2    0    0 -0.16767196926E-01  0.57533175528E-02 -0.15032342756E-01  0.23242437144E-01  0.00000000000E+00 0.  1.
     999901    1    3    3    0    0 -0.73979408451E-01 -0.73462976956E-01  0.77943199531E-01  0.88957568774E+00  0.88000000000E+00 0.  1.
        -11    1    4    4    0    0  0.49635754915E-01  0.31598953102E-01 -0.43006497850E-01  0.72883619432E-01  0.51100000000E-03 0.  1.
         11    1    4    4    0    0  0.41110850462E-01  0.36110706302E-01 -0.19904358925E-01  0.58228255689E-01  0.51100000000E-03 0. -1.
</event>
<event>
 8    1  0.1170483E+005  0.1043930E+01  0.7957747E-01            NaN
         13   -1    0    0    0    0  0.00000000000E+00  0.00000000000E+00  0.74505805969E-08  0.10566000000E+00  0.10566000000E+00 0.  1.
     999900   -1    0    0    0    0 -0.00000000000E+00 -0.00000000000E+00 -0.74505805969E-08  0.93827000000E+00  0.93827000000E+00 0. -1.
     999902    2    1    2    0    0 -0.65603298766E-02  0.77530133564E-02 -0.20643888947E-01  0.10209231033E+01  0.10206638357E+01 0.  0.
     999903    2    3    3    0    0 -0.73644076668E-01  0.13869547128E-02  0.10496517657E+00  0.12945330959E+00  0.17750983069E-01 0.  0.
         14    1    1    2    0    0  0.65603298766E-02 -0.77530133564E-02  0.20643888947E-01  0.23006896684E-01  0.00000000000E+00 0.  1.
     999901    1    3    3    0    0  0.67083746791E-01  0.63660586436E-02 -0.12560906552E+00  0.89146979373E+00  0.88000000000E+00 0. -1.
        -11    1    4    4    0    0 -0.37529887322E-02  0.43836112155E-02  0.73506149025E-02  0.93591469781E-02  0.51100000000E-03 0.  1.
         11    1    4    4    0    0 -0.69891087936E-01 -0.29966565027E-02  0.97614561667E-01  0.12009416261E+00  0.51100000000E-03 0. -1.
</event>
<event>
 8    1  0.1170483E+005  0.1043930E+01  0.7957747E-01            NaN
         13   -1    0    0    0    0  0.00000000000E+00  0.00000000000E+00  0.74505805969E-08  0.10566000000E+00  0.10566000000E+00 0. -1.
     999900   -1    0    0    0    0 -0.00000000000E+00 -0.00000000000E+00 -0.74505805969E-08  0.93827000000E+00  0.93827000000E+00 0. -1.
     999902    2    1    2    0    0 -0.67195772251E-02 -0.17388122302E-01  0.83665094605E-02  0.10234972323E+01  0.10232932554E+01 0.  0.
     999903    2    3    3    0    0  0.12267468463E-01  0.11539333077E+00  0.59025921838E-01  0.13189317318E+00  0.21110142449E-01 0.  0.
         14    1    1    2    0    0  0.67195772251E-02  0.17388122302E-01 -0.83665094605E-02  0.20432767698E-01  0.00000000000E+00 0.  1.
     999901    1    3    3    0    0 -0.18987045688E-01 -0.13278145307E+00 -0.50659412377E-01  0.89160405912E+00  0.88000000000E+00 0. -1.
        -11    1    4    4    0    0  0.17789048901E-01  0.87526297885E-01  0.41296245390E-01  0.98401951640E-01  0.51100000000E-03 0. -1.
         11    1    4    4    0    0 -0.55215804380E-02  0.27867032882E-01  0.17729676448E-01  0.33491221538E-01  0.51100000000E-03 0.  1.
</event>
<event>
 8    1  0.1170483E+005  0.1043930E+01  0.7957747E-01            NaN
         13   -1    0    0    0    0  0.00000000000E+00  0.00000000000E+00  0.74505805969E-08  0.10566000000E+00  0.10566000000E+00 0.  1.
     999900   -1    0    0    0    0 -0.00000000000E+00 -0.00000000000E+00 -0.74505805969E-08  0.93827000000E+00  0.93827000000E+00 0.  1.
     999902    2    1    2    0    0 -0.10770947100E-01  0.14350417046E-01  0.15743929441E-01  0.10200591164E+01  0.10197797712E+01 0.  0.
     999903    2    3    3    0    0 -0.12668371948E+00 -0.26973304759E-01 -0.61699372529E-02  0.13122637714E+00  0.20148696705E-01 0.  0.
         14    1    1    2    0    0  0.10770947100E-01 -0.14350417046E-01 -0.15743929441E-01  0.23870883626E-01  0.00000000000E+00 0. -1.
     999901    1    3    3    0    0  0.11591277238E+00  0.41323721805E-01  0.21913866694E-01  0.88883273924E+00  0.88000000000E+00 0. -1.
        -11    1    4    4    0    0 -0.64027272486E-01 -0.23558756618E-01 -0.60417671540E-03  0.68228533518E-01  0.51100000000E-03 0.  1.
         11    1    4    4    0    0 -0.62656446998E-01 -0.34145481409E-02 -0.55657605375E-02  0.62997843620E-01  0.51100000000E-03 0. -1.
</event>
<event>
 8    1  0.1170483E+005  0.1043930E+01  0.7957747E-01            NaN
         13   -1    0    0    0    0  0.00000000000E+00  0.00000000000E+00  0.74505805969E-08  0.10566000000E+00  0.10566000000E+00 0. -1.
     999900   -1    0    0    0    0 -0.00000000000E+00 -0.00000000000E+00 -0.74505805969E-08  0.93827000000E+00  0.93827000000E+00 0. -1.
     999902    2    1    2    0    0 -0.12103647850E-01  0.20264743474E-02 -0.20141833463E-01  0.10203440223E+01  0.10200713825E+01 0.  0.
     999903    2    3    3    0    0 -0.36098820966E-01  0.36485377412E-01  0.11628519102E+00  0.12884218979E+00  0.21065530619E-01 0.  0.
         14    1    1    2    0    0  0.12103647850E-01 -0.20264743474E-02  0.20141833463E-01  0.23585977715E-01  0.00000000000E+00 0. -1.
     999901    1    3    3    0    0  0.23995173117E-01 -0.34458903064E-01 -0.13642702448E+00  0.89150183249E+00  0.88000000000E+00 0. -1.
        -11    1    4    4    0    0 -0.81972660655E-02  0.23013750188E-01  0.48380846369E-01  0.54201432499E-01  0.51100000000E-03 0.  1.
         11    1    4    4    0    0 -0.27901554901E-01  0.13471627224E-01  0.67904344647E-01  0.74640757291E-01  0.51100000000E-03 0. -1.
</event>
<event>
 8    1  0.1170483E+005  0.1043930E+01  0.7957747E-01            NaN
         13   -1    0    0    0    0  0.00000000000E+00  0.00000000000E+00  0.74505805969E-08  0.10566000000E+00  0.10566000000E+00 0.  1.
     999900   -1    0    0    0    0 -0.00000000000E+00 -0.00000000000E+00 -0.74505805969E-08  0.93827000000E+00  0.93827000000E+00 0. -1.
     999902    2    1    2    0    0 -0.19519352245E-01  0.95469420173E-02  0.11056851773E-01  0.10195496147E+01  0.10192580702E+01 0.  0.
     999903    2    3    3    0    0 -0.18279850015E-01 -0.12607403957E+00  0.61270421655E-02  0.12914583553E+00  0.20304921061E-01 0.  0.
         14    1    1    2    0    0  0.19519352245E-01 -0.95469420173E-02 -0.11056851773E-01  0.24380385253E-01  0.00000000000E+00 0. -1.
     999901    1    3    3    0    0 -0.12395022307E-02  0.13562098159E+00  0.49298096071E-02  0.89040377921E+00  0.88000000000E+00 0. -1.
        -11    1    4    4    0    0 -0.13065212193E-01 -0.60346581578E-01 -0.62356863682E-02  0.62060894155E-01  0.51100000000E-03 0. -1.
         11    1    4    4    0    0 -0.52146378220E-02 -0.65727457995E-01  0.12362728534E-01  0.67084941380E-01  0.51100000000E-03 0.  1.
</event>
<event>
 8    1  0.1170483E+005  0.1043930E+01  0.7957747E-01            NaN
         13   -1    0    0    0    0  0.00000000000E+00  0.00000000000E+00  0.74505805969E-08  0.10566000000E+00  0.10566000000E+00 0.  1.
     999900   -1    0    0    0    0 -0.00000000000E+00 -0.00000000000E+00 -0.74505805969E-08  0.93827000000E+00  0.93827000000E+00 0. -1.
     999902    2    1    2    0    0  0.23052398512E-01 -0.45172488081E-03  0.24989138981E-02  0.10207381544E+01  0.10204746533E+01 0.  0.
     999903    2    3    3    0    0  0.39374667024E-02 -0.10799816893E-01  0.12934214509E+00  0.13137789615E+00  0.19965505515E-01 0.  0.
         14    1    1    2    0    0 -0.23052398512E-01  0.45172488081E-03 -0.24989138981E-02  0.23191845618E-01  0.00000000000E+00 0.  1.
     999901    1    3    3    0    0  0.19114931809E-01  0.10348092012E-01 -0.12684323119E+00  0.88936025823E+00  0.88000000000E+00 0. -1.
        -11    1    4    4    0    0  0.93304113164E-02 -0.13916447135E-01  0.91374233530E-01  0.92899062161E-01  0.51100000000E-03 0.  1.
         11    1    4    4    0    0 -0.53929446141E-02  0.31166302414E-02  0.37967911562E-01  0.38478833987E-01  0.51100000000E-03 0. -1.
</event>
<event>
 8    1  0.1170483E+005  0.1043930E+01  0.7957747E-01            NaN
         13   -1    0    0    0    0  0.00000000000E+00  0.00000000000E+00  0.74505805969E-08  0.10566000000E+00  0.10566000000E+00 0. -1.
     999900   -1    0    0    0    0 -0.00000000000E+00 -0.00000000000E+00 -0.74505805969E-08  0.93827000000E+00  0.93827000000E+00 0.  1.
     999902    2    1    2    0    0  0.20378446731E-01  0.98030187105E-02 -0.10866996786E-01  0.10188407217E+01  0.10185317591E+01 0.  0.
     999903    2    3    3    0    0 -0.42502850251E-01 -0.47860635141E-01 -0.11034497075E+00  0.12913570215E+00  0.20071978594E-01 0.  0.
         14    1    1    2    0    0 -0.20378446731E-01 -0.98030187105E-02  0.10866996786E-01  0.25089278311E-01  0.00000000000E+00 0.  1.
     999901    1    3    3    0    0  0.62881296983E-01  0.57663653851E-01  0.99477973965E-01  0.88970501954E+00  0.88000000000E+00 0. -1.
        -11    1    4    4    0    0 -0.22766518277E-01 -0.17630791448E-01 -0.65576071057E-01  0.71621514769E-01  0.51100000000E-03 0.  1.
         11    1    4    4    0    0 -0.19736331974E-01 -0.30229843693E-01 -0.44768899694E-01  0.57514187382E-01  0.51100000000E-03 0. -1.
</event>
<event>
 8    1  0.1170483E+005  0.1043930E+01  0.7957747E-01            NaN
         13   -1    0    0    0    0  0.00000000000E+00  0.00000000000E+00  0.74505805969E-08  0.10566000000E+00  0.10566000000E+00 0. -1.
     999900   -1    0    0    0    0 -0.00000000000E+00 -0.00000000000E+00 -0.74505805969E-08  0.93827000000E+00  0.93827000000E+00 0.  1.
     999902    2    1    2    0    0 -0.12150179770E-01 -0.19799883526E-01  0.25370932037E-03  0.10206979828E+01  0.10204335576E+01 0.  0.
     999903    2    3    3    0    0 -0.71777404056E-01  0.45791616076E-01  0.97800042820E-01  0.13088174451E+00  0.17785242040E-01 0.  0.
         14    1    1    2    0    0  0.12150179770E-01  0.19799883526E-01 -0.25370932037E-03  0.23232017228E-01  0.00000000000E+00 0.  1.
     999901    1    3    3    0    0  0.59627224286E-01 -0.65591499602E-01 -0.97546333499E-01  0.88981623826E+00  0.88000000000E+00 0.  1.
        -11    1    4    4    0    0 -0.12627029011E-01  0.50211408466E-02  0.25832726747E-01  0.29193228825E-01  0.51100000000E-03 0.  1.
         11    1    4    4    0    0 -0.59150375044E-01  0.40770475230E-01  0.71967316073E-01  0.10168851568E+00  0.51100000000E-03 0. -1.
</event>
<event>
 8    1  0.1170483E+005  0.1043930E+01  0.7957747E-01            NaN
         13   -1    0    0    0    0  0.00000000000E+00  0.00000000000E+00  0.74505805969E-08  0.10566000000E+00  0.10566000000E+00 0.  1.
     999900   -1    0    0    0    0 -0.00000000000E+00 -0.00000000000E+00 -0.74505805969E-08  0.93827000000E+00  0.93827000000E+00 0. -1.
     999902    2    1    2    0    0 -0.55033891853E-02  0.18841475372E-01  0.12541461193E-01  0.10206367234E+01  0.10203708857E+01 0.  0.
     999903    2    3    3    0    0 -0.98378236936E-01 -0.28279140137E-01 -0.77890189434E-01  0.12989322878E+00  0.18093700620E-01 0.  0.
         14    1    1    2    0    0  0.55033891853E-02 -0.18841475372E-01 -0.12541461193E-01  0.23293276617E-01  0.00000000000E+00 0. -1.
     999901    1    3    3    0    0  0.92874847751E-01  0.47120615509E-01  0.90431650626E-01  0.89074349461E+00  0.88000000000E+00 0.  1.
        -11    1    4    4    0    0 -0.10225586284E-01  0.21412679251E-02 -0.10626778191E-01  0.14910975115E-01  0.51100000000E-03 0. -1.
         11    1    4    4    0    0 -0.88152650652E-01 -0.30420408062E-01 -0.67263411243E-01  0.11498225366E+00  0.51100000000E-03 0.  1.
</event>
<event>
 8    1  0.1170483E+005  0.1043930E+01  0.7957747E-01            NaN
         13   -1    0    0    0    0  0.00000000000E+00  0.00000000000E+00  0.74505805969E-08  0.10566000000E+00  0.10566000000E+00 0.  1.
     999900   -1    0    0    0    0 -0.00000000000E+00 -0.00000000000E+00 -0.74505805969E-08  0.93827000000E+00  0.93827000000E+00 0. -1.
     999902    2    1    2    0    0 -0.14867504149E-01  0.19076672859E-01  0.11176489529E-01  0.10172865009E+01  0.10169375344E+01 0.  0.
     999903    2    3    3    0    0 -0.22398144571E-01  0.11219365028E+00 -0.58052242956E-01  0.12963786576E+00  0.18623138399E-01 0.  0.
         14    1    1    2    0    0  0.14867504149E-01 -0.19076672859E-01 -0.11176489529E-01  0.26643499117E-01  0.00000000000E+00 0. -1.
     999901    1    3    3    0    0  0.75306404220E-02 -0.93116977422E-01  0.69228732484E-01  0.88764863512E+00  0.88000000000E+00 0.  1.
        -11    1    4    4    0    0  0.90622126662E-03  0.30461068461E-01 -0.20423881662E-01  0.36689153600E-01  0.51100000000E-03 0. -1.
         11    1    4    4    0    0 -0.23304365838E-01  0.81732581820E-01 -0.37628361294E-01  0.92948712163E-01  0.51100000000E-03 0.  1.
</event>
<event>
 8    1  0.1170483E+005  0.1043930E+01  0.7957747E-01            NaN
         13   -1    0    0    0    0  0.00000000000E+00  0.00000000000E+00  0.74505805969E-08  0.10566000000E+00  0.10566000000E+00 0.  1.
     999900   -1    0    0    0    0 -0.00000000000E+00 -0.00000000000E+00 -0.74505805969E-08  0.93827000000E+00  0.93827000000E+00 0.  1.
     999902    2    1    2    0    0 -0.18432448642E-01  0.53198125489E-02 -0.13470142190E-01  0.10204885773E+01  0.10202193078E+01 0.  0.
     999903    2    3    3    0    0 -0.97548871659E-01  0.87998490369E-01 -0.60481549895E-02  0.13304829306E+00  0.20143272805E-01 0.  0.
         14    1    1    2    0    0  0.18432448642E-01 -0.53198125489E-02  0.13470142190E-01  0.23441422719E-01  0.00000000000E+00 0.  1.
     999901    1    3    3    0    0  0.79116423017E-01 -0.82678677820E-01 -0.74219872003E-02  0.88744028422E+00  0.88000000000E+00 0. -1.
        -11    1    4    4    0    0 -0.48678187547E-01  0.31102456708E-01 -0.56291829625E-02  0.58042032855E-01  0.51100000000E-03 0. -1.
         11    1    4    4    0    0 -0.48870684112E-01  0.56896033661E-01 -0.41897202699E-03  0.75006260209E-01  0.51100000000E-03 0.  1.
</event>
<event>
 8    1  0.1170483E+005  0.1043930E+01  0.7957747E-01            NaN
         13   -1    0    0    0    0  0.00000000000E+00  0.00000000000E+00  0.74505805969E-08  0.10566000000E+00  0.10566000000E+00 0. -1.
     999900   -1    0    0    0    0 -0.00000000000E+00 -0.00000000000E+00 -0.74505805969E-08  0.93827000000E+00  0.93827000000E+00 0. -1.
     999902    2    1    2    0    0 -0.81169039860E-02 -0.22085061774E-01 -0.53468743124E-02  0.10198006994E+01  0.10195152001E+01 0.  0.
     999903    2    3    3    0    0  0.11326338007E-01 -0.97483351678E-01  0.85514592403E-01  0.13170231073E+00  0.20036550350E-01 0.  0.
         14    1    1    2    0    0  0.81169039860E-02  0.22085061774E-01  0.53468743124E-02  0.24129300628E-01  0.00000000000E+00 0.  1.
     999901    1    3    3    0    0 -0.19443241994E-01  0.75398289904E-01 -0.90861466715E-01  0.88809838864E+00  0.88000000000E+00 0. -1.
        -11    1    4    4    0    0 -0.16833334786E-02 -0.61648854449E-01  0.58218890340E-01  0.84812234848E-01  0.51100000000E-03 0.  1.
         11    1    4    4    0    0  0.13009671486E-01 -0.35834497230E-01  0.27295702063E-01  0.46890075879E-01  0.51100000000E-03 0. -1.
</event>
<event>
 8    1  0.1170483E+005  0.1043930E+01  0.7957747E-01            NaN
         13   -1    0    0    0    0  0.00000000000E+00  0.00000000000E+00  0.74505805969E-08  0.10566000000E+00  0.10566000000E+00 0.  1.
     999900   -1    0    0    0    0 -0.00000000000E+00 -0.00000000000E+00 -0.74505805969E-08  0.93827000000E+00  0.93827000000E+00 0. -1.
     999902    2    1    2    0    0 -0.11283182953E-01  0.18964864173E-01  0.85847927446E-02  0.10202514241E+01  0.10199766141E+01 0.  0.
     999903    2    3    3    0    0 -0.12763220360E+00  0.17079339513E-01 -0.21021483997E-01  0.13209761904E+00  0.20644489124E-01 0.  0.
         14    1    1    2    0    0  0.11283182953E-01 -0.18964864173E-01 -0.85847927446E-02  0.23678575910E-01  0.00000000000E+00 0.  1.
     999901    1    3    3    0    0  0.11634902065E+00  0.18855246598E-02  0.29606276741E-01  0.88815380505E+00  0.88000000000E+00 0.  1.
        -11    1    4    4    0    0  0.28006982607E-04  0.81737520527E-03  0.11585916667E-02  0.15074290256E-02  0.51100000000E-03 0.  1.
         11    1    4    4    0    0 -0.12766021058E+00  0.16261964308E-01 -0.22180075663E-01  0.13059019001E+00  0.51100000000E-03 0. -1.
</event>
<event>
 8    1  0.1170483E+005  0.1043930E+01  0.7957747E-01            NaN
         13   -1    0    0    0    0  0.00000000000E+00  0.00000000000E+00  0.74505805969E-08  0.10566000000E+00  0.10566000000E+00 0. -1.
     999900   -1    0    0    0    0 -0.00000000000E+00 -0.00000000000E+00 -0.74505805969E-08  0.93827000000E+00  0.93827000000E+00 0. -1.
     999902    2    1    2    0    0 -0.16679732914E-01 -0.14502851609E-01  0.56766960590E-02  0.10211095909E+01  0.10208545565E+01 0.  0.
     999903    2    3    3    0    0  0.10663878212E+00 -0.24210911675E-01  0.67964440805E-01  0.13027769554E+00  0.19877490922E-01 0.  0.
         14    1    1    2    0    0  0.16679732914E-01  0.14502851609E-01 -0.56766960590E-02  0.22820409133E-01  0.00000000000E+00 0.  1.
     999901    1    3    3    0    0 -0.12331851504E+00  0.97080600667E-02 -0.62287744746E-01  0.89083189532E+00  0.88000000000E+00 0. -1.
        -11    1    4    4    0    0  0.46540233122E-01 -0.19697349458E-01  0.25981104350E-01  0.56826558746E-01  0.51100000000E-03 0.  1.
         11    1    4    4    0    0  0.60098549001E-01 -0.45135622178E-02  0.41983336454E-01  0.73451136797E-01  0.51100000000E-03 0. -1.
</event>
<event>
 8    1  0.1170483E+005  0.1043930E+01  0.7957747E-01            NaN
         13   -1    0    0    0    0  0.00000000000E+00  0.00000000000E+00  0.74505805969E-08  0.10566000000E+00  0.10566000000E+00 0. -1.
     999900   -1    0    0    0    0 -0.00000000000E+00 -0.00000000000E+00 -0.74505805969E-08  0.93827000000E+00  0.93827000000E+00 0.  1.
     999902    2    1    2    0    0  0.22106063642E-01  0.86434959900E-02  0.40762726448E-02  0.10198467263E+01  0.10195623282E+01 0.  0.
     999903    2    3    3    0    0 -0.10073349187E+00  0.77494232777E-01  0.62087284645E-03  0.12864421277E+00  0.19908678998E-01 0.  0.
         14    1    1    2    0    0 -0.22106063642E-01 -0.86434959900E-02 -0.40762726448E-02  0.24083273684E-01  0.00000000000E+00 0.  1.
     999901    1    3    3    0    0  0.12283955551E+00 -0.68850736787E-01  0.34553997983E-02  0.89120251354E+00  0.88000000000E+00 0.  1.
        -11    1    4    4    0    0 -0.82139537982E-02  0.14623114584E-01  0.30415091436E-03  0.16782673980E-01  0.51100000000E-03 0. -1.
         11    1    4    4    0    0 -0.92519538071E-01  0.62871118192E-01  0.31672193208E-03  0.11186153879E+00  0.51100000000E-03 0.  1.
</event>
<event>
 8    1  0.1170483E+005  0.1043930E+01  0.7957747E-01            NaN
         13   -1    0    0    0    0  0.00000000000E+00  0.00000000000E+00  0.74505805969E-08  0.10566000000E+00  0.10566000000E+00 0.  1.
     999900   -1    0    0    0    0 -0.00000000000E+00 -0.00000000000E+00 -0.74505805969E-08  0.93827000000E+00  0.93827000000E+00 0. -1.
     999902    2    1    2    0    0 -0.19233529106E-02  0.36604535697E-02 -0.25083810978E-01  0.10185076520E+01  0.10181903267E+01 0.  0.
     999903    2    3    3    0    0  0.25363540478E-02  0.12528860470E+00  0.19574261306E-01  0.12900911933E+00  0.23590964437E-01 0.  0.
         14    1    1    2    0    0  0.19233529106E-02 -0.36604535697E-02  0.25083810978E-01  0.25422348041E-01  0.00000000000E+00 0.  1.
     999901    1    3    3    0    0 -0.44597069584E-02 -0.12162815114E+00 -0.44658072284E-01  0.88949853263E+00  0.88000000000E+00 0. -1.
        -11    1    4    4    0    0 -0.68202080614E-02  0.79080765591E-01  0.44751832376E-02  0.79502019537E-01  0.51100000000E-03 0.  1.
         11    1    4    4    0    0  0.93565621092E-02  0.46207839114E-01  0.15099078069E-01  0.49507099790E-01  0.51100000000E-03 0. -1.
</event>
<event>
 8    1  0.1170483E+005  0.1043930E+01  0.7957747E-01            NaN
         13   -1    0    0    0    0  0.00000000000E+00  0.00000000000E+00  0.74505805969E-08  0.10566000000E+00  0.10566000000E+00 0.  1.
     999900   -1    0    0    0    0 -0.00000000000E+00 -0.00000000000E+00 -0.74505805969E-08  0.93827000000E+00  0.93827000000E+00 0. -1.
     999902    2    1    2    0    0 -0.69827439578E-02 -0.16441176180E-01 -0.16420931889E-01  0.10196664885E+01  0.10193777660E+01 0.  0.
     999903    2    3    3    0    0  0.12288627641E+00  0.72285132855E-02 -0.35316161819E-01  0.12961972208E+00  0.20018809494E-01 0.  0.
         14    1    1    2    0    0  0.69827439578E-02  0.16441176180E-01  0.16420931889E-01  0.24263511524E-01  0.00000000000E+00 0.  1.
     999901    1    3    3    0    0 -0.12986902037E+00 -0.23669689465E-01  0.18895229929E-01  0.89004676639E+00  0.88000000000E+00 0.  1.
        -11    1    4    4    0    0  0.67998225824E-01 -0.29889204731E-02 -0.12009321474E-01  0.69117127285E-01  0.51100000000E-03 0.  1.
         11    1    4    4    0    0  0.54888050585E-01  0.10217433759E-01 -0.23306840344E-01  0.60502594800E-01  0.51100000000E-03 0. -1.
</event>
<event>
 8    1  0.1170483E+005  0.1043930E+01  0.7957747E-01            NaN
         13   -1    0    0    0    0  0.00000000000E+00  0.00000000000E+00  0.74505805969E-08  0.10566000000E+00  0.10566000000E+00 0. -1.
     999900   -1    0    0    0    0 -0.00000000000E+00 -0.00000000000E+00 -0.74505805969E-08  0.93827000000E+00  0.93827000000E+00 0.  1.
     999902    2    1    2    0    0 -0.10230455884E-01  0.76183691029E-02 -0.19978094447E-01  0.10202271303E+01  0.10199517495E+01 0.  0.
     999903    2    3    3    0    0  0.71279944054E-01 -0.93664021130E-01 -0.52055282996E-01  0.13009735665E+00  0.19020789714E-01 0.  0.
         14    1    1    2    0    0  0.10230455884E-01 -0.76183691029E-02  0.19978094447E-01  0.23702869723E-01  0.00000000000E+00 0. -1.
     999901    1    3    3    0    0 -0.81510399937E-01  0.10128239023E+00  0.32077188549E-01  0.89012977363E+00  0.88000000000E+00 0. -1.
        -11    1    4    4    0    0  0.29188898272E-01 -0.50117185030E-01 -0.18620947332E-01  0.60915718975E-01  0.51100000000E-03 0.  1.
         11    1    4    4    0    0  0.42091045782E-01 -0.43546836099E-01 -0.33434335665E-01  0.69181637676E-01  0.51100000000E-03 0. -1.
</event>
<event>
 8    1  0.1407928E+005  0.1043930E+01  0.7957747E-01            NaN
         13   -1    0    0    0    0  0.00000000000E+00  0.00000000000E+00  0.74505805969E-08  0.10566000000E+00  0.10566000000E+00 0.  1.
     999900   -1    0    0    0    0 -0.00000000000E+00 -0.00000000000E+00 -0.74505805969E-08  0.93827000000E+00  0.93827000000E+00 0.  1.
     999902    2    1    2    0    0  0.19585358238E-01  0.36038424461E-02 -0.10664077930E-01  0.10213402568E+01  0.10210904092E+01 0.  0.
     999903    2    3    3    0    0  0.11634979343E+00  0.71476194971E-02 -0.63370632824E-01  0.13446151925E+00  0.21810551553E-01 0.  0.
         14    1    1    2    0    0 -0.19585358238E-01 -0.36038424461E-02  0.10664077930E-01  0.22589743154E-01  0.00000000000E+00 0. -1.
     999901    1    3    3    0    0 -0.96764435190E-01 -0.35437770510E-02  0.52706554893E-01  0.88687873760E+00  0.88000000000E+00 0. -1.
        -11    1    4    4    0    0  0.49279849046E-01  0.34892155195E-02 -0.14819214542E-01  0.51580503948E-01  0.51100000000E-03 0. -1.
         11    1    4    4    0    0  0.67069944382E-01  0.36584039776E-02 -0.48551418282E-01  0.82881015301E-01  0.51100000000E-03 0.  1.
</event>
<event>
 8    1  0.1170483E+005  0.1043930E+01  0.7957747E-01            NaN
         13   -1    0    0    0    0  0.00000000000E+00  0.00000000000E+00  0.74505805969E-08  0.10566000000E+00  0.10566000000E+00 0. -1.
     999900   -1    0    0    0    0 -0.00000000000E+00 -0.00000000000E+00 -0.74505805969E-08  0.93827000000E+00  0.93827000000E+00 0. -1.
     999902    2    1    2    0    0 -0.60583350887E-02 -0.17971893166E-01  0.13664059012E-01  0.10205548235E+01  0.10202870914E+01 0.  0.
     999903    2    3    3    0    0  0.12526635221E+00  0.26457577618E-01  0.17800150727E-03  0.12959914271E+00  0.20105812546E-01 0.  0.
         14    1    1    2    0    0  0.60583350887E-02  0.17971893166E-01 -0.13664059012E-01  0.23375176506E-01  0.00000000000E+00 0.  1.
     999901    1    3    3    0    0 -0.13132468730E+00 -0.44429470784E-01  0.13486057505E-01  0.89095568078E+00  0.88000000000E+00 0. -1.
        -11    1    4    4    0    0  0.75563624898E-01  0.25907437974E-01  0.78636025879E-03  0.79887021684E-01  0.51100000000E-03 0. -1.
         11    1    4    4    0    0  0.49702727312E-01  0.55013964437E-03 -0.60835875151E-03  0.49712121029E-01  0.51100000000E-03 0.  1.
</event>
<event>
 8    1  0.1170483E+005  0.1043930E+01  0.7957747E-01            NaN
         13   -1    0    0    0    0  0.00000000000E+00  0.00000000000E+00  0.74505805969E-08  0.10566000000E+00  0.10566000000E+00 0.  1.
     999900   -1    0    0    0    0 -0.00000000000E+00 -0.00000000000E+00 -0.74505805969E-08  0.93827000000E+00  0.93827000000E+00 0.  1.
     999902    2    1    2    0    0  0.21442421197E-01  0.33337239375E-02  0.94077381437E-02  0.10202784318E+01  0.10200042557E+01 0.  0.
     999903    2    3    3    0    0  0.54426419922E-01  0.10596012300E+00  0.55067226810E-01  0.13252570109E+00  0.18462912204E-01 0.  0.
         14    1    1    2    0    0 -0.21442421197E-01 -0.33337239375E-02 -0.94077381437E-02  0.23651568216E-01  0.00000000000E+00 0. -1.
     999901    1    3    3    0    0 -0.32983998725E-01 -0.10262639907E+00 -0.45659488667E-01  0.88775273070E+00  0.88000000000E+00 0.  1.
        -11    1    4    4    0    0  0.44497257513E-01  0.67746746758E-01  0.36607519498E-01  0.88938176433E-01  0.51100000000E-03 0.  1.
         11    1    4    4    0    0  0.99291624095E-02  0.38213376246E-01  0.18459707312E-01  0.43587524653E-01  0.51100000000E-03 0. -1.
</event>
<event>
 8    1  0.1170483E+005  0.1043930E+01  0.7957747E-01            NaN
         13   -1    0    0    0    0  0.00000000000E+00  0.00000000000E+00  0.74505805969E-08  0.10566000000E+00  0.10566000000E+00 0.  1.
     999900   -1    0    0    0    0 -0.00000000000E+00 -0.00000000000E+00 -0.74505805969E-08  0.93827000000E+00  0.93827000000E+00 0.  1.
     999902    2    1    2    0    0 -0.25114966259E-02 -0.49471148592E-03 -0.24446771139E-01  0.10193495815E+01  0.10190531744E+01 0.  0.
     999903    2    3    3    0    0 -0.11821630806E+00  0.34475553396E-01 -0.39778346427E-01  0.13095463553E+00  0.20078357745E-01 0.  0.
         14    1    1    2    0    0  0.25114966259E-02  0.49471148592E-03  0.24446771139E-01  0.24580418505E-01  0.00000000000E+00 0.  1.
     999901    1    3    3    0    0  0.11570481143E+00 -0.34970264882E-01  0.15331575288E-01  0.88839494596E+00  0.88000000000E+00 0.  1.
        -11    1    4    4    0    0 -0.41383320542E-01  0.23404547169E-02 -0.11862374055E-01  0.43116516402E-01  0.51100000000E-03 0. -1.
         11    1    4    4    0    0 -0.76832987516E-01  0.32135098679E-01 -0.27915972373E-01  0.87838119129E-01  0.51100000000E-03 0.  1.
</event>
<event>
 8    1  0.1170483E+005  0.1043930E+01  0.7957747E-01            NaN
         13   -1    0    0    0    0  0.00000000000E+00  0.00000000000E+00  0.74505805969E-08  0.10566000000E+00  0.10566000000E+00 0.  1.
     999900   -1    0    0    0    0 -0.00000000000E+00 -0.00000000000E+00 -0.74505805969E-08  0.93827000000E+00  0.93827000000E+00 0.  1.
     999902    2    1    2    0    0  0.10454103154E-01  0.27205559411E-03 -0.21281532612E-01  0.10202178530E+01  0.10199422540E+01 0.  0.
     999903    2    3    3    0    0  0.23385552820E-01  0.31064159675E-01 -0.12601965123E+00  0.13337770414E+00  0.19919672871E-01 0.  0.
         14    1    1    2    0    0 -0.10454103154E-01 -0.27205559411E-03  0.21281532612E-01  0.23712147042E-01  0.00000000000E+00 0.  1.
     999901    1    3    3    0    0 -0.12931449665E-01 -0.30792104081E-01  0.10473811862E+00  0.88684014882E+00  0.88000000000E+00 0. -1.
        -11    1    4    4    0    0  0.14362340944E-01  0.50429911677E-02 -0.58621627655E-01  0.60567854075E-01  0.51100000000E-03 0. -1.
         11    1    4    4    0    0  0.90232118758E-02  0.26021168507E-01 -0.67398023579E-01  0.72809850065E-01  0.51100000000E-03 0.  1.
</event>
<event>
 8    1  0.1170483E+005  0.1043930E+01  0.7957747E-01            NaN
         13   -1    0    0    0    0  0.00000000000E+00  0.00000000000E+00  0.74505805969E-08  0.10566000000E+00  0.10566000000E+00 0. -1.
     999900   -1    0    0    0    0 -0.00000000000E+00 -0.00000000000E+00 -0.74505805969E-08  0.93827000000E+00  0.93827000000E+00 0.  1.
     999902    2    1    2    0    0  0.99252217457E-03 -0.20661808697E-01  0.11856374383E-01  0.10200874110E+01  0.10198087355E+01 0.  0.
     999903    2    3    3    0    0  0.10854691771E-01 -0.10780888916E+00  0.75320874331E-01  0.13345354132E+00  0.19900569514E-01 0.  0.
         14    1    1    2    0    0 -0.99252217457E-03  0.20661808697E-01 -0.11856374383E-01  0.23842589046E-01  0.00000000000E+00 0.  1.
     999901    1    3    3    0    0 -0.98621695962E-02  0.87147080460E-01 -0.63464499947E-01  0.88663386963E+00  0.88000000000E+00 0.  1.
        -11    1    4    4    0    0 -0.51958418730E-02 -0.31784924671E-01  0.26269179008E-01  0.41564517269E-01  0.51100000000E-03 0. -1.
         11    1    4    4    0    0  0.16050533644E-01 -0.76023964487E-01  0.49051695323E-01  0.91889024054E-01  0.51100000000E-03 0.  1.
</event>
<event>
 8    1  0.1170483E+005  0.1043930E+01  0.7957747E-01            NaN
         13   -1    0    0    0    0  0.00000000000E+00  0.00000000000E+00  0.74505805969E-08  0.10566000000E+00  0.10566000000E+00 0.  1.
     999900   -1    0    0    0    0 -0.00000000000E+00 -0.00000000000E+00 -0.74505805969E-08  0.93827000000E+00  0.93827000000E+00 0.  1.
     999902    2    1    2    0    0 -0.11234738018E-01  0.16101503601E-02 -0.18737904721E-01  0.10220229008E+01  0.10217880841E+01 0.  0.
     999903    2    3    3    0    0  0.77938372479E-01 -0.68957214131E-01 -0.79782252045E-01  0.13260848169E+00  0.19756375887E-01 0.  0.
         14    1    1    2    0    0  0.11234738018E-01 -0.16101503601E-02  0.18737904721E-01  0.21907099212E-01  0.00000000000E+00 0.  1.
     999901    1    3    3    0    0 -0.89173110498E-01  0.70567364491E-01  0.61044347324E-01  0.88941441910E+00  0.88000000000E+00 0. -1.
        -11    1    4    4    0    0  0.53801479862E-02 -0.93228341692E-02 -0.15173347398E-01  0.18610556723E-01  0.51100000000E-03 0.  1.
         11    1    4    4    0    0  0.72558224493E-01 -0.59634379962E-01 -0.64608904647E-01  0.11399792496E+00  0.51100000000E-03 0. -1.
</event>
<event>
 8    1  0.1170483E+005  0.1043930E+01  0.7957747E-01            NaN
         13   -1    0    0    0    0  0.00000000000E+00  0.00000000000E+00  0.74505805969E-08  0.10566000000E+00  0.10566000000E+00 0.  1.
     999900   -1    0    0    0    0 -0.00000000000E+00 -0.00000000000E+00 -0.74505805969E-08  0.93827000000E+00  0.93827000000E+00 0. -1.
     999902    2    1    2    0    0 -0.18678637267E-01  0.26343715893E-02 -0.14530186357E-01  0.10201191260E+01  0.10198412002E+01 0.  0.
     999903    2    3    3    0    0 -0.43613300336E-01  0.12410292957E-01 -0.12325169995E+00  0.13302405019E+00  0.21172648601E-01 0.  0.
         14    1    1    2    0    0  0.18678637267E-01 -0.26343715893E-02  0.14530186357E-01  0.23810873974E-01  0.00000000000E+00 0.  1.
     999901    1    3    3    0    0  0.24934663069E-01 -0.97759213675E-02  0.10872151360E+00  0.88709507584E+00  0.88000000000E+00 0.  1.
        -11    1    4    4    0    0 -0.28378056567E-01  0.15869134844E-01 -0.64566023886E-01  0.72292296247E-01  0.51100000000E-03 0.  1.
         11    1    4    4    0    0 -0.15235243769E-01 -0.34588418872E-02 -0.58685676069E-01  0.60731753939E-01  0.51100000000E-03 0. -1.
</event>
<event>
 8    1  0.1170483E+005  0.1043930E+01  0.7957747E-01            NaN
         13   -1    0    0    0    0  0.00000000000E+00  0.00000000000E+00  0.74505805969E-08  0.10566000000E+00  0.10566000000E+00 0. -1.
     999900   -1    0    0    0    0 -0.00000000000E+00 -0.00000000000E+00 -0.74505805969E-08  0.93827000000E+00  0.93827000000E+00 0. -1.
     999902    2    1    2    0    0  0.48690611281E-02  0.15718715002E-01  0.16840556528E-01  0.10203845099E+01  0.10201128163E+01 0.  0.
     999903    2    3    3    0    0 -0.19803398854E-01  0.63091122060E-01 -0.10985380185E+00  0.12970817386E+00  0.19587963022E-01 0.  0.
         14    1    1    2    0    0 -0.48690611281E-02 -0.15718715002E-01 -0.16840556528E-01  0.23545490052E-01  0.00000000000E+00 0.  1.
     999901    1    3    3    0    0  0.24672459982E-01 -0.47372407058E-01  0.12669435838E+00  0.89067633609E+00  0.88000000000E+00 0.  1.
        -11    1    4    4    0    0 -0.15064913693E-01  0.39718194983E-01 -0.86277409240E-01  0.96169325169E-01  0.51100000000E-03 0. -1.
         11    1    4    4    0    0 -0.47384851606E-02  0.23372927077E-01 -0.23576392608E-01  0.33538848686E-01  0.51100000000E-03 0.  1.
</event>
<event>
 8    1  0.1170483E+005  0.1043930E+01  0.7957747E-01            NaN
         13   -1    0    0    0    0  0.00000000000E+00  0.00000000000E+00  0.74505805969E-08  0.10566000000E+00  0.10566000000E+00 0. -1.
     999900   -1    0    0    0    0 -0.00000000000E+00 -0.00000000000E+00 -0.74505805969E-08  0.93827000000E+00  0.93827000000E+00 0. -1.
     999902    2    1    2    0    0 -0.27644902606E-02 -0.16906900184E-01 -0.15668808859E-01  0.10207136857E+01  0.10204496219E+01 0.  0.
     999903    2    3    3    0    0 -0.26494344529E-01 -0.10448541884E+00  0.72880358054E-01  0.13162760554E+00  0.19877799393E-01 0.  0.
         14    1    1    2    0    0  0.27644902606E-02  0.16906900184E-01  0.15668808859E-01  0.23216314335E-01  0.00000000000E+00 0. -1.
     999901    1    3    3    0    0  0.23729854269E-01  0.87578518651E-01 -0.88549166913E-01  0.88908608013E+00  0.88000000000E+00 0.  1.
        -11    1    4    4    0    0 -0.13411520213E-01 -0.23622299389E-01  0.23898333449E-01  0.36183882675E-01  0.51100000000E-03 0. -1.
         11    1    4    4    0    0 -0.13082824316E-01 -0.80863119446E-01  0.48982024605E-01  0.95443722864E-01  0.51100000000E-03 0.  1.
</event>
<event>
 8    1  0.1170483E+005  0.1043930E+01  0.7957747E-01            NaN
         13   -1    0    0    0    0  0.00000000000E+00  0.00000000000E+00  0.74505805969E-08  0.10566000000E+00  0.10566000000E+00 0.  1.
     999900   -1    0    0    0    0 -0.00000000000E+00 -0.00000000000E+00 -0.74505805969E-08  0.93827000000E+00  0.93827000000E+00 0.  1.
     999902    2    1    2    0    0 -0.67730683164E-02 -0.22539583045E-01 -0.34418342125E-02  0.10201444270E+01  0.10198670985E+01 0.  0.
     999903    2    3    3    0    0 -0.63032768751E-01 -0.54099604658E-01 -0.10105155685E+00  0.13240074398E+00  0.20460760093E-01 0.  0.
         14    1    1    2    0    0  0.67730683164E-02  0.22539583045E-01  0.34418342125E-02  0.23785572959E-01  0.00000000000E+00 0.  1.
     999901    1    3    3    0    0  0.56259700434E-01  0.31560021613E-01  0.97609722642E-01  0.88774368306E+00  0.88000000000E+00 0. -1.
        -11    1    4    4    0    0 -0.44474353365E-01 -0.31868801563E-01 -0.78526689928E-01  0.95709407961E-01  0.51100000000E-03 0.  1.
         11    1    4    4    0    0 -0.18558415386E-01 -0.22230803095E-01 -0.22524866927E-01  0.36691336021E-01  0.51100000000E-03 0. -1.
</event>
<event>
 8    1  0.1170483E+005  0.1043930E+01  0.7957747E-01            NaN
         13   -1    0    0    0    0  0.00000000000E+00  0.00000000000E+00  0.74505805969E-08  0.10566000000E+00  0.10566000000E+00 0.  1.
     999900   -1    0    0    0    0 -0.00000000000E+00 -0.00000000000E+00 -0.74505805969E-08  0.93827000000E+00  0.93827000000E+00 0.  1.
     999902    2    1    2    0    0  0.23734386240E-01  0.22775919544E-02 -0.13205461411E-04  0.10200865797E+01  0.10198078846E+01 0.  0.
     999903    2    3    3    0    0 -0.10462050933E+00 -0.69084770857E-01  0.16366096689E-01  0.12776609495E+00  0.18389381740E-01 0.  0.
         14    1    1    2    0    0 -0.23734386240E-01 -0.22775919544E-02  0.13205461411E-04  0.23843420260E-01  0.00000000000E+00 0. -1.
     999901    1    3    3    0    0  0.12835489557E+00  0.71362362812E-01 -0.16379302150E-01  0.89232048479E+00  0.88000000000E+00 0. -1.
        -11    1    4    4    0    0 -0.51708078011E-01 -0.37937338565E-01  0.17044886259E-01  0.66360803624E-01  0.51100000000E-03 0. -1.
         11    1    4    4    0    0 -0.52912431316E-01 -0.31147432292E-01 -0.67878956969E-03  0.61405291323E-01  0.51100000000E-03 0.  1.
</event>
<event>
 8    1  0.1170483E+005  0.1043930E+01  0.7957747E-01            NaN
         13   -1    0    0    0    0  0.00000000000E+00  0.00000000000E+00  0.74505805969E-08  0.10566000000E+00  0.10566000000E+00 0.  1.
     999900   -1    0    0    0    0 -0.00000000000E+00 -0.00000000000E+00 -0.74505805969E-08  0.93827000000E+00  0.93827000000E+00 0.  1.
     999902    2    1    2    0    0  0.10663116368E-01  0.19632125736E-01  0.59970422073E-02  0.10207980540E+01  0.10205359279E+01 0.  0.
     999903    2    3    3    0    0  0.94031271733E-01 -0.72031982722E-01  0.52147982873E-01  0.13092027168E+00  0.19753957056E-01 0.  0.
         14    1    1    2    0    0 -0.10663116368E-01 -0.19632125736E-01 -0.59970422073E-02  0.23131946023E-01  0.00000000000E+00 0.  1.
     999901    1    3    3    0    0 -0.83368155366E-01  0.91664108458E-01 -0.46150940665E-01  0.88987778230E+00  0.88000000000E+00 0.  1.
        -11    1    4    4    0    0  0.67970775718E-01 -0.51935871384E-01  0.47008266030E-01  0.97608397611E-01  0.51100000000E-03 0. -1.
         11    1    4    4    0    0  0.26060496016E-01 -0.20096111338E-01  0.51397168431E-02  0.33311874065E-01  0.51100000000E-03 0.  1.
</event>
<event>
 7    1  0.1562715E+005  0.1043930E+01  0.7957747E-01            NaN
         13   -1    0    0    0    0  0.00000000000E+00  0.00000000000E+00  0.74505805969E-08  0.10566000000E+00  0.10566000000E+00 0.  1.
     999900   -1    0    0    0    0 -0.00000000000E+00 -0.00000000000E+00 -0.74505805969E-08  0.93827000000E+00  0.93827000000E+00 0.  1.
     999903    2    1    2    0    0  0.44586042281E-01 -0.51989207356E-01 -0.67408823237E-01  0.97905621342E-01  0.18728811828E-01 0.  0.
         14    1    1    2    0    0  0.49118215582E-02 -0.55056249745E-01 -0.30983509340E-02  0.55361687163E-01  0.00000000000E+00 0.  1.
     999901    1    1    2    0    0 -0.49497863840E-01  0.10704545710E+00  0.70507174171E-01  0.89066269149E+00  0.88000000000E+00 0. -1.
        -11    1    3    3    0    0  0.85086347316E-02 -0.23358538065E-01 -0.21459852892E-01  0.32845160568E-01  0.51100000000E-03 0.  1.
         11    1    3    3    0    0  0.36077407550E-01 -0.28630669290E-01 -0.45948970344E-01  0.65060460775E-01  0.51100000000E-03 0. -1.
</event>
<event>
 8    1  0.1170483E+005  0.1043930E+01  0.7957747E-01            NaN
         13   -1    0    0    0    0  0.00000000000E+00  0.00000000000E+00  0.74505805969E-08  0.10566000000E+00  0.10566000000E+00 0.  1.
     999900   -1    0    0    0    0 -0.00000000000E+00 -0.00000000000E+00 -0.74505805969E-08  0.93827000000E+00  0.93827000000E+00 0. -1.
     999902    2    1    2    0    0 -0.95227997493E-02  0.43586423409E-02  0.20985557818E-01  0.10204763198E+01  0.10202067654E+01 0.  0.
     999903    2    3    3    0    0 -0.11375742131E+00  0.53553741799E-01  0.38166173910E-01  0.13279383844E+00  0.19203971765E-01 0.  0.
         14    1    1    2    0    0  0.95227997493E-02 -0.43586423409E-02 -0.20985557818E-01  0.23453680202E-01  0.00000000000E+00 0. -1.
     999901    1    3    3    0    0  0.10423462156E+00 -0.49195099458E-01 -0.17180616093E-01  0.88768248136E+00  0.88000000000E+00 0.  1.
        -11    1    4    4    0    0 -0.43606572506E-01  0.21210855156E-01  0.50884490798E-02  0.48760506326E-01  0.51100000000E-03 0. -1.
         11    1    4    4    0    0 -0.70150848808E-01  0.32342886643E-01  0.33077724830E-01  0.84033332112E-01  0.51100000000E-03 0.  1.
</event>
<event>
 8    1  0.1170483E+005  0.1043930E+01  0.7957747E-01            NaN
         13   -1    0    0    0    0  0.00000000000E+00  0.00000000000E+00  0.74505805969E-08  0.10566000000E+00  0.10566000000E+00 0. -1.
     999900   -1    0    0    0    0 -0.00000000000E+00 -0.00000000000E+00 -0.74505805969E-08  0.93827000000E+00  0.93827000000E+00 0. -1.
     999902    2    1    2    0    0 -0.27152110227E-02 -0.19678400017E-01  0.10036609647E-01  0.10216736451E+01  0.10214311978E+01 0.  0.
     999903    2    3    3    0    0  0.54560063676E-01  0.88083938411E-01 -0.75730319683E-01  0.12912160474E+00  0.14203053757E-01 0.  0.
         14    1    1    2    0    0  0.27152110227E-02  0.19678400017E-01 -0.10036609647E-01  0.22256354853E-01  0.00000000000E+00 0.  1.
     999901    1    3    3    0    0 -0.57275274699E-01 -0.10776233843E+00  0.85766929330E-01  0.89255204041E+00  0.88000000000E+00 0.  1.
        -11    1    4    4    0    0  0.36423391474E-01  0.47542013440E-01 -0.48054861449E-01  0.76788262894E-01  0.51100000000E-03 0. -1.
         11    1    4    4    0    0  0.18136672203E-01  0.40541924971E-01 -0.27675458234E-01  0.52333341842E-01  0.51100000000E-03 0.  1.
</event>
<event>
 8    1  0.1170483E+005  0.1043930E+01  0.7957747E-01            NaN
         13   -1    0    0    0    0  0.00000000000E+00  0.00000000000E+00  0.74505805969E-08  0.10566000000E+00  0.10566000000E+00 0. -1.
     999900   -1    0    0    0    0 -0.00000000000E+00 -0.00000000000E+00 -0.74505805969E-08  0.93827000000E+00  0.93827000000E+00 0.  1.
     999902    2    1    2    0    0 -0.70430256158E-02 -0.89427051654E-02 -0.20986909731E-01  0.10200547709E+01  0.10197753228E+01 0.  0.
     999903    2    3    3    0    0  0.81271684897E-01 -0.82540722520E-01 -0.59609516004E-01  0.13173733777E+00  0.19579941887E-01 0.  0.
         14    1    1    2    0    0  0.70430256158E-02  0.89427051654E-02  0.20986909731E-01  0.23875229121E-01  0.00000000000E+00 0.  1.
     999901    1    3    3    0    0 -0.88314710513E-01  0.73598017354E-01  0.38622606273E-01  0.88831743311E+00  0.88000000000E+00 0. -1.
        -11    1    4    4    0    0  0.30718534387E-01 -0.33475626546E-01 -0.12984848992E-01  0.47255828761E-01  0.51100000000E-03 0.  1.
         11    1    4    4    0    0  0.50553150510E-01 -0.49065095974E-01 -0.46624667012E-01  0.84481509009E-01  0.51100000000E-03 0. -1.
</event>
<event>
 8    1  0.1170483E+005  0.1043930E+01  0.7957747E-01            NaN
         13   -1    0    0    0    0  0.00000000000E+00  0.00000000000E+00  0.74505805969E-08  0.10566000000E+00  0.10566000000E+00 0. -1.
     999900   -1    0    0    0    0 -0.00000000000E+00 -0.00000000000E+00 -0.74505805969E-08  0.93827000000E+00  0.93827000000E+00 0.  1.
     999902    2    1    2    0    0 -0.21085054457E-01 -0.80887155397E-02  0.63710820804E-02  0.10204651853E+01  0.10201953719E+01 0.  0.
     999903    2    3    3    0    0 -0.60400284282E-01 -0.36459009501E-01  0.11121351206E+00  0.13291659737E+00  0.17914320411E-01 0.  0.
         14    1    1    2    0    0  0.21085054457E-01  0.80887155397E-02 -0.63710820804E-02  0.23464814668E-01  0.00000000000E+00 0.  1.
     999901    1    3    3    0    0  0.39315229826E-01  0.28370293961E-01 -0.10484242998E+00  0.88754858797E+00  0.88000000000E+00 0.  1.
        -11    1    4    4    0    0 -0.36312584789E-01 -0.11900545046E-01  0.53977176210E-01  0.66136400409E-01  0.51100000000E-03 0. -1.
         11    1    4    4    0    0 -0.24087699494E-01 -0.24558464455E-01  0.57236335849E-01  0.66780196958E-01  0.51100000000E-03 0.  1.
</event>
<event>
 8    1  0.1170483E+005  0.1043930E+01  0.7957747E-01            NaN
         13   -1    0    0    0    0  0.00000000000E+00  0.00000000000E+00  0.74505805969E-08  0.10566000000E+00  0.10566000000E+00 0.  1.
     999900   -1    0    0    0    0 -0.00000000000E+00 -0.00000000000E+00 -0.74505805969E-08  0.93827000000E+00  0.93827000000E+00 0. -1.
     999902    2    1    2    0    0 -0.19392173733E-01 -0.23828445570E-02 -0.13101084517E-01  0.10204061235E+01  0.10201349343E+01 0.  0.
     999903    2    3    3    0    0 -0.47800196153E-01  0.10727476020E+00 -0.57264128292E-01  0.13204686033E+00  0.19090835670E-01 0.  0.
         14    1    1    2    0    0  0.19392173733E-01  0.23828445570E-02  0.13101084517E-01  0.23523876505E-01  0.00000000000E+00 0. -1.
     999901    1    3    3    0    0  0.28408022419E-01 -0.10965760475E+00  0.44163043775E-01  0.88835926317E+00  0.88000000000E+00 0.  1.
        -11    1    4    4    0    0 -0.35992556205E-01  0.82017957098E-01 -0.34261698609E-01  0.95898563604E-01  0.51100000000E-03 0.  1.
         11    1    4    4    0    0 -0.11807639947E-01  0.25256803097E-01 -0.23002429683E-01  0.36148296725E-01  0.51100000000E-03 0. -1.
</event>
<event>
 8    1  0.1170483E+005  0.1043930E+01  0.7957747E-01            NaN
         13   -1    0    0    0    0  0.00000000000E+00  0.00000000000E+00  0.74505805969E-08  0.10566000000E+00  0.10566000000E+00 0.  1.
     999900   -1    0    0    0    0 -0.00000000000E+00 -0.00000000000E+00 -0.74505805969E-08  0.93827000000E+00  0.93827000000E+00 0. -1.
     999902    2    1    2    0    0 -0.47157576759E-02 -0.15715103834E-01  0.16026252004E-01  0.10209943593E+01  0.10207367135E+01 0.  0.
     999903    2    3    3    0    0  0.95062518057E-01  0.52612288006E-01 -0.66264832066E-01  0.12892028209E+00  0.20602814813E-01 0.  0.
         14    1    1    2    0    0  0.47157576759E-02  0.15715103834E-01 -0.16026252004E-01  0.22935640655E-01  0.00000000000E+00 0. -1.
     999901    1    3    3    0    0 -0.99778275733E-01 -0.68327391840E-01  0.82291084070E-01  0.89207407725E+00  0.88000000000E+00 0.  1.
        -11    1    4    4    0    0  0.57035642755E-01  0.28958756156E-01 -0.27275799118E-01  0.69540667534E-01  0.51100000000E-03 0.  1.
         11    1    4    4    0    0  0.38026875302E-01  0.23653531850E-01 -0.38989032947E-01  0.59379614561E-01  0.51100000000E-03 0. -1.
</event>
<event>
 8    1  0.1170483E+005  0.1043930E+01  0.7957747E-01            NaN
         13   -1    0    0    0    0  0.00000000000E+00  0.00000000000E+00  0.74505805969E-08  0.10566000000E+00  0.10566000000E+00 0. -1.
     999900   -1    0    0    0    0 -0.00000000000E+00 -0.00000000000E+00 -0.74505805969E-08  0.93827000000E+00  0.93827000000E+00 0.  1.
     999902    2    1    2    0    0  0.15439318485E-01 -0.16400930005E-01 -0.10060747115E-01  0.10192605514E+01  0.10189619669E+01 0.  0.
     999903    2    3    3    0    0 -0.87542239220E-01  0.67916111616E-01  0.58364598292E-01  0.12662591585E+00  0.18747116233E-01 0.  0.
         14    1    1    2    0    0 -0.15439318485E-01  0.16400930005E-01  0.10060747115E-01  0.24669448571E-01  0.00000000000E+00 0.  1.
     999901    1    3    3    0    0  0.10298155771E+00 -0.84317041621E-01 -0.68425345407E-01  0.89263463558E+00  0.88000000000E+00 0. -1.
        -11    1    4    4    0    0 -0.53947314661E-01  0.36300766338E-01  0.24890412868E-01  0.69626519155E-01  0.51100000000E-03 0.  1.
         11    1    4    4    0    0 -0.33594924560E-01  0.31615345278E-01  0.33474185423E-01  0.56999396698E-01  0.51100000000E-03 0. -1.
</event>
<event>
 8    1  0.1170483E+005  0.1043930E+01  0.7957747E-01            NaN
         13   -1    0    0    0    0  0.00000000000E+00  0.00000000000E+00  0.74505805969E-08  0.10566000000E+00  0.10566000000E+00 0. -1.
     999900   -1    0    0    0    0 -0.00000000000E+00 -0.00000000000E+00 -0.74505805969E-08  0.93827000000E+00  0.93827000000E+00 0.  1.
     999902    2    1    2    0    0 -0.30251772056E-02 -0.10714897772E-01 -0.21073021726E-01  0.10200965576E+01  0.10198180984E+01 0.  0.
     999903    2    3    3    0    0  0.87179380985E-01 -0.88010802792E-01 -0.41586886637E-01  0.13187792580E+00  0.17781234354E-01 0.  0.
         14    1    1    2    0    0  0.30251772056E-02  0.10714897772E-01  0.21073021726E-01  0.23833442388E-01  0.00000000000E+00 0. -1.
     999901    1    3    3    0    0 -0.90204558190E-01  0.77295905020E-01  0.20513864910E-01  0.88821863182E+00  0.88000000000E+00 0.  1.
        -11    1    4    4    0    0  0.64356321431E-01 -0.72158627548E-01 -0.37854326713E-01  0.10383551805E+00  0.51100000000E-03 0.  1.
         11    1    4    4    0    0  0.22823059554E-01 -0.15852175244E-01 -0.37325599237E-02  0.28042407742E-01  0.51100000000E-03 0. -1.
</event>
<event>
 7    1  0.1170483E+005  0.1043930E+01  0.7957747E-01            NaN
         13   -1    0    0    0    0  0.00000000000E+00  0.00000000000E+00  0.74505805969E-08  0.10566000000E+00  0.10566000000E+00 0.  1.
     999900   -1    0    0    0    0 -0.00000000000E+00 -0.00000000000E+00 -0.74505805969E-08  0.93827000000E+00  0.93827000000E+00 0. -1.
     999903    2    1    2    0    0  0.92618039245E-02 -0.28847321145E-01  0.99704319349E-01  0.10613524583E+00  0.20144233922E-01 0.  0.
         14    1    1    2    0    0 -0.26372793748E-01 -0.39703841882E-01  0.82965932260E-02  0.48381326660E-01  0.00000000000E+00 0.  1.
     999901    1    1    2    0    0  0.17110989823E-01  0.68551163028E-01 -0.10800091258E+00  0.88941342751E+00  0.88000000000E+00 0. -1.
        -11    1    3    3    0    0 -0.30554441647E-02 -0.21924845754E-01  0.64664744555E-01  0.68350749153E-01  0.51100000000E-03 0.  1.
         11    1    3    3    0    0  0.12317248089E-01 -0.69224753910E-02  0.35039574795E-01  0.37784496673E-01  0.51100000000E-03 0. -1.
</event>
<event>
 8    1  0.1170483E+005  0.1043930E+01  0.7957747E-01            NaN
         13   -1    0    0    0    0  0.00000000000E+00  0.00000000000E+00  0.74505805969E-08  0.10566000000E+00  0.10566000000E+00 0.  1.
     999900   -1    0    0    0    0 -0.00000000000E+00 -0.00000000000E+00 -0.74505805969E-08  0.93827000000E+00  0.93827000000E+00 0. -1.
     999902    2    1    2    0    0 -0.12584551790E-01 -0.20264824866E-02  0.22249837589E-01  0.10182875967E+01  0.10179646834E+01 0.  0.
     999903    2    3    3    0    0  0.91749167249E-01  0.18827664821E-01 -0.81668629888E-01  0.12580820293E+00  0.19635380416E-01 0.  0.
         14    1    1    2    0    0  0.12584551790E-01  0.20264824866E-02 -0.22249837589E-01  0.25642403315E-01  0.00000000000E+00 0. -1.
     999901    1    3    3    0    0 -0.10433371904E+00 -0.20854147307E-01  0.10391846748E+00  0.89247939375E+00  0.88000000000E+00 0.  1.
        -11    1    4    4    0    0  0.19748883940E-01 -0.33007153996E-02 -0.21660301505E-01  0.29501574895E-01  0.51100000000E-03 0. -1.
         11    1    4    4    0    0  0.72000283309E-01  0.22128380220E-01 -0.60008328383E-01  0.96306628038E-01  0.51100000000E-03 0.  1.
</event>
<event>
 8    1  0.1170483E+005  0.1043930E+01  0.7957747E-01            NaN
         13   -1    0    0    0    0  0.00000000000E+00  0.00000000000E+00  0.74505805969E-08  0.10566000000E+00  0.10566000000E+00 0.  1.
     999900   -1    0    0    0    0 -0.00000000000E+00 -0.00000000000E+00 -0.74505805969E-08  0.93827000000E+00  0.93827000000E+00 0. -1.
     999902    2    1    2    0    0  0.94136631882E-02  0.47475313773E-03 -0.21127351462E-01  0.10207954495E+01  0.10205332637E+01 0.  0.
     999903    2    3    3    0    0  0.62660840474E-01  0.92560639903E-01 -0.69285644510E-01  0.13308249277E+00  0.20410692255E-01 0.  0.
         14    1    1    2    0    0 -0.94136631882E-02 -0.47475313773E-03  0.21127351462E-01  0.23134550460E-01  0.00000000000E+00 0.  1.
     999901    1    3    3    0    0 -0.53247177286E-01 -0.92085886765E-01  0.48158293047E-01  0.88771295677E+00  0.88000000000E+00 0.  1.
        -11    1    4    4    0    0  0.32705481501E-01  0.53800401334E-01 -0.27555348627E-01  0.68729106373E-01  0.51100000000E-03 0. -1.
         11    1    4    4    0    0  0.29955358973E-01  0.38760238569E-01 -0.41730295883E-01  0.64353386396E-01  0.51100000000E-03 0.  1.
</event>
<event>
 8    1  0.1170483E+005  0.1043930E+01  0.7957747E-01            NaN
         13   -1    0    0    0    0  0.00000000000E+00  0.00000000000E+00  0.74505805969E-08  0.10566000000E+00  0.10566000000E+00 0.  1.
     999900   -1    0    0    0    0 -0.00000000000E+00 -0.00000000000E+00 -0.74505805969E-08  0.93827000000E+00  0.93827000000E+00 0.  1.
     999902    2    1    2    0    0 -0.21508750478E-01 -0.68774845180E-02 -0.63602497354E-02  0.10204698441E+01  0.10202001390E+01 0.  0.
     999903    2    3    3    0    0 -0.69561862969E-01 -0.47081575199E-02 -0.11128105534E+00  0.13293269945E+00  0.20654534076E-01 0.  0.
         14    1    1    2    0    0  0.21508750478E-01  0.68774845180E-02  0.63602497354E-02  0.23460155948E-01  0.00000000000E+00 0.  1.
     999901    1    3    3    0    0  0.48053112492E-01 -0.21693269981E-02  0.10492080561E+00  0.88753714460E+00  0.88000000000E+00 0. -1.
        -11    1    4    4    0    0 -0.49264777322E-01 -0.12706439326E-01 -0.76659163440E-01  0.92007392884E-01  0.51100000000E-03 0.  1.
         11    1    4    4    0    0 -0.20297085648E-01  0.79982818062E-02 -0.34621891902E-01  0.40925306566E-01  0.51100000000E-03 0. -1.
</event>
<event>
 8    1  0.1170483E+005  0.1043930E+01  0.7957747E-01            NaN
         13   -1    0    0    0    0  0.00000000000E+00  0.00000000000E+00  0.74505805969E-08  0.10566000000E+00  0.10566000000E+00 0.  1.
     999900   -1    0    0    0    0 -0.00000000000E+00 -0.00000000000E+00 -0.74505805969E-08  0.93827000000E+00  0.93827000000E+00 0. -1.
     999902    2    1    2    0    0  0.11527125661E-01 -0.20724230909E-02 -0.20452678985E-01  0.10203613420E+01  0.10200891072E+01 0.  0.
     999903    2    3    3    0    0  0.29024207590E-01 -0.38040867624E-01 -0.12292815273E+00  0.13351236972E+00  0.20608490935E-01 0.  0.
         14    1    1    2    0    0 -0.11527125661E-01  0.20724230909E-02  0.20452678985E-01  0.23568658026E-01  0.00000000000E+00 0.  1.
     999901    1    3    3    0    0 -0.17497081928E-01  0.35968444533E-01  0.10247547374E+00  0.88684897226E+00  0.88000000000E+00 0.  1.
        -11    1    4    4    0    0  0.18663112569E-01 -0.10699913923E-01 -0.67443255991E-01  0.70793035169E-01  0.51100000000E-03 0.  1.
         11    1    4    4    0    0  0.10361095021E-01 -0.27340953701E-01 -0.55484896734E-01  0.62719334546E-01  0.51100000000E-03 0. -1.
</event>
<event>
 8    1  0.1170483E+005  0.1043930E+01  0.7957747E-01            NaN
         13   -1    0    0    0    0  0.00000000000E+00  0.00000000000E+00  0.74505805969E-08  0.10566000000E+00  0.10566000000E+00 0.  1.
     999900   -1    0    0    0    0 -0.00000000000E+00 -0.00000000000E+00 -0.74505805969E-08  0.93827000000E+00  0.93827000000E+00 0.  1.
     999902    2    1    2    0    0 -0.24112252962E-02 -0.24285243216E-01  0.20939462507E-02  0.10194356811E+01  0.10191413721E+01 0.  0.
     999903    2    3    3    0    0  0.59324404598E-01  0.10813062702E+00 -0.23824812792E-01  0.12701367740E+00  0.18794548703E-01 0.  0.
         14    1    1    2    0    0  0.24112252962E-02  0.24285243216E-01 -0.20939462507E-02  0.24494318860E-01  0.00000000000E+00 0.  1.
     999901    1    3    3    0    0 -0.61735629894E-01 -0.13241587024E+00  0.25918759043E-01  0.89242200374E+00  0.88000000000E+00 0. -1.
        -11    1    4    4    0    0  0.13389672963E-01  0.42516248791E-01 -0.10764352197E-01  0.45858992058E-01  0.51100000000E-03 0. -1.
         11    1    4    4    0    0  0.45934731636E-01  0.65614378231E-01 -0.13060460595E-01  0.81154685342E-01  0.51100000000E-03 0.  1.
</event>
<event>
 8    1  0.1170483E+005  0.1043930E+01  0.7957747E-01            NaN
         13   -1    0    0    0    0  0.00000000000E+00  0.00000000000E+00  0.74505805969E-08  0.10566000000E+00  0.10566000000E+00 0. -1.
     999900   -1    0    0    0    0 -0.00000000000E+00 -0.00000000000E+00 -0.74505805969E-08  0.93827000000E+00  0.93827000000E+00 0.  1.
     999902    2    1    2    0    0 -0.20357166356E-01  0.80444877342E-02 -0.96013680459E-02  0.10200278186E+01  0.10197477318E+01 0.  0.
     999903    2    3    3    0    0  0.11967494210E-01 -0.91292248121E-01  0.87496213820E-01  0.12854556354E+00  0.19770659782E-01 0.  0.
         14    1    1    2    0    0  0.20357166356E-01 -0.80444877342E-02  0.96013680459E-02  0.23902181350E-01  0.00000000000E+00 0. -1.
     999901    1    3    3    0    0 -0.32324660566E-01  0.99336735856E-01 -0.97097581866E-01  0.89148225511E+00  0.88000000000E+00 0.  1.
        -11    1    4    4    0    0  0.12269325912E-02 -0.56921786200E-01  0.63403211300E-01  0.85216333129E-01  0.51100000000E-03 0. -1.
         11    1    4    4    0    0  0.10740561619E-01 -0.34370461921E-01  0.24093002520E-01  0.43329230411E-01  0.51100000000E-03 0.  1.
</event>
<event>
 8    1  0.1170483E+005  0.1043930E+01  0.7957747E-01            NaN
         13   -1    0    0    0    0  0.00000000000E+00  0.00000000000E+00  0.74505805969E-08  0.10566000000E+00  0.10566000000E+00 0.  1.
     999900   -1    0    0    0    0 -0.00000000000E+00 -0.00000000000E+00 -0.74505805969E-08  0.93827000000E+00  0.93827000000E+00 0.  1.
     999902    2    1    2    0    0  0.16448096991E-01  0.17700353298E-01 -0.37731714028E-02  0.10194743417E+01  0.10191809722E+01 0.  0.
     999903    2    3    3    0    0 -0.44640245192E-01 -0.11733153116E+00 -0.12678407797E-01  0.12703683765E+00  0.14770795527E-01 0.  0.
         14    1    1    2    0    0 -0.16448096991E-01 -0.17700353298E-01  0.37731714028E-02  0.24455658322E-01  0.00000000000E+00 0. -1.
     999901    1    3    3    0    0  0.61088342183E-01  0.13503188445E+00  0.89052363943E-02  0.89243750403E+00  0.88000000000E+00 0.  1.
        -11    1    4    4    0    0 -0.82194925745E-02 -0.22782732476E-01  0.33451447363E-02  0.24455348526E-01  0.51100000000E-03 0. -1.
         11    1    4    4    0    0 -0.36420752617E-01 -0.94548798680E-01 -0.16023552533E-01  0.10258148912E+00  0.51100000000E-03 0.  1.
</event>
<event>
 8    1  0.1170483E+005  0.1043930E+01  0.7957747E-01            NaN
         13   -1    0    0    0    0  0.00000000000E+00  0.00000000000E+00  0.74505805969E-08  0.10566000000E+00  0.10566000000E+00 0.  1.
     999900   -1    0    0    0    0 -0.00000000000E+00 -0.00000000000E+00 -0.74505805969E-08  0.93827000000E+00  0.93827000000E+00 0.  1.
     999902    2    1    2    0    0  0.75034920604E-03 -0.21317405768E-01  0.99237038070E-02  0.10204039568E+01  0.10201327170E+01 0.  0.
     999903    2    3    3    0    0 -0.84465620539E-01 -0.31225762482E-01 -0.92068104850E-01  0.13036897653E+00  0.20249563305E-01 0.  0.
         14    1    1    2    0    0 -0.75034920604E-03  0.21317405768E-01 -0.99237038070E-02  0.23526043226E-01  0.00000000000E+00 0. -1.
     999901    1    3    3    0    0  0.85215969745E-01  0.99083567145E-02  0.10199180866E+00  0.89003498025E+00  0.88000000000E+00 0.  1.
        -11    1    4    4    0    0 -0.16907681061E-01 -0.15471509268E-01 -0.23464696734E-01  0.32803816725E-01  0.51100000000E-03 0. -1.
         11    1    4    4    0    0 -0.67557939478E-01 -0.15754253214E-01 -0.68603408116E-01  0.97565159801E-01  0.51100000000E-03 0.  1.
</event>
<event>
 8    1  0.1170483E+005  0.1043930E+01  0.7957747E-01            NaN
         13   -1    0    0    0    0  0.00000000000E+00  0.00000000000E+00  0.74505805969E-08  0.10566000000E+00  0.10566000000E+00 0. -1.
     999900   -1    0    0    0    0 -0.00000000000E+00 -0.00000000000E+00 -0.74505805969E-08  0.93827000000E+00  0.93827000000E+00 0.  1.
     999902    2    1    2    0    0  0.39813412763E-02 -0.20865510803E-01  0.11000632495E-01  0.10200085758E+01  0.10197280325E+01 0.  0.
     999903    2    3    3    0    0  0.39095163583E-01 -0.11169089918E-01 -0.12114190317E+00  0.12939718423E+00  0.20373762508E-01 0.  0.
         14    1    1    2    0    0 -0.39813412763E-02  0.20865510803E-01 -0.11000632495E-01  0.23921424178E-01  0.00000000000E+00 0. -1.
     999901    1    3    3    0    0 -0.35113822307E-01 -0.96964208853E-02  0.13214253566E+00  0.89061139159E+00  0.88000000000E+00 0. -1.
        -11    1    4    4    0    0  0.23717641830E-01 -0.16725182312E-01 -0.81392353221E-01  0.86413161852E-01  0.51100000000E-03 0. -1.
         11    1    4    4    0    0  0.15377521754E-01  0.55560923947E-02 -0.39749549949E-01  0.42984022382E-01  0.51100000000E-03 0.  1.
</event>
<event>
 8    1  0.1170483E+005  0.1043930E+01  0.7957747E-01            NaN
         13   -1    0    0    0    0  0.00000000000E+00  0.00000000000E+00  0.74505805969E-08  0.10566000000E+00  0.10566000000E+00 0. -1.
     999900   -1    0    0    0    0 -0.00000000000E+00 -0.00000000000E+00 -0.74505805969E-08  0.93827000000E+00  0.93827000000E+00 0.  1.
     999902    2    1    2    0    0  0.46973639279E-02  0.12600736665E-01  0.21891264911E-01  0.10182381478E+01  0.10179139719E+01 0.  0.
     999903    2    3    3    0    0  0.97295076706E-01  0.84167763200E-01  0.61146267494E-02  0.13035016044E+00  0.20080621363E-01 0.  0.
         14    1    1    2    0    0 -0.46973639279E-02 -0.12600736665E-01 -0.21891264911E-01  0.25691852245E-01  0.00000000000E+00 0.  1.
     999901    1    3    3    0    0 -0.92597712778E-01 -0.71567026536E-01  0.15776638162E-01  0.88788798731E+00  0.88000000000E+00 0. -1.
        -11    1    4    4    0    0  0.75098073088E-01  0.59585625933E-01  0.12300929117E-01  0.96652684275E-01  0.51100000000E-03 0.  1.
         11    1    4    4    0    0  0.22197003618E-01  0.24582137267E-01 -0.61863023680E-02  0.33697476170E-01  0.51100000000E-03 0. -1.
</event>
<event>
 8    1  0.1170483E+005  0.1043930E+01  0.7957747E-01            NaN
         13   -1    0    0    0    0  0.00000000000E+00  0.00000000000E+00  0.74505805969E-08  0.10566000000E+00  0.10566000000E+00 0.  1.
     999900   -1    0    0    0    0 -0.00000000000E+00 -0.00000000000E+00 -0.74505805969E-08  0.93827000000E+00  0.93827000000E+00 0.  1.
     999902    2    1    2    0    0  0.16133657976E-01 -0.13716139739E-01 -0.83374710949E-02  0.10211716865E+01  0.10209180538E+01 0.  0.
     999903    2    3    3    0    0  0.56302316916E-01 -0.11596476490E+00  0.28659363610E-01  0.13356982289E+00  0.20043973553E-01 0.  0.
         14    1    1    2    0    0 -0.16133657976E-01  0.13716139739E-01  0.83374710949E-02  0.22758313499E-01  0.00000000000E+00 0.  1.
     999901    1    3    3    0    0 -0.40168658939E-01  0.10224862516E+00 -0.36996834705E-01  0.88760186361E+00  0.88000000000E+00 0.  1.
        -11    1    4    4    0    0  0.38490398534E-01 -0.56853246120E-01  0.13050720324E-01  0.69888373824E-01  0.51100000000E-03 0. -1.
         11    1    4    4    0    0  0.17811918381E-01 -0.59111518780E-01  0.15608643287E-01  0.63681449066E-01  0.51100000000E-03 0.  1.
</event>
<event>
 8    1  0.1170483E+005  0.1043930E+01  0.7957747E-01            NaN
         13   -1    0    0    0    0  0.00000000000E+00  0.00000000000E+00  0.74505805969E-08  0.10566000000E+00  0.10566000000E+00 0.  1.
     999900   -1    0    0    0    0 -0.00000000000E+00 -0.00000000000E+00 -0.74505805969E-08  0.93827000000E+00  0.93827000000E+00 0.  1.
     999902    2    1    2    0    0  0.99633971224E-02 -0.18328787223E-01  0.11745947702E-01  0.10199888010E+01  0.10197077881E+01 0.  0.
     999903    2    3    3    0    0 -0.21470378070E-01  0.76249456460E-01  0.10088884183E+00  0.12988791794E+00  0.20429294563E-01 0.  0.
         14    1    1    2    0    0 -0.99633971224E-02  0.18328787223E-01 -0.11745947702E-01  0.23941199024E-01  0.00000000000E+00 0. -1.
     999901    1    3    3    0    0  0.31433775193E-01 -0.94578243684E-01 -0.89142894131E-01  0.89010088303E+00  0.88000000000E+00 0.  1.
        -11    1    4    4    0    0 -0.23866016423E-01  0.49735345137E-01  0.69084981402E-01  0.88409202418E-01  0.51100000000E-03 0.  1.
         11    1    4    4    0    0  0.23956383526E-02  0.26514111323E-01  0.31803860431E-01  0.41478715526E-01  0.51100000000E-03 0. -1.
</event>
<event>
 8    1  0.1170483E+005  0.1043930E+01  0.7957747E-01            NaN
         13   -1    0    0    0    0  0.00000000000E+00  0.00000000000E+00  0.74505805969E-08  0.10566000000E+00  0.10566000000E+00 0. -1.
     999900   -1    0    0    0    0 -0.00000000000E+00 -0.00000000000E+00 -0.74505805969E-08  0.93827000000E+00  0.93827000000E+00 0. -1.
     999902    2    1    2    0    0 -0.89381534659E-02  0.99344785191E-02 -0.20559058707E-01  0.10194094098E+01  0.10191144614E+01 0.  0.
     999903    2    3    3    0    0 -0.12836808036E+00  0.15812084134E-01 -0.10998318792E-01  0.13127121025E+00  0.19564804177E-01 0.  0.
         14    1    1    2    0    0  0.89381534659E-02 -0.99344785191E-02  0.20559058707E-01  0.24520590240E-01  0.00000000000E+00 0. -1.
     999901    1    3    3    0    0  0.11942992690E+00 -0.58776056150E-02 -0.95607399150E-02  0.88813819951E+00  0.88000000000E+00 0.  1.
        -11    1    4    4    0    0 -0.68088907794E-03  0.18761042434E-02  0.95298270639E-03  0.22699502434E-02  0.51100000000E-03 0.  1.
         11    1    4    4    0    0 -0.12768719129E+00  0.13935979891E-01 -0.11951301498E-01  0.12900126000E+00  0.51100000000E-03 0. -1.
</event>
<event>
 7    1  0.1170483E+005  0.1043930E+01  0.7957747E-01            NaN
         13   -1    0    0    0    0  0.00000000000E+00  0.00000000000E+00  0.74505805969E-08  0.10566000000E+00  0.10566000000E+00 0.  1.
     999900   -1    0    0    0    0 -0.00000000000E+00 -0.00000000000E+00 -0.74505805969E-08  0.93827000000E+00  0.93827000000E+00 0.  1.
     999902    2    1    2    0    0  0.18541662647E-02 -0.17976765295E-01 -0.11190084514E-01  0.10226739417E+01  0.10224530165E+01 0.  0.
         14    1    1    2    0    0 -0.18541662647E-02  0.17976765295E-01  0.11190084514E-01  0.21256058300E-01  0.00000000000E+00 0.  1.
     999901    1    3    3    0    0  0.43176995629E-01 -0.10256569046E+00  0.81200815305E-01  0.89071743343E+00  0.88000000000E+00 0. -1.
        -11    1    3    3    0    0 -0.29812155360E-01  0.63501016515E-01 -0.67307493575E-01  0.97219872032E-01  0.51100000000E-03 0. -1.
         11    1    3    3    0    0 -0.11510674004E-01  0.21087908649E-01 -0.25083406245E-01  0.34736636237E-01  0.51100000000E-03 0.  1.
</event>
<event>
 8    1  0.1170483E+005  0.1043930E+01  0.7957747E-01            NaN
         13   -1    0    0    0    0  0.00000000000E+00  0.00000000000E+00  0.74505805969E-08  0.10566000000E+00  0.10566000000E+00 0. -1.
     999900   -1    0    0    0    0 -0.00000000000E+00 -0.00000000000E+00 -0.74505805969E-08  0.93827000000E+00  0.93827000000E+00 0.  1.
     999902    2    1    2    0    0  0.23778740932E-03  0.37119887393E-02 -0.24503831558E-01  0.10191454652E+01  0.10188440539E+01 0.  0.
     999903    2    3    3    0    0 -0.10170710375E-01  0.12541081394E+00 -0.29006028746E-01  0.13069782430E+00  0.20230075899E-01 0.  0.
         14    1    1    2    0    0 -0.23778740932E-03 -0.37119887393E-02  0.24503831558E-01  0.24784534780E-01  0.00000000000E+00 0. -1.
     999901    1    3    3    0    0  0.10408497784E-01 -0.12169882520E+00  0.45021971881E-02  0.88844764092E+00  0.88000000000E+00 0.  1.
        -11    1    4    4    0    0 -0.11505409902E-02  0.83825354869E-01 -0.27075263149E-01  0.88098495215E-01  0.51100000000E-03 0. -1.
         11    1    4    4    0    0 -0.90201693846E-02  0.41585459067E-01 -0.19307655973E-02  0.42599329083E-01  0.51100000000E-03 0.  1.
</event>
<event>
 8    1  0.1170483E+005  0.1043930E+01  0.7957747E-01            NaN
         13   -1    0    0    0    0  0.00000000000E+00  0.00000000000E+00  0.74505805969E-08  0.10566000000E+00  0.10566000000E+00 0.  1.
     999900   -1    0    0    0    0 -0.00000000000E+00 -0.00000000000E+00 -0.74505805969E-08  0.93827000000E+00  0.93827000000E+00 0. -1.
     999902    2    1    2    0    0 -0.13517778133E-01  0.20067902914E-01 -0.82895386554E-03  0.10197197084E+01  0.10194322663E+01 0.  0.
     999903    2    3    3    0    0 -0.96866572424E-01 -0.24262962794E-01 -0.81969018163E-01  0.13095879728E+00  0.21435074770E-01 0.  0.
         14    1    1    2    0    0  0.13517778133E-01 -0.20067902914E-01  0.82895386554E-03  0.24210291562E-01  0.00000000000E+00 0.  1.
     999901    1    3    3    0    0  0.83348794291E-01  0.44330865707E-01  0.81140064297E-01  0.88876091116E+00  0.88000000000E+00 0.  1.
        -11    1    4    4    0    0 -0.49345868486E-01 -0.44417260591E-02 -0.30655184073E-01  0.58264441116E-01  0.51100000000E-03 0.  1.
         11    1    4    4    0    0 -0.47520703938E-01 -0.19821236734E-01 -0.51313834090E-01  0.72694356167E-01  0.51100000000E-03 0. -1.
</event>
<event>
 8    1  0.1170483E+005  0.1043930E+01  0.7957747E-01            NaN
         13   -1    0    0    0    0  0.00000000000E+00  0.00000000000E+00  0.74505805969E-08  0.10566000000E+00  0.10566000000E+00 0.  1.
     999900   -1    0    0    0    0 -0.00000000000E+00 -0.00000000000E+00 -0.74505805969E-08  0.93827000000E+00  0.93827000000E+00 0.  1.
     999902    2    1    2    0    0  0.10043537587E-01  0.19340915674E-01 -0.41401652056E-02  0.10217470193E+01  0.10215061854E+01 0.  0.
     999903    2    3    3    0    0  0.25347016227E-01  0.11707668033E+00  0.57154204988E-01  0.13408521657E+00  0.19047882990E-01 0.  0.
         14    1    1    2    0    0 -0.10043537587E-01 -0.19340915674E-01  0.41401652056E-02  0.22182980736E-01  0.00000000000E+00 0.  1.
     999901    1    3    3    0    0 -0.15303478640E-01 -0.97735764651E-01 -0.61294370193E-01  0.88766180270E+00  0.88000000000E+00 0.  1.
        -11    1    4    4    0    0  0.25741429762E-01  0.91445785690E-01  0.39127716042E-01  0.10274333171E+00  0.51100000000E-03 0. -1.
         11    1    4    4    0    0 -0.39441353441E-03  0.25630894636E-01  0.18026488946E-01  0.31341884860E-01  0.51100000000E-03 0.  1.
</event>
<event>
 8    1  0.1170483E+005  0.1043930E+01  0.7957747E-01            NaN
         13   -1    0    0    0    0  0.00000000000E+00  0.00000000000E+00  0.74505805969E-08  0.10566000000E+00  0.10566000000E+00 0. -1.
     999900   -1    0    0    0    0 -0.00000000000E+00 -0.00000000000E+00 -0.74505805969E-08  0.93827000000E+00  0.93827000000E+00 0.  1.
     999902    2    1    2    0    0 -0.11648260631E-01  0.17971821814E-01  0.11390736268E-01  0.10196726871E+01  0.10193841139E+01 0.  0.
     999903    2    3    3    0    0 -0.97971405184E-01  0.45945802247E-01 -0.71311898179E-01  0.13114921833E+00  0.20132502773E-01 0.  0.
         14    1    1    2    0    0  0.11648260631E-01 -0.17971821814E-01 -0.11390736268E-01  0.24257312873E-01  0.00000000000E+00 0. -1.
     999901    1    3    3    0    0  0.86323144553E-01 -0.27973980432E-01  0.82702634447E-01  0.88852346880E+00  0.88000000000E+00 0.  1.
        -11    1    4    4    0    0 -0.19767553540E-01  0.47643809496E-02 -0.21903433474E-01  0.29891085925E-01  0.51100000000E-03 0. -1.
         11    1    4    4    0    0 -0.78203851644E-01  0.41181421297E-01 -0.49408464704E-01  0.10125813240E+00  0.51100000000E-03 0.  1.
</event>
<event>
 8    1  0.1170483E+005  0.1043930E+01  0.7957747E-01            NaN
         13   -1    0    0    0    0  0.00000000000E+00  0.00000000000E+00  0.74505805969E-08  0.10566000000E+00  0.10566000000E+00 0.  1.
     999900   -1    0    0    0    0 -0.00000000000E+00 -0.00000000000E+00 -0.74505805969E-08  0.93827000000E+00  0.93827000000E+00 0.  1.
     999902    2    1    2    0    0  0.15914540984E-01 -0.43225281828E-04  0.20393015117E-01  0.10180620749E+01  0.10177333830E+01 0.  0.
     999903    2    3    3    0    0 -0.11885976704E+00  0.23763256438E-02 -0.35518901713E-01  0.12604407577E+00  0.22186155894E-01 0.  0.
         14    1    1    2    0    0 -0.15914540984E-01  0.43225281828E-04 -0.20393015117E-01  0.25867925095E-01  0.00000000000E+00 0. -1.
     999901    1    3    3    0    0  0.13477430803E+00 -0.24195509256E-02  0.55911916830E-01  0.89201799913E+00  0.88000000000E+00 0. -1.
        -11    1    4    4    0    0 -0.40330021860E-01 -0.47738657411E-02 -0.21489572077E-01  0.45949573299E-01  0.51100000000E-03 0. -1.
         11    1    4    4    0    0 -0.78529745185E-01  0.71501913848E-02 -0.14029329636E-01  0.80094502475E-01  0.51100000000E-03 0.  1.
</event>
<event>
 8    1  0.1170483E+005  0.1043930E+01  0.7957747E-01            NaN
         13   -1    0    0    0    0  0.00000000000E+00  0.00000000000E+00  0.74505805969E-08  0.10566000000E+00  0.10566000000E+00 0.  1.
     999900   -1    0    0    0    0 -0.00000000000E+00 -0.00000000000E+00 -0.74505805969E-08  0.93827000000E+00  0.93827000000E+00 0.  1.
     999902    2    1    2    0    0  0.21476354608E-01  0.86361706650E-02 -0.66558501721E-02  0.10198443696E+01  0.10195599151E+01 0.  0.
     999903    2    3    3    0    0  0.78062918375E-01  0.85575922049E-01 -0.62126399635E-01  0.13294034637E+00  0.19909507798E-01 0.  0.
         14    1    1    2    0    0 -0.21476354608E-01 -0.86361706650E-02  0.66558501721E-02  0.24085630416E-01  0.00000000000E+00 0.  1.
     999901    1    3    3    0    0 -0.56586563767E-01 -0.76939751384E-01  0.55470549463E-01  0.88690402322E+00  0.88000000000E+00 0. -1.
        -11    1    4    4    0    0  0.61041697093E-01  0.73623554122E-01 -0.43704112539E-01  0.10515144830E+00  0.51100000000E-03 0. -1.
         11    1    4    4    0    0  0.17021221281E-01  0.11952367927E-01 -0.18422287095E-01  0.27788898067E-01  0.51100000000E-03 0.  1.
</event>
<event>
 8    1  0.1170483E+005  0.1043930E+01  0.7957747E-01            NaN
         13   -1    0    0    0    0  0.00000000000E+00  0.00000000000E+00  0.74505805969E-08  0.10566000000E+00  0.10566000000E+00 0. -1.
     999900   -1    0    0    0    0 -0.00000000000E+00 -0.00000000000E+00 -0.74505805969E-08  0.93827000000E+00  0.93827000000E+00 0.  1.
     999902    2    1    2    0    0  0.20419413640E-01 -0.12111981913E-01  0.57976687057E-02  0.10194909836E+01  0.10191980181E+01 0.  0.
     999903    2    3    3    0    0  0.10967901730E+00  0.67849813912E-01  0.15553434472E-01  0.13131513357E+00  0.19200804623E-01 0.  0.
         14    1    1    2    0    0 -0.20419413640E-01  0.12111981913E-01 -0.57976687057E-02  0.24439016381E-01  0.00000000000E+00 0. -1.
     999901    1    3    3    0    0 -0.89259603659E-01 -0.79961795826E-01 -0.97557657662E-02  0.88817585004E+00  0.88000000000E+00 0.  1.
        -11    1    4    4    0    0  0.31295534597E-01  0.22769594906E-01  0.13085283258E-01  0.40857688344E-01  0.51100000000E-03 0. -1.
         11    1    4    4    0    0  0.78383482702E-01  0.45080219006E-01  0.24681512141E-02  0.90457445230E-01  0.51100000000E-03 0.  1.
</event>
<event>
 8    1  0.1170483E+005  0.1043930E+01  0.7957747E-01            NaN
         13   -1    0    0    0    0  0.00000000000E+00  0.00000000000E+00  0.74505805969E-08  0.10566000000E+00  0.10566000000E+00 0. -1.
     999900   -1    0    0    0    0 -0.00000000000E+00 -0.00000000000E+00 -0.74505805969E-08  0.93827000000E+00  0.93827000000E+00 0. -1.
     999902    2    1    2    0    0  0.19183243364E-01  0.90404865587E-02 -0.10606307363E-01  0.10202188006E+01  0.10199432239E+01 0.  0.
     999903    2    3    3    0    0  0.44664348465E-01  0.12208249969E+00 -0.16195248874E-01  0.13260457145E+00  0.20558344513E-01 0.  0.
         14    1    1    2    0    0 -0.19183243364E-01 -0.90404865587E-02  0.10606307363E-01  0.23711199443E-01  0.00000000000E+00 0.  1.
     999901    1    3    3    0    0 -0.25481105101E-01 -0.11304201313E+00  0.55889415110E-02  0.88761422911E+00  0.88000000000E+00 0. -1.
        -11    1    4    4    0    0  0.52581343995E-02  0.37102377629E-01 -0.96698466908E-02  0.38704023810E-01  0.51100000000E-03 0. -1.
         11    1    4    4    0    0  0.39406214065E-01  0.84980122058E-01 -0.65254021827E-02  0.93900547638E-01  0.51100000000E-03 0.  1.
</event>
<event>
 8    1  0.1170483E+005  0.1043930E+01  0.7957747E-01            NaN
         13   -1    0    0    0    0  0.00000000000E+00  0.00000000000E+00  0.74505805969E-08  0.10566000000E+00  0.10566000000E+00 0.  1.
     999900   -1    0    0    0    0 -0.00000000000E+00 -0.00000000000E+00 -0.74505805969E-08  0.93827000000E+00  0.93827000000E+00 0. -1.
     999902    2    1    2    0    0  0.15169252586E-01 -0.16587350603E-01  0.31326515590E-02  0.10212350682E+01  0.10209828620E+01 0.  0.
     999903    2    3    3    0    0  0.16940653454E-01  0.94979232602E-02 -0.12813388972E+00  0.13111457959E+00  0.19888262831E-01 0.  0.
         14    1    1    2    0    0 -0.15169252586E-01  0.16587350603E-01 -0.31326515590E-02  0.22694931809E-01  0.00000000000E+00 0.  1.
     999901    1    3    3    0    0 -0.17714008679E-02 -0.26085273864E-01  0.13126654128E+00  0.89012048860E+00  0.88000000000E+00 0.  1.
        -11    1    4    4    0    0  0.13597029443E-01 -0.97125239815E-03 -0.99656650775E-01  0.10058594189E+00  0.51100000000E-03 0.  1.
         11    1    4    4    0    0  0.33436240110E-02  0.10469175658E-01 -0.28477238949E-01  0.30528637697E-01  0.51100000000E-03 0. -1.
</event>
<event>
 8    1  0.1170483E+005  0.1043930E+01  0.7957747E-01            NaN
         13   -1    0    0    0    0  0.00000000000E+00  0.00000000000E+00  0.74505805969E-08  0.10566000000E+00  0.10566000000E+00 0. -1.
     999900   -1    0    0    0    0 -0.00000000000E+00 -0.00000000000E+00 -0.74505805969E-08  0.93827000000E+00  0.93827000000E+00 0. -1.
     999902    2    1    2    0    0 -0.19956593807E-01  0.11485466249E-01 -0.57857823393E-02  0.10201885416E+01  0.10199122528E+01 0.  0.
     999903    2    3    3    0    0  0.17183114131E-01  0.22272593053E-01  0.12511201416E+00  0.12966624923E+00  0.19209172039E-01 0.  0.
         14    1    1    2    0    0  0.19956593807E-01 -0.11485466249E-01  0.57857823393E-02  0.23741458435E-01  0.00000000000E+00 0. -1.
     999901    1    3    3    0    0 -0.37139707938E-01 -0.10787126804E-01 -0.13089779650E+00  0.89052229233E+00  0.88000000000E+00 0. -1.
        -11    1    4    4    0    0  0.12087389602E-01  0.23829203798E-01  0.82527902121E-01  0.86747055804E-01  0.51100000000E-03 0. -1.
         11    1    4    4    0    0  0.50957245291E-02 -0.15566107456E-02  0.42584112040E-01  0.42919193430E-01  0.51100000000E-03 0.  1.
</event>
<event>
 8    1  0.1170483E+005  0.1043930E+01  0.7957747E-01            NaN
         13   -1    0    0    0    0  0.00000000000E+00  0.00000000000E+00  0.74505805969E-08  0.10566000000E+00  0.10566000000E+00 0. -1.
     999900   -1    0    0    0    0 -0.00000000000E+00 -0.00000000000E+00 -0.74505805969E-08  0.93827000000E+00  0.93827000000E+00 0.  1.
     999902    2    1    2    0    0  0.22177318723E-01 -0.21363292765E-02  0.46567140538E-03  0.10216451572E+01  0.10214020820E+01 0.  0.
     999903    2    3    3    0    0 -0.79776926883E-02 -0.12160043639E+00 -0.45991421274E-01  0.13184784373E+00  0.20453199160E-01 0.  0.
         14    1    1    2    0    0 -0.22177318723E-01  0.21363292765E-02 -0.46567140538E-03  0.22284842794E-01  0.00000000000E+00 0.  1.
     999901    1    3    3    0    0  0.30155011411E-01  0.11946410711E+00  0.46457092679E-01  0.88979731347E+00  0.88000000000E+00 0.  1.
        -11    1    4    4    0    0 -0.12655205926E-01 -0.85111420443E-01 -0.38655386875E-01  0.94332434413E-01  0.51100000000E-03 0. -1.
         11    1    4    4    0    0  0.46775132380E-02 -0.36489015946E-01 -0.73360343986E-02  0.37515409321E-01  0.51100000000E-03 0.  1.
</event>
<event>
 8    1  0.1170483E+005  0.1043930E+01  0.7957747E-01            NaN
         13   -1    0    0    0    0  0.00000000000E+00  0.00000000000E+00  0.74505805969E-08  0.10566000000E+00  0.10566000000E+00 0.  1.
     999900   -1    0    0    0    0 -0.00000000000E+00 -0.00000000000E+00 -0.74505805969E-08  0.93827000000E+00  0.93827000000E+00 0.  1.
     999902    2    1    2    0    0  0.21526217412E-01 -0.11460640222E-01  0.22363193925E-02  0.10194407078E+01  0.10191465210E+01 0.  0.
     999903    2    3    3    0    0  0.10850095910E+00  0.46751853539E-02  0.72562085038E-01  0.13221430831E+00  0.20519543152E-01 0.  0.
         14    1    1    2    0    0 -0.21526217412E-01  0.11460640222E-01 -0.22363193925E-02  0.24489292248E-01  0.00000000000E+00 0.  1.
     999901    1    3    3    0    0 -0.86974741692E-01 -0.16135825576E-01 -0.70325765646E-01  0.88722639945E+00  0.88000000000E+00 0.  1.
        -11    1    4    4    0    0  0.69497875931E-01  0.90230392530E-02  0.55592772178E-01  0.89454946402E-01  0.51100000000E-03 0. -1.
         11    1    4    4    0    0  0.39003083173E-01 -0.43478538991E-02  0.16969312860E-01  0.42759361905E-01  0.51100000000E-03 0.  1.
</event>
<event>
 8    1  0.1170483E+005  0.1043930E+01  0.7957747E-01            NaN
         13   -1    0    0    0    0  0.00000000000E+00  0.00000000000E+00  0.74505805969E-08  0.10566000000E+00  0.10566000000E+00 0. -1.
     999900   -1    0    0    0    0 -0.00000000000E+00 -0.00000000000E+00 -0.74505805969E-08  0.93827000000E+00  0.93827000000E+00 0.  1.
     999902    2    1    2    0    0 -0.62019266346E-02 -0.22299796175E-01 -0.28811472077E-02  0.10206052103E+01  0.10203386445E+01 0.  0.
     999903    2    3    3    0    0 -0.73205494590E-01 -0.23861743898E-01  0.10469264901E+00  0.13152476436E+00  0.20243162378E-01 0.  0.
         14    1    1    2    0    0  0.62019266346E-02  0.22299796175E-01  0.28811472077E-02  0.23324789660E-01  0.00000000000E+00 0.  1.
     999901    1    3    3    0    0  0.67003567956E-01  0.15619477227E-02 -0.10757379621E+00  0.88908044598E+00  0.88000000000E+00 0.  1.
        -11    1    4    4    0    0 -0.49515325893E-01 -0.73952392618E-02  0.74501906092E-01  0.89762198026E-01  0.51100000000E-03 0. -1.
         11    1    4    4    0    0 -0.23690168697E-01 -0.16466504636E-01  0.30190742913E-01  0.41762566330E-01  0.51100000000E-03 0.  1.
</event>
<event>
 8    1  0.1170483E+005  0.1043930E+01  0.7957747E-01            NaN
         13   -1    0    0    0    0  0.00000000000E+00  0.00000000000E+00  0.74505805969E-08  0.10566000000E+00  0.10566000000E+00 0.  1.
     999900   -1    0    0    0    0 -0.00000000000E+00 -0.00000000000E+00 -0.74505805969E-08  0.93827000000E+00  0.93827000000E+00 0.  1.
     999902    2    1    2    0    0 -0.12159151237E-01 -0.98091639915E-02 -0.18077548641E-01  0.10200372726E+01  0.10197574099E+01 0.  0.
     999903    2    3    3    0    0  0.12050834799E+00  0.40187678295E-01 -0.61360243313E-02  0.12860979402E+00  0.19118496291E-01 0.  0.
         14    1    1    2    0    0  0.12159151237E-01  0.98091639915E-02  0.18077548641E-01  0.23892727385E-01  0.00000000000E+00 0. -1.
     999901    1    3    3    0    0 -0.13266749923E+00 -0.49996842287E-01 -0.11941524310E-01  0.89142747859E+00  0.88000000000E+00 0.  1.
        -11    1    4    4    0    0  0.59861016659E-01  0.10889387582E-01  0.11897265466E-02  0.60857182383E-01  0.51100000000E-03 0.  1.
         11    1    4    4    0    0  0.60647331335E-01  0.29298290713E-01 -0.73257508779E-02  0.67752611637E-01  0.51100000000E-03 0. -1.
</event>
<event>
 8    1  0.1170483E+005  0.1043930E+01  0.7957747E-01            NaN
         13   -1    0    0    0    0  0.00000000000E+00  0.00000000000E+00  0.74505805969E-08  0.10566000000E+00  0.10566000000E+00 0. -1.
     999900   -1    0    0    0    0 -0.00000000000E+00 -0.00000000000E+00 -0.74505805969E-08  0.93827000000E+00  0.93827000000E+00 0.  1.
     999902    2    1    2    0    0 -0.13911760389E-01 -0.15574891806E-01  0.27034947812E-01  0.10097685783E+01  0.10091905563E+01 0.  0.
     999903    2    3    3    0    0 -0.76827367145E-01  0.76749529241E-01 -0.46422716718E-01  0.11966847110E+00  0.19301289250E-01 0.  0.
         14    1    1    2    0    0  0.13911760389E-01  0.15574891806E-01 -0.27034947812E-01  0.34161421737E-01  0.00000000000E+00 0. -1.
     999901    1    3    3    0    0  0.62915606756E-01 -0.92324421047E-01  0.73457664530E-01  0.89010010716E+00  0.88000000000E+00 0. -1.
        -11    1    4    4    0    0 -0.50392460879E-01  0.60624926320E-01 -0.28149374487E-01  0.83710394873E-01  0.51100000000E-03 0.  1.
         11    1    4    4    0    0 -0.26434906266E-01  0.16124602921E-01 -0.18273342231E-01  0.35958076226E-01  0.51100000000E-03 0. -1.
</event>
<event>
 8    1  0.1170483E+005  0.1043930E+01  0.7957747E-01            NaN
         13   -1    0    0    0    0  0.00000000000E+00  0.00000000000E+00  0.74505805969E-08  0.10566000000E+00  0.10566000000E+00 0.  1.
     999900   -1    0    0    0    0 -0.00000000000E+00 -0.00000000000E+00 -0.74505805969E-08  0.93827000000E+00  0.93827000000E+00 0. -1.
     999902    2    1    2    0    0  0.79696689470E-03 -0.13329488320E-01 -0.22178195868E-01  0.10180421112E+01  0.10177129052E+01 0.  0.
     999903    2    3    3    0    0 -0.66193517733E-01 -0.10658614239E+00 -0.30040966341E-01  0.13054768770E+00  0.19951229730E-01 0.  0.
         14    1    1    2    0    0 -0.79696689470E-03  0.13329488320E-01  0.22178195868E-01  0.25887888811E-01  0.00000000000E+00 0.  1.
     999901    1    3    3    0    0  0.66990484628E-01  0.93256654065E-01  0.78627704721E-02  0.88749442349E+00  0.88000000000E+00 0.  1.
        -11    1    4    4    0    0 -0.21063444888E-01 -0.18712199915E-01 -0.85809930284E-02  0.29456912577E-01  0.51100000000E-03 0.  1.
         11    1    4    4    0    0 -0.45130072845E-01 -0.87873942470E-01 -0.21459973312E-01  0.10109077513E+00  0.51100000000E-03 0. -1.
</event>
<event>
 8    1  0.1170483E+005  0.1043930E+01  0.7957747E-01            NaN
         13   -1    0    0    0    0  0.00000000000E+00  0.00000000000E+00  0.74505805969E-08  0.10566000000E+00  0.10566000000E+00 0. -1.
     999900   -1    0    0    0    0 -0.00000000000E+00 -0.00000000000E+00 -0.74505805969E-08  0.93827000000E+00  0.93827000000E+00 0.  1.
     999902    2    1    2    0    0 -0.39296174773E-02  0.63431828362E-02 -0.21247883830E-01  0.10214099994E+01  0.10211617092E+01 0.  0.
     999903    2    3    3    0    0 -0.38730441414E-01  0.20346823135E-01  0.12010918057E+00  0.12933992422E+00  0.19711936362E-01 0.  0.
         14    1    1    2    0    0  0.39296174773E-02 -0.63431828362E-02  0.21247883830E-01  0.22520000650E-01  0.00000000000E+00 0. -1.
     999901    1    3    3    0    0  0.34800823937E-01 -0.14003640299E-01 -0.14135706440E+00  0.89207007513E+00  0.88000000000E+00 0.  1.
        -11    1    4    4    0    0 -0.26025362754E-01  0.23142856834E-01  0.82946510927E-01  0.89962748540E-01  0.51100000000E-03 0.  1.
         11    1    4    4    0    0 -0.12705078660E-01 -0.27960336990E-02  0.37162669646E-01  0.39377175679E-01  0.51100000000E-03 0. -1.
</event>
<event>
 8    1  0.1170483E+005  0.1043930E+01  0.7957747E-01            NaN
         13   -1    0    0    0    0  0.00000000000E+00  0.00000000000E+00  0.74505805969E-08  0.10566000000E+00  0.10566000000E+00 0. -1.
     999900   -1    0    0    0    0 -0.00000000000E+00 -0.00000000000E+00 -0.74505805969E-08  0.93827000000E+00  0.93827000000E+00 0.  1.
     999902    2    1    2    0    0 -0.15877274009E-01  0.11041429547E-01 -0.13515270219E-01  0.10203362821E+01  0.10200634613E+01 0.  0.
     999903    2    3    3    0    0  0.72011759694E-01  0.10295416129E+00  0.27606845679E-01  0.13024445484E+00  0.20401647632E-01 0.  0.
         14    1    1    2    0    0  0.15877274009E-01 -0.11041429547E-01  0.13515270219E-01  0.23593717924E-01  0.00000000000E+00 0. -1.
     999901    1    3    3    0    0 -0.87889033704E-01 -0.91912731743E-01 -0.41122115897E-01  0.89009182724E+00  0.88000000000E+00 0.  1.
        -11    1    4    4    0    0  0.39491411010E-01  0.64477358856E-01  0.74417432282E-02  0.75977246672E-01  0.51100000000E-03 0.  1.
         11    1    4    4    0    0  0.32520348684E-01  0.38476802434E-01  0.20165102451E-01  0.54267208165E-01  0.51100000000E-03 0. -1.
</event>
<event>
 8    1  0.1170483E+005  0.1043930E+01  0.7957747E-01            NaN
         13   -1    0    0    0    0  0.00000000000E+00  0.00000000000E+00  0.74505805969E-08  0.10566000000E+00  0.10566000000E+00 0.  1.
     999900   -1    0    0    0    0 -0.00000000000E+00 -0.00000000000E+00 -0.74505805969E-08  0.93827000000E+00  0.93827000000E+00 0. -1.
     999902    2    1    2    0    0 -0.66254143120E-02 -0.11456906479E-01 -0.19711814182E-01  0.10201873708E+01  0.10199110545E+01 0.  0.
     999903    2    3    3    0    0 -0.92102274479E-03  0.10562091242E+00  0.69125199872E-01  0.12798124509E+00  0.21077960394E-01 0.  0.
         14    1    1    2    0    0  0.66254143120E-02  0.11456906479E-01  0.19711814182E-01  0.23742629156E-01  0.00000000000E+00 0. -1.
     999901    1    3    3    0    0 -0.57043915672E-02 -0.11707781890E+00 -0.88837014054E-01  0.89220612575E+00  0.88000000000E+00 0. -1.
        -11    1    4    4    0    0 -0.77720353988E-02  0.41968203487E-01  0.19250773174E-01  0.46825079038E-01  0.51100000000E-03 0.  1.
         11    1    4    4    0    0  0.68510126540E-02  0.63652708936E-01  0.49874426698E-01  0.81156166055E-01  0.51100000000E-03 0. -1.
</event>
<event>
 8    1  0.1170483E+005  0.1043930E+01  0.7957747E-01            NaN
         13   -1    0    0    0    0  0.00000000000E+00  0.00000000000E+00  0.74505805969E-08  0.10566000000E+00  0.10566000000E+00 0. -1.
     999900   -1    0    0    0    0 -0.00000000000E+00 -0.00000000000E+00 -0.74505805969E-08  0.93827000000E+00  0.93827000000E+00 0. -1.
     999902    2    1    2    0    0 -0.21184413538E-01  0.54546603720E-02 -0.93579417971E-02  0.10201370647E+01  0.10198595624E+01 0.  0.
     999903    2    3    3    0    0 -0.12507914614E+00  0.21143512075E-02  0.39304802985E-01  0.13268377810E+00  0.20269537563E-01 0.  0.
         14    1    1    2    0    0  0.21184413538E-01 -0.54546603720E-02  0.93579417971E-02  0.23792935325E-01  0.00000000000E+00 0. -1.
     999901    1    3    3    0    0  0.10389473260E+00  0.33403091645E-02 -0.48662744782E-01  0.88745328658E+00  0.88000000000E+00 0. -1.
        -11    1    4    4    0    0 -0.74241473213E-01  0.11148446006E-01  0.24331033550E-01  0.78919861301E-01  0.51100000000E-03 0.  1.
         11    1    4    4    0    0 -0.50837672924E-01 -0.90340947982E-02  0.14973769435E-01  0.53763916796E-01  0.51100000000E-03 0. -1.
</event>
<event>
 8    1  0.1170483E+005  0.1043930E+01  0.7957747E-01            NaN
         13   -1    0    0    0    0  0.00000000000E+00  0.00000000000E+00  0.74505805969E-08  0.10566000000E+00  0.10566000000E+00 0. -1.
     999900   -1    0    0    0    0 -0.00000000000E+00 -0.00000000000E+00 -0.74505805969E-08  0.93827000000E+00  0.93827000000E+00 0.  1.
     999902    2    1    2    0    0  0.18007717236E-01 -0.15517492952E-01  0.18894691014E-02  0.10200838145E+01  0.10198050540E+01 0.  0.
     999903    2    3    3    0    0  0.10805242043E+00  0.33269972410E-01  0.64978695926E-01  0.13190111042E+00  0.19835709741E-01 0.  0.
         14    1    1    2    0    0 -0.18007717236E-01  0.15517492952E-01 -0.18894691014E-02  0.23846185461E-01  0.00000000000E+00 0. -1.
     999901    1    3    3    0    0 -0.90044703196E-01 -0.48787465362E-01 -0.63089226825E-01  0.88818270412E+00  0.88000000000E+00 0.  1.
        -11    1    4    4    0    0  0.18332563652E-01  0.69348660481E-02  0.20458858737E-01  0.28337277198E-01  0.51100000000E-03 0. -1.
         11    1    4    4    0    0  0.89719856781E-01  0.26335106362E-01  0.44519837189E-01  0.10356383322E+00  0.51100000000E-03 0.  1.
</event>
<event>
 8    1  0.1170483E+005  0.1043930E+01  0.7957747E-01            NaN
         13   -1    0    0    0    0  0.00000000000E+00  0.00000000000E+00  0.74505805969E-08  0.10566000000E+00  0.10566000000E+00 0. -1.
     999900   -1    0    0    0    0 -0.00000000000E+00 -0.00000000000E+00 -0.74505805969E-08  0.93827000000E+00  0.93827000000E+00 0. -1.
     999902    2    1    2    0    0 -0.21836143213E-01  0.59312243749E-02 -0.86694034138E-02  0.10196987159E+01  0.10194107691E+01 0.  0.
     999903    2    3    3    0    0 -0.12278525608E-01 -0.10502348861E+00  0.71408931693E-01  0.12907262369E+00  0.19488748277E-01 0.  0.
         14    1    1    2    0    0  0.21836143213E-01 -0.59312243749E-02  0.86694034138E-02  0.24231284088E-01  0.00000000000E+00 0. -1.
     999901    1    3    3    0    0 -0.95576176054E-02  0.11095471299E+00 -0.80078335107E-01  0.89062609222E+00  0.88000000000E+00 0. -1.
        -11    1    4    4    0    0 -0.10200965901E-01 -0.40777693202E-01  0.18989379150E-01  0.46127406276E-01  0.51100000000E-03 0.  1.
         11    1    4    4    0    0 -0.20775597067E-02 -0.64245795412E-01  0.52419552543E-01  0.82945217416E-01  0.51100000000E-03 0. -1.
</event>
<event>
 8    1  0.1170483E+005  0.1043930E+01  0.7957747E-01            NaN
         13   -1    0    0    0    0  0.00000000000E+00  0.00000000000E+00  0.74505805969E-08  0.10566000000E+00  0.10566000000E+00 0.  1.
     999900   -1    0    0    0    0 -0.00000000000E+00 -0.00000000000E+00 -0.74505805969E-08  0.93827000000E+00  0.93827000000E+00 0. -1.
     999902    2    1    2    0    0 -0.22591070636E-01  0.41510794744E-02  0.47191119501E-02  0.10204809499E+01  0.10202115031E+01 0.  0.
     999903    2    3    3    0    0  0.42255716822E-01 -0.86997438558E-01  0.84405853434E-01  0.12982774300E+00  0.19411203943E-01 0.  0.
         14    1    1    2    0    0  0.22591070636E-01 -0.41510794744E-02 -0.47191119501E-02  0.23449050106E-01  0.00000000000E+00 0.  1.
     999901    1    3    3    0    0 -0.64846787458E-01  0.91148518033E-01 -0.79686741484E-01  0.89065320689E+00  0.88000000000E+00 0. -1.
        -11    1    4    4    0    0  0.13044402399E-01 -0.10569645708E-01  0.15530217643E-01  0.22876245876E-01  0.51100000000E-03 0.  1.
         11    1    4    4    0    0  0.29211314423E-01 -0.76427792850E-01  0.68875635791E-01  0.10695149712E+00  0.51100000000E-03 0. -1.
</event>
<event>
 8    1  0.1170483E+005  0.1043930E+01  0.7957747E-01            NaN
         13   -1    0    0    0    0  0.00000000000E+00  0.00000000000E+00  0.74505805969E-08  0.10566000000E+00  0.10566000000E+00 0.  1.
     999900   -1    0    0    0    0 -0.00000000000E+00 -0.00000000000E+00 -0.74505805969E-08  0.93827000000E+00  0.93827000000E+00 0. -1.
     999902    2    1    2    0    0  0.32651935761E-02  0.20354669050E-01  0.12595182114E-01  0.10197719236E+01  0.10194857349E+01 0.  0.
     999903    2    3    3    0    0 -0.39613274045E-01 -0.96705891843E-01 -0.68356280341E-01  0.12730630683E+00  0.24760325104E-01 0.  0.
         14    1    1    2    0    0 -0.32651935761E-02 -0.20354669050E-01 -0.12595182114E-01  0.24158076366E-01  0.00000000000E+00 0.  1.
     999901    1    3    3    0    0  0.42878467621E-01  0.11706056089E+00  0.80951462455E-01  0.89246561680E+00  0.88000000000E+00 0.  1.
        -11    1    4    4    0    0 -0.34730903014E-01 -0.54454487832E-01 -0.45617000900E-01  0.79074008127E-01  0.51100000000E-03 0. -1.
         11    1    4    4    0    0 -0.48823710314E-02 -0.42251404011E-01 -0.22739279441E-01  0.48232298704E-01  0.51100000000E-03 0.  1.
</event>
<event>
 8    1  0.1170483E+005  0.1043930E+01  0.7957747E-01            NaN
         13   -1    0    0    0    0  0.00000000000E+00  0.00000000000E+00  0.74505805969E-08  0.10566000000E+00  0.10566000000E+00 0.  1.
     999900   -1    0    0    0    0 -0.00000000000E+00 -0.00000000000E+00 -0.74505805969E-08  0.93827000000E+00  0.93827000000E+00 0. -1.
     999902    2    1    2    0    0 -0.23337219219E-01  0.53444368210E-03  0.83739580078E-02  0.10191301088E+01  0.10188283192E+01 0.  0.
     999903    2    3    3    0    0 -0.10727648696E+00 -0.67471998297E-01  0.30506932458E-01  0.13224762201E+00  0.22316930565E-01 0.  0.
         14    1    1    2    0    0  0.23337219219E-01 -0.53444368210E-03 -0.83739580078E-02  0.24799891202E-01  0.00000000000E+00 0. -1.
     999901    1    3    3    0    0  0.83939267740E-01  0.68006441979E-01 -0.22132974450E-01  0.88688248679E+00  0.88000000000E+00 0. -1.
        -11    1    4    4    0    0 -0.21885778214E-01 -0.76596119561E-02 -0.13515277361E-02  0.23232406065E-01  0.51100000000E-03 0.  1.
         11    1    4    4    0    0 -0.85390708746E-01 -0.59812386341E-01  0.31858460194E-01  0.10901521594E+00  0.51100000000E-03 0. -1.
</event>
<event>
 8    1  0.1170483E+005  0.1043930E+01  0.7957747E-01            NaN
         13   -1    0    0    0    0  0.00000000000E+00  0.00000000000E+00  0.74505805969E-08  0.10566000000E+00  0.10566000000E+00 0. -1.
     999900   -1    0    0    0    0 -0.00000000000E+00 -0.00000000000E+00 -0.74505805969E-08  0.93827000000E+00  0.93827000000E+00 0.  1.
     999902    2    1    2    0    0  0.13811643014E-01  0.15036597582E-01  0.11099877488E-01  0.10206906362E+01  0.10204260418E+01 0.  0.
     999903    2    3    3    0    0  0.17410535017E-01 -0.93987512035E-01 -0.83737085688E-01  0.12889847539E+00  0.21590235981E-01 0.  0.
         14    1    1    2    0    0 -0.13811643014E-01 -0.15036597582E-01 -0.11099877488E-01  0.23239363800E-01  0.00000000000E+00 0.  1.
     999901    1    3    3    0    0 -0.35988920035E-02  0.10902410962E+00  0.94836963176E-01  0.89179216081E+00  0.88000000000E+00 0. -1.
        -11    1    4    4    0    0  0.18185879374E-01 -0.58313158479E-01 -0.42782270608E-01  0.74577037081E-01  0.51100000000E-03 0. -1.
         11    1    4    4    0    0 -0.77534435636E-03 -0.35674353556E-01 -0.40954815080E-01  0.54321438307E-01  0.51100000000E-03 0.  1.
</event>
<event>
 8    1  0.1170483E+005  0.1043930E+01  0.7957747E-01            NaN
         13   -1    0    0    0    0  0.00000000000E+00  0.00000000000E+00  0.74505805969E-08  0.10566000000E+00  0.10566000000E+00 0.  1.
     999900   -1    0    0    0    0 -0.00000000000E+00 -0.00000000000E+00 -0.74505805969E-08  0.93827000000E+00  0.93827000000E+00 0.  1.
     999902    2    1    2    0    0  0.73746288650E-02 -0.18487093753E-01  0.14325350962E-01  0.10194070828E+01  0.10191120778E+01 0.  0.
     999903    2    3    3    0    0 -0.49913169768E-01  0.87115835441E-01  0.78247972265E-01  0.12894654354E+00  0.20590595557E-01 0.  0.
         14    1    1    2    0    0 -0.73746288650E-02  0.18487093753E-01 -0.14325350962E-01  0.24522917169E-01  0.00000000000E+00 0.  1.
     999901    1    3    3    0    0  0.57287798633E-01 -0.10560292919E+00 -0.63922621303E-01  0.89046053929E+00  0.88000000000E+00 0.  1.
        -11    1    4    4    0    0 -0.39305472972E-01  0.72032674727E-01  0.53038155427E-01  0.97708410518E-01  0.51100000000E-03 0.  1.
         11    1    4    4    0    0 -0.10607696796E-01  0.15083160715E-01  0.25209816838E-01  0.31238133018E-01  0.51100000000E-03 0. -1.
</event>
<event>
 8    1  0.1170483E+005  0.1043930E+01  0.7957747E-01            NaN
         13   -1    0    0    0    0  0.00000000000E+00  0.00000000000E+00  0.74505805969E-08  0.10566000000E+00  0.10566000000E+00 0.  1.
     999900   -1    0    0    0    0 -0.00000000000E+00 -0.00000000000E+00 -0.74505805969E-08  0.93827000000E+00  0.93827000000E+00 0.  1.
     999902    2    1    2    0    0  0.13923974655E-01  0.96150377584E-02 -0.17952165747E-01  0.10192600532E+01  0.10189614564E+01 0.  0.
     999903    2    3    3    0    0  0.12047469739E+00  0.47863454208E-01 -0.14263952443E-01  0.13200045148E+00  0.20386169140E-01 0.  0.
         14    1    1    2    0    0 -0.13923974655E-01 -0.96150377584E-02  0.17952165747E-01  0.24669946824E-01  0.00000000000E+00 0.  1.
     999901    1    3    3    0    0 -0.10655072274E+00 -0.38248416450E-01 -0.36882133041E-02  0.88725960169E+00  0.88000000000E+00 0.  1.
        -11    1    4    4    0    0  0.56986960113E-01  0.18073810990E-01 -0.15848065197E-01  0.61851423250E-01  0.51100000000E-03 0. -1.
         11    1    4    4    0    0  0.63487737280E-01  0.29789643219E-01  0.15841127534E-02  0.70149028234E-01  0.51100000000E-03 0.  1.
</event>
<event>
 8    1  0.1170483E+005  0.1043930E+01  0.7957747E-01            NaN
         13   -1    0    0    0    0  0.00000000000E+00  0.00000000000E+00  0.74505805969E-08  0.10566000000E+00  0.10566000000E+00 0.  1.
     999900   -1    0    0    0    0 -0.00000000000E+00 -0.00000000000E+00 -0.74505805969E-08  0.93827000000E+00  0.93827000000E+00 0. -1.
     999902    2    1    2    0    0  0.10308608387E-02  0.92985327960E-02  0.21268126755E-01  0.10206951425E+01  0.10204306519E+01 0.  0.
     999903    2    3    3    0    0 -0.97626541864E-01 -0.72764691160E-01  0.44162554507E-01  0.13109309067E+00  0.20234259218E-01 0.  0.
         14    1    1    2    0    0 -0.10308608387E-02 -0.92985327960E-02 -0.21268126755E-01  0.23234857475E-01  0.00000000000E+00 0. -1.
     999901    1    3    3    0    0  0.98657402703E-01  0.82063223956E-01 -0.22894427752E-01  0.88960205185E+00  0.88000000000E+00 0.  1.
        -11    1    4    4    0    0 -0.36378860316E-01 -0.23216300376E-01  0.60642534279E-02  0.43582730200E-01  0.51100000000E-03 0.  1.
         11    1    4    4    0    0 -0.61247681548E-01 -0.49548390784E-01  0.38098301079E-01  0.87510360475E-01  0.51100000000E-03 0. -1.
</event>
<event>
 8    1  0.1170483E+005  0.1043930E+01  0.7957747E-01            NaN
         13   -1    0    0    0    0  0.00000000000E+00  0.00000000000E+00  0.74505805969E-08  0.10566000000E+00  0.10566000000E+00 0. -1.
     999900   -1    0    0    0    0 -0.00000000000E+00 -0.00000000000E+00 -0.74505805969E-08  0.93827000000E+00  0.93827000000E+00 0.  1.
     999902    2    1    2    0    0  0.17478394029E-01  0.14218602104E-02 -0.89161807008E-04  0.10263936408E+01  0.10262438219E+01 0.  0.
     999903    2    3    3    0    0 -0.69516428684E-01 -0.10199710029E+00  0.50456379282E-01  0.13464343345E+00  0.18629697718E-01 0.  0.
         14    1    1    2    0    0 -0.17478394029E-01 -0.14218602104E-02  0.89161807008E-04  0.17536359204E-01  0.00000000000E+00 0. -1.
     999901    1    3    3    0    0  0.86994822713E-01  0.10341896050E+00 -0.50545541089E-01  0.89175020734E+00  0.88000000000E+00 0.  1.
        -11    1    4    4    0    0 -0.19684163228E-01 -0.15823770486E-01  0.11304212957E-01  0.27674976892E-01  0.51100000000E-03 0. -1.
         11    1    4    4    0    0 -0.49832265456E-01 -0.86173329807E-01  0.39152166325E-01  0.10696845656E+00  0.51100000000E-03 0.  1.
</event>
<event>
 8    1  0.1170483E+005  0.1043930E+01  0.7957747E-01            NaN
         13   -1    0    0    0    0  0.00000000000E+00  0.00000000000E+00  0.74505805969E-08  0.10566000000E+00  0.10566000000E+00 0.  1.
     999900   -1    0    0    0    0 -0.00000000000E+00 -0.00000000000E+00 -0.74505805969E-08  0.93827000000E+00  0.93827000000E+00 0.  1.
     999902    2    1    2    0    0  0.39725987421E-02 -0.22016628066E-01 -0.70598545147E-02  0.10204703538E+01  0.10202006607E+01 0.  0.
     999903    2    3    3    0    0  0.10249927129E+00 -0.76819026625E-01  0.27507633424E-01  0.13260453103E+00  0.20494591653E-01 0.  0.
         14    1    1    2    0    0 -0.39725987421E-02  0.22016628066E-01  0.70598545147E-02  0.23459646159E-01  0.00000000000E+00 0. -1.
     999901    1    3    3    0    0 -0.98526672547E-01  0.54802398559E-01 -0.34567487939E-01  0.88786582281E+00  0.88000000000E+00 0.  1.
        -11    1    4    4    0    0  0.46682333549E-01 -0.24166511086E-01  0.59807799093E-02  0.52908329901E-01  0.51100000000E-03 0. -1.
         11    1    4    4    0    0  0.55816937740E-01 -0.52652515539E-01  0.21526853515E-01  0.79696201130E-01  0.51100000000E-03 0.  1.
</event>
<event>
 8    1  0.1170483E+005  0.1043930E+01  0.7957747E-01            NaN
         13   -1    0    0    0    0  0.00000000000E+00  0.00000000000E+00  0.74505805969E-08  0.10566000000E+00  0.10566000000E+00 0.  1.
     999900   -1    0    0    0    0 -0.00000000000E+00 -0.00000000000E+00 -0.74505805969E-08  0.93827000000E+00  0.93827000000E+00 0. -1.
     999902    2    1    2    0    0  0.36475404626E-02 -0.22808658008E-01  0.26660000073E-02  0.10206781831E+01  0.10204133018E+01 0.  0.
     999903    2    3    3    0    0 -0.69613919355E-01 -0.11130401628E+00  0.14400515241E-01  0.13313304694E+00  0.16803319318E-01 0.  0.
         14    1    1    2    0    0 -0.36475404626E-02  0.22808658008E-01 -0.26660000073E-02  0.23251816866E-01  0.00000000000E+00 0.  1.
     999901    1    3    3    0    0  0.73261459818E-01  0.88495358275E-01 -0.11734515234E-01  0.88754513619E+00  0.88000000000E+00 0. -1.
        -11    1    4    4    0    0 -0.28043641683E-01 -0.49322159855E-01  0.14242251685E-01  0.58499779022E-01  0.51100000000E-03 0.  1.
         11    1    4    4    0    0 -0.41570277672E-01 -0.61981856428E-01  0.15826355665E-03  0.74633267919E-01  0.51100000000E-03 0. -1.
</event>
<event>
 8    1  0.1170483E+005  0.1043930E+01  0.7957747E-01            NaN
         13   -1    0    0    0    0  0.00000000000E+00  0.00000000000E+00  0.74505805969E-08  0.10566000000E+00  0.10566000000E+00 0.  1.
     999900   -1    0    0    0    0 -0.00000000000E+00 -0.00000000000E+00 -0.74505805969E-08  0.93827000000E+00  0.93827000000E+00 0.  1.
     999902    2    1    2    0    0  0.10847421459E-01  0.47491230331E-02  0.20481718405E-01  0.10202715658E+01  0.10199972286E+01 0.  0.
     999903    2    3    3    0    0  0.52553869825E-01  0.71607656962E-02  0.12097829746E+00  0.13356710188E+00  0.19779697928E-01 0.  0.
         14    1    1    2    0    0 -0.10847421459E-01 -0.47491230331E-02 -0.20481718405E-01  0.23658434240E-01  0.00000000000E+00 0. -1.
     999901    1    3    3    0    0 -0.41706448366E-01 -0.24116426632E-02 -0.10049657906E+00  0.88670446388E+00  0.88000000000E+00 0.  1.
        -11    1    4    4    0    0  0.28997052479E-01  0.49586019886E-02  0.89321510191E-01  0.94042597210E-01  0.51100000000E-03 0. -1.
         11    1    4    4    0    0  0.23556817346E-01  0.22021637076E-02  0.31656787270E-01  0.39524504674E-01  0.51100000000E-03 0.  1.
</event>
<event>
 8    1  0.1170483E+005  0.1043930E+01  0.7957747E-01            NaN
         13   -1    0    0    0    0  0.00000000000E+00  0.00000000000E+00  0.74505805969E-08  0.10566000000E+00  0.10566000000E+00 0.  1.
     999900   -1    0    0    0    0 -0.00000000000E+00 -0.00000000000E+00 -0.74505805969E-08  0.93827000000E+00  0.93827000000E+00 0. -1.
     999902    2    1    2    0    0  0.19203132974E-01  0.11170694502E-01 -0.65952723197E-02  0.10207558258E+01  0.10204927308E+01 0.  0.
     999903    2    3    3    0    0  0.64804678385E-01  0.69462060379E-01 -0.91728064211E-01  0.13355518531E+00  0.19958095754E-01 0.  0.
         14    1    1    2    0    0 -0.19203132974E-01 -0.11170694502E-01  0.65952723197E-02  0.23174174174E-01  0.00000000000E+00 0. -1.
     999901    1    3    3    0    0 -0.45601545411E-01 -0.58291365876E-01  0.85132791891E-01  0.88720064052E+00  0.88000000000E+00 0.  1.
        -11    1    4    4    0    0  0.35752255019E-01  0.34007785637E-01 -0.60578961007E-01  0.78133378658E-01  0.51100000000E-03 0. -1.
         11    1    4    4    0    0  0.29052423366E-01  0.35454274742E-01 -0.31149103204E-01  0.55421806650E-01  0.51100000000E-03 0.  1.
</event>
<event>
 8    1  0.1170483E+005  0.1043930E+01  0.7957747E-01            NaN
         13   -1    0    0    0    0  0.00000000000E+00  0.00000000000E+00  0.74505805969E-08  0.10566000000E+00  0.10566000000E+00 0. -1.
     999900   -1    0    0    0    0 -0.00000000000E+00 -0.00000000000E+00 -0.74505805969E-08  0.93827000000E+00  0.93827000000E+00 0.  1.
     999902    2    1    2    0    0  0.20703138087E-01 -0.14676678429E-01  0.86141331160E-02  0.10171302219E+01  0.10167770947E+01 0.  0.
     999903    2    3    3    0    0  0.86416423252E-01  0.70792482730E-01  0.60397429567E-01  0.12903972925E+00  0.22891666791E-01 0.  0.
         14    1    1    2    0    0 -0.20703138087E-01  0.14676678429E-01 -0.86141331160E-02  0.26799778091E-01  0.00000000000E+00 0. -1.
     999901    1    3    3    0    0 -0.65713285165E-01 -0.85469161160E-01 -0.51783296451E-01  0.88809049266E+00  0.88000000000E+00 0.  1.
        -11    1    4    4    0    0  0.39455881152E-01  0.46822556173E-01  0.34759838716E-01  0.70410409973E-01  0.51100000000E-03 0.  1.
         11    1    4    4    0    0  0.46960542100E-01  0.23969926558E-01  0.25637590850E-01  0.58629319279E-01  0.51100000000E-03 0. -1.
</event>
<event>
 8    1  0.1170483E+005  0.1043930E+01  0.7957747E-01            NaN
         13   -1    0    0    0    0  0.00000000000E+00  0.00000000000E+00  0.74505805969E-08  0.10566000000E+00  0.10566000000E+00 0.  1.
     999900   -1    0    0    0    0 -0.00000000000E+00 -0.00000000000E+00 -0.74505805969E-08  0.93827000000E+00  0.93827000000E+00 0.  1.
     999902    2    1    2    0    0  0.37562727132E-02 -0.15807580571E-01 -0.15819987366E-01  0.10212526724E+01  0.10210008617E+01 0.  0.
     999903    2    3    3    0    0 -0.96348548666E-01 -0.37825322001E-01 -0.81204941175E-01  0.13289410266E+00  0.18783030500E-01 0.  0.
         14    1    1    2    0    0 -0.37562727132E-02  0.15807580571E-01  0.15819987366E-01  0.22677327630E-01  0.00000000000E+00 0.  1.
     999901    1    3    3    0    0  0.10010482138E+00  0.22017741430E-01  0.65384953809E-01  0.88835856971E+00  0.88000000000E+00 0. -1.
        -11    1    4    4    0    0 -0.48945451694E-01 -0.21894280581E-01 -0.53387988671E-01  0.75667398654E-01  0.51100000000E-03 0.  1.
         11    1    4    4    0    0 -0.47403096972E-01 -0.15931041419E-01 -0.27816952504E-01  0.57226704001E-01  0.51100000000E-03 0. -1.
</event>
<event>
 8    1  0.1170483E+005  0.1043930E+01  0.7957747E-01            NaN
         13   -1    0    0    0    0  0.00000000000E+00  0.00000000000E+00  0.74505805969E-08  0.10566000000E+00  0.10566000000E+00 0. -1.
     999900   -1    0    0    0    0 -0.00000000000E+00 -0.00000000000E+00 -0.74505805969E-08  0.93827000000E+00  0.93827000000E+00 0.  1.
     999902    2    1    2    0    0 -0.94531666481E-02 -0.18520963441E-01  0.15907356037E-01  0.10177492356E+01  0.10174124406E+01 0.  0.
     999903    2    3    3    0    0 -0.45846083453E-01 -0.11942776769E+00 -0.16631648472E-01  0.13063852420E+00  0.20614490270E-01 0.  0.
         14    1    1    2    0    0  0.94531666481E-02  0.18520963441E-01 -0.15907356037E-01  0.26180764362E-01  0.00000000000E+00 0.  1.
     999901    1    3    3    0    0  0.36392916805E-01  0.10090680425E+00  0.32539004509E-01  0.88711071144E+00  0.88000000000E+00 0. -1.
        -11    1    4    4    0    0 -0.17803248691E-01 -0.48719792457E-01  0.33781090129E-02  0.51983137482E-01  0.51100000000E-03 0. -1.
         11    1    4    4    0    0 -0.28042834762E-01 -0.70707975238E-01 -0.20009757485E-01  0.78655386715E-01  0.51100000000E-03 0.  1.
</event>
<event>
 8    1  0.1170483E+005  0.1043930E+01  0.7957747E-01            NaN
         13   -1    0    0    0    0  0.00000000000E+00  0.00000000000E+00  0.74505805969E-08  0.10566000000E+00  0.10566000000E+00 0. -1.
     999900   -1    0    0    0    0 -0.00000000000E+00 -0.00000000000E+00 -0.74505805969E-08  0.93827000000E+00  0.93827000000E+00 0.  1.
     999902    2    1    2    0    0 -0.12517149342E-01 -0.21737847700E-01  0.11429447701E-02  0.10188198552E+01  0.10185103720E+01 0.  0.
     999903    2    3    3    0    0 -0.75155391148E-01  0.10144654862E+00 -0.48273719389E-02  0.12801483189E+00  0.20609672943E-01 0.  0.
         14    1    1    2    0    0  0.12517149342E-01  0.21737847700E-01 -0.11429447701E-02  0.25110144823E-01  0.00000000000E+00 0.  1.
     999901    1    3    3    0    0  0.62638241806E-01 -0.12318439632E+00  0.59703167089E-02  0.89080502329E+00  0.88000000000E+00 0.  1.
        -11    1    4    4    0    0 -0.49562757347E-01  0.81647000942E-01 -0.51310941673E-02  0.95651915439E-01  0.51100000000E-03 0.  1.
         11    1    4    4    0    0 -0.25592633800E-01  0.19799547675E-01  0.30372222844E-03  0.32362916450E-01  0.51100000000E-03 0. -1.
</event>
<event>
 8    1  0.1170483E+005  0.1043930E+01  0.7957747E-01            NaN
         13   -1    0    0    0    0  0.00000000000E+00  0.00000000000E+00  0.74505805969E-08  0.10566000000E+00  0.10566000000E+00 0.  1.
     999900   -1    0    0    0    0 -0.00000000000E+00 -0.00000000000E+00 -0.74505805969E-08  0.93827000000E+00  0.93827000000E+00 0.  1.
     999902    2    1    2    0    0 -0.19437813619E-01 -0.63873376817E-02 -0.11242174326E-01  0.10205844830E+01  0.10203174377E+01 0.  0.
     999903    2    3    3    0    0  0.13881570685E-01 -0.12654734667E+00 -0.27311433761E-01  0.13164869778E+00  0.19456008317E-01 0.  0.
         14    1    1    2    0    0  0.19437813619E-01  0.63873376817E-02  0.11242174326E-01  0.23345517012E-01  0.00000000000E+00 0. -1.
     999901    1    3    3    0    0 -0.33319384304E-01  0.12016000898E+00  0.16069259434E-01  0.88893578521E+00  0.88000000000E+00 0.  1.
        -11    1    4    4    0    0  0.18389741325E-01 -0.98726679763E-01 -0.24106715637E-01  0.10327891722E+00  0.51100000000E-03 0.  1.
         11    1    4    4    0    0 -0.45081706404E-02 -0.27820666903E-01 -0.32047181232E-02  0.28369780554E-01  0.51100000000E-03 0. -1.
</event>
<event>
 8    1  0.1170483E+005  0.1043930E+01  0.7957747E-01            NaN
         13   -1    0    0    0    0  0.00000000000E+00  0.00000000000E+00  0.74505805969E-08  0.10566000000E+00  0.10566000000E+00 0.  1.
     999900   -1    0    0    0    0 -0.00000000000E+00 -0.00000000000E+00 -0.74505805969E-08  0.93827000000E+00  0.93827000000E+00 0.  1.
     999902    2    1    2    0    0  0.10058381283E-01  0.19021282388E-01  0.97076541810E-02  0.10203245183E+01  0.10200514221E+01 0.  0.
     999903    2    3    3    0    0  0.11878136291E+00 -0.39305252001E-02  0.54205684938E-01  0.13222117578E+00  0.20487114050E-01 0.  0.
         14    1    1    2    0    0 -0.10058381283E-01 -0.19021282388E-01 -0.97076541810E-02  0.23605481724E-01  0.00000000000E+00 0.  1.
     999901    1    3    3    0    0 -0.10872298163E+00  0.22951807588E-01 -0.44498030757E-01  0.88810334249E+00  0.88000000000E+00 0. -1.
        -11    1    4    4    0    0  0.45048788799E-01 -0.60941679835E-02  0.30477448737E-01  0.54732698254E-01  0.51100000000E-03 0. -1.
         11    1    4    4    0    0  0.73732574114E-01  0.21636427834E-02  0.23728236201E-01  0.77488477529E-01  0.51100000000E-03 0.  1.
</event>
<event>
 8    1  0.1247232E+005  0.1043930E+01  0.7957747E-01            NaN
         13   -1    0    0    0    0  0.00000000000E+00  0.00000000000E+00  0.74505805969E-08  0.10566000000E+00  0.10566000000E+00 0. -1.
     999900   -1    0    0    0    0 -0.00000000000E+00 -0.00000000000E+00 -0.74505805969E-08  0.93827000000E+00  0.93827000000E+00 0. -1.
     999902    2    1    2    0    0  0.47712902229E-02 -0.64722511380E-02 -0.23511362021E-01  0.10190816723E+01  0.10187786882E+01 0.  0.
     999903    2    3    3    0    0 -0.10918763757E+00 -0.46812715094E-01  0.44606158778E-01  0.12820907373E+00  0.18288977348E-01 0.  0.
         14    1    1    2    0    0 -0.47712902229E-02  0.64722511380E-02  0.23511362021E-01  0.24848327695E-01  0.00000000000E+00 0. -1.
     999901    1    3    3    0    0  0.11395892779E+00  0.40340463956E-01 -0.68117520799E-01  0.89087259858E+00  0.88000000000E+00 0. -1.
        -11    1    4    4    0    0 -0.62967978817E-01 -0.30987837469E-01  0.34969642287E-01  0.78411411350E-01  0.51100000000E-03 0. -1.
         11    1    4    4    0    0 -0.46219658753E-01 -0.15824877626E-01  0.96365164914E-02  0.49797662377E-01  0.51100000000E-03 0.  1.
</event>
<event>
 8    1  0.1170483E+005  0.1043930E+01  0.7957747E-01            NaN
         13   -1    0    0    0    0  0.00000000000E+00  0.00000000000E+00  0.74505805969E-08  0.10566000000E+00  0.10566000000E+00 0. -1.
     999900   -1    0    0    0    0 -0.00000000000E+00 -0.00000000000E+00 -0.74505805969E-08  0.93827000000E+00  0.93827000000E+00 0. -1.
     999902    2    1    2    0    0  0.11192453097E-01  0.16974333678E-01  0.99386336406E-02  0.10212987064E+01  0.10210479285E+01 0.  0.
     999903    2    3    3    0    0  0.42912318854E-01 -0.11658168193E+00  0.34166082540E-01  0.13032714208E+00  0.19623636147E-01 0.  0.
         14    1    1    2    0    0 -0.11192453097E-01 -0.16974333678E-01 -0.99386336406E-02  0.22631293573E-01  0.00000000000E+00 0. -1.
     999901    1    3    3    0    0 -0.31719865757E-01  0.13355601561E+00 -0.24227448899E-01  0.89097156434E+00  0.88000000000E+00 0.  1.
        -11    1    4    4    0    0  0.36766578337E-01 -0.80977529785E-01  0.30445725451E-01  0.94001834726E-01  0.51100000000E-03 0.  1.
         11    1    4    4    0    0  0.61457405177E-02 -0.35604152148E-01  0.37203570884E-02  0.36325307357E-01  0.51100000000E-03 0. -1.
</event>
<event>
 8    1  0.1170483E+005  0.1043930E+01  0.7957747E-01            NaN
         13   -1    0    0    0    0  0.00000000000E+00  0.00000000000E+00  0.74505805969E-08  0.10566000000E+00  0.10566000000E+00 0.  1.
     999900   -1    0    0    0    0 -0.00000000000E+00 -0.00000000000E+00 -0.74505805969E-08  0.93827000000E+00  0.93827000000E+00 0. -1.
     999902    2    1    2    0    0 -0.19073945830E-01 -0.96675268600E-02 -0.10013365356E-01  0.10203176310E+01  0.10200443736E+01 0.  0.
     999903    2    3    3    0    0  0.64249284780E-01  0.97981587630E-01  0.48933075811E-01  0.12790193438E+00  0.15365441749E-01 0.  0.
         14    1    1    2    0    0  0.19073945830E-01  0.96675268600E-02  0.10013365356E-01  0.23612369023E-01  0.00000000000E+00 0.  1.
     999901    1    3    3    0    0 -0.83323230610E-01 -0.10764911449E+00 -0.58946441167E-01  0.89241569660E+00  0.88000000000E+00 0.  1.
        -11    1    4    4    0    0  0.36272557463E-01  0.47902617144E-01  0.17995354840E-01  0.62725218780E-01  0.51100000000E-03 0.  1.
         11    1    4    4    0    0  0.27976727316E-01  0.50078970487E-01  0.30937720971E-01  0.65176715599E-01  0.51100000000E-03 0. -1.
</event>
<event>
 8    1  0.1170483E+005  0.1043930E+01  0.7957747E-01            NaN
         13   -1    0    0    0    0  0.00000000000E+00  0.00000000000E+00  0.74505805969E-08  0.10566000000E+00  0.10566000000E+00 0.  1.
     999900   -1    0    0    0    0 -0.00000000000E+00 -0.00000000000E+00 -0.74505805969E-08  0.93827000000E+00  0.93827000000E+00 0.  1.
     999902    2    1    2    0    0 -0.72552611508E-03 -0.12897756490E-01  0.19481909290E-01  0.10205543011E+01  0.10202865569E+01 0.  0.
     999903    2    3    3    0    0 -0.60582410699E-01  0.60784939371E-01 -0.93397406205E-01  0.12827983312E+00  0.19172969478E-01 0.  0.
         14    1    1    2    0    0  0.72552611508E-03  0.12897756490E-01 -0.19481909290E-01  0.23375698925E-01  0.00000000000E+00 0. -1.
     999901    1    3    3    0    0  0.59856884584E-01 -0.73682695860E-01  0.11287931550E+00  0.89227446796E+00  0.88000000000E+00 0. -1.
        -11    1    4    4    0    0 -0.32648068437E-01  0.33371199663E-01 -0.64509019218E-01  0.79631702362E-01  0.51100000000E-03 0. -1.
         11    1    4    4    0    0 -0.27934342262E-01  0.27413739707E-01 -0.28888386987E-01  0.48648130756E-01  0.51100000000E-03 0.  1.
</event>
<event>
 8    1  0.1170483E+005  0.1043930E+01  0.7957747E-01            NaN
         13   -1    0    0    0    0  0.00000000000E+00  0.00000000000E+00  0.74505805969E-08  0.10566000000E+00  0.10566000000E+00 0.  1.
     999900   -1    0    0    0    0 -0.00000000000E+00 -0.00000000000E+00 -0.74505805969E-08  0.93827000000E+00  0.93827000000E+00 0.  1.
     999902    2    1    2    0    0  0.21700557208E-01 -0.82546053046E-02 -0.52581866247E-02  0.10201245128E+01  0.10198467142E+01 0.  0.
     999903    2    3    3    0    0  0.27188371351E-01  0.10724477513E+00  0.64765155223E-01  0.12980238497E+00  0.20334317861E-01 0.  0.
         14    1    1    2    0    0 -0.21700557208E-01  0.82546053046E-02  0.52581866247E-02  0.23805487150E-01  0.00000000000E+00 0.  1.
     999901    1    3    3    0    0 -0.54878141435E-02 -0.11549938044E+00 -0.70023341848E-01  0.89032212788E+00  0.88000000000E+00 0. -1.
        -11    1    4    4    0    0  0.29349446884E-01  0.90623201281E-01  0.50672063472E-01  0.10789751517E+00  0.51100000000E-03 0. -1.
         11    1    4    4    0    0 -0.21610755327E-02  0.16621573853E-01  0.14093091752E-01  0.21904869799E-01  0.51100000000E-03 0.  1.
</event>
<event>
 8    1  0.1170483E+005  0.1043930E+01  0.7957747E-01            NaN
         13   -1    0    0    0    0  0.00000000000E+00  0.00000000000E+00  0.74505805969E-08  0.10566000000E+00  0.10566000000E+00 0. -1.
     999900   -1    0    0    0    0 -0.00000000000E+00 -0.00000000000E+00 -0.74505805969E-08  0.93827000000E+00  0.93827000000E+00 0.  1.
     999902    2    1    2    0    0  0.13718930809E-01  0.17424713928E-02  0.96079032031E-02  0.10270908470E+01  0.10269527988E+01 0.  0.
     999903    2    3    3    0    0  0.89791388041E-01 -0.83658326742E-01  0.60523384336E-01  0.13823050856E+00  0.19580205445E-01 0.  0.
         14    1    1    2    0    0 -0.13718930809E-01 -0.17424713928E-02 -0.96079032031E-02  0.16839152979E-01  0.00000000000E+00 0. -1.
     999901    1    3    3    0    0 -0.76072457232E-01  0.85400798135E-01 -0.50915481133E-01  0.88886033846E+00  0.88000000000E+00 0.  1.
        -11    1    4    4    0    0  0.15873643821E-01 -0.10770109247E-01  0.17101377927E-01  0.25703814295E-01  0.51100000000E-03 0. -1.
         11    1    4    4    0    0  0.73917744220E-01 -0.72888217495E-01  0.43422006410E-01  0.11252669426E+00  0.51100000000E-03 0.  1.
</event>
<event>
 8    1  0.1170483E+005  0.1043930E+01  0.7957747E-01            NaN
         13   -1    0    0    0    0  0.00000000000E+00  0.00000000000E+00  0.74505805969E-08  0.10566000000E+00  0.10566000000E+00 0. -1.
     999900   -1    0    0    0    0 -0.00000000000E+00 -0.00000000000E+00 -0.74505805969E-08  0.93827000000E+00  0.93827000000E+00 0. -1.
     999902    2    1    2    0    0  0.26309781745E-02  0.23501046555E-01  0.57970776773E-02  0.10195819540E+01  0.10192911917E+01 0.  0.
     999903    2    3    3    0    0 -0.18147145690E-01 -0.96862274100E-01  0.79393434796E-01  0.12810257499E+00  0.19882987429E-01 0.  0.
         14    1    1    2    0    0 -0.26309781745E-02 -0.23501046555E-01 -0.57970776773E-02  0.24348046019E-01  0.00000000000E+00 0. -1.
     999901    1    3    3    0    0  0.20778123864E-01  0.12036332066E+00 -0.73596357118E-01  0.89147937899E+00  0.88000000000E+00 0. -1.
        -11    1    4    4    0    0  0.15492183866E-02 -0.31879747300E-01  0.32674235527E-01  0.45679154478E-01  0.51100000000E-03 0. -1.
         11    1    4    4    0    0 -0.19696364076E-01 -0.64982526800E-01  0.46719199269E-01  0.82423420509E-01  0.51100000000E-03 0.  1.
</event>
<event>
 8    1  0.1170483E+005  0.1043930E+01  0.7957747E-01            NaN
         13   -1    0    0    0    0  0.00000000000E+00  0.00000000000E+00  0.74505805969E-08  0.10566000000E+00  0.10566000000E+00 0. -1.
     999900   -1    0    0    0    0 -0.00000000000E+00 -0.00000000000E+00 -0.74505805969E-08  0.93827000000E+00  0.93827000000E+00 0. -1.
     999902    2    1    2    0    0 -0.12618820986E-01  0.38510317877E-02  0.19690454964E-01  0.10202281202E+01  0.10199527627E+01 0.  0.
     999903    2    3    3    0    0  0.59854581096E-01  0.79064585482E-02 -0.11065085700E+00  0.12767128835E+00  0.20279614100E-01 0.  0.
         14    1    1    2    0    0  0.12618820986E-01 -0.38510317877E-02 -0.19690454964E-01  0.23701879791E-01  0.00000000000E+00 0.  1.
     999901    1    3    3    0    0 -0.72473402082E-01 -0.40554267605E-02  0.13034131197E+00  0.89255683186E+00  0.88000000000E+00 0.  1.
        -11    1    4    4    0    0  0.23747829211E-01 -0.62806021775E-02 -0.36774888425E-01  0.44227354608E-01  0.51100000000E-03 0. -1.
         11    1    4    4    0    0  0.36106751885E-01  0.14187060726E-01 -0.73875968578E-01  0.83443933740E-01  0.51100000000E-03 0.  1.
</event>
<event>
 8    1  0.1170483E+005  0.1043930E+01  0.7957747E-01            NaN
         13   -1    0    0    0    0  0.00000000000E+00  0.00000000000E+00  0.74505805969E-08  0.10566000000E+00  0.10566000000E+00 0. -1.
     999900   -1    0    0    0    0 -0.00000000000E+00 -0.00000000000E+00 -0.74505805969E-08  0.93827000000E+00  0.93827000000E+00 0. -1.
     999902    2    1    2    0    0 -0.13291454988E-01  0.16210751660E-01  0.11063730259E-01  0.10202264692E+01  0.10199510729E+01 0.  0.
     999903    2    3    3    0    0  0.12617619410E+00  0.13350912600E-01 -0.27976615488E-02  0.12913077176E+00  0.23838004962E-01 0.  0.
         14    1    1    2    0    0  0.13291454988E-01 -0.16210751660E-01 -0.11063730259E-01  0.23703530799E-01  0.00000000000E+00 0.  1.
     999901    1    3    3    0    0 -0.13946764908E+00  0.28598390605E-02  0.13861391808E-01  0.89109569744E+00  0.88000000000E+00 0.  1.
        -11    1    4    4    0    0  0.68242456275E-01  0.44784979741E-03  0.82936808553E-02  0.68747943032E-01  0.51100000000E-03 0.  1.
         11    1    4    4    0    0  0.57933737821E-01  0.12903062802E-01 -0.11091342404E-01  0.60382828726E-01  0.51100000000E-03 0. -1.
</event>
<event>
 8    1  0.1170483E+005  0.1043930E+01  0.7957747E-01            NaN
         13   -1    0    0    0    0  0.00000000000E+00  0.00000000000E+00  0.74505805969E-08  0.10566000000E+00  0.10566000000E+00 0. -1.
     999900   -1    0    0    0    0 -0.00000000000E+00 -0.00000000000E+00 -0.74505805969E-08  0.93827000000E+00  0.93827000000E+00 0.  1.
     999902    2    1    2    0    0 -0.21372476735E-02 -0.88416823092E-02  0.22522088493E-01  0.10196403387E+01  0.10193509860E+01 0.  0.
     999903    2    3    3    0    0  0.42496679257E-01  0.99190855199E-01  0.70234662452E-01  0.13062981783E+00  0.22055566030E-01 0.  0.
         14    1    1    2    0    0  0.21372476735E-02  0.88416823092E-02 -0.22522088493E-01  0.24289661252E-01  0.00000000000E+00 0.  1.
     999901    1    3    3    0    0 -0.44633926930E-01 -0.10803253751E+00 -0.47712573959E-01  0.88901052092E+00  0.88000000000E+00 0.  1.
        -11    1    4    4    0    0  0.72021579053E-02  0.42314070046E-01  0.31993665779E-01  0.53536972022E-01  0.51100000000E-03 0.  1.
         11    1    4    4    0    0  0.35294521352E-01  0.56876785153E-01  0.38240996673E-01  0.77092845805E-01  0.51100000000E-03 0. -1.
</event>
<event>
 8    1  0.1170483E+005  0.1043930E+01  0.7957747E-01            NaN
         13   -1    0    0    0    0  0.00000000000E+00  0.00000000000E+00  0.74505805969E-08  0.10566000000E+00  0.10566000000E+00 0.  1.
     999900   -1    0    0    0    0 -0.00000000000E+00 -0.00000000000E+00 -0.74505805969E-08  0.93827000000E+00  0.93827000000E+00 0. -1.
     999902    2    1    2    0    0 -0.18177765811E-01  0.12039251334E-01  0.92268003894E-02  0.10202549374E+01  0.10199802100E+01 0.  0.
     999903    2    3    3    0    0  0.10262467868E-01  0.12995647928E+00  0.98670989196E-03  0.13189621561E+00  0.20040791932E-01 0.  0.
         14    1    1    2    0    0  0.18177765811E-01 -0.12039251334E-01 -0.92268003894E-02  0.23675062576E-01  0.00000000000E+00 0. -1.
     999901    1    3    3    0    0 -0.28440233679E-01 -0.11791722795E+00  0.82400904974E-02  0.88835872182E+00  0.88000000000E+00 0.  1.
        -11    1    4    4    0    0  0.14131038545E-01  0.63357564062E-01  0.46494628274E-02  0.65082607506E-01  0.51100000000E-03 0. -1.
         11    1    4    4    0    0 -0.38685706769E-02  0.66598915218E-01 -0.36627529355E-02  0.66813608100E-01  0.51100000000E-03 0.  1.
</event>
<event>
 8    1  0.1170483E+005  0.1043930E+01  0.7957747E-01            NaN
         13   -1    0    0    0    0  0.00000000000E+00  0.00000000000E+00  0.74505805969E-08  0.10566000000E+00  0.10566000000E+00 0. -1.
     999900   -1    0    0    0    0 -0.00000000000E+00 -0.00000000000E+00 -0.74505805969E-08  0.93827000000E+00  0.93827000000E+00 0.  1.
     999902    2    1    2    0    0  0.12771158625E-01 -0.17320837317E-01 -0.11080232550E-01  0.10197249292E+01  0.10194376125E+01 0.  0.
     999903    2    3    3    0    0  0.62679738252E-01 -0.11121875794E+00  0.29644796269E-01  0.13238834495E+00  0.18694871699E-01 0.  0.
         14    1    1    2    0    0 -0.12771158625E-01  0.17320837317E-01  0.11080232550E-01  0.24205070777E-01  0.00000000000E+00 0. -1.
     999901    1    3    3    0    0 -0.49908579627E-01  0.93897920622E-01 -0.40725028819E-01  0.88733658427E+00  0.88000000000E+00 0. -1.
        -11    1    4    4    0    0  0.28076225021E-01 -0.57271411608E-01  0.23597216546E-01  0.68010137103E-01  0.51100000000E-03 0. -1.
         11    1    4    4    0    0  0.34603513231E-01 -0.53947346331E-01  0.60475797233E-02  0.64378207847E-01  0.51100000000E-03 0.  1.
</event>
<event>
 8    1  0.1170483E+005  0.1043930E+01  0.7957747E-01            NaN
         13   -1    0    0    0    0  0.00000000000E+00  0.00000000000E+00  0.74505805969E-08  0.10566000000E+00  0.10566000000E+00 0. -1.
     999900   -1    0    0    0    0 -0.00000000000E+00 -0.00000000000E+00 -0.74505805969E-08  0.93827000000E+00  0.93827000000E+00 0. -1.
     999902    2    1    2    0    0 -0.15752873225E-01 -0.30099642674E-02 -0.17018987284E-01  0.10205449871E+01  0.10202770270E+01 0.  0.
     999903    2    3    3    0    0  0.88434543421E-01  0.67618611151E-01 -0.64923169220E-01  0.13029882784E+00  0.19230745949E-01 0.  0.
         14    1    1    2    0    0  0.15752873225E-01  0.30099642674E-02  0.17018987284E-01  0.23385012891E-01  0.00000000000E+00 0. -1.
     999901    1    3    3    0    0 -0.10418741665E+00 -0.70628575418E-01  0.47904181936E-01  0.89024615927E+00  0.88000000000E+00 0. -1.
        -11    1    4    4    0    0  0.55778673288E-01  0.31554295757E-01 -0.32769997490E-01  0.71979634835E-01  0.51100000000E-03 0. -1.
         11    1    4    4    0    0  0.32655870133E-01  0.36064315394E-01 -0.32153171730E-01  0.58319193001E-01  0.51100000000E-03 0.  1.
</event>
<event>
 8    1  0.1170483E+005  0.1043930E+01  0.7957747E-01            NaN
         13   -1    0    0    0    0  0.00000000000E+00  0.00000000000E+00  0.74505805969E-08  0.10566000000E+00  0.10566000000E+00 0.  1.
     999900   -1    0    0    0    0 -0.00000000000E+00 -0.00000000000E+00 -0.74505805969E-08  0.93827000000E+00  0.93827000000E+00 0.  1.
     999902    2    1    2    0    0  0.14829265094E-01  0.53751025715E-03 -0.19027253629E-01  0.10198005076E+01  0.10195150038E+01 0.  0.
     999903    2    3    3    0    0 -0.12318349904E+00  0.30155919641E-01 -0.12398871865E-02  0.12837403079E+00  0.19869588191E-01 0.  0.
         14    1    1    2    0    0 -0.14829265094E-01 -0.53751025715E-03  0.19027253629E-01  0.24129492352E-01  0.00000000000E+00 0.  1.
     999901    1    3    3    0    0  0.13801276414E+00 -0.29618409383E-01 -0.17787366442E-01  0.89142647686E+00  0.88000000000E+00 0. -1.
        -11    1    4    4    0    0 -0.39169745086E-01  0.13659909255E-01  0.80226573192E-02  0.42255013933E-01  0.51100000000E-03 0. -1.
         11    1    4    4    0    0 -0.84013753958E-01  0.16496010385E-01 -0.92625445057E-02  0.86119016857E-01  0.51100000000E-03 0.  1.
</event>
<event>
 8    1  0.1170483E+005  0.1043930E+01  0.7957747E-01            NaN
         13   -1    0    0    0    0  0.00000000000E+00  0.00000000000E+00  0.74505805969E-08  0.10566000000E+00  0.10566000000E+00 0.  1.
     999900   -1    0    0    0    0 -0.00000000000E+00 -0.00000000000E+00 -0.74505805969E-08  0.93827000000E+00  0.93827000000E+00 0. -1.
     999902    2    1    2    0    0  0.16268643678E-01  0.16225118201E-01  0.51840852209E-02  0.10203758503E+01  0.10201039545E+01 0.  0.
     999903    2    3    3    0    0  0.51561776405E-01  0.92849504763E-01  0.78008818090E-01  0.13334690854E+00  0.20405268831E-01 0.  0.
         14    1    1    2    0    0 -0.16268643678E-01 -0.16225118201E-01 -0.51840852209E-02  0.23554149684E-01  0.00000000000E+00 0. -1.
     999901    1    3    3    0    0 -0.35293132728E-01 -0.76624386562E-01 -0.72824732869E-01  0.88702894178E+00  0.88000000000E+00 0. -1.
        -11    1    4    4    0    0  0.53282330793E-01  0.90828375428E-01  0.74886256078E-01  0.12921692238E+00  0.51100000000E-03 0.  1.
         11    1    4    4    0    0 -0.17205543878E-02  0.20211293348E-02  0.31225620119E-02  0.41299861632E-02  0.51100000000E-03 0. -1.
</event>
<event>
 8    1  0.1170483E+005  0.1043930E+01  0.7957747E-01            NaN
         13   -1    0    0    0    0  0.00000000000E+00  0.00000000000E+00  0.74505805969E-08  0.10566000000E+00  0.10566000000E+00 0. -1.
     999900   -1    0    0    0    0 -0.00000000000E+00 -0.00000000000E+00 -0.74505805969E-08  0.93827000000E+00  0.93827000000E+00 0. -1.
     999902    2    1    2    0    0  0.14535958810E-01 -0.14731549728E-01  0.17351296213E-02  0.10231616748E+01  0.10229508735E+01 0.  0.
     999903    2    3    3    0    0  0.61566388170E-01 -0.94090201604E-01  0.72902982916E-01  0.13548238574E+00  0.19931024533E-01 0.  0.
         14    1    1    2    0    0 -0.14535958810E-01  0.14731549728E-01 -0.17351296213E-02  0.20768325178E-01  0.00000000000E+00 0.  1.
     999901    1    3    3    0    0 -0.47030429360E-01  0.79358651876E-01 -0.71167853294E-01  0.88767928908E+00  0.88000000000E+00 0.  1.
        -11    1    4    4    0    0  0.32857713606E-01 -0.57963524802E-01  0.53375900690E-01  0.85373575809E-01  0.51100000000E-03 0. -1.
         11    1    4    4    0    0  0.28708674564E-01 -0.36126676801E-01  0.19527082226E-01  0.50108809936E-01  0.51100000000E-03 0.  1.
</event>
<event>
 8    1  0.1170483E+005  0.1043930E+01  0.7957747E-01            NaN
         13   -1    0    0    0    0  0.00000000000E+00  0.00000000000E+00  0.74505805969E-08  0.10566000000E+00  0.10566000000E+00 0. -1.
     999900   -1    0    0    0    0 -0.00000000000E+00 -0.00000000000E+00 -0.74505805969E-08  0.93827000000E+00  0.93827000000E+00 0. -1.
     999902    2    1    2    0    0  0.17210195602E-01 -0.98109430545E-02  0.12185418667E-01  0.10206721010E+01  0.10204070795E+01 0.  0.
     999903    2    3    3    0    0 -0.84105015271E-01 -0.42638595295E-01  0.88726072758E-01  0.13095253935E+00  0.19609899891E-01 0.  0.
         14    1    1    2    0    0 -0.17210195602E-01  0.98109430545E-02 -0.12185418667E-01  0.23257898967E-01  0.00000000000E+00 0.  1.
     999901    1    3    3    0    0  0.10131521087E+00  0.32827652241E-01 -0.76540654091E-01  0.88971956168E+00  0.88000000000E+00 0.  1.
        -11    1    4    4    0    0 -0.26189956408E-01 -0.18571232733E-01  0.41338599494E-01  0.52344488067E-01  0.51100000000E-03 0.  1.
         11    1    4    4    0    0 -0.57915058863E-01 -0.24067362562E-01  0.47387473264E-01  0.78608051287E-01  0.51100000000E-03 0. -1.
</event>
<event>
 8    1  0.1170483E+005  0.1043930E+01  0.7957747E-01            NaN
         13   -1    0    0    0    0  0.00000000000E+00  0.00000000000E+00  0.74505805969E-08  0.10566000000E+00  0.10566000000E+00 0. -1.
     999900   -1    0    0    0    0 -0.00000000000E+00 -0.00000000000E+00 -0.74505805969E-08  0.93827000000E+00  0.93827000000E+00 0.  1.
     999902    2    1    2    0    0 -0.67722522051E-02  0.17233655403E-01 -0.12375125159E-01  0.10216588078E+01  0.10214160335E+01 0.  0.
     999903    2    3    3    0    0 -0.12076902102E+00  0.44957001824E-01 -0.28800383886E-01  0.13372095168E+00  0.21107874270E-01 0.  0.
         14    1    1    2    0    0  0.67722522051E-02 -0.17233655403E-01  0.12375125159E-01  0.22271192182E-01  0.00000000000E+00 0.  1.
     999901    1    3    3    0    0  0.11399676881E+00 -0.27723346421E-01  0.16425258727E-01  0.88793785614E+00  0.88000000000E+00 0. -1.
        -11    1    4    4    0    0 -0.26776278749E-01  0.62079819585E-02 -0.14411861674E-01  0.31039829599E-01  0.51100000000E-03 0. -1.
         11    1    4    4    0    0 -0.93992742269E-01  0.38749019865E-01 -0.14388522212E-01  0.10268112208E+00  0.51100000000E-03 0.  1.
</event>
<event>
 8    1  0.1170483E+005  0.1043930E+01  0.7957747E-01            NaN
         13   -1    0    0    0    0  0.00000000000E+00  0.00000000000E+00  0.74505805969E-08  0.10566000000E+00  0.10566000000E+00 0. -1.
     999900   -1    0    0    0    0 -0.00000000000E+00 -0.00000000000E+00 -0.74505805969E-08  0.93827000000E+00  0.93827000000E+00 0.  1.
     999902    2    1    2    0    0  0.58668833992E-02  0.22495461211E-01  0.79964998173E-02  0.10193452465E+01  0.10190487336E+01 0.  0.
     999903    2    3    3    0    0 -0.74600727469E-01  0.14250214260E-01 -0.10197999354E+00  0.12881852056E+00  0.20638677586E-01 0.  0.
         14    1    1    2    0    0 -0.58668833992E-02 -0.22495461211E-01 -0.79964998173E-02  0.24584753512E-01  0.00000000000E+00 0. -1.
     999901    1    3    3    0    0  0.80467610868E-01  0.82452469513E-02  0.10997649336E+00  0.89052672593E+00  0.88000000000E+00 0. -1.
        -11    1    4    4    0    0 -0.47330559889E-01  0.67116640361E-03 -0.52320930813E-01  0.70557588436E-01  0.51100000000E-03 0.  1.
         11    1    4    4    0    0 -0.27270167580E-01  0.13579047856E-01 -0.49659062725E-01  0.58260932127E-01  0.51100000000E-03 0. -1.
</event>
<event>
 8    1  0.1170483E+005  0.1043930E+01  0.7957747E-01            NaN
         13   -1    0    0    0    0  0.00000000000E+00  0.00000000000E+00  0.74505805969E-08  0.10566000000E+00  0.10566000000E+00 0.  1.
     999900   -1    0    0    0    0 -0.00000000000E+00 -0.00000000000E+00 -0.74505805969E-08  0.93827000000E+00  0.93827000000E+00 0.  1.
     999902    2    1    2    0    0  0.16134830851E-01  0.16700617634E-01 -0.70731655244E-02  0.10196550527E+01  0.10193660547E+01 0.  0.
     999903    2    3    3    0    0  0.69686718461E-01 -0.72029750053E-01  0.79451593091E-01  0.12935880051E+00  0.19406699899E-01 0.  0.
         14    1    1    2    0    0 -0.16134830851E-01 -0.16700617634E-01  0.70731655244E-02  0.24274947301E-01  0.00000000000E+00 0.  1.
     999901    1    3    3    0    0 -0.53551887610E-01  0.88730367687E-01 -0.86524758615E-01  0.89029625219E+00  0.88000000000E+00 0.  1.
        -11    1    4    4    0    0  0.26879388863E-01 -0.19867500256E-01  0.35850572706E-01  0.49017790611E-01  0.51100000000E-03 0. -1.
         11    1    4    4    0    0  0.42807329598E-01 -0.52162249797E-01  0.43601020384E-01  0.80341009894E-01  0.51100000000E-03 0.  1.
</event>
<event>
 8    1  0.1170483E+005  0.1043930E+01  0.7957747E-01            NaN
         13   -1    0    0    0    0  0.00000000000E+00  0.00000000000E+00  0.74505805969E-08  0.10566000000E+00  0.10566000000E+00 0. -1.
     999900   -1    0    0    0    0 -0.00000000000E+00 -0.00000000000E+00 -0.74505805969E-08  0.93827000000E+00  0.93827000000E+00 0.  1.
     999902    2    1    2    0    0 -0.16606641052E-01  0.14757973729E-01  0.83650888297E-02  0.10201907282E+01  0.10199144909E+01 0.  0.
     999903    2    3    3    0    0  0.34369068683E-01  0.11864262842E+00  0.41470265002E-01  0.13199790162E+00  0.21127162413E-01 0.  0.
         14    1    1    2    0    0  0.16606641052E-01 -0.14757973729E-01 -0.83650888297E-02  0.23739271825E-01  0.00000000000E+00 0. -1.
     999901    1    3    3    0    0 -0.50975709735E-01 -0.10388465469E+00 -0.33105176172E-01  0.88819282656E+00  0.88000000000E+00 0. -1.
        -11    1    4    4    0    0  0.11644181856E-01  0.13976945167E-01  0.54443438123E-02  0.18995893446E-01  0.51100000000E-03 0.  1.
         11    1    4    4    0    0  0.22724886827E-01  0.10466568325E+00  0.36025921190E-01  0.11300200817E+00  0.51100000000E-03 0. -1.
</event>
<event>
 8    1  0.1170483E+005  0.1043930E+01  0.7957747E-01            NaN
         13   -1    0    0    0    0  0.00000000000E+00  0.00000000000E+00  0.74505805969E-08  0.10566000000E+00  0.10566000000E+00 0. -1.
     999900   -1    0    0    0    0 -0.00000000000E+00 -0.00000000000E+00 -0.74505805969E-08  0.93827000000E+00  0.93827000000E+00 0. -1.
     999902    2    1    2    0    0  0.14981977602E-01  0.18211349364E-01 -0.62925214481E-02  0.10195228550E+01  0.10192306624E+01 0.  0.
     999903    2    3    3    0    0 -0.72378746372E-02 -0.10960409494E+00  0.61361607452E-01  0.12744237057E+00  0.20269841882E-01 0.  0.
         14    1    1    2    0    0 -0.14981977602E-01 -0.18211349364E-01  0.62925214481E-02  0.24407144952E-01  0.00000000000E+00 0. -1.
     999901    1    3    3    0    0  0.22219852239E-01  0.12781544430E+00 -0.67654128900E-01  0.89208048448E+00  0.88000000000E+00 0. -1.
        -11    1    4    4    0    0 -0.12088599531E-01 -0.45959901177E-01  0.21295833936E-01  0.52078982506E-01  0.51100000000E-03 0.  1.
         11    1    4    4    0    0  0.48507248933E-02 -0.63644193762E-01  0.40065773516E-01  0.75363388061E-01  0.51100000000E-03 0. -1.
</event>
<event>
 8    1  0.1170483E+005  0.1043930E+01  0.7957747E-01            NaN
         13   -1    0    0    0    0  0.00000000000E+00  0.00000000000E+00  0.74505805969E-08  0.10566000000E+00  0.10566000000E+00 0. -1.
     999900   -1    0    0    0    0 -0.00000000000E+00 -0.00000000000E+00 -0.74505805969E-08  0.93827000000E+00  0.93827000000E+00 0.  1.
     999902    2    1    2    0    0  0.21668233741E-01 -0.71281056863E-02 -0.13027700408E-01  0.10176613262E+01  0.10173222359E+01 0.  0.
     999903    2    3    3    0    0  0.71719370596E-01  0.14955376333E-01  0.10349583895E+00  0.12829608533E+00  0.19523458485E-01 0.  0.
         14    1    1    2    0    0 -0.21668233741E-01  0.71281056863E-02  0.13027700408E-01  0.26268673778E-01  0.00000000000E+00 0. -1.
     999901    1    3    3    0    0 -0.50051136856E-01 -0.22083482019E-01 -0.11652353936E+00  0.88936524089E+00  0.88000000000E+00 0.  1.
        -11    1    4    4    0    0  0.57752242239E-01  0.62255067571E-02  0.69978420961E-01  0.90946791803E-01  0.51100000000E-03 0.  1.
         11    1    4    4    0    0  0.13967128357E-01  0.87298695760E-02  0.33517417991E-01  0.37349293529E-01  0.51100000000E-03 0. -1.
</event>
<event>
 8    1  0.1170483E+005  0.1043930E+01  0.7957747E-01            NaN
         13   -1    0    0    0    0  0.00000000000E+00  0.00000000000E+00  0.74505805969E-08  0.10566000000E+00  0.10566000000E+00 0. -1.
     999900   -1    0    0    0    0 -0.00000000000E+00 -0.00000000000E+00 -0.74505805969E-08  0.93827000000E+00  0.93827000000E+00 0. -1.
     999902    2    1    2    0    0  0.10579953777E-01 -0.19218996597E-01  0.10082353004E-01  0.10197854542E+01  0.10194995897E+01 0.  0.
     999903    2    3    3    0    0 -0.62982127921E-01 -0.64491528980E-01 -0.91026612392E-01  0.12979444019E+00  0.20852980425E-01 0.  0.
         14    1    1    2    0    0 -0.10579953777E-01  0.19218996597E-01 -0.10082353004E-01  0.24144545848E-01  0.00000000000E+00 0. -1.
     999901    1    3    3    0    0  0.73562081698E-01  0.45272532384E-01  0.10110896540E+00  0.88999101396E+00  0.88000000000E+00 0.  1.
        -11    1    4    4    0    0 -0.53497713952E-02 -0.13956098212E-03 -0.19798130341E-02  0.57289014565E-02  0.51100000000E-03 0. -1.
         11    1    4    4    0    0 -0.57632356525E-01 -0.64351967998E-01 -0.89046799358E-01  0.12406553873E+00  0.51100000000E-03 0.  1.
</event>
<event>
 8    1  0.1170483E+005  0.1043930E+01  0.7957747E-01            NaN
         13   -1    0    0    0    0  0.00000000000E+00  0.00000000000E+00  0.74505805969E-08  0.10566000000E+00  0.10566000000E+00 0.  1.
     999900   -1    0    0    0    0 -0.00000000000E+00 -0.00000000000E+00 -0.74505805969E-08  0.93827000000E+00  0.93827000000E+00 0. -1.
     999902    2    1    2    0    0  0.34509521021E-02  0.30174764840E-02  0.22402816713E-01  0.10210629838E+01  0.10208068948E+01 0.  0.
     999903    2    3    3    0    0  0.68175934552E-02 -0.12371499612E+00 -0.35799321978E-01  0.13007480044E+00  0.16911014391E-01 0.  0.
         14    1    1    2    0    0 -0.34509521021E-02 -0.30174764840E-02 -0.22402816713E-01  0.22867016233E-01  0.00000000000E+00 0. -1.
     999901    1    3    3    0    0 -0.33666413530E-02  0.12673247261E+00  0.58202138691E-01  0.89098818333E+00  0.88000000000E+00 0.  1.
        -11    1    4    4    0    0  0.58165005139E-02 -0.58765974147E-01 -0.87111937215E-02  0.59694366675E-01  0.51100000000E-03 0.  1.
         11    1    4    4    0    0  0.10010929413E-02 -0.64949021977E-01 -0.27088128257E-01  0.70380433760E-01  0.51100000000E-03 0. -1.
</event>
<event>
 8    1  0.1170483E+005  0.1043930E+01  0.7957747E-01            NaN
         13   -1    0    0    0    0  0.00000000000E+00  0.00000000000E+00  0.74505805969E-08  0.10566000000E+00  0.10566000000E+00 0.  1.
     999900   -1    0    0    0    0 -0.00000000000E+00 -0.00000000000E+00 -0.74505805969E-08  0.93827000000E+00  0.93827000000E+00 0. -1.
     999902    2    1    2    0    0 -0.20745668319E-01  0.56941775257E-02  0.53277513632E-02  0.10217671629E+01  0.10215267710E+01 0.  0.
     999903    2    3    3    0    0  0.10604698146E+00  0.23332600356E-01  0.69047351072E-01  0.13022486031E+00  0.20015120195E-01 0.  0.
         14    1    1    2    0    0  0.20745668319E-01 -0.56941775257E-02 -0.53277513632E-02  0.22162837054E-01  0.00000000000E+00 0. -1.
     999901    1    3    3    0    0 -0.12679264978E+00 -0.17638422831E-01 -0.63719599709E-01  0.89154230263E+00  0.88000000000E+00 0. -1.
        -11    1    4    4    0    0  0.93430229887E-01  0.20066622350E-01  0.52106687690E-01  0.10884505139E+00  0.51100000000E-03 0. -1.
         11    1    4    4    0    0  0.12616751576E-01  0.32659780064E-02  0.16940663383E-01  0.21379808921E-01  0.51100000000E-03 0.  1.
</event>
<event>
 8    1  0.1170483E+005  0.1043930E+01  0.7957747E-01            NaN
         13   -1    0    0    0    0  0.00000000000E+00  0.00000000000E+00  0.74505805969E-08  0.10566000000E+00  0.10566000000E+00 0.  1.
     999900   -1    0    0    0    0 -0.00000000000E+00 -0.00000000000E+00 -0.74505805969E-08  0.93827000000E+00  0.93827000000E+00 0.  1.
     999902    2    1    2    0    0 -0.22605618402E-03  0.19999524900E-01  0.89916312885E-02  0.10220009888E+01  0.10217656970E+01 0.  0.
     999903    2    3    3    0    0 -0.41135380017E-01  0.12579957887E+00 -0.12222409148E-01  0.13446661783E+00  0.20352653216E-01 0.  0.
         14    1    1    2    0    0  0.22605618402E-03 -0.19999524900E-01 -0.89916312885E-02  0.21929011169E-01  0.00000000000E+00 0.  1.
     999901    1    3    3    0    0  0.40909323833E-01 -0.10580005397E+00  0.21214040437E-01  0.88753437100E+00  0.88000000000E+00 0.  1.
        -11    1    4    4    0    0 -0.16174302718E-01  0.30953920537E-01  0.36312894293E-02  0.35116956716E-01  0.51100000000E-03 0.  1.
         11    1    4    4    0    0 -0.24961077299E-01  0.94845658330E-01 -0.15853698578E-01  0.99349661115E-01  0.51100000000E-03 0. -1.
</event>
<event>
 8    1  0.1170483E+005  0.1043930E+01  0.7957747E-01            NaN
         13   -1    0    0    0    0  0.00000000000E+00  0.00000000000E+00  0.74505805969E-08  0.10566000000E+00  0.10566000000E+00 0.  1.
     999900   -1    0    0    0    0 -0.00000000000E+00 -0.00000000000E+00 -0.74505805969E-08  0.93827000000E+00  0.93827000000E+00 0. -1.
     999902    2    1    2    0    0 -0.12238410289E-01 -0.17858015398E-01  0.95589283480E-02  0.10202644024E+01  0.10199898971E+01 0.  0.
     999903    2    3    3    0    0 -0.90193425253E-01  0.36964213393E-01  0.85934246703E-01  0.13183002078E+00  0.22209290660E-01 0.  0.
         14    1    1    2    0    0  0.12238410289E-01  0.17858015398E-01 -0.95589283480E-02  0.23665597637E-01  0.00000000000E+00 0. -1.
     999901    1    3    3    0    0  0.77955014963E-01 -0.54822228790E-01 -0.76375318355E-01  0.88843438158E+00  0.88000000000E+00 0. -1.
        -11    1    4    4    0    0 -0.29931797077E-01  0.67361491229E-02  0.39267651202E-01  0.49834704104E-01  0.51100000000E-03 0. -1.
         11    1    4    4    0    0 -0.60261628176E-01  0.30228064270E-01  0.46666595501E-01  0.81995316675E-01  0.51100000000E-03 0.  1.
</event>
<event>
 8    1  0.1170483E+005  0.1043930E+01  0.7957747E-01            NaN
         13   -1    0    0    0    0  0.00000000000E+00  0.00000000000E+00  0.74505805969E-08  0.10566000000E+00  0.10566000000E+00 0. -1.
     999900   -1    0    0    0    0 -0.00000000000E+00 -0.00000000000E+00 -0.74505805969E-08  0.93827000000E+00  0.93827000000E+00 0. -1.
     999902    2    1    2    0    0 -0.62547761869E-02  0.52786238245E-02 -0.29710623642E-01  0.10131126794E+01  0.10126438633E+01 0.  0.
     999903    2    3    3    0    0  0.87237306826E-01 -0.23309843339E-01  0.78362784696E-01  0.12112729179E+00  0.19426741664E-01 0.  0.
         14    1    1    2    0    0  0.62547761869E-02 -0.52786238245E-02  0.29710623642E-01  0.30817320647E-01  0.00000000000E+00 0. -1.
     999901    1    3    3    0    0 -0.93492083013E-01  0.28588467163E-01 -0.10807340834E+00  0.89198538757E+00  0.88000000000E+00 0. -1.
        -11    1    4    4    0    0  0.68154190957E-01 -0.10148142256E-01  0.62533149188E-01  0.93051783457E-01  0.51100000000E-03 0. -1.
         11    1    4    4    0    0  0.19083115869E-01 -0.13161701083E-01  0.15829635508E-01  0.28075508330E-01  0.51100000000E-03 0.  1.
</event>
<event>
 8    1  0.1170483E+005  0.1043930E+01  0.7957747E-01            NaN
         13   -1    0    0    0    0  0.00000000000E+00  0.00000000000E+00  0.74505805969E-08  0.10566000000E+00  0.10566000000E+00 0.  1.
     999900   -1    0    0    0    0 -0.00000000000E+00 -0.00000000000E+00 -0.74505805969E-08  0.93827000000E+00  0.93827000000E+00 0. -1.
     999902    2    1    2    0    0  0.18017141114E-01  0.13049154480E-01  0.87612069314E-02  0.10200206597E+01  0.10197404031E+01 0.  0.
     999903    2    3    3    0    0  0.71185417919E-01 -0.81266815900E-01 -0.69136457203E-01  0.12996986677E+00  0.20991842746E-01 0.  0.
         14    1    1    2    0    0 -0.18017141114E-01 -0.13049154480E-01 -0.87612069314E-02  0.23909340298E-01  0.00000000000E+00 0. -1.
     999901    1    3    3    0    0 -0.53168276805E-01  0.94315970381E-01  0.77897664135E-01  0.89005079294E+00  0.88000000000E+00 0.  1.
        -11    1    4    4    0    0  0.40593459306E-01 -0.57840504315E-01 -0.52317880423E-01  0.87924823633E-01  0.51100000000E-03 0.  1.
         11    1    4    4    0    0  0.30591958613E-01 -0.23426311585E-01 -0.16818576781E-01  0.42045043134E-01  0.51100000000E-03 0. -1.
</event>
<event>
 8    1  0.1170483E+005  0.1043930E+01  0.7957747E-01            NaN
         13   -1    0    0    0    0  0.00000000000E+00  0.00000000000E+00  0.74505805969E-08  0.10566000000E+00  0.10566000000E+00 0. -1.
     999900   -1    0    0    0    0 -0.00000000000E+00 -0.00000000000E+00 -0.74505805969E-08  0.93827000000E+00  0.93827000000E+00 0.  1.
     999902    2    1    2    0    0 -0.46306145129E-02  0.73612697175E-02  0.21280108311E-01  0.10209414400E+01  0.10206825902E+01 0.  0.
     999903    2    3    3    0    0 -0.44192767583E-01  0.96182693978E-01 -0.73856083913E-01  0.13048913668E+00  0.19198498186E-01 0.  0.
         14    1    1    2    0    0  0.46306145129E-02 -0.73612697175E-02 -0.21280108311E-01  0.22988560032E-01  0.00000000000E+00 0.  1.
     999901    1    3    3    0    0  0.39562153071E-01 -0.88821424260E-01  0.95136192224E-01  0.89045230329E+00  0.88000000000E+00 0.  1.
        -11    1    4    4    0    0 -0.31124496528E-01  0.60336562926E-01 -0.57513902474E-01  0.88979465095E-01  0.51100000000E-03 0. -1.
         11    1    4    4    0    0 -0.13068271055E-01  0.35846131052E-01 -0.16342181439E-01  0.41509671583E-01  0.51100000000E-03 0.  1.
</event>
<event>
 8    1  0.1170483E+005  0.1043930E+01  0.7957747E-01            NaN
         13   -1    0    0    0    0  0.00000000000E+00  0.00000000000E+00  0.74505805969E-08  0.10566000000E+00  0.10566000000E+00 0.  1.
     999900   -1    0    0    0    0 -0.00000000000E+00 -0.00000000000E+00 -0.74505805969E-08  0.93827000000E+00  0.93827000000E+00 0.  1.
     999902    2    1    2    0    0 -0.17973738646E-01 -0.26306486984E-02 -0.14539952448E-01  0.10206623011E+01  0.10203970537E+01 0.  0.
     999903    2    3    3    0    0  0.59460138872E-02  0.12826145593E+00 -0.11547732844E-01  0.13065451971E+00  0.21234340757E-01 0.  0.
         14    1    1    2    0    0  0.17973738646E-01  0.26306486984E-02  0.14539952448E-01  0.23267698869E-01  0.00000000000E+00 0. -1.
     999901    1    3    3    0    0 -0.23919752533E-01 -0.13089210463E+00 -0.29922196032E-02  0.89000778142E+00  0.88000000000E+00 0.  1.
        -11    1    4    4    0    0 -0.59347059302E-02  0.42451234749E-01  0.22795047666E-02  0.42927675563E-01  0.51100000000E-03 0. -1.
         11    1    4    4    0    0  0.11880719817E-01  0.85810221182E-01 -0.13827237611E-01  0.87726844145E-01  0.51100000000E-03 0.  1.
</event>
<event>
 8    1  0.1170483E+005  0.1043930E+01  0.7957747E-01            NaN
         13   -1    0    0    0    0  0.00000000000E+00  0.00000000000E+00  0.74505805969E-08  0.10566000000E+00  0.10566000000E+00 0. -1.
     999900   -1    0    0    0    0 -0.00000000000E+00 -0.00000000000E+00 -0.74505805969E-08  0.93827000000E+00  0.93827000000E+00 0. -1.
     999902    2    1    2    0    0 -0.22520692988E-01  0.22382374116E-02 -0.11825733394E-01  0.10183949400E+01  0.10180747588E+01 0.  0.
     999903    2    3    3    0    0 -0.82533599727E-01  0.29876218733E-02  0.97761661248E-01  0.12956902474E+00  0.20250155417E-01 0.  0.
         14    1    1    2    0    0  0.22520692988E-01 -0.22382374116E-02  0.11825733394E-01  0.25535060009E-01  0.00000000000E+00 0. -1.
     999901    1    3    3    0    0  0.60012906739E-01 -0.74938446163E-03 -0.10958739464E+00  0.88882591525E+00  0.88000000000E+00 0. -1.
        -11    1    4    4    0    0 -0.41023400882E-01  0.63252309265E-02  0.35273290228E-01  0.54473792696E-01  0.51100000000E-03 0. -1.
         11    1    4    4    0    0 -0.41510198844E-01 -0.33376090532E-02  0.62488371020E-01  0.75095232046E-01  0.51100000000E-03 0.  1.
</event>
<event>
 8    1  0.1170483E+005  0.1043930E+01  0.7957747E-01            NaN
         13   -1    0    0    0    0  0.00000000000E+00  0.00000000000E+00  0.74505805969E-08  0.10566000000E+00  0.10566000000E+00 0. -1.
     999900   -1    0    0    0    0 -0.00000000000E+00 -0.00000000000E+00 -0.74505805969E-08  0.93827000000E+00  0.93827000000E+00 0. -1.
     999902    2    1    2    0    0 -0.12027839436E-01  0.13076809244E-01 -0.16745970901E-01  0.10195148530E+01  0.10192224664E+01 0.  0.
     999903    2    3    3    0    0  0.97431055559E-01 -0.61924735799E-01 -0.53723546454E-01  0.12879950984E+00  0.19380681104E-01 0.  0.
         14    1    1    2    0    0  0.12027839436E-01 -0.13076809244E-01  0.16745970901E-01  0.24415146998E-01  0.00000000000E+00 0. -1.
     999901    1    3    3    0    0 -0.10945889500E+00  0.75001545043E-01  0.36977575553E-01  0.89071534316E+00  0.88000000000E+00 0.  1.
        -11    1    4    4    0    0  0.22995915142E-01 -0.24490744766E-01 -0.12595714171E-01  0.35882054413E-01  0.51100000000E-03 0. -1.
         11    1    4    4    0    0  0.74435140417E-01 -0.37433991033E-01 -0.41127832283E-01  0.92917455426E-01  0.51100000000E-03 0.  1.
</event>
<event>
 8    1  0.1170483E+005  0.1043930E+01  0.7957747E-01            NaN
         13   -1    0    0    0    0  0.00000000000E+00  0.00000000000E+00  0.74505805969E-08  0.10566000000E+00  0.10566000000E+00 0. -1.
     999900   -1    0    0    0    0 -0.00000000000E+00 -0.00000000000E+00 -0.74505805969E-08  0.93827000000E+00  0.93827000000E+00 0.  1.
     999902    2    1    2    0    0 -0.15985530492E-01 -0.19512974246E-01  0.28003124637E-02  0.10185501832E+01  0.10182339322E+01 0.  0.
     999903    2    3    3    0    0 -0.17349031638E-01 -0.52376905586E-01 -0.11595506708E+00  0.12996437574E+00  0.20020795213E-01 0.  0.
         14    1    1    2    0    0  0.15985530492E-01  0.19512974246E-01 -0.28003124637E-02  0.25379816762E-01  0.00000000000E+00 0.  1.
     999901    1    3    3    0    0  0.13635011468E-02  0.32863931341E-01  0.11875537955E+00  0.88858580750E+00  0.88000000000E+00 0. -1.
        -11    1    4    4    0    0 -0.28155263292E-02 -0.84852752053E-02 -0.62698153828E-02  0.10931550199E-01  0.51100000000E-03 0.  1.
         11    1    4    4    0    0 -0.14533505309E-01 -0.43891630381E-01 -0.10968525170E+00  0.11903282554E+00  0.51100000000E-03 0. -1.
</event>
<event>
 8    1  0.1170483E+005  0.1043930E+01  0.7957747E-01            NaN
         13   -1    0    0    0    0  0.00000000000E+00  0.00000000000E+00  0.74505805969E-08  0.10566000000E+00  0.10566000000E+00 0.  1.
     999900   -1    0    0    0    0 -0.00000000000E+00 -0.00000000000E+00 -0.74505805969E-08  0.93827000000E+00  0.93827000000E+00 0.  1.
     999902    2    1    2    0    0 -0.27669558542E-02 -0.68723409594E-02  0.22374977643E-01  0.10203604277E+01  0.10200881715E+01 0.  0.
     999903    2    3    3    0    0 -0.75403162838E-01  0.17088588374E-01  0.10650274804E+00  0.13304558702E+00  0.19509896662E-01 0.  0.
         14    1    1    2    0    0  0.27669558542E-02  0.68723409594E-02 -0.22374977643E-01  0.23569572323E-01  0.00000000000E+00 0. -1.
     999901    1    3    3    0    0  0.72636206984E-01 -0.23960929334E-01 -0.84127770392E-01  0.88731484066E+00  0.88000000000E+00 0.  1.
        -11    1    4    4    0    0 -0.48447109490E-01  0.11763632995E-01  0.52198321926E-01  0.72183318101E-01  0.51100000000E-03 0. -1.
         11    1    4    4    0    0 -0.26956053348E-01  0.53249553791E-02  0.54304426109E-01  0.60862268919E-01  0.51100000000E-03 0.  1.
</event>
<event>
 8    1  0.1170483E+005  0.1043930E+01  0.7957747E-01            NaN
         13   -1    0    0    0    0  0.00000000000E+00  0.00000000000E+00  0.74505805969E-08  0.10566000000E+00  0.10566000000E+00 0. -1.
     999900   -1    0    0    0    0 -0.00000000000E+00 -0.00000000000E+00 -0.74505805969E-08  0.93827000000E+00  0.93827000000E+00 0. -1.
     999902    2    1    2    0    0  0.19742950909E-01  0.13299451343E-01 -0.90839500902E-03  0.10201080627E+01  0.10198298754E+01 0.  0.
     999903    2    3    3    0    0 -0.45830634094E-02 -0.10922935686E+00  0.66022224889E-01  0.12876931018E+00  0.16448227723E-01 0.  0.
         14    1    1    2    0    0 -0.19742950909E-01 -0.13299451343E-01  0.90839500902E-03  0.23821937330E-01  0.00000000000E+00 0. -1.
     999901    1    3    3    0    0  0.24326014319E-01  0.12252880820E+00 -0.66930619898E-01  0.89133875249E+00  0.88000000000E+00 0. -1.
        -11    1    4    4    0    0 -0.58039442624E-02 -0.78899853181E-01  0.39359004468E-01  0.88364387367E-01  0.51100000000E-03 0.  1.
         11    1    4    4    0    0  0.12208808531E-02 -0.30329503676E-01  0.26663220421E-01  0.40404922813E-01  0.51100000000E-03 0. -1.
</event>
<event>
 8    1  0.1170483E+005  0.1043930E+01  0.7957747E-01            NaN
         13   -1    0    0    0    0  0.00000000000E+00  0.00000000000E+00  0.74505805969E-08  0.10566000000E+00  0.10566000000E+00 0. -1.
     999900   -1    0    0    0    0 -0.00000000000E+00 -0.00000000000E+00 -0.74505805969E-08  0.93827000000E+00  0.93827000000E+00 0.  1.
     999902    2    1    2    0    0 -0.41538365094E-02  0.15945065002E-01 -0.23082346717E-01  0.10155699192E+01  0.10151738602E+01 0.  0.
     999903    2    3    3    0    0 -0.16014589346E-01  0.24549249185E-01 -0.12468120851E+00  0.12960319395E+00  0.19810386676E-01 0.  0.
         14    1    1    2    0    0  0.41538365094E-02 -0.15945065002E-01  0.23082346717E-01  0.28360080847E-01  0.00000000000E+00 0. -1.
     999901    1    3    3    0    0  0.11860752837E-01 -0.86041841833E-02  0.10159886179E+00  0.88596672520E+00  0.88000000000E+00 0. -1.
        -11    1    4    4    0    0 -0.62364590167E-02  0.22548148295E-01 -0.64841970726E-01  0.68935148518E-01  0.51100000000E-03 0. -1.
         11    1    4    4    0    0 -0.97781303293E-02  0.20011008905E-02 -0.59839237783E-01  0.60668045436E-01  0.51100000000E-03 0.  1.
</event>
<event>
 8    1  0.1170483E+005  0.1043930E+01  0.7957747E-01            NaN
         13   -1    0    0    0    0  0.00000000000E+00  0.00000000000E+00  0.74505805969E-08  0.10566000000E+00  0.10566000000E+00 0.  1.
     999900   -1    0    0    0    0 -0.00000000000E+00 -0.00000000000E+00 -0.74505805969E-08  0.93827000000E+00  0.93827000000E+00 0. -1.
     999902    2    1    2    0    0  0.84549701688E-02  0.20919322413E-01 -0.72847112824E-02  0.10202198421E+01  0.10199442899E+01 0.  0.
     999903    2    3    3    0    0 -0.10412228534E+00 -0.66404990765E-01 -0.29231197380E-01  0.12849072267E+00  0.20107953842E-01 0.  0.
         14    1    1    2    0    0 -0.84549701688E-02 -0.20919322413E-01  0.72847112824E-02  0.23710157933E-01  0.00000000000E+00 0.  1.
     999901    1    3    3    0    0  0.11257725551E+00  0.87324313178E-01  0.21946486098E-01  0.89172911940E+00  0.88000000000E+00 0. -1.
        -11    1    4    4    0    0 -0.88158709373E-01 -0.62900558012E-01 -0.21539628173E-01  0.11042035564E+00  0.51100000000E-03 0.  1.
         11    1    4    4    0    0 -0.15963575971E-01 -0.35044327530E-02 -0.76915692077E-02  0.18070367029E-01  0.51100000000E-03 0. -1.
</event>
<event>
 7    1  0.1170483E+005  0.1043930E+01  0.7957747E-01            NaN
         13   -1    0    0    0    0  0.00000000000E+00  0.00000000000E+00  0.74505805969E-08  0.10566000000E+00  0.10566000000E+00 0. -1.
     999900   -1    0    0    0    0 -0.00000000000E+00 -0.00000000000E+00 -0.74505805969E-08  0.93827000000E+00  0.93827000000E+00 0. -1.
     999903    2    1    2    0    0  0.84360175062E-01  0.80962997496E-01 -0.19501350271E-01  0.12108019374E+00  0.24667074279E-01 0.  0.
         14    1    1    2    0    0 -0.25062321972E-01 -0.13677996242E-01  0.25484843703E-01  0.38271200953E-01  0.00000000000E+00 0. -1.
     999901    1    1    2    0    0 -0.59297853089E-01 -0.67285001254E-01 -0.59834934325E-02  0.88457860531E+00  0.88000000000E+00 0.  1.
        -11    1    3    3    0    0  0.60463876424E-01  0.48669426073E-01 -0.30916206263E-02  0.77681481871E-01  0.51100000000E-03 0. -1.
         11    1    3    3    0    0  0.23896298637E-01  0.32293571422E-01 -0.16409729645E-01  0.43398711868E-01  0.51100000000E-03 0.  1.
</event>
<event>
 8    1  0.1170483E+005  0.1043930E+01  0.7957747E-01            NaN
         13   -1    0    0    0    0  0.00000000000E+00  0.00000000000E+00  0.74505805969E-08  0.10566000000E+00  0.10566000000E+00 0. -1.
     999900   -1    0    0    0    0 -0.00000000000E+00 -0.00000000000E+00 -0.74505805969E-08  0.93827000000E+00  0.93827000000E+00 0.  1.
     999902    2    1    2    0    0  0.22007660140E-02  0.17097068636E-01  0.16680411959E-01  0.10199427269E+01  0.10196606185E+01 0.  0.
     999903    2    3    3    0    0 -0.51516507802E-01 -0.82357495362E-01 -0.80068543800E-01  0.12745344617E+00  0.19917369690E-01 0.  0.
         14    1    1    2    0    0 -0.22007660140E-02 -0.17097068636E-01 -0.16680411959E-01  0.23987273086E-01  0.00000000000E+00 0.  1.
     999901    1    3    3    0    0  0.53717273816E-01  0.99454563999E-01  0.96748955758E-01  0.89248928075E+00  0.88000000000E+00 0. -1.
        -11    1    4    4    0    0 -0.13356546151E-01 -0.35431235014E-01 -0.23067072652E-01  0.44340959636E-01  0.51100000000E-03 0.  1.
         11    1    4    4    0    0 -0.38159961651E-01 -0.46926260348E-01 -0.57001471147E-01  0.83112486531E-01  0.51100000000E-03 0. -1.
</event>
<event>
 8    1  0.1170483E+005  0.1043930E+01  0.7957747E-01            NaN
         13   -1    0    0    0    0  0.00000000000E+00  0.00000000000E+00  0.74505805969E-08  0.10566000000E+00  0.10566000000E+00 0.  1.
     999900   -1    0    0    0    0 -0.00000000000E+00 -0.00000000000E+00 -0.74505805969E-08  0.93827000000E+00  0.93827000000E+00 0. -1.
     999902    2    1    2    0    0 -0.21015285433E-01  0.84127554879E-02 -0.54503013614E-02  0.10206464766E+01  0.10203808641E+01 0.  0.
     999903    2    3    3    0    0 -0.26705404965E-01  0.93341826706E-01 -0.88139048894E-01  0.13268096288E+00  0.20245263732E-01 0.  0.
         14    1    1    2    0    0  0.21015285433E-01 -0.84127554879E-02  0.54503013614E-02  0.23283523394E-01  0.00000000000E+00 0.  1.
     999901    1    3    3    0    0  0.56901195322E-02 -0.84929071218E-01  0.82688747533E-01  0.88796551373E+00  0.88000000000E+00 0.  1.
        -11    1    4    4    0    0 -0.19089253796E-01  0.69271154081E-01 -0.52449225319E-01  0.88961085626E-01  0.51100000000E-03 0. -1.
         11    1    4    4    0    0 -0.76161511696E-02  0.24070672625E-01 -0.35689823575E-01  0.43719877254E-01  0.51100000000E-03 0.  1.
</event>
<event>
 8    1  0.1170483E+005  0.1043930E+01  0.7957747E-01            NaN
         13   -1    0    0    0    0  0.00000000000E+00  0.00000000000E+00  0.74505805969E-08  0.10566000000E+00  0.10566000000E+00 0. -1.
     999900   -1    0    0    0    0 -0.00000000000E+00 -0.00000000000E+00 -0.74505805969E-08  0.93827000000E+00  0.93827000000E+00 0.  1.
     999902    2    1    2    0    0  0.94447052759E-02 -0.18746906656E-01  0.10911958844E-01  0.10202716016E+01  0.10199972653E+01 0.  0.
     999903    2    3    3    0    0  0.96813781770E-01  0.53425491085E-01  0.67729399788E-01  0.13118756056E+00  0.19892536559E-01 0.  0.
         14    1    1    2    0    0 -0.94447052759E-02  0.18746906656E-01 -0.10911958844E-01  0.23658398355E-01  0.00000000000E+00 0.  1.
     999901    1    3    3    0    0 -0.87369076494E-01 -0.72172397741E-01 -0.56817440944E-01  0.88908404109E+00  0.88000000000E+00 0.  1.
        -11    1    4    4    0    0  0.71370288820E-01  0.48680458835E-01  0.50120566118E-01  0.99879114271E-01  0.51100000000E-03 0.  1.
         11    1    4    4    0    0  0.25443492950E-01  0.47450322498E-02  0.17608833670E-01  0.31308446285E-01  0.51100000000E-03 0. -1.
</event>
<event>
 8    1  0.1170483E+005  0.1043930E+01  0.7957747E-01            NaN
         13   -1    0    0    0    0  0.00000000000E+00  0.00000000000E+00  0.74505805969E-08  0.10566000000E+00  0.10566000000E+00 0. -1.
     999900   -1    0    0    0    0 -0.00000000000E+00 -0.00000000000E+00 -0.74505805969E-08  0.93827000000E+00  0.93827000000E+00 0.  1.
     999902    2    1    2    0    0  0.44678069903E-02  0.23190107222E-01  0.23151683452E-02  0.10202002217E+01  0.10199242080E+01 0.  0.
     999903    2    3    3    0    0 -0.30543787492E-01  0.59748840248E-01 -0.11167435802E+00  0.13140555206E+00  0.17129215024E-01 0.  0.
         14    1    1    2    0    0 -0.44678069903E-02 -0.23190107222E-01 -0.23151683452E-02  0.23729778269E-01  0.00000000000E+00 0.  1.
     999901    1    3    3    0    0  0.35011594483E-01 -0.36558733027E-01  0.11398952637E+00  0.88879466967E+00  0.88000000000E+00 0. -1.
        -11    1    4    4    0    0 -0.25726622281E-01  0.43566648233E-01 -0.95196396953E-01  0.10780782461E+00  0.51100000000E-03 0.  1.
         11    1    4    4    0    0 -0.48171652111E-02  0.16182192015E-01 -0.16477961071E-01  0.23597727457E-01  0.51100000000E-03 0. -1.
</event>
<event>
 8    1  0.1170483E+005  0.1043930E+01  0.7957747E-01            NaN
         13   -1    0    0    0    0  0.00000000000E+00  0.00000000000E+00  0.74505805969E-08  0.10566000000E+00  0.10566000000E+00 0.  1.
     999900   -1    0    0    0    0 -0.00000000000E+00 -0.00000000000E+00 -0.74505805969E-08  0.93827000000E+00  0.93827000000E+00 0.  1.
     999902    2    1    2    0    0  0.58493848389E-02  0.69913848439E-02 -0.21909313558E-01  0.10202000024E+01  0.10199239835E+01 0.  0.
     999903    2    3    3    0    0 -0.55628229021E-01  0.70650236495E-01  0.89948605161E-01  0.12871576790E+00  0.19774770667E-01 0.  0.
         14    1    1    2    0    0 -0.58493848389E-02 -0.69913848439E-02  0.21909313558E-01  0.23729997590E-01  0.00000000000E+00 0.  1.
     999901    1    3    3    0    0  0.61477613860E-01 -0.63658851651E-01 -0.11185791872E+00  0.89148423451E+00  0.88000000000E+00 0.  1.
        -11    1    4    4    0    0 -0.85709233895E-02  0.30771379643E-02  0.49781354900E-02  0.10390979730E-01  0.51100000000E-03 0.  1.
         11    1    4    4    0    0 -0.47057305631E-01  0.67573098531E-01  0.84970469671E-01  0.11832478817E+00  0.51100000000E-03 0. -1.
</event>
<event>
 8    1  0.1170483E+005  0.1043930E+01  0.7957747E-01            NaN
         13   -1    0    0    0    0  0.00000000000E+00  0.00000000000E+00  0.74505805969E-08  0.10566000000E+00  0.10566000000E+00 0.  1.
     999900   -1    0    0    0    0 -0.00000000000E+00 -0.00000000000E+00 -0.74505805969E-08  0.93827000000E+00  0.93827000000E+00 0. -1.
     999902    2    1    2    0    0 -0.57865543962E-02  0.22429623825E-01 -0.18617044034E-02  0.10206912784E+01  0.10204266988E+01 0.  0.
     999903    2    3    3    0    0 -0.21839563109E-01 -0.11004700562E+00 -0.59195845694E-01  0.12878603672E+00  0.22234773317E-01 0.  0.
         14    1    1    2    0    0  0.57865543962E-02 -0.22429623825E-01  0.18617044034E-02  0.23238721566E-01  0.00000000000E+00 0.  1.
     999901    1    3    3    0    0  0.16053008712E-01  0.13247662944E+00  0.57334141291E-01  0.89190524171E+00  0.88000000000E+00 0.  1.
        -11    1    4    4    0    0 -0.24526995345E-01 -0.69283947843E-01 -0.36847083933E-01  0.82218049386E-01  0.51100000000E-03 0.  1.
         11    1    4    4    0    0  0.26874322361E-02 -0.40763057776E-01 -0.22348761761E-01  0.46567987336E-01  0.51100000000E-03 0. -1.
</event>
<event>
 8    1  0.1170483E+005  0.1043930E+01  0.7957747E-01            NaN
         13   -1    0    0    0    0  0.00000000000E+00  0.00000000000E+00  0.74505805969E-08  0.10566000000E+00  0.10566000000E+00 0.  1.
     999900   -1    0    0    0    0 -0.00000000000E+00 -0.00000000000E+00 -0.74505805969E-08  0.93827000000E+00  0.93827000000E+00 0.  1.
     999902    2    1    2    0    0  0.92525174157E-02  0.11416468240E-01 -0.18954485299E-01  0.10199463110E+01  0.10196642879E+01 0.  0.
     999903    2    3    3    0    0 -0.36858425738E-01  0.99831750642E-01 -0.76351688509E-01  0.13245663771E+00  0.19754962698E-01 0.  0.
         14    1    1    2    0    0 -0.92525174157E-02 -0.11416468240E-01  0.18954485299E-01  0.23983689010E-01  0.00000000000E+00 0.  1.
     999901    1    3    3    0    0  0.46110943153E-01 -0.88415282403E-01  0.57397203210E-01  0.88748967328E+00  0.88000000000E+00 0. -1.
        -11    1    4    4    0    0 -0.31024399800E-02  0.30311478812E-01 -0.27348687499E-01  0.40946583625E-01  0.51100000000E-03 0. -1.
         11    1    4    4    0    0 -0.33755985758E-01  0.69520271830E-01 -0.49003001010E-01  0.91510054086E-01  0.51100000000E-03 0.  1.
</event>
<event>
 8    1  0.1170483E+005  0.1043930E+01  0.7957747E-01            NaN
         13   -1    0    0    0    0  0.00000000000E+00  0.00000000000E+00  0.74505805969E-08  0.10566000000E+00  0.10566000000E+00 0.  1.
     999900   -1    0    0    0    0 -0.00000000000E+00 -0.00000000000E+00 -0.74505805969E-08  0.93827000000E+00  0.93827000000E+00 0.  1.
     999902    2    1    2    0    0 -0.18520266980E-01 -0.31480452073E-02  0.47510496298E-02  0.10245526176E+01  0.10243693588E+01 0.  0.
     999903    2    3    3    0    0 -0.12751266109E+00 -0.23039161962E-01 -0.38076199192E-01  0.13657222828E+00  0.20295193307E-01 0.  0.
         14    1    1    2    0    0  0.18520266980E-01  0.31480452073E-02 -0.47510496298E-02  0.19377382440E-01  0.00000000000E+00 0. -1.
     999901    1    3    3    0    0  0.10899239411E+00  0.19891116754E-01  0.42827248822E-01  0.88798038928E+00  0.88000000000E+00 0.  1.
        -11    1    4    4    0    0 -0.46622471099E-01  0.89636843566E-03 -0.10294887013E-01  0.47756717930E-01  0.51100000000E-03 0.  1.
         11    1    4    4    0    0 -0.80890189990E-01 -0.23935530397E-01 -0.27781312179E-01  0.88815510354E-01  0.51100000000E-03 0. -1.
</event>
<event>
 8    1  0.1170483E+005  0.1043930E+01  0.7957747E-01            NaN
         13   -1    0    0    0    0  0.00000000000E+00  0.00000000000E+00  0.74505805969E-08  0.10566000000E+00  0.10566000000E+00 0.  1.
     999900   -1    0    0    0    0 -0.00000000000E+00 -0.00000000000E+00 -0.74505805969E-08  0.93827000000E+00  0.93827000000E+00 0. -1.
     999902    2    1    2    0    0 -0.11005793036E-01 -0.29827236473E-02  0.20944387924E-01  0.10200827464E+01  0.10198039605E+01 0.  0.
     999903    2    3    3    0    0 -0.67001956119E-01 -0.96708454915E-01 -0.51964679897E-01  0.13034356258E+00  0.21150153034E-01 0.  0.
         14    1    1    2    0    0  0.11005793036E-01  0.29827236473E-02 -0.20944387924E-01  0.23847253641E-01  0.00000000000E+00 0. -1.
     999901    1    3    3    0    0  0.55996163083E-01  0.93725731268E-01  0.72909067821E-01  0.88973918378E+00  0.88000000000E+00 0.  1.
        -11    1    4    4    0    0 -0.38051372501E-01 -0.56066711686E-01 -0.18437750880E-01  0.70225315143E-01  0.51100000000E-03 0. -1.
         11    1    4    4    0    0 -0.28950583618E-01 -0.40641743230E-01 -0.33526929017E-01  0.60118247437E-01  0.51100000000E-03 0.  1.
</event>
<event>
 8    1  0.1170483E+005  0.1043930E+01  0.7957747E-01            NaN
         13   -1    0    0    0    0  0.00000000000E+00  0.00000000000E+00  0.74505805969E-08  0.10566000000E+00  0.10566000000E+00 0. -1.
     999900   -1    0    0    0    0 -0.00000000000E+00 -0.00000000000E+00 -0.74505805969E-08  0.93827000000E+00  0.93827000000E+00 0.  1.
     999902    2    1    2    0    0 -0.56525465012E-02  0.19578786863E-01 -0.12350443074E-01  0.10201011599E+01  0.10198228095E+01 0.  0.
     999903    2    3    3    0    0 -0.64699732198E-01 -0.92362479392E-01  0.57877234733E-01  0.12827755403E+00  0.19709734205E-01 0.  0.
         14    1    1    2    0    0  0.56525465012E-02 -0.19578786863E-01  0.12350443074E-01  0.23828840112E-01  0.00000000000E+00 0. -1.
     999901    1    3    3    0    0  0.59047185697E-01  0.11194126625E+00 -0.70227677807E-01  0.89182360585E+00  0.88000000000E+00 0.  1.
        -11    1    4    4    0    0 -0.11377842414E-02 -0.11736568723E-01  0.55391462956E-02  0.13037824245E-01  0.51100000000E-03 0. -1.
         11    1    4    4    0    0 -0.63561947957E-01 -0.80625910669E-01  0.52338088437E-01  0.11523972979E+00  0.51100000000E-03 0.  1.
</event>
<event>
 8    1  0.1170483E+005  0.1043930E+01  0.7957747E-01            NaN
         13   -1    0    0    0    0  0.00000000000E+00  0.00000000000E+00  0.74505805969E-08  0.10566000000E+00  0.10566000000E+00 0. -1.
     999900   -1    0    0    0    0 -0.00000000000E+00 -0.00000000000E+00 -0.74505805969E-08  0.93827000000E+00  0.93827000000E+00 0. -1.
     999902    2    1    2    0    0 -0.63372800544E-02 -0.62587350849E-02  0.22394266729E-01  0.10198294592E+01  0.10195446483E+01 0.  0.
     999903    2    3    3    0    0  0.53893786857E-01  0.49228198069E-01  0.10868161860E+00  0.13182490503E+00  0.15432291436E-01 0.  0.
         14    1    1    2    0    0  0.63372800544E-02  0.62587350849E-02 -0.22394266729E-01  0.24100540775E-01  0.00000000000E+00 0.  1.
     999901    1    3    3    0    0 -0.60231066911E-01 -0.55486933154E-01 -0.86287351870E-01  0.88800455419E+00  0.88000000000E+00 0. -1.
        -11    1    4    4    0    0  0.21068294160E-01  0.24992409709E-01  0.59770319258E-01  0.68126688949E-01  0.51100000000E-03 0.  1.
         11    1    4    4    0    0  0.32825492697E-01  0.24235788360E-01  0.48911299340E-01  0.63698216085E-01  0.51100000000E-03 0. -1.
</event>
<event>
 8    1  0.1170483E+005  0.1043930E+01  0.7957747E-01            NaN
         13   -1    0    0    0    0  0.00000000000E+00  0.00000000000E+00  0.74505805969E-08  0.10566000000E+00  0.10566000000E+00 0.  1.
     999900   -1    0    0    0    0 -0.00000000000E+00 -0.00000000000E+00 -0.74505805969E-08  0.93827000000E+00  0.93827000000E+00 0.  1.
     999902    2    1    2    0    0  0.18904255273E-01 -0.40024917536E-03 -0.14381925484E-01  0.10201735094E+01  0.10198968665E+01 0.  0.
     999903    2    3    3    0    0  0.12399992882E+00  0.36974624899E-01  0.19483111746E-01  0.13248616431E+00  0.20733713049E-01 0.  0.
         14    1    1    2    0    0 -0.18904255273E-01  0.40024917536E-03  0.14381925484E-01  0.23756490638E-01  0.00000000000E+00 0.  1.
     999901    1    3    3    0    0 -0.10509567355E+00 -0.37374874074E-01 -0.33865037230E-01  0.88768734505E+00  0.88000000000E+00 0. -1.
        -11    1    4    4    0    0  0.52474843021E-01  0.54143861190E-02  0.51955930558E-02  0.53011131240E-01  0.51100000000E-03 0. -1.
         11    1    4    4    0    0  0.71525085802E-01  0.31560238780E-01  0.14287518690E-01  0.79475033074E-01  0.51100000000E-03 0.  1.
</event>
<event>
 8    1  0.1170483E+005  0.1043930E+01  0.7957747E-01            NaN
         13   -1    0    0    0    0  0.00000000000E+00  0.00000000000E+00  0.74505805969E-08  0.10566000000E+00  0.10566000000E+00 0.  1.
     999900   -1    0    0    0    0 -0.00000000000E+00 -0.00000000000E+00 -0.74505805969E-08  0.93827000000E+00  0.93827000000E+00 0.  1.
     999902    2    1    2    0    0  0.19199202705E-01 -0.13330728214E-01 -0.15579816727E-02  0.10205046930E+01  0.10202357980E+01 0.  0.
     999903    2    3    3    0    0 -0.99221771146E-01  0.74940461195E-01 -0.23797505346E-01  0.12791860401E+00  0.18325266613E-01 0.  0.
         14    1    1    2    0    0 -0.19199202705E-01  0.13330728214E-01  0.15579816727E-02  0.23425306959E-01  0.00000000000E+00 0. -1.
     999901    1    3    3    0    0  0.11842097385E+00 -0.88271189408E-01  0.22239523673E-01  0.89258608904E+00  0.88000000000E+00 0.  1.
        -11    1    4    4    0    0 -0.46202954517E-01  0.45882441066E-01 -0.97004819079E-02  0.65835187207E-01  0.51100000000E-03 0.  1.
         11    1    4    4    0    0 -0.53018816629E-01  0.29058020129E-01 -0.14097023438E-01  0.62083416798E-01  0.51100000000E-03 0. -1.
</event>
<event>
 8    1  0.1170483E+005  0.1043930E+01  0.7957747E-01            NaN
         13   -1    0    0    0    0  0.00000000000E+00  0.00000000000E+00  0.74505805969E-08  0.10566000000E+00  0.10566000000E+00 0.  1.
     999900   -1    0    0    0    0 -0.00000000000E+00 -0.00000000000E+00 -0.74505805969E-08  0.93827000000E+00  0.93827000000E+00 0. -1.
     999902    2    1    2    0    0 -0.15898295028E-01  0.12722052543E-01  0.10671517402E-01  0.10209411399E+01  0.10206822833E+01 0.  0.
     999903    2    3    3    0    0  0.62153733141E-01  0.61428528693E-01 -0.94911983617E-01  0.12986745292E+00  0.14856648754E-01 0.  0.
         14    1    1    2    0    0  0.15898295028E-01 -0.12722052543E-01 -0.10671517402E-01  0.22988860115E-01  0.00000000000E+00 0.  1.
     999901    1    3    3    0    0 -0.78052028169E-01 -0.48706476150E-01  0.10558350102E+00  0.89107368697E+00  0.88000000000E+00 0. -1.
        -11    1    4    4    0    0  0.42005397570E-01  0.45672713165E-01 -0.57875240977E-01  0.84854315105E-01  0.51100000000E-03 0. -1.
         11    1    4    4    0    0  0.20148335571E-01  0.15755815528E-01 -0.37036742639E-01  0.45013137811E-01  0.51100000000E-03 0.  1.
</event>
<event>
 8    1  0.1170483E+005  0.1043930E+01  0.7957747E-01            NaN
         13   -1    0    0    0    0  0.00000000000E+00  0.00000000000E+00  0.74505805969E-08  0.10566000000E+00  0.10566000000E+00 0. -1.
     999900   -1    0    0    0    0 -0.00000000000E+00 -0.00000000000E+00 -0.74505805969E-08  0.93827000000E+00  0.93827000000E+00 0. -1.
     999902    2    1    2    0    0 -0.18777263043E-01  0.68319805369E-02  0.13363583233E-01  0.10198915532E+01  0.10196082255E+01 0.  0.
     999903    2    3    3    0    0  0.17856244604E-01  0.12697663856E+00  0.17644209179E-01  0.13096237919E+00  0.19947792724E-01 0.  0.
         14    1    1    2    0    0  0.18777263043E-01 -0.68319805369E-02 -0.13363583233E-01  0.24038446752E-01  0.00000000000E+00 0.  1.
     999901    1    3    3    0    0 -0.36633507646E-01 -0.12014465802E+00 -0.42806259462E-02  0.88892917406E+00  0.88000000000E+00 0.  1.
        -11    1    4    4    0    0  0.15594404289E-02  0.76404236796E-01  0.67333212731E-02  0.76717911802E-01  0.51100000000E-03 0. -1.
         11    1    4    4    0    0  0.16296804175E-01  0.50572401762E-01  0.10910887906E-01  0.54244467388E-01  0.51100000000E-03 0.  1.
</event>
<event>
 8    1  0.1170483E+005  0.1043930E+01  0.7957747E-01            NaN
         13   -1    0    0    0    0  0.00000000000E+00  0.00000000000E+00  0.74505805969E-08  0.10566000000E+00  0.10566000000E+00 0.  1.
     999900   -1    0    0    0    0 -0.00000000000E+00 -0.00000000000E+00 -0.74505805969E-08  0.93827000000E+00  0.93827000000E+00 0. -1.
     999902    2    1    2    0    0 -0.14665127355E-01 -0.64664413652E-02 -0.16993500036E-01  0.10205706364E+01  0.10203032706E+01 0.  0.
     999903    2    3    3    0    0 -0.13037876734E+00  0.11034299055E-01  0.58357145114E-02  0.13252948002E+00  0.20239288051E-01 0.  0.
         14    1    1    2    0    0  0.14665127355E-01  0.64664413652E-02  0.16993500036E-01  0.23359363599E-01  0.00000000000E+00 0. -1.
     999901    1    3    3    0    0  0.11571363999E+00 -0.17500740420E-01 -0.22829214548E-01  0.88804115638E+00  0.88000000000E+00 0.  1.
        -11    1    4    4    0    0 -0.62392006726E-01  0.12009425975E-01  0.10382164995E-01  0.64381979517E-01  0.51100000000E-03 0. -1.
         11    1    4    4    0    0 -0.67986760615E-01 -0.97512692010E-03 -0.45464504839E-02  0.68147500500E-01  0.51100000000E-03 0.  1.
</event>
<event>
 8    1  0.1170483E+005  0.1043930E+01  0.7957747E-01            NaN
         13   -1    0    0    0    0  0.00000000000E+00  0.00000000000E+00  0.74505805969E-08  0.10566000000E+00  0.10566000000E+00 0. -1.
     999900   -1    0    0    0    0 -0.00000000000E+00 -0.00000000000E+00 -0.74505805969E-08  0.93827000000E+00  0.93827000000E+00 0.  1.
     999902    2    1    2    0    0  0.17204291377E-01 -0.15286776056E-01 -0.61494182971E-02  0.10201079827E+01  0.10198297935E+01 0.  0.
     999903    2    3    3    0    0  0.11706941399E+00  0.22953247933E-01 -0.53819887951E-01  0.13235361585E+00  0.19718012218E-01 0.  0.
         14    1    1    2    0    0 -0.17204291377E-01  0.15286776056E-01  0.61494182971E-02  0.23822017323E-01  0.00000000000E+00 0. -1.
     999901    1    3    3    0    0 -0.99865122614E-01 -0.38240023988E-01  0.47670469654E-01  0.88775436683E+00  0.88000000000E+00 0. -1.
        -11    1    4    4    0    0  0.44856169435E-01  0.52836986934E-02 -0.30244870888E-01  0.54359973733E-01  0.51100000000E-03 0.  1.
         11    1    4    4    0    0  0.72213244556E-01  0.17669549239E-01 -0.23575017063E-01  0.77993642113E-01  0.51100000000E-03 0. -1.
</event>
<event>
 8    1  0.1170483E+005  0.1043930E+01  0.7957747E-01            NaN
         13   -1    0    0    0    0  0.00000000000E+00  0.00000000000E+00  0.74505805969E-08  0.10566000000E+00  0.10566000000E+00 0. -1.
     999900   -1    0    0    0    0 -0.00000000000E+00 -0.00000000000E+00 -0.74505805969E-08  0.93827000000E+00  0.93827000000E+00 0.  1.
     999902    2    1    2    0    0  0.17474169084E-01  0.15561724706E-01 -0.38352578137E-02  0.10202187566E+01  0.10199431789E+01 0.  0.
     999903    2    3    3    0    0  0.18998430074E-01 -0.59352711303E-01 -0.11270595969E+00  0.13034948203E+00  0.20116397094E-01 0.  0.
         14    1    1    2    0    0 -0.17474169084E-01 -0.15561724706E-01  0.38352578137E-02  0.23711243399E-01  0.00000000000E+00 0.  1.
     999901    1    3    3    0    0 -0.15242609895E-02  0.74914436009E-01  0.10887070188E+00  0.88986927457E+00  0.88000000000E+00 0. -1.
        -11    1    4    4    0    0  0.13417028847E-01 -0.55406122704E-01 -0.10771090752E+00  0.12186778006E+00  0.51100000000E-03 0.  1.
         11    1    4    4    0    0  0.55814012267E-02 -0.39465885986E-02 -0.49950521718E-02  0.84817019766E-02  0.51100000000E-03 0. -1.
</event>
<event>
 8    1  0.1170483E+005  0.1043930E+01  0.7957747E-01            NaN
         13   -1    0    0    0    0  0.00000000000E+00  0.00000000000E+00  0.74505805969E-08  0.10566000000E+00  0.10566000000E+00 0. -1.
     999900   -1    0    0    0    0 -0.00000000000E+00 -0.00000000000E+00 -0.74505805969E-08  0.93827000000E+00  0.93827000000E+00 0.  1.
     999902    2    1    2    0    0  0.20629270611E-01 -0.74397873013E-03 -0.11384628162E-01  0.10203560723E+01  0.10200837143E+01 0.  0.
     999903    2    3    3    0    0  0.12251584749E+00  0.99799252781E-02 -0.48627041148E-01  0.13363014280E+00  0.19562569851E-01 0.  0.
         14    1    1    2    0    0 -0.20629270611E-01  0.74397873013E-03  0.11384628162E-01  0.23573927732E-01  0.00000000000E+00 0.  1.
     999901    1    3    3    0    0 -0.10188657688E+00 -0.10723904008E-01  0.37242412986E-01  0.88672592947E+00  0.88000000000E+00 0.  1.
        -11    1    4    4    0    0  0.37810315566E-01  0.11293232798E-01 -0.19719966015E-01  0.44116836365E-01  0.51100000000E-03 0. -1.
         11    1    4    4    0    0  0.84705531925E-01 -0.13133075198E-02 -0.28907075133E-01  0.89513306436E-01  0.51100000000E-03 0.  1.
</event>
<event>
 8    1  0.1170483E+005  0.1043930E+01  0.7957747E-01            NaN
         13   -1    0    0    0    0  0.00000000000E+00  0.00000000000E+00  0.74505805969E-08  0.10566000000E+00  0.10566000000E+00 0. -1.
     999900   -1    0    0    0    0 -0.00000000000E+00 -0.00000000000E+00 -0.74505805969E-08  0.93827000000E+00  0.93827000000E+00 0. -1.
     999902    2    1    2    0    0  0.22314679412E-01  0.85204476069E-02 -0.17483523545E-02  0.10199800589E+01  0.10196988383E+01 0.  0.
     999903    2    3    3    0    0 -0.12457431966E+00 -0.16663356618E-01  0.60948973087E-02  0.12741514883E+00  0.20026078148E-01 0.  0.
         14    1    1    2    0    0 -0.22314679412E-01 -0.85204476069E-02  0.17483523545E-02  0.23949941140E-01  0.00000000000E+00 0.  1.
     999901    1    3    3    0    0  0.14688899907E+00  0.25183804225E-01 -0.78432496632E-02  0.89256491003E+00  0.88000000000E+00 0. -1.
        -11    1    4    4    0    0 -0.90595815614E-01 -0.12881921759E-01  0.13306225749E-01  0.92470873683E-01  0.51100000000E-03 0.  1.
         11    1    4    4    0    0 -0.33978504048E-01 -0.37814348586E-02 -0.72113284401E-02  0.34944275151E-01  0.51100000000E-03 0. -1.
</event>
<event>
 8    1  0.1170483E+005  0.1043930E+01  0.7957747E-01            NaN
         13   -1    0    0    0    0  0.00000000000E+00  0.00000000000E+00  0.74505805969E-08  0.10566000000E+00  0.10566000000E+00 0. -1.
     999900   -1    0    0    0    0 -0.00000000000E+00 -0.00000000000E+00 -0.74505805969E-08  0.93827000000E+00  0.93827000000E+00 0. -1.
     999902    2    1    2    0    0 -0.85670163994E-02  0.15891350761E-01  0.86907337115E-02  0.10238935919E+01  0.10236975285E+01 0.  0.
     999903    2    3    3    0    0  0.66723939176E-01  0.89121223665E-01 -0.72401610268E-01  0.13394566611E+00  0.17457712740E-01 0.  0.
         14    1    1    2    0    0  0.85670163994E-02 -0.15891350761E-01 -0.86907337115E-02  0.20036408147E-01  0.00000000000E+00 0.  1.
     999901    1    3    3    0    0 -0.75290955575E-01 -0.73229872904E-01  0.81092343980E-01  0.88994792574E+00  0.88000000000E+00 0.  1.
        -11    1    4    4    0    0  0.98377017491E-02  0.78937214241E-02 -0.14034459624E-01  0.18876397738E-01  0.51100000000E-03 0. -1.
         11    1    4    4    0    0  0.56886237427E-01  0.81227502241E-01 -0.58367150645E-01  0.11506926837E+00  0.51100000000E-03 0.  1.
</event>
<event>
 8    1  0.1170483E+005  0.1043930E+01  0.7957747E-01            NaN
         13   -1    0    0    0    0  0.00000000000E+00  0.00000000000E+00  0.74505805969E-08  0.10566000000E+00  0.10566000000E+00 0. -1.
     999900   -1    0    0    0    0 -0.00000000000E+00 -0.00000000000E+00 -0.74505805969E-08  0.93827000000E+00  0.93827000000E+00 0. -1.
     999902    2    1    2    0    0  0.17388432063E-01 -0.72892774714E-02  0.65164459702E-03  0.10250642698E+01  0.10248906485E+01 0.  0.
     999903    2    3    3    0    0  0.12977199892E+00  0.36850395174E-01  0.83172199356E-03  0.13681970368E+00  0.22808249086E-01 0.  0.
         14    1    1    2    0    0 -0.17388432063E-01  0.72892774714E-02 -0.65164459702E-03  0.18865730209E-01  0.00000000000E+00 0.  1.
     999901    1    3    3    0    0 -0.11238356685E+00 -0.44139672645E-01 -0.18007739654E-03  0.88824456611E+00  0.88000000000E+00 0.  1.
        -11    1    4    4    0    0  0.62063312520E-01  0.19932168329E-01  0.11569796564E-01  0.66206249016E-01  0.51100000000E-03 0. -1.
         11    1    4    4    0    0  0.67708686395E-01  0.16918226844E-01 -0.10738074570E-01  0.70613454662E-01  0.51100000000E-03 0.  1.
</event>
<event>
 8    1  0.1170483E+005  0.1043930E+01  0.7957747E-01            NaN
         13   -1    0    0    0    0  0.00000000000E+00  0.00000000000E+00  0.74505805969E-08  0.10566000000E+00  0.10566000000E+00 0. -1.
     999900   -1    0    0    0    0 -0.00000000000E+00 -0.00000000000E+00 -0.74505805969E-08  0.93827000000E+00  0.93827000000E+00 0. -1.
     999902    2    1    2    0    0 -0.13554637747E-02 -0.13671845910E-01  0.20843623662E-01  0.10189657596E+01  0.10186599069E+01 0.  0.
     999903    2    3    3    0    0 -0.89237889009E-01 -0.91552741493E-01  0.20864624093E-01  0.13116580744E+00  0.20587160911E-01 0.  0.
         14    1    1    2    0    0  0.13554637747E-02  0.13671845910E-01 -0.20843623662E-01  0.24964240425E-01  0.00000000000E+00 0.  1.
     999901    1    3    3    0    0  0.87882425235E-01  0.77880895583E-01 -0.21000430588E-04  0.88779995213E+00  0.88000000000E+00 0.  1.
        -11    1    4    4    0    0 -0.60256775266E-01 -0.54624151367E-01  0.45253253186E-02  0.81458066319E-01  0.51100000000E-03 0.  1.
         11    1    4    4    0    0 -0.28981113743E-01 -0.36928590125E-01  0.16339298774E-01  0.49707741126E-01  0.51100000000E-03 0. -1.
</event>
<event>
 8    1  0.1170483E+005  0.1043930E+01  0.7957747E-01            NaN
         13   -1    0    0    0    0  0.00000000000E+00  0.00000000000E+00  0.74505805969E-08  0.10566000000E+00  0.10566000000E+00 0.  1.
     999900   -1    0    0    0    0 -0.00000000000E+00 -0.00000000000E+00 -0.74505805969E-08  0.93827000000E+00  0.93827000000E+00 0. -1.
     999902    2    1    2    0    0 -0.89178771379E-02 -0.21824596334E-01 -0.11258662088E-02  0.10203268410E+01  0.10200537993E+01 0.  0.
     999903    2    3    3    0    0 -0.10617952976E+00 -0.71402160388E-01 -0.30696504817E-01  0.13308832374E+00  0.19946565106E-01 0.  0.
         14    1    1    2    0    0  0.89178771379E-02  0.21824596334E-01  0.11258662088E-02  0.23603158952E-01  0.00000000000E+00 0. -1.
     999901    1    3    3    0    0  0.97261652622E-01  0.49577564054E-01  0.29570638609E-01  0.88723851731E+00  0.88000000000E+00 0. -1.
        -11    1    4    4    0    0 -0.53196526232E-02 -0.36443270745E-02 -0.65482076565E-02  0.92043450810E-02  0.51100000000E-03 0. -1.
         11    1    4    4    0    0 -0.10085987714E+00 -0.67757833314E-01 -0.24148297161E-01  0.12388397866E+00  0.51100000000E-03 0.  1.
</event>
<event>
 8    1  0.1170483E+005  0.1043930E+01  0.7957747E-01            NaN
         13   -1    0    0    0    0  0.00000000000E+00  0.00000000000E+00  0.74505805969E-08  0.10566000000E+00  0.10566000000E+00 0.  1.
     999900   -1    0    0    0    0 -0.00000000000E+00 -0.00000000000E+00 -0.74505805969E-08  0.93827000000E+00  0.93827000000E+00 0. -1.
     999902    2    1    2    0    0 -0.79785004489E-02 -0.20812511583E-01  0.10223244483E-01  0.10194079317E+01  0.10191129473E+01 0.  0.
     999903    2    3    3    0    0  0.47405372101E-01 -0.19638250220E-01 -0.11626226685E+00  0.12864009614E+00  0.19960697995E-01 0.  0.
         14    1    1    2    0    0  0.79785004489E-02  0.20812511583E-01 -0.10223244483E-01  0.24522068338E-01  0.00000000000E+00 0. -1.
     999901    1    3    3    0    0 -0.55383872550E-01 -0.11742613623E-02  0.12648551134E+00  0.89076783553E+00  0.88000000000E+00 0.  1.
        -11    1    4    4    0    0  0.18662008833E-01 -0.18482672465E-01 -0.53936479885E-01  0.59994039191E-01  0.51100000000E-03 0.  1.
         11    1    4    4    0    0  0.28743363268E-01 -0.11555777556E-02 -0.62325786969E-01  0.68646056946E-01  0.51100000000E-03 0. -1.
</event>
<event>
 8    1  0.1170483E+005  0.1043930E+01  0.7957747E-01            NaN
         13   -1    0    0    0    0  0.00000000000E+00  0.00000000000E+00  0.74505805969E-08  0.10566000000E+00  0.10566000000E+00 0. -1.
     999900   -1    0    0    0    0 -0.00000000000E+00 -0.00000000000E+00 -0.74505805969E-08  0.93827000000E+00  0.93827000000E+00 0.  1.
     999902    2    1    2    0    0  0.13882580519E-01 -0.17467922801E-01  0.69652472057E-02  0.10205554618E+01  0.10202877445E+01 0.  0.
     999903    2    3    3    0    0  0.82468768510E-01  0.46072717111E-01  0.88958826581E-01  0.13181229012E+00  0.23173561601E-01 0.  0.
         14    1    1    2    0    0 -0.13882580519E-01  0.17467922801E-01 -0.69652472057E-02  0.23374538230E-01  0.00000000000E+00 0.  1.
     999901    1    3    3    0    0 -0.68586187991E-01 -0.63540639912E-01 -0.81993579375E-01  0.88874317165E+00  0.88000000000E+00 0.  1.
        -11    1    4    4    0    0  0.32635029883E-01  0.60281830872E-02  0.33846539289E-01  0.47404994564E-01  0.51100000000E-03 0. -1.
         11    1    4    4    0    0  0.49833738627E-01  0.40044534024E-01  0.55112287292E-01  0.84407295551E-01  0.51100000000E-03 0.  1.
</event>
<event>
 8    1  0.1170483E+005  0.1043930E+01  0.7957747E-01            NaN
         13   -1    0    0    0    0  0.00000000000E+00  0.00000000000E+00  0.74505805969E-08  0.10566000000E+00  0.10566000000E+00 0.  1.
     999900   -1    0    0    0    0 -0.00000000000E+00 -0.00000000000E+00 -0.74505805969E-08  0.93827000000E+00  0.93827000000E+00 0.  1.
     999902    2    1    2    0    0 -0.22826037098E-01  0.15276003657E-02 -0.10087073662E-01  0.10189277883E+01  0.10186209930E+01 0.  0.
     999903    2    3    3    0    0  0.52021235356E-01  0.62417237692E-01 -0.98451079753E-01  0.12925489357E+00  0.20300047252E-01 0.  0.
         14    1    1    2    0    0  0.22826037098E-01 -0.15276003657E-02  0.10087073662E-01  0.25002211653E-01  0.00000000000E+00 0.  1.
     999901    1    3    3    0    0 -0.74847272453E-01 -0.60889637326E-01  0.88364006091E-01  0.88967289478E+00  0.88000000000E+00 0. -1.
        -11    1    4    4    0    0  0.25358488931E-01  0.30591126069E-01 -0.63848919963E-01  0.75205157114E-01  0.51100000000E-03 0. -1.
         11    1    4    4    0    0  0.26662746425E-01  0.31826111623E-01 -0.34602159790E-01  0.54049736457E-01  0.51100000000E-03 0.  1.
</event>
<event>
 8    1  0.1635741E+005  0.1043930E+01  0.7957747E-01            NaN
         13   -1    0    0    0    0  0.00000000000E+00  0.00000000000E+00  0.74505805969E-08  0.10566000000E+00  0.10566000000E+00 0. -1.
     999900   -1    0    0    0    0 -0.00000000000E+00 -0.00000000000E+00 -0.74505805969E-08  0.93827000000E+00  0.93827000000E+00 0.  1.
     999902    2    1    2    0    0  0.19643299075E-01 -0.62792760498E-02  0.95236816929E-02  0.10212146083E+01  0.10209619421E+01 0.  0.
     999903    2    3    3    0    0  0.34282716301E-01 -0.55215065641E-01  0.11451838208E+00  0.13350243022E+00  0.22009791688E-01 0.  0.
         14    1    1    2    0    0 -0.19643299075E-01  0.62792760498E-02 -0.95236816929E-02  0.22715391681E-01  0.00000000000E+00 0.  1.
     999901    1    3    3    0    0 -0.14639417226E-01  0.48935789591E-01 -0.10499470038E+00  0.88771217810E+00  0.88000000000E+00 0.  1.
        -11    1    4    4    0    0  0.27071602000E-01 -0.23162160704E-01  0.55492158710E-01  0.65946934141E-01  0.51100000000E-03 0.  1.
         11    1    4    4    0    0  0.72111143011E-02 -0.32052904937E-01  0.59026223365E-01  0.67555496077E-01  0.51100000000E-03 0. -1.
</event>
<event>
 8    1  0.1170483E+005  0.1043930E+01  0.7957747E-01            NaN
         13   -1    0    0    0    0  0.00000000000E+00  0.00000000000E+00  0.74505805969E-08  0.10566000000E+00  0.10566000000E+00 0. -1.
     999900   -1    0    0    0    0 -0.00000000000E+00 -0.00000000000E+00 -0.74505805969E-08  0.93827000000E+00  0.93827000000E+00 0. -1.
     999902    2    1    2    0    0  0.21117863410E-01 -0.49163933762E-02 -0.10324199454E-01  0.10199149178E+01  0.10196321471E+01 0.  0.
     999903    2    3    3    0    0  0.81362651125E-01  0.78517111127E-01  0.62936468043E-01  0.13089427151E+00  0.19684856286E-01 0.  0.
         14    1    1    2    0    0 -0.21117863410E-01  0.49163933762E-02  0.10324199454E-01  0.24015082203E-01  0.00000000000E+00 0. -1.
     999901    1    3    3    0    0 -0.60244787714E-01 -0.83433504503E-01 -0.73260667497E-01  0.88902064629E+00  0.88000000000E+00 0. -1.
        -11    1    4    4    0    0  0.48095248557E-01  0.43092328803E-01  0.25028038807E-01  0.69258685975E-01  0.51100000000E-03 0. -1.
         11    1    4    4    0    0  0.33267402568E-01  0.35424782324E-01  0.37908429236E-01  0.61635585537E-01  0.51100000000E-03 0.  1.
</event>
<event>
 8    1  0.1170483E+005  0.1043930E+01  0.7957747E-01            NaN
         13   -1    0    0    0    0  0.00000000000E+00  0.00000000000E+00  0.74505805969E-08  0.10566000000E+00  0.10566000000E+00 0. -1.
     999900   -1    0    0    0    0 -0.00000000000E+00 -0.00000000000E+00 -0.74505805969E-08  0.93827000000E+00  0.93827000000E+00 0. -1.
     999902    2    1    2    0    0 -0.40919089661E-03 -0.14581471203E-01  0.18312363147E-01  0.10205178368E+01  0.10202492470E+01 0.  0.
     999903    2    3    3    0    0  0.80340390670E-01  0.49287223861E-01  0.89276560516E-01  0.13167835615E+00  0.22024450312E-01 0.  0.
         14    1    1    2    0    0  0.40919089661E-03  0.14581471203E-01 -0.18312363147E-01  0.23412163156E-01  0.00000000000E+00 0.  1.
     999901    1    3    3    0    0 -0.80749581567E-01 -0.63868695065E-01 -0.70964197370E-01  0.88883948069E+00  0.88000000000E+00 0.  1.
        -11    1    4    4    0    0  0.76412536691E-01  0.40149149919E-01  0.75503706718E-01  0.11468173722E+00  0.51100000000E-03 0. -1.
         11    1    4    4    0    0  0.39278539789E-02  0.91380739418E-02  0.13772853798E-01  0.16996618928E-01  0.51100000000E-03 0.  1.
</event>
<event>
 8    1  0.1170483E+005  0.1043930E+01  0.7957747E-01            NaN
         13   -1    0    0    0    0  0.00000000000E+00  0.00000000000E+00  0.74505805969E-08  0.10566000000E+00  0.10566000000E+00 0.  1.
     999900   -1    0    0    0    0 -0.00000000000E+00 -0.00000000000E+00 -0.74505805969E-08  0.93827000000E+00  0.93827000000E+00 0.  1.
     999902    2    1    2    0    0  0.17885804473E-01  0.94700416123E-02  0.25316403526E-02  0.10235340962E+01  0.10233308620E+01 0.  0.
     999903    2    3    3    0    0 -0.21427835346E-01 -0.13533888599E-01  0.12986899063E+00  0.13320295337E+00  0.15321677136E-01 0.  0.
         14    1    1    2    0    0 -0.17885804473E-01 -0.94700416123E-02 -0.25316403526E-02  0.20395903821E-01  0.00000000000E+00 0. -1.
     999901    1    3    3    0    0  0.39313639819E-01  0.23003930212E-01 -0.12733735028E+00  0.89033114281E+00  0.88000000000E+00 0.  1.
        -11    1    4    4    0    0 -0.16116700521E-01 -0.21606060449E-02  0.57743929576E-01  0.59991989283E-01  0.51100000000E-03 0.  1.
         11    1    4    4    0    0 -0.53111348245E-02 -0.11373282554E-01  0.72125061056E-01  0.73210964087E-01  0.51100000000E-03 0. -1.
</event>
<event>
 8    1  0.1170483E+005  0.1043930E+01  0.7957747E-01            NaN
         13   -1    0    0    0    0  0.00000000000E+00  0.00000000000E+00  0.74505805969E-08  0.10566000000E+00  0.10566000000E+00 0.  1.
     999900   -1    0    0    0    0 -0.00000000000E+00 -0.00000000000E+00 -0.74505805969E-08  0.93827000000E+00  0.93827000000E+00 0.  1.
     999902    2    1    2    0    0  0.19303196951E-01 -0.14003106627E-02 -0.11506964770E-01  0.10214136832E+01  0.10211654752E+01 0.  0.
     999903    2    3    3    0    0 -0.10262080033E+00 -0.52357383842E-01 -0.57493577250E-01  0.13035989533E+00  0.20392807082E-01 0.  0.
         14    1    1    2    0    0 -0.19303196951E-01  0.14003106627E-02  0.11506964770E-01  0.22516316766E-01  0.00000000000E+00 0.  1.
     999901    1    3    3    0    0  0.12192399728E+00  0.50957073179E-01  0.45986612480E-01  0.89105378791E+00  0.88000000000E+00 0. -1.
        -11    1    4    4    0    0 -0.51374404296E-01 -0.21554647890E-01 -0.38112695217E-01  0.67503858557E-01  0.51100000000E-03 0.  1.
         11    1    4    4    0    0 -0.51246396036E-01 -0.30802735952E-01 -0.19380882033E-01  0.62856036768E-01  0.51100000000E-03 0. -1.
</event>
<event>
 8    1  0.1170483E+005  0.1043930E+01  0.7957747E-01            NaN
         13   -1    0    0    0    0  0.00000000000E+00  0.00000000000E+00  0.74505805969E-08  0.10566000000E+00  0.10566000000E+00 0. -1.
     999900   -1    0    0    0    0 -0.00000000000E+00 -0.00000000000E+00 -0.74505805969E-08  0.93827000000E+00  0.93827000000E+00 0. -1.
     999902    2    1    2    0    0  0.14238936309E-01  0.11594194989E-01  0.14253525650E-01  0.10206848788E+01  0.10204201518E+01 0.  0.
     999903    2    3    3    0    0 -0.12454494565E+00 -0.11317967586E-01  0.31164340176E-01  0.12935334190E+00  0.11024113744E-01 0.  0.
         14    1    1    2    0    0 -0.14238936309E-01 -0.11594194989E-01 -0.14253525650E-01  0.23245121168E-01  0.00000000000E+00 0.  1.
     999901    1    3    3    0    0  0.13878388196E+00  0.22912162576E-01 -0.16910814526E-01  0.89133153693E+00  0.88000000000E+00 0. -1.
        -11    1    4    4    0    0 -0.40583223232E-01 -0.12768212852E-02  0.54635888706E-02  0.40972432255E-01  0.51100000000E-03 0. -1.
         11    1    4    4    0    0 -0.83961722419E-01 -0.10041146301E-01  0.25700751306E-01  0.88380909643E-01  0.51100000000E-03 0.  1.
</event>
<event>
 8    1  0.1170483E+005  0.1043930E+01  0.7957747E-01            NaN
         13   -1    0    0    0    0  0.00000000000E+00  0.00000000000E+00  0.74505805969E-08  0.10566000000E+00  0.10566000000E+00 0. -1.
     999900   -1    0    0    0    0 -0.00000000000E+00 -0.00000000000E+00 -0.74505805969E-08  0.93827000000E+00  0.93827000000E+00 0.  1.
     999902    2    1    2    0    0 -0.15020294172E-01 -0.12335894572E-01  0.14876675366E-01  0.10194535010E+01  0.10191596253E+01 0.  0.
     999903    2    3    3    0    0  0.10153190409E+00  0.69261413699E-01  0.28842643998E-01  0.12791685909E+00  0.20614406402E-01 0.  0.
         14    1    1    2    0    0  0.15020294172E-01  0.12335894572E-01 -0.14876675366E-01  0.24476498970E-01  0.00000000000E+00 0.  1.
     999901    1    3    3    0    0 -0.11655219826E+00 -0.81597308271E-01 -0.13965968633E-01  0.89153664194E+00  0.88000000000E+00 0.  1.
        -11    1    4    4    0    0  0.77365813601E-01  0.53584738872E-01  0.30843931130E-01  0.99037379624E-01  0.51100000000E-03 0. -1.
         11    1    4    4    0    0  0.24166090491E-01  0.15676674827E-01 -0.20012871320E-02  0.28879479469E-01  0.51100000000E-03 0.  1.
</event>
<event>
 8    1  0.1170483E+005  0.1043930E+01  0.7957747E-01            NaN
         13   -1    0    0    0    0  0.00000000000E+00  0.00000000000E+00  0.74505805969E-08  0.10566000000E+00  0.10566000000E+00 0.  1.
     999900   -1    0    0    0    0 -0.00000000000E+00 -0.00000000000E+00 -0.74505805969E-08  0.93827000000E+00  0.93827000000E+00 0.  1.
     999902    2    1    2    0    0 -0.61059010569E-02 -0.23556605463E-01  0.10790254864E-02  0.10195710184E+01  0.10192799917E+01 0.  0.
     999903    2    3    3    0    0  0.47312056978E-01  0.54974273012E-01  0.10415615473E+00  0.12847872706E+00  0.19941848174E-01 0.  0.
         14    1    1    2    0    0  0.61059010569E-02  0.23556605463E-01 -0.10790254864E-02  0.24358981602E-01  0.00000000000E+00 0.  1.
     999901    1    3    3    0    0 -0.53417958035E-01 -0.78530878476E-01 -0.10307712925E+00  0.89109229134E+00  0.88000000000E+00 0.  1.
        -11    1    4    4    0    0  0.45383687924E-01  0.43500926560E-01  0.93649821151E-01  0.11279432549E+00  0.51100000000E-03 0.  1.
         11    1    4    4    0    0  0.19283690541E-02  0.11473346452E-01  0.10506333582E-01  0.15684401562E-01  0.51100000000E-03 0. -1.
</event>
<event>
 8    1  0.1170483E+005  0.1043930E+01  0.7957747E-01            NaN
         13   -1    0    0    0    0  0.00000000000E+00  0.00000000000E+00  0.74505805969E-08  0.10566000000E+00  0.10566000000E+00 0.  1.
     999900   -1    0    0    0    0 -0.00000000000E+00 -0.00000000000E+00 -0.74505805969E-08  0.93827000000E+00  0.93827000000E+00 0. -1.
     999902    2    1    2    0    0 -0.23119482286E-01  0.19523387377E-01 -0.44353910410E-02  0.10133465762E+01  0.10128849578E+01 0.  0.
     999903    2    3    3    0    0 -0.11809255221E+00 -0.40549898723E-01 -0.13544067466E-02  0.12619485517E+00  0.18252722511E-01 0.  0.
         14    1    1    2    0    0  0.23119482286E-01 -0.19523387377E-01  0.44353910410E-02  0.30583423771E-01  0.00000000000E+00 0.  1.
     999901    1    3    3    0    0  0.94973069927E-01  0.60073286100E-01 -0.30809842944E-02  0.88715172106E+00  0.88000000000E+00 0.  1.
        -11    1    4    4    0    0 -0.68768192383E-01 -0.32658599040E-01  0.16694964584E-02  0.76149174088E-01  0.51100000000E-03 0.  1.
         11    1    4    4    0    0 -0.49324359830E-01 -0.78912996825E-02 -0.30239032050E-02  0.50045681082E-01  0.51100000000E-03 0. -1.
</event>
<event>
 8    1  0.1368147E+005  0.1043930E+01  0.7957747E-01            NaN
         13   -1    0    0    0    0  0.00000000000E+00  0.00000000000E+00  0.74505805969E-08  0.10566000000E+00  0.10566000000E+00 0.  1.
     999900   -1    0    0    0    0 -0.00000000000E+00 -0.00000000000E+00 -0.74505805969E-08  0.93827000000E+00  0.93827000000E+00 0.  1.
     999902    2    1    2    0    0  0.10929769236E-02 -0.22706618107E-01  0.19010116847E-02  0.10211177456E+01  0.10208628955E+01 0.  0.
     999903    2    3    3    0    0  0.61419541125E-01 -0.59486966769E-01 -0.99771706817E-01  0.13245052439E+00  0.16663993632E-01 0.  0.
         14    1    1    2    0    0 -0.10929769236E-02  0.22706618107E-01 -0.19010116847E-02  0.22812254378E-01  0.00000000000E+00 0. -1.
     999901    1    3    3    0    0 -0.60326564202E-01  0.36780348662E-01  0.10167271850E+00  0.88866722123E+00  0.88000000000E+00 0. -1.
        -11    1    4    4    0    0  0.10005239050E-01 -0.19316146878E-01 -0.22192699498E-01  0.31080466062E-01  0.51100000000E-03 0. -1.
         11    1    4    4    0    0  0.51414302076E-01 -0.40170819891E-01 -0.77579007319E-01  0.10137005833E+00  0.51100000000E-03 0.  1.
</event>
<event>
 8    1  0.1170483E+005  0.1043930E+01  0.7957747E-01            NaN
         13   -1    0    0    0    0  0.00000000000E+00  0.00000000000E+00  0.74505805969E-08  0.10566000000E+00  0.10566000000E+00 0.  1.
     999900   -1    0    0    0    0 -0.00000000000E+00 -0.00000000000E+00 -0.74505805969E-08  0.93827000000E+00  0.93827000000E+00 0.  1.
     999902    2    1    2    0    0  0.19391131853E-01  0.10406151368E-01 -0.95962462056E-02  0.10199218363E+01  0.10196392305E+01 0.  0.
     999903    2    3    3    0    0  0.18846751293E-01 -0.10085282320E+00 -0.77725107109E-01  0.13030371745E+00  0.20282369835E-01 0.  0.
         14    1    1    2    0    0 -0.19391131853E-01 -0.10406151368E-01  0.95962462056E-02  0.24008163655E-01  0.00000000000E+00 0.  1.
     999901    1    3    3    0    0  0.54438056009E-03  0.11125897456E+00  0.68128860904E-01  0.88961811889E+00  0.88000000000E+00 0. -1.
        -11    1    4    4    0    0  0.15611572330E-01 -0.41398412053E-01 -0.25301735413E-01  0.50970468381E-01  0.51100000000E-03 0. -1.
         11    1    4    4    0    0  0.32351789632E-02 -0.59454411144E-01 -0.52423371697E-01  0.79333249072E-01  0.51100000000E-03 0.  1.
</event>
<event>
 8    1  0.1170483E+005  0.1043930E+01  0.7957747E-01            NaN
         13   -1    0    0    0    0  0.00000000000E+00  0.00000000000E+00  0.74505805969E-08  0.10566000000E+00  0.10566000000E+00 0.  1.
     999900   -1    0    0    0    0 -0.00000000000E+00 -0.00000000000E+00 -0.74505805969E-08  0.93827000000E+00  0.93827000000E+00 0.  1.
     999902    2    1    2    0    0  0.73754841714E-02 -0.18266312300E-01  0.14978567032E-01  0.10191830123E+01  0.10188825247E+01 0.  0.
     999903    2    3    3    0    0  0.46871160894E-01  0.11365868201E+00  0.31333907655E-01  0.12832297288E+00  0.19229401467E-01 0.  0.
         14    1    1    2    0    0 -0.73754841714E-02  0.18266312300E-01 -0.14978567032E-01  0.24746987738E-01  0.00000000000E+00 0. -1.
     999901    1    3    3    0    0 -0.39495676723E-01 -0.13192499431E+00 -0.16355340623E-01  0.89086003938E+00  0.88000000000E+00 0. -1.
        -11    1    4    4    0    0  0.13341078947E-01  0.36153935050E-01  0.19031973544E-01  0.42983351952E-01  0.51100000000E-03 0.  1.
         11    1    4    4    0    0  0.33530081947E-01  0.77504746955E-01  0.12301934110E-01  0.85339620926E-01  0.51100000000E-03 0. -1.
</event>
<event>
 8    1  0.1170483E+005  0.1043930E+01  0.7957747E-01            NaN
         13   -1    0    0    0    0  0.00000000000E+00  0.00000000000E+00  0.74505805969E-08  0.10566000000E+00  0.10566000000E+00 0.  1.
     999900   -1    0    0    0    0 -0.00000000000E+00 -0.00000000000E+00 -0.74505805969E-08  0.93827000000E+00  0.93827000000E+00 0.  1.
     999902    2    1    2    0    0 -0.37880360772E-02 -0.85710593921E-03 -0.23569654244E-01  0.10200425043E+01  0.10197627656E+01 0.  0.
     999903    2    3    3    0    0  0.15421281259E-01  0.11582886830E+00 -0.56848999761E-01  0.13150880813E+00  0.20214232489E-01 0.  0.
         14    1    1    2    0    0  0.37880360772E-02  0.85710593921E-03  0.23569654244E-01  0.23887495664E-01  0.00000000000E+00 0.  1.
     999901    1    3    3    0    0 -0.19209317336E-01 -0.11668597424E+00  0.33279345517E-01  0.88853369621E+00  0.88000000000E+00 0. -1.
        -11    1    4    4    0    0  0.19424342494E-01  0.73515817969E-01 -0.38119259443E-01  0.85060094254E-01  0.51100000000E-03 0.  1.
         11    1    4    4    0    0 -0.40030612349E-02  0.42313050328E-01 -0.18729740318E-01  0.46448713876E-01  0.51100000000E-03 0. -1.
</event>
<event>
 8    1  0.1170483E+005  0.1043930E+01  0.7957747E-01            NaN
         13   -1    0    0    0    0  0.00000000000E+00  0.00000000000E+00  0.74505805969E-08  0.10566000000E+00  0.10566000000E+00 0.  1.
     999900   -1    0    0    0    0 -0.00000000000E+00 -0.00000000000E+00 -0.74505805969E-08  0.93827000000E+00  0.93827000000E+00 0. -1.
     999902    2    1    2    0    0 -0.15397647310E-01  0.15006672529E-01  0.12638451976E-01  0.10189897067E+01  0.10186844477E+01 0.  0.
     999903    2    3    3    0    0  0.10346944857E+00 -0.29489029475E-02  0.73669498375E-01  0.12872200659E+00  0.20676972080E-01 0.  0.
         14    1    1    2    0    0  0.15397647310E-01 -0.15006672529E-01 -0.12638451976E-01  0.24940293331E-01  0.00000000000E+00 0. -1.
     999901    1    3    3    0    0 -0.11886709588E+00  0.17955575476E-01 -0.61031046399E-01  0.89026770008E+00  0.88000000000E+00 0.  1.
        -11    1    4    4    0    0  0.34342027674E-01  0.86228210315E-02  0.26676099864E-01  0.44335125265E-01  0.51100000000E-03 0.  1.
         11    1    4    4    0    0  0.69127420897E-01 -0.11571723979E-01  0.46993398511E-01  0.84386881328E-01  0.51100000000E-03 0. -1.
</event>
<event>
 7    1  0.1170483E+005  0.1043930E+01  0.7957747E-01            NaN
         13   -1    0    0    0    0  0.00000000000E+00  0.00000000000E+00  0.74505805969E-08  0.10566000000E+00  0.10566000000E+00 0. -1.
     999900   -1    0    0    0    0 -0.00000000000E+00 -0.00000000000E+00 -0.74505805969E-08  0.93827000000E+00  0.93827000000E+00 0. -1.
     999903    2    1    2    0    0 -0.11033053295E+00  0.32628399138E-01 -0.20439009444E-01  0.11844955550E+00  0.19367631757E-01 0.  0.
         14    1    1    2    0    0  0.97695557986E-02 -0.28102537187E-01 -0.24588772405E-01  0.38597986284E-01  0.00000000000E+00 0.  1.
     999901    1    1    2    0    0  0.10056097715E+00 -0.45258619508E-02  0.45027781849E-01  0.88688245822E+00  0.88000000000E+00 0. -1.
        -11    1    3    3    0    0 -0.67735231136E-01  0.29730124725E-01 -0.12658461130E-01  0.75049581027E-01  0.51100000000E-03 0. -1.
         11    1    3    3    0    0 -0.42595301814E-01  0.28982744127E-02 -0.77805483137E-02  0.43399974473E-01  0.51100000000E-03 0.  1.
</event>
<event>
 8    1  0.1170483E+005  0.1043930E+01  0.7957747E-01            NaN
         13   -1    0    0    0    0  0.00000000000E+00  0.00000000000E+00  0.74505805969E-08  0.10566000000E+00  0.10566000000E+00 0. -1.
     999900   -1    0    0    0    0 -0.00000000000E+00 -0.00000000000E+00 -0.74505805969E-08  0.93827000000E+00  0.93827000000E+00 0.  1.
     999902    2    1    2    0    0 -0.89376340733E-02  0.14463846291E-01  0.15435712796E-01  0.10209659981E+01  0.10207077074E+01 0.  0.
     999903    2    3    3    0    0  0.67189907366E-01 -0.95577608149E-02 -0.10768551648E+00  0.12881619161E+00  0.19789045423E-01 0.  0.
         14    1    1    2    0    0  0.89376340733E-02 -0.14463846291E-01 -0.15435712796E-01  0.22964001870E-01  0.00000000000E+00 0.  1.
     999901    1    3    3    0    0 -0.76127541439E-01  0.24021607106E-01  0.12312122927E+00  0.89214980652E+00  0.88000000000E+00 0. -1.
        -11    1    4    4    0    0  0.21074112065E-01  0.32636448915E-02 -0.46264577381E-01  0.50945478882E-01  0.51100000000E-03 0.  1.
         11    1    4    4    0    0  0.46115795301E-01 -0.12821405706E-01 -0.61420939096E-01  0.77870712730E-01  0.51100000000E-03 0. -1.
</event>
<event>
 8    1  0.1170483E+005  0.1043930E+01  0.7957747E-01            NaN
         13   -1    0    0    0    0  0.00000000000E+00  0.00000000000E+00  0.74505805969E-08  0.10566000000E+00  0.10566000000E+00 0.  1.
     999900   -1    0    0    0    0 -0.00000000000E+00 -0.00000000000E+00 -0.74505805969E-08  0.93827000000E+00  0.93827000000E+00 0.  1.
     999902    2    1    2    0    0  0.52106630496E-02  0.10257491551E-01 -0.19769673679E-01  0.10210562784E+01  0.10208000375E+01 0.  0.
     999903    2    3    3    0    0 -0.11360897482E-01 -0.71713025349E-01 -0.10879547267E+00  0.13261980057E+00  0.21902708333E-01 0.  0.
         14    1    1    2    0    0 -0.52106630496E-02 -0.10257491551E-01  0.19769673679E-01  0.22873721597E-01  0.00000000000E+00 0.  1.
     999901    1    3    3    0    0  0.16571560531E-01  0.81970516900E-01  0.89025798995E-01  0.88843647783E+00  0.88000000000E+00 0. -1.
        -11    1    4    4    0    0 -0.10904406453E-01 -0.39979328099E-01 -0.78362002566E-01  0.88646022599E-01  0.51100000000E-03 0. -1.
         11    1    4    4    0    0 -0.45649102886E-03 -0.31733697250E-01 -0.30433470108E-01  0.43973777970E-01  0.51100000000E-03 0.  1.
</event>
<event>
 8    1  0.1170483E+005  0.1043930E+01  0.7957747E-01            NaN
         13   -1    0    0    0    0  0.00000000000E+00  0.00000000000E+00  0.74505805969E-08  0.10566000000E+00  0.10566000000E+00 0. -1.
     999900   -1    0    0    0    0 -0.00000000000E+00 -0.00000000000E+00 -0.74505805969E-08  0.93827000000E+00  0.93827000000E+00 0.  1.
     999902    2    1    2    0    0 -0.31971785573E-02  0.37560507604E-02 -0.24269122413E-01  0.10191646983E+01  0.10188637603E+01 0.  0.
     999903    2    3    3    0    0  0.59762204527E-01  0.77011361399E-01  0.80059861039E-01  0.12775303059E+00  0.20223367682E-01 0.  0.
         14    1    1    2    0    0  0.31971785573E-02 -0.37560507604E-02  0.24269122413E-01  0.24765301750E-01  0.00000000000E+00 0. -1.
     999901    1    3    3    0    0 -0.62959383085E-01 -0.73255310639E-01 -0.10432898345E+00  0.89141166766E+00  0.88000000000E+00 0.  1.
        -11    1    4    4    0    0  0.25598686988E-01  0.26026119592E-01  0.18914240280E-01  0.41117651719E-01  0.51100000000E-03 0.  1.
         11    1    4    4    0    0  0.34163517539E-01  0.50985241807E-01  0.61145620759E-01  0.86635378869E-01  0.51100000000E-03 0. -1.
</event>
<event>
 8    1  0.1170483E+005  0.1043930E+01  0.7957747E-01            NaN
         13   -1    0    0    0    0  0.00000000000E+00  0.00000000000E+00  0.74505805969E-08  0.10566000000E+00  0.10566000000E+00 0.  1.
     999900   -1    0    0    0    0 -0.00000000000E+00 -0.00000000000E+00 -0.74505805969E-08  0.93827000000E+00  0.93827000000E+00 0.  1.
     999902    2    1    2    0    0  0.11235995820E-01  0.57841561203E-02 -0.20255926807E-01  0.10200551883E+01  0.10197757501E+01 0.  0.
     999903    2    3    3    0    0 -0.85641586290E-01  0.77280992754E-01  0.53590163587E-01  0.12879186656E+00  0.20214007913E-01 0.  0.
         14    1    1    2    0    0 -0.11235995820E-01 -0.57841561203E-02  0.20255926807E-01  0.23874811725E-01  0.00000000000E+00 0. -1.
     999901    1    3    3    0    0  0.96877582110E-01 -0.71496836634E-01 -0.73846090394E-01  0.89126332171E+00  0.88000000000E+00 0.  1.
        -11    1    4    4    0    0 -0.61989825833E-01  0.43583316987E-01  0.37924863391E-01  0.84739603555E-01  0.51100000000E-03 0. -1.
         11    1    4    4    0    0 -0.23651760457E-01  0.33697675767E-01  0.15665300196E-01  0.44052263007E-01  0.51100000000E-03 0.  1.
</event>
<event>
 8    1  0.1170483E+005  0.1043930E+01  0.7957747E-01            NaN
         13   -1    0    0    0    0  0.00000000000E+00  0.00000000000E+00  0.74505805969E-08  0.10566000000E+00  0.10566000000E+00 0.  1.
     999900   -1    0    0    0    0 -0.00000000000E+00 -0.00000000000E+00 -0.74505805969E-08  0.93827000000E+00  0.93827000000E+00 0. -1.
     999902    2    1    2    0    0 -0.65790552727E-02 -0.55191087259E-02 -0.22633072195E-01  0.10197225531E+01  0.10194351793E+01 0.  0.
     999903    2    3    3    0    0 -0.81601345855E-01 -0.54821779277E-01  0.81389365030E-01  0.12906001044E+00  0.19184640409E-01 0.  0.
         14    1    1    2    0    0  0.65790552727E-02  0.55191087259E-02  0.22633072195E-01  0.24207446920E-01  0.00000000000E+00 0.  1.
     999901    1    3    3    0    0  0.75022290582E-01  0.49302670551E-01 -0.10402243722E+00  0.89066254264E+00  0.88000000000E+00 0. -1.
        -11    1    4    4    0    0 -0.41420113207E-01 -0.22334730511E-01  0.28007404335E-01  0.54764420783E-01  0.51100000000E-03 0. -1.
         11    1    4    4    0    0 -0.40181232648E-01 -0.32487048765E-01  0.53381960695E-01  0.74295589662E-01  0.51100000000E-03 0.  1.
</event>
<event>
 8    1  0.1170483E+005  0.1043930E+01  0.7957747E-01            NaN
         13   -1    0    0    0    0  0.00000000000E+00  0.00000000000E+00  0.74505805969E-08  0.10566000000E+00  0.10566000000E+00 0. -1.
     999900   -1    0    0    0    0 -0.00000000000E+00 -0.00000000000E+00 -0.74505805969E-08  0.93827000000E+00  0.93827000000E+00 0. -1.
     999902    2    1    2    0    0 -0.80663140914E-02  0.21803772936E-01  0.15081117248E-02  0.10206331260E+01  0.10203672052E+01 0.  0.
     999903    2    3    3    0    0  0.32022371340E-02 -0.12494995576E+00  0.20624806209E-01  0.12820436966E+00  0.19703603807E-01 0.  0.
         14    1    1    2    0    0  0.80663140914E-02 -0.21803772936E-01 -0.15081117248E-02  0.23296874001E-01  0.00000000000E+00 0. -1.
     999901    1    3    3    0    0 -0.11268551225E-01  0.14675372869E+00 -0.19116694484E-01  0.89242875634E+00  0.88000000000E+00 0. -1.
        -11    1    4    4    0    0  0.24702398958E-02 -0.93763102266E-01  0.24010950590E-01  0.96821528086E-01  0.51100000000E-03 0. -1.
         11    1    4    4    0    0  0.73199723819E-03 -0.31186853489E-01 -0.33861443810E-02  0.31382841575E-01  0.51100000000E-03 0.  1.
</event>
<event>
 8    1  0.1170483E+005  0.1043930E+01  0.7957747E-01            NaN
         13   -1    0    0    0    0  0.00000000000E+00  0.00000000000E+00  0.74505805969E-08  0.10566000000E+00  0.10566000000E+00 0.  1.
     999900   -1    0    0    0    0 -0.00000000000E+00 -0.00000000000E+00 -0.74505805969E-08  0.93827000000E+00  0.93827000000E+00 0. -1.
     999902    2    1    2    0    0 -0.10843467392E-01 -0.14373175287E-01  0.45755843058E-02  0.10253530001E+01  0.10251847004E+01 0.  0.
     999903    2    3    3    0    0 -0.32169111225E-02 -0.62680463378E-01 -0.11823207983E+00  0.13548026719E+00  0.20901891997E-01 0.  0.
         14    1    1    2    0    0  0.10843467392E-01  0.14373175287E-01 -0.45755843058E-02  0.18576999883E-01  0.00000000000E+00 0. -1.
     999901    1    3    3    0    0 -0.76265562691E-02  0.48307288091E-01  0.12280766414E+00  0.88987273293E+00  0.88000000000E+00 0.  1.
        -11    1    4    4    0    0 -0.10285339399E-01 -0.17705512665E-01 -0.32710234337E-01  0.38593962438E-01  0.51100000000E-03 0. -1.
         11    1    4    4    0    0  0.70684282764E-02 -0.44974950713E-01 -0.85521845494E-01  0.96886304748E-01  0.51100000000E-03 0.  1.
</event>
<event>
 8    1  0.1170483E+005  0.1043930E+01  0.7957747E-01            NaN
         13   -1    0    0    0    0  0.00000000000E+00  0.00000000000E+00  0.74505805969E-08  0.10566000000E+00  0.10566000000E+00 0. -1.
     999900   -1    0    0    0    0 -0.00000000000E+00 -0.00000000000E+00 -0.74505805969E-08  0.93827000000E+00  0.93827000000E+00 0. -1.
     999902    2    1    2    0    0 -0.20092670149E-01  0.90557639208E-02 -0.13595866318E-01  0.10180346368E+01  0.10177052382E+01 0.  0.
     999903    2    3    3    0    0 -0.86355498020E-01  0.96317492266E-01 -0.19859527658E-02  0.13116364186E+00  0.21578359121E-01 0.  0.
         14    1    1    2    0    0  0.20092670149E-01 -0.90557639208E-02  0.13595866318E-01  0.25895363192E-01  0.00000000000E+00 0. -1.
     999901    1    3    3    0    0  0.66262827871E-01 -0.87261728345E-01 -0.11609913553E-01  0.88687099495E+00  0.88000000000E+00 0. -1.
        -11    1    4    4    0    0 -0.42203136462E-01  0.46865628887E-01 -0.11743036415E-01  0.64153346938E-01  0.51100000000E-03 0. -1.
         11    1    4    4    0    0 -0.44152361558E-01  0.49451863379E-01  0.97570836494E-02  0.67010294919E-01  0.51100000000E-03 0.  1.
</event>
<event>
 8    1  0.1170483E+005  0.1043930E+01  0.7957747E-01            NaN
         13   -1    0    0    0    0  0.00000000000E+00  0.00000000000E+00  0.74505805969E-08  0.10566000000E+00  0.10566000000E+00 0.  1.
     999900   -1    0    0    0    0 -0.00000000000E+00 -0.00000000000E+00 -0.74505805969E-08  0.93827000000E+00  0.93827000000E+00 0.  1.
     999902    2    1    2    0    0 -0.23707756311E-02 -0.16119951976E-01  0.17864630330E-01  0.10197511157E+01  0.10194644278E+01 0.  0.
     999903    2    3    3    0    0  0.64108615753E-01 -0.10480621477E+00  0.45231505584E-01  0.13237650003E+00  0.19580382876E-01 0.  0.
         14    1    1    2    0    0  0.23707756311E-02  0.16119951976E-01 -0.17864630330E-01  0.24178884293E-01  0.00000000000E+00 0. -1.
     999901    1    3    3    0    0 -0.66479391384E-01  0.88686262799E-01 -0.27366875254E-01  0.88737461568E+00  0.88000000000E+00 0.  1.
        -11    1    4    4    0    0  0.43858850506E-01 -0.67894168026E-01  0.19916624612E-01  0.83247521744E-01  0.51100000000E-03 0. -1.
         11    1    4    4    0    0  0.20249765247E-01 -0.36912046749E-01  0.25314880972E-01  0.49128978286E-01  0.51100000000E-03 0.  1.
</event>
<event>
 8    1  0.1170483E+005  0.1043930E+01  0.7957747E-01            NaN
         13   -1    0    0    0    0  0.00000000000E+00  0.00000000000E+00  0.74505805969E-08  0.10566000000E+00  0.10566000000E+00 0.  1.
     999900   -1    0    0    0    0 -0.00000000000E+00 -0.00000000000E+00 -0.74505805969E-08  0.93827000000E+00  0.93827000000E+00 0.  1.
     999902    2    1    2    0    0 -0.69412851707E-02  0.22243597437E-01  0.17735937300E-02  0.10205611168E+01  0.10202935305E+01 0.  0.
     999903    2    3    3    0    0 -0.79317165655E-02 -0.20737034155E-01 -0.12665700746E+00  0.13020010297E+00  0.20423823377E-01 0.  0.
         14    1    1    2    0    0  0.69412851707E-02 -0.22243597437E-01 -0.17735937300E-02  0.23368883189E-01  0.00000000000E+00 0. -1.
     999901    1    3    3    0    0  0.99043139482E-03  0.42980631592E-01  0.12843060119E+00  0.89036101384E+00  0.88000000000E+00 0. -1.
        -11    1    4    4    0    0  0.52655602854E-02  0.19424839811E-03 -0.18151137611E-01  0.18907373565E-01  0.51100000000E-03 0. -1.
         11    1    4    4    0    0 -0.13197276851E-01 -0.20931282553E-01 -0.10850586985E+00  0.11129272940E+00  0.51100000000E-03 0.  1.
</event>
<event>
 8    1  0.1170483E+005  0.1043930E+01  0.7957747E-01            NaN
         13   -1    0    0    0    0  0.00000000000E+00  0.00000000000E+00  0.74505805969E-08  0.10566000000E+00  0.10566000000E+00 0.  1.
     999900   -1    0    0    0    0 -0.00000000000E+00 -0.00000000000E+00 -0.74505805969E-08  0.93827000000E+00  0.93827000000E+00 0. -1.
     999902    2    1    2    0    0  0.17484240613E-01 -0.15985039019E-01  0.79171205560E-02  0.10189519909E+01  0.10186457965E+01 0.  0.
     999903    2    3    3    0    0  0.48754417860E-02 -0.40046123608E-01  0.12308700352E+00  0.13103193842E+00  0.19786270511E-01 0.  0.
         14    1    1    2    0    0 -0.17484240613E-01  0.15985039019E-01 -0.79171205560E-02  0.24978009131E-01  0.00000000000E+00 0. -1.
     999901    1    3    3    0    0  0.12608798827E-01  0.24061084589E-01 -0.11516988297E+00  0.88792005245E+00  0.88000000000E+00 0. -1.
        -11    1    4    4    0    0  0.46044017273E-02 -0.17523598536E-03  0.19286568151E-01  0.19835928387E-01  0.51100000000E-03 0. -1.
         11    1    4    4    0    0  0.27104005868E-03 -0.39870887623E-01  0.10380043537E+00  0.11119601003E+00  0.51100000000E-03 0.  1.
</event>
<event>
 8    1  0.1170483E+005  0.1043930E+01  0.7957747E-01            NaN
         13   -1    0    0    0    0  0.00000000000E+00  0.00000000000E+00  0.74505805969E-08  0.10566000000E+00  0.10566000000E+00 0.  1.
     999900   -1    0    0    0    0 -0.00000000000E+00 -0.00000000000E+00 -0.74505805969E-08  0.93827000000E+00  0.93827000000E+00 0. -1.
     999902    2    1    2    0    0  0.36292635441E-02  0.17942147906E-01 -0.11544215517E-01  0.10222883472E+01  0.10220592466E+01 0.  0.
     999903    2    3    3    0    0  0.72281504290E-01 -0.10600822199E+00 -0.14678355659E-01  0.13094854261E+00  0.21672740829E-01 0.  0.
         14    1    1    2    0    0 -0.36292635441E-02 -0.17942147906E-01  0.11544215517E-01  0.21641652831E-01  0.00000000000E+00 0.  1.
     999901    1    3    3    0    0 -0.68652240746E-01  0.12395036990E+00  0.31341401412E-02  0.89133980456E+00  0.88000000000E+00 0. -1.
        -11    1    4    4    0    0  0.22084673397E-01 -0.21160092818E-01 -0.10256111962E-01  0.32263466657E-01  0.51100000000E-03 0.  1.
         11    1    4    4    0    0  0.50196830893E-01 -0.84848129172E-01 -0.44222436964E-02  0.98685075954E-01  0.51100000000E-03 0. -1.
</event>
<event>
 8    1  0.1170483E+005  0.1043930E+01  0.7957747E-01            NaN
         13   -1    0    0    0    0  0.00000000000E+00  0.00000000000E+00  0.74505805969E-08  0.10566000000E+00  0.10566000000E+00 0. -1.
     999900   -1    0    0    0    0 -0.00000000000E+00 -0.00000000000E+00 -0.74505805969E-08  0.93827000000E+00  0.93827000000E+00 0. -1.
     999902    2    1    2    0    0  0.16822212296E-02  0.66930641566E-02 -0.24144774933E-01  0.10188183069E+01  0.10185087851E+01 0.  0.
     999903    2    3    3    0    0  0.67775119802E-01 -0.10357747535E+00 -0.33817187818E-01  0.12942445782E+00  0.16891649618E-01 0.  0.
         14    1    1    2    0    0 -0.16822212296E-02 -0.66930641566E-02  0.24144774933E-01  0.25111693146E-01  0.00000000000E+00 0. -1.
     999901    1    3    3    0    0 -0.66092898572E-01  0.11027053951E+00  0.96724128852E-02  0.88939384903E+00  0.88000000000E+00 0.  1.
        -11    1    4    4    0    0  0.41549211182E-01 -0.74239367021E-01 -0.28437847388E-01  0.89703917699E-01  0.51100000000E-03 0.  1.
         11    1    4    4    0    0  0.26225908620E-01 -0.29338108328E-01 -0.53793404308E-02  0.39720540123E-01  0.51100000000E-03 0. -1.
</event>
<event>
 8    1  0.1170483E+005  0.1043930E+01  0.7957747E-01            NaN
         13   -1    0    0    0    0  0.00000000000E+00  0.00000000000E+00  0.74505805969E-08  0.10566000000E+00  0.10566000000E+00 0.  1.
     999900   -1    0    0    0    0 -0.00000000000E+00 -0.00000000000E+00 -0.74505805969E-08  0.93827000000E+00  0.93827000000E+00 0.  1.
     999902    2    1    2    0    0 -0.94670052180E-02  0.21090926595E-01  0.24613598292E-02  0.10206811363E+01  0.10204163230E+01 0.  0.
     999903    2    3    3    0    0  0.88136033762E-01  0.96302787918E-01 -0.73684301854E-03  0.13209045108E+00  0.20128510178E-01 0.  0.
         14    1    1    2    0    0  0.94670052180E-02 -0.21090926595E-01 -0.24613598292E-02  0.23248863728E-01  0.00000000000E+00 0. -1.
     999901    1    3    3    0    0 -0.97603038980E-01 -0.75211861323E-01  0.31982028477E-02  0.88859068519E+00  0.88000000000E+00 0. -1.
        -11    1    4    4    0    0  0.14318975624E-01  0.12563085603E-01 -0.69566576879E-02  0.20285965345E-01  0.51100000000E-03 0. -1.
         11    1    4    4    0    0  0.73817058137E-01  0.83739702315E-01  0.62198146693E-02  0.11180448574E+00  0.51100000000E-03 0.  1.
</event>
<event>
 8    1  0.1170483E+005  0.1043930E+01  0.7957747E-01            NaN
         13   -1    0    0    0    0  0.00000000000E+00  0.00000000000E+00  0.74505805969E-08  0.10566000000E+00  0.10566000000E+00 0.  1.
     999900   -1    0    0    0    0 -0.00000000000E+00 -0.00000000000E+00 -0.74505805969E-08  0.93827000000E+00  0.93827000000E+00 0. -1.
     999902    2    1    2    0    0  0.25681723167E-02 -0.18823367310E-01  0.13545569695E-01  0.10205976807E+01  0.10203309408E+01 0.  0.
     999903    2    3    3    0    0  0.11627597758E+00  0.41421357331E-01 -0.35447194138E-01  0.12989055558E+00  0.19473598786E-01 0.  0.
         14    1    1    2    0    0 -0.25681723167E-02  0.18823367310E-01 -0.13545569695E-01  0.23332319308E-01  0.00000000000E+00 0. -1.
     999901    1    3    3    0    0 -0.11370780527E+00 -0.60244724641E-01  0.48992763833E-01  0.89070712512E+00  0.88000000000E+00 0. -1.
        -11    1    4    4    0    0  0.78610726534E-01  0.19527412261E-01 -0.18127185985E-01  0.83004952555E-01  0.51100000000E-03 0.  1.
         11    1    4    4    0    0  0.37665251048E-01  0.21893945070E-01 -0.17320008153E-01  0.46885603021E-01  0.51100000000E-03 0. -1.
</event>
<event>
 7    1  0.1170483E+005  0.1043930E+01  0.7957747E-01            NaN
         13   -1    0    0    0    0  0.00000000000E+00  0.00000000000E+00  0.74505805969E-08  0.10566000000E+00  0.10566000000E+00 0.  1.
     999900   -1    0    0    0    0 -0.00000000000E+00 -0.00000000000E+00 -0.74505805969E-08  0.93827000000E+00  0.93827000000E+00 0. -1.
     999903    2    1    2    0    0  0.10085955916E+00 -0.34942750826E-01 -0.23498236903E-01  0.11099841208E+00  0.19360625955E-01 0.  0.
         14    1    1    2    0    0 -0.41826606820E-02 -0.38075798775E-01 -0.20684346768E-01  0.43532784243E-01  0.00000000000E+00 0. -1.
     999901    1    1    2    0    0 -0.96676898477E-01  0.73018549601E-01  0.44182583670E-01  0.88939880368E+00  0.88000000000E+00 0.  1.
        -11    1    3    3    0    0  0.65392770384E-02 -0.15674080107E-02 -0.67725696768E-02  0.95576008016E-02  0.51100000000E-03 0. -1.
         11    1    3    3    0    0  0.94320282121E-01 -0.33375342816E-01 -0.16725667226E-01  0.10144081128E+00  0.51100000000E-03 0.  1.
</event>
<event>
 8    1  0.1170483E+005  0.1043930E+01  0.7957747E-01            NaN
         13   -1    0    0    0    0  0.00000000000E+00  0.00000000000E+00  0.74505805969E-08  0.10566000000E+00  0.10566000000E+00 0. -1.
     999900   -1    0    0    0    0 -0.00000000000E+00 -0.00000000000E+00 -0.74505805969E-08  0.93827000000E+00  0.93827000000E+00 0.  1.
     999902    2    1    2    0    0  0.16121480686E-02  0.24709242670E-01 -0.41151102232E-03  0.10191648019E+01  0.10188638665E+01 0.  0.
     999903    2    3    3    0    0 -0.46692303633E-01 -0.10450959771E+00 -0.51239747091E-01  0.12696844553E+00  0.19825419206E-01 0.  0.
         14    1    1    2    0    0 -0.16121480686E-02 -0.24709242670E-01  0.41151102232E-03  0.24765198082E-01  0.00000000000E+00 0.  1.
     999901    1    3    3    0    0  0.48304451702E-01  0.12921884038E+00  0.50828236069E-01  0.89219635638E+00  0.88000000000E+00 0. -1.
        -11    1    4    4    0    0 -0.31740128087E-01 -0.88373995408E-01 -0.44796147154E-01  0.10404015915E+00  0.51100000000E-03 0. -1.
         11    1    4    4    0    0 -0.14952175546E-01 -0.16135602304E-01 -0.64435999373E-02  0.22928286382E-01  0.51100000000E-03 0.  1.
</event>
<event>
 8    1  0.1170483E+005  0.1043930E+01  0.7957747E-01            NaN
         13   -1    0    0    0    0  0.00000000000E+00  0.00000000000E+00  0.74505805969E-08  0.10566000000E+00  0.10566000000E+00 0.  1.
     999900   -1    0    0    0    0 -0.00000000000E+00 -0.00000000000E+00 -0.74505805969E-08  0.93827000000E+00  0.93827000000E+00 0. -1.
     999902    2    1    2    0    0  0.72088545008E-02  0.39281286264E-03  0.22470699079E-01  0.10203280043E+01  0.10200549897E+01 0.  0.
     999903    2    3    3    0    0 -0.12333400229E+00 -0.22443307990E-01 -0.24223835127E-01  0.12918081924E+00  0.19644634764E-01 0.  0.
         14    1    1    2    0    0 -0.72088545008E-02 -0.39281286264E-03 -0.22470699079E-01  0.23601995726E-01  0.00000000000E+00 0. -1.
     999901    1    3    3    0    0  0.13054285679E+00  0.22836120853E-01  0.46694534206E-01  0.89114718504E+00  0.88000000000E+00 0. -1.
        -11    1    4    4    0    0 -0.45200782698E-01  0.34988066376E-03 -0.44634684889E-02  0.45424848320E-01  0.51100000000E-03 0.  1.
         11    1    4    4    0    0 -0.78133219596E-01 -0.22793188654E-01 -0.19760366638E-01  0.83755970916E-01  0.51100000000E-03 0. -1.
</event>
<event>
 8    1  0.1170483E+005  0.1043930E+01  0.7957747E-01            NaN
         13   -1    0    0    0    0  0.00000000000E+00  0.00000000000E+00  0.74505805969E-08  0.10566000000E+00  0.10566000000E+00 0.  1.
     999900   -1    0    0    0    0 -0.00000000000E+00 -0.00000000000E+00 -0.74505805969E-08  0.93827000000E+00  0.93827000000E+00 0.  1.
     999902    2    1    2    0    0 -0.14440745394E-01 -0.18139133250E-01 -0.50040497542E-02  0.10202107294E+01  0.10199349629E+01 0.  0.
     999903    2    3    3    0    0  0.75568110099E-01 -0.27327029538E-01 -0.10014394473E+00  0.13047053638E+00  0.23161290787E-01 0.  0.
         14    1    1    2    0    0  0.14440745394E-01  0.18139133250E-01  0.50040497542E-02  0.23719270573E-01  0.00000000000E+00 0.  1.
     999901    1    3    3    0    0 -0.90008855493E-01  0.91878962887E-02  0.95139894973E-01  0.88974019305E+00  0.88000000000E+00 0. -1.
        -11    1    4    4    0    0  0.56485260829E-01 -0.30539130538E-01 -0.74892338064E-01  0.98652656358E-01  0.51100000000E-03 0. -1.
         11    1    4    4    0    0  0.19082849270E-01  0.32121009995E-02 -0.25251606663E-01  0.31817880023E-01  0.51100000000E-03 0.  1.
</event>
<event>
 8    1  0.1170483E+005  0.1043930E+01  0.7957747E-01            NaN
         13   -1    0    0    0    0  0.00000000000E+00  0.00000000000E+00  0.74505805969E-08  0.10566000000E+00  0.10566000000E+00 0.  1.
     999900   -1    0    0    0    0 -0.00000000000E+00 -0.00000000000E+00 -0.74505805969E-08  0.93827000000E+00  0.93827000000E+00 0.  1.
     999902    2    1    2    0    0 -0.13048542163E-01 -0.15760200145E-01 -0.70795145417E-02  0.10222789518E+01  0.10220496502E+01 0.  0.
     999903    2    3    3    0    0  0.10524673364E+00  0.14148780262E-01 -0.74680639633E-01  0.13129172885E+00  0.19576955929E-01 0.  0.
         14    1    1    2    0    0  0.13048542163E-01  0.15760200145E-01  0.70795145417E-02  0.21651048181E-01  0.00000000000E+00 0.  1.
     999901    1    3    3    0    0 -0.11829527580E+00 -0.29908980407E-01  0.67601125092E-01  0.89098722297E+00  0.88000000000E+00 0. -1.
        -11    1    4    4    0    0  0.69089024689E-01  0.23155972222E-02 -0.55670570215E-01  0.88758823967E-01  0.51100000000E-03 0. -1.
         11    1    4    4    0    0  0.36157708948E-01  0.11833183040E-01 -0.19010069418E-01  0.42532904880E-01  0.51100000000E-03 0.  1.
</event>
<event>
 8    1  0.1170483E+005  0.1043930E+01  0.7957747E-01            NaN
         13   -1    0    0    0    0  0.00000000000E+00  0.00000000000E+00  0.74505805969E-08  0.10566000000E+00  0.10566000000E+00 0.  1.
     999900   -1    0    0    0    0 -0.00000000000E+00 -0.00000000000E+00 -0.74505805969E-08  0.93827000000E+00  0.93827000000E+00 0. -1.
     999902    2    1    2    0    0  0.11605490089E-01  0.20366750532E-02  0.20830624488E-01  0.10199977965E+01  0.10197169973E+01 0.  0.
     999903    2    3    3    0    0  0.38386748252E-01 -0.70120608715E-01  0.10409610548E+00  0.13272272662E+00  0.19720060289E-01 0.  0.
         14    1    1    2    0    0 -0.11605490089E-01 -0.20366750532E-02 -0.20830624488E-01  0.23932203451E-01  0.00000000000E+00 0. -1.
     999901    1    3    3    0    0 -0.26781258164E-01  0.72157283768E-01 -0.83265480992E-01  0.88727506993E+00  0.88000000000E+00 0. -1.
        -11    1    4    4    0    0  0.21923251677E-01 -0.49547752316E-01  0.56272547959E-01  0.78118304503E-01  0.51100000000E-03 0. -1.
         11    1    4    4    0    0  0.16463496575E-01 -0.20572856399E-01  0.47823557522E-01  0.54604422119E-01  0.51100000000E-03 0.  1.
</event>
<event>
 8    1  0.1170483E+005  0.1043930E+01  0.7957747E-01            NaN
         13   -1    0    0    0    0  0.00000000000E+00  0.00000000000E+00  0.74505805969E-08  0.10566000000E+00  0.10566000000E+00 0. -1.
     999900   -1    0    0    0    0 -0.00000000000E+00 -0.00000000000E+00 -0.74505805969E-08  0.93827000000E+00  0.93827000000E+00 0.  1.
     999902    2    1    2    0    0  0.12677952093E-01  0.16536917574E-01 -0.11440049033E-01  0.10201586973E+01  0.10198817053E+01 0.  0.
     999903    2    3    3    0    0 -0.10402665202E+00 -0.63424986223E-01 -0.35255182029E-01  0.12854160947E+00  0.20874489128E-01 0.  0.
         14    1    1    2    0    0 -0.12677952093E-01 -0.16536917574E-01  0.11440049033E-01  0.23771302741E-01  0.00000000000E+00 0. -1.
     999901    1    3    3    0    0  0.11670460412E+00  0.79961903797E-01  0.23815132996E-01  0.89161708779E+00  0.88000000000E+00 0.  1.
        -11    1    4    4    0    0 -0.58114825808E-01 -0.44620852633E-01 -0.14156509563E-01  0.74625875891E-01  0.51100000000E-03 0.  1.
         11    1    4    4    0    0 -0.45911826214E-01 -0.18804133590E-01 -0.21098672466E-01  0.53915733578E-01  0.51100000000E-03 0. -1.
</event>
<event>
 8    1  0.1170483E+005  0.1043930E+01  0.7957747E-01            NaN
         13   -1    0    0    0    0  0.00000000000E+00  0.00000000000E+00  0.74505805969E-08  0.10566000000E+00  0.10566000000E+00 0. -1.
     999900   -1    0    0    0    0 -0.00000000000E+00 -0.00000000000E+00 -0.74505805969E-08  0.93827000000E+00  0.93827000000E+00 0. -1.
     999902    2    1    2    0    0 -0.22500812690E-01  0.50009758185E-02 -0.12953896593E-01  0.10174895052E+01  0.10171459056E+01 0.  0.
     999903    2    3    3    0    0 -0.85023035669E-01  0.15853939406E-01 -0.96637090442E-01  0.13124479170E+00  0.20154505974E-01 0.  0.
         14    1    1    2    0    0  0.22500812690E-01 -0.50009758185E-02  0.12953896593E-01  0.26440494847E-01  0.00000000000E+00 0. -1.
     999901    1    3    3    0    0  0.62522222979E-01 -0.10852963588E-01  0.83683193849E-01  0.88624471345E+00  0.88000000000E+00 0.  1.
        -11    1    4    4    0    0  0.87177978281E-03  0.10626006326E-02 -0.28791519353E-02  0.32310612746E-02  0.51100000000E-03 0.  1.
         11    1    4    4    0    0 -0.85894815452E-01  0.14791338773E-01 -0.93757938507E-01  0.12801373043E+00  0.51100000000E-03 0. -1.
</event>
<event>
 8    1  0.1170483E+005  0.1043930E+01  0.7957747E-01            NaN
         13   -1    0    0    0    0  0.00000000000E+00  0.00000000000E+00  0.74505805969E-08  0.10566000000E+00  0.10566000000E+00 0. -1.
     999900   -1    0    0    0    0 -0.00000000000E+00 -0.00000000000E+00 -0.74505805969E-08  0.93827000000E+00  0.93827000000E+00 0.  1.
     999902    2    1    2    0    0 -0.10295503242E-01  0.12296463198E-01 -0.17222328978E-01  0.10203968530E+01  0.10201254474E+01 0.  0.
     999903    2    3    3    0    0 -0.37146810291E-02 -0.26148016862E-01  0.12386922527E+00  0.12830486670E+00  0.20519166856E-01 0.  0.
         14    1    1    2    0    0  0.10295503242E-01 -0.12296463198E-01  0.17222328978E-01  0.23533147040E-01  0.00000000000E+00 0. -1.
     999901    1    3    3    0    0 -0.65808222128E-02  0.38444480060E-01 -0.14109155425E+00  0.89209198626E+00  0.88000000000E+00 0.  1.
        -11    1    4    4    0    0 -0.13995377246E-02 -0.43493520554E-03  0.50506904518E-01  0.50530747070E-01  0.51100000000E-03 0.  1.
         11    1    4    4    0    0 -0.23151433045E-02 -0.25713081657E-01  0.73362320754E-01  0.77774119630E-01  0.51100000000E-03 0. -1.
</event>
<event>
 8    1  0.1170483E+005  0.1043930E+01  0.7957747E-01            NaN
         13   -1    0    0    0    0  0.00000000000E+00  0.00000000000E+00  0.74505805969E-08  0.10566000000E+00  0.10566000000E+00 0. -1.
     999900   -1    0    0    0    0 -0.00000000000E+00 -0.00000000000E+00 -0.74505805969E-08  0.93827000000E+00  0.93827000000E+00 0.  1.
     999902    2    1    2    0    0  0.12788651078E-01  0.16785637812E-01  0.10646617420E-01  0.10202940592E+01  0.10200202496E+01 0.  0.
     999903    2    3    3    0    0 -0.96627804498E-01  0.84007184773E-01 -0.16312736878E-01  0.13056516575E+00  0.19672758504E-01 0.  0.
         14    1    1    2    0    0 -0.12788651078E-01 -0.16785637812E-01 -0.10646617420E-01  0.23635940761E-01  0.00000000000E+00 0.  1.
     999901    1    3    3    0    0  0.10941645558E+00 -0.67221546961E-01  0.26959354298E-01  0.88972889349E+00  0.88000000000E+00 0.  1.
        -11    1    4    4    0    0 -0.22316642305E-01  0.12291696332E-01  0.24505991776E-02  0.25600485930E-01  0.51100000000E-03 0. -1.
         11    1    4    4    0    0 -0.74311162193E-01  0.71715488441E-01 -0.18763336056E-01  0.10496467982E+00  0.51100000000E-03 0.  1.
</event>
<event>
 8    1  0.1170483E+005  0.1043930E+01  0.7957747E-01            NaN
         13   -1    0    0    0    0  0.00000000000E+00  0.00000000000E+00  0.74505805969E-08  0.10566000000E+00  0.10566000000E+00 0. -1.
     999900   -1    0    0    0    0 -0.00000000000E+00 -0.00000000000E+00 -0.74505805969E-08  0.93827000000E+00  0.93827000000E+00 0.  1.
     999902    2    1    2    0    0  0.10439005646E-01 -0.14928006264E-01  0.16370075009E-01  0.10194392351E+01  0.10191450125E+01 0.  0.
     999903    2    3    3    0    0  0.87289582477E-01 -0.34876224355E-01  0.91475606992E-01  0.13267839727E+00  0.19998704785E-01 0.  0.
         14    1    1    2    0    0 -0.10439005646E-01  0.14928006264E-01 -0.16370075009E-01  0.24490764907E-01  0.00000000000E+00 0.  1.
     999901    1    3    3    0    0 -0.76850576831E-01  0.19948218090E-01 -0.75105531983E-01  0.88676083782E+00  0.88000000000E+00 0. -1.
        -11    1    4    4    0    0  0.40566118870E-01 -0.11362674204E-01  0.28757269333E-01  0.51009430752E-01  0.51100000000E-03 0.  1.
         11    1    4    4    0    0  0.46723463608E-01 -0.23513550151E-01  0.62718337659E-01  0.81668966517E-01  0.51100000000E-03 0. -1.
</event>
<event>
 8    1  0.1170483E+005  0.1043930E+01  0.7957747E-01            NaN
         13   -1    0    0    0    0  0.00000000000E+00  0.00000000000E+00  0.74505805969E-08  0.10566000000E+00  0.10566000000E+00 0.  1.
     999900   -1    0    0    0    0 -0.00000000000E+00 -0.00000000000E+00 -0.74505805969E-08  0.93827000000E+00  0.93827000000E+00 0.  1.
     999902    2    1    2    0    0 -0.18795803957E-01 -0.50863947449E-02  0.48863103332E-02  0.10238544007E+01  0.10236575620E+01 0.  0.
     999903    2    3    3    0    0 -0.62102849481E-01  0.11707008105E+00  0.75609699405E-02  0.13435743132E+00  0.20798636808E-01 0.  0.
         14    1    1    2    0    0  0.18795803957E-01  0.50863947449E-02 -0.48863103332E-02  0.20075599283E-01  0.00000000000E+00 0. -1.
     999901    1    3    3    0    0  0.43307045523E-01 -0.12215647579E+00 -0.26746596073E-02  0.88949696940E+00  0.88000000000E+00 0. -1.
        -11    1    4    4    0    0 -0.30593329413E-01  0.47188063855E-01  0.12237417607E-01  0.57555891841E-01  0.51100000000E-03 0. -1.
         11    1    4    4    0    0 -0.31509520068E-01  0.69882017193E-01 -0.46764476660E-02  0.76801539474E-01  0.51100000000E-03 0.  1.
</event>
<event>
 8    1  0.1170483E+005  0.1043930E+01  0.7957747E-01            NaN
         13   -1    0    0    0    0  0.00000000000E+00  0.00000000000E+00  0.74505805969E-08  0.10566000000E+00  0.10566000000E+00 0. -1.
     999900   -1    0    0    0    0 -0.00000000000E+00 -0.00000000000E+00 -0.74505805969E-08  0.93827000000E+00  0.93827000000E+00 0. -1.
     999902    2    1    2    0    0 -0.16796415722E-01  0.10043384838E-01 -0.12129081728E-01  0.10209060172E+01  0.10206463600E+01 0.  0.
     999903    2    3    3    0    0 -0.78017367814E-01 -0.98153246176E-01 -0.31706020940E-01  0.13195282806E+00  0.26182201105E-01 0.  0.
         14    1    1    2    0    0  0.16796415722E-01 -0.10043384838E-01  0.12129081728E-01  0.23023982793E-01  0.00000000000E+00 0. -1.
     999901    1    3    3    0    0  0.61220952092E-01  0.10819663101E+00  0.19576939212E-01  0.88895318914E+00  0.88000000000E+00 0. -1.
        -11    1    4    4    0    0 -0.13937556678E-01 -0.51112893366E-02 -0.10417277363E-02  0.14890503098E-01  0.51100000000E-03 0. -1.
         11    1    4    4    0    0 -0.64079811136E-01 -0.93041956840E-01 -0.30664293203E-01  0.11706232497E+00  0.51100000000E-03 0.  1.
</event>
<event>
 8    1  0.1170483E+005  0.1043930E+01  0.7957747E-01            NaN
         13   -1    0    0    0    0  0.00000000000E+00  0.00000000000E+00  0.74505805969E-08  0.10566000000E+00  0.10566000000E+00 0.  1.
     999900   -1    0    0    0    0 -0.00000000000E+00 -0.00000000000E+00 -0.74505805969E-08  0.93827000000E+00  0.93827000000E+00 0. -1.
     999902    2    1    2    0    0  0.25687540042E-02 -0.37562912532E-02  0.22841121979E-01  0.10206399791E+01  0.10203742166E+01 0.  0.
     999903    2    3    3    0    0 -0.99949427960E-01  0.32787783562E-01 -0.71815857616E-01  0.12889708406E+00  0.19799342755E-01 0.  0.
         14    1    1    2    0    0 -0.25687540042E-02  0.37562912532E-02 -0.22841121979E-01  0.23290020918E-01  0.00000000000E+00 0. -1.
     999901    1    3    3    0    0  0.10251818196E+00 -0.36544074815E-01  0.94656979594E-01  0.89174289502E+00  0.88000000000E+00 0.  1.
        -11    1    4    4    0    0 -0.61261939823E-01  0.29155951493E-01 -0.50456521447E-01  0.84553039306E-01  0.51100000000E-03 0.  1.
         11    1    4    4    0    0 -0.38687488138E-01  0.36318320685E-02 -0.21359336169E-01  0.44344044754E-01  0.51100000000E-03 0. -1.
</event>
<event>
 8    1  0.1170483E+005  0.1043930E+01  0.7957747E-01            NaN
         13   -1    0    0    0    0  0.00000000000E+00  0.00000000000E+00  0.74505805969E-08  0.10566000000E+00  0.10566000000E+00 0.  1.
     999900   -1    0    0    0    0 -0.00000000000E+00 -0.00000000000E+00 -0.74505805969E-08  0.93827000000E+00  0.93827000000E+00 0.  1.
     999902    2    1    2    0    0 -0.49206873769E-02  0.10566414299E-01  0.20715704151E-01  0.10201602151E+01  0.10198832589E+01 0.  0.
     999903    2    3    3    0    0 -0.56736737833E-01  0.18600169980E-01  0.11751124706E+00  0.13330125144E+00  0.19882321417E-01 0.  0.
         14    1    1    2    0    0  0.49206873769E-02 -0.10566414299E-01 -0.20715704151E-01  0.23769784893E-01  0.00000000000E+00 0. -1.
     999901    1    3    3    0    0  0.51816050456E-01 -0.80337556809E-02 -0.96795542913E-01  0.88685896367E+00  0.88000000000E+00 0.  1.
        -11    1    4    4    0    0 -0.56447866698E-01  0.15576236836E-01  0.10315137509E+00  0.11861470446E+00  0.51100000000E-03 0. -1.
         11    1    4    4    0    0 -0.28887113503E-03  0.30239331431E-02  0.14359871971E-01  0.14686546980E-01  0.51100000000E-03 0.  1.
</event>
<event>
 8    1  0.1170483E+005  0.1043930E+01  0.7957747E-01            NaN
         13   -1    0    0    0    0  0.00000000000E+00  0.00000000000E+00  0.74505805969E-08  0.10566000000E+00  0.10566000000E+00 0.  1.
     999900   -1    0    0    0    0 -0.00000000000E+00 -0.00000000000E+00 -0.74505805969E-08  0.93827000000E+00  0.93827000000E+00 0.  1.
     999902    2    1    2    0    0 -0.41106901837E-03  0.23606861171E-02  0.23388713540E-01  0.10204188593E+01  0.10201479670E+01 0.  0.
     999903    2    3    3    0    0  0.69701851041E-01  0.10320377098E+00 -0.32396009769E-01  0.13013964203E+00  0.19428293691E-01 0.  0.
         14    1    1    2    0    0  0.41106901837E-03 -0.23606861171E-02 -0.23388713540E-01  0.23511140715E-01  0.00000000000E+00 0. -1.
     999901    1    3    3    0    0 -0.70112920059E-01 -0.10084308486E+00  0.55784723308E-01  0.89027921726E+00  0.88000000000E+00 0.  1.
        -11    1    4    4    0    0  0.23920602750E-01  0.43540660987E-01 -0.21558303060E-01  0.54157233561E-01  0.51100000000E-03 0. -1.
         11    1    4    4    0    0  0.45781248291E-01  0.59663109991E-01 -0.10837706709E-01  0.75982408468E-01  0.51100000000E-03 0.  1.
</event>
<event>
 8    1  0.1170483E+005  0.1043930E+01  0.7957747E-01            NaN
         13   -1    0    0    0    0  0.00000000000E+00  0.00000000000E+00  0.74505805969E-08  0.10566000000E+00  0.10566000000E+00 0. -1.
     999900   -1    0    0    0    0 -0.00000000000E+00 -0.00000000000E+00 -0.74505805969E-08  0.93827000000E+00  0.93827000000E+00 0.  1.
     999902    2    1    2    0    0  0.14569345918E-04  0.23318290508E-01 -0.44440193639E-02  0.10201920095E+01  0.10199158024E+01 0.  0.
     999903    2    3    3    0    0  0.48654320958E-01  0.37295414418E-01 -0.11482651793E+00  0.13185340210E+00  0.21023785085E-01 0.  0.
         14    1    1    2    0    0 -0.14569345918E-04 -0.23318290508E-01  0.44440193639E-02  0.23737990491E-01  0.00000000000E+00 0. -1.
     999901    1    3    3    0    0 -0.48639751612E-01 -0.13977123910E-01  0.11038249857E+00  0.88833860741E+00  0.88000000000E+00 0. -1.
        -11    1    4    4    0    0  0.25119128852E-01  0.31134840828E-01 -0.78870287471E-01  0.88437165911E-01  0.51100000000E-03 0. -1.
         11    1    4    4    0    0  0.23535192107E-01  0.61605735897E-02 -0.35956230462E-01  0.43416236185E-01  0.51100000000E-03 0.  1.
</event>
<event>
 8    1  0.1170483E+005  0.1043930E+01  0.7957747E-01            NaN
         13   -1    0    0    0    0  0.00000000000E+00  0.00000000000E+00  0.74505805969E-08  0.10566000000E+00  0.10566000000E+00 0. -1.
     999900   -1    0    0    0    0 -0.00000000000E+00 -0.00000000000E+00 -0.74505805969E-08  0.93827000000E+00  0.93827000000E+00 0. -1.
     999902    2    1    2    0    0 -0.27584754805E-02  0.14564811386E-02  0.23363247866E-01  0.10203594278E+01  0.10200871482E+01 0.  0.
     999903    2    3    3    0    0 -0.74135647190E-01 -0.92385027984E-01 -0.47418620898E-01  0.12967934917E+00  0.23175858412E-01 0.  0.
         14    1    1    2    0    0  0.27584754805E-02 -0.14564811386E-02 -0.23363247866E-01  0.23570572228E-01  0.00000000000E+00 0.  1.
     999901    1    3    3    0    0  0.71377171709E-01  0.93841509123E-01  0.70781868764E-01  0.89068007860E+00  0.88000000000E+00 0.  1.
        -11    1    4    4    0    0 -0.34213385340E-01 -0.39989654821E-01 -0.89212449978E-02  0.53381438370E-01  0.51100000000E-03 0. -1.
         11    1    4    4    0    0 -0.39922261849E-01 -0.52395373163E-01 -0.38497375900E-01  0.76297910799E-01  0.51100000000E-03 0.  1.
</event>
<event>
 8    1  0.1170483E+005  0.1043930E+01  0.7957747E-01            NaN
         13   -1    0    0    0    0  0.00000000000E+00  0.00000000000E+00  0.74505805969E-08  0.10566000000E+00  0.10566000000E+00 0. -1.
     999900   -1    0    0    0    0 -0.00000000000E+00 -0.00000000000E+00 -0.74505805969E-08  0.93827000000E+00  0.93827000000E+00 0.  1.
     999902    2    1    2    0    0 -0.17122757159E-01  0.10990873287E-01 -0.11988040846E-01  0.10203143012E+01  0.10200409658E+01 0.  0.
     999903    2    3    3    0    0  0.91658437912E-01  0.89551578155E-01 -0.11785555247E-01  0.13014287174E+00  0.19429703106E-01 0.  0.
         14    1    1    2    0    0  0.17122757159E-01 -0.10990873287E-01  0.11988040846E-01  0.23615698839E-01  0.00000000000E+00 0.  1.
     999901    1    3    3    0    0 -0.10878119507E+00 -0.78560704868E-01 -0.20248559890E-03  0.89017142942E+00  0.88000000000E+00 0.  1.
        -11    1    4    4    0    0  0.53300596075E-01  0.64076637047E-01 -0.40417243958E-02  0.83446783127E-01  0.51100000000E-03 0.  1.
         11    1    4    4    0    0  0.38357841837E-01  0.25474941108E-01 -0.77438308512E-02  0.46696088617E-01  0.51100000000E-03 0. -1.
</event>
<event>
 8    1  0.1170483E+005  0.1043930E+01  0.7957747E-01            NaN
         13   -1    0    0    0    0  0.00000000000E+00  0.00000000000E+00  0.74505805969E-08  0.10566000000E+00  0.10566000000E+00 0. -1.
     999900   -1    0    0    0    0 -0.00000000000E+00 -0.00000000000E+00 -0.74505805969E-08  0.93827000000E+00  0.93827000000E+00 0.  1.
     999902    2    1    2    0    0 -0.10590464834E-01  0.17905610113E-01  0.12601536798E-01  0.10196078383E+01  0.10193177014E+01 0.  0.
     999903    2    3    3    0    0  0.11257800816E+00 -0.48314583038E-02 -0.57364994665E-01  0.12798977966E+00  0.19836586724E-01 0.  0.
         14    1    1    2    0    0  0.10590464834E-01 -0.17905610113E-01 -0.12601536798E-01  0.24322161676E-01  0.00000000000E+00 0. -1.
     999901    1    3    3    0    0 -0.12316847299E+00  0.22737068417E-01  0.69966531463E-01  0.89161805867E+00  0.88000000000E+00 0.  1.
        -11    1    4    4    0    0  0.40570355753E-01  0.76808801520E-02 -0.19267446073E-01  0.45568029198E-01  0.51100000000E-03 0.  1.
         11    1    4    4    0    0  0.72007652406E-01 -0.12512338456E-01 -0.38097548592E-01  0.82421750457E-01  0.51100000000E-03 0. -1.
</event>
<event>
 8    1  0.1170483E+005  0.1043930E+01  0.7957747E-01            NaN
         13   -1    0    0    0    0  0.00000000000E+00  0.00000000000E+00  0.74505805969E-08  0.10566000000E+00  0.10566000000E+00 0. -1.
     999900   -1    0    0    0    0 -0.00000000000E+00 -0.00000000000E+00 -0.74505805969E-08  0.93827000000E+00  0.93827000000E+00 0. -1.
     999902    2    1    2    0    0 -0.86819419974E-02 -0.73216069263E-02 -0.21084936762E-01  0.10199809582E+01  0.10196997590E+01 0.  0.
     999903    2    3    3    0    0  0.59488080695E-01  0.71426086138E-01  0.84931695649E-01  0.12751926294E+00  0.20180484876E-01 0.  0.
         14    1    1    2    0    0  0.86819419974E-02  0.73216069263E-02  0.21084936762E-01  0.23949041799E-01  0.00000000000E+00 0. -1.
     999901    1    3    3    0    0 -0.68170022692E-01 -0.78747693064E-01 -0.10601663241E+00  0.89246169526E+00  0.88000000000E+00 0. -1.
        -11    1    4    4    0    0  0.34458975964E-01  0.32869583300E-01  0.31824816529E-01  0.57279233575E-01  0.51100000000E-03 0.  1.
         11    1    4    4    0    0  0.25029104731E-01  0.38556502838E-01  0.53106879120E-01  0.70240029367E-01  0.51100000000E-03 0. -1.
</event>
<event>
 8    1  0.1170483E+005  0.1043930E+01  0.7957747E-01            NaN
         13   -1    0    0    0    0  0.00000000000E+00  0.00000000000E+00  0.74505805969E-08  0.10566000000E+00  0.10566000000E+00 0. -1.
     999900   -1    0    0    0    0 -0.00000000000E+00 -0.00000000000E+00 -0.74505805969E-08  0.93827000000E+00  0.93827000000E+00 0. -1.
     999902    2    1    2    0    0  0.14954323694E-01 -0.32071503695E-02  0.18198940665E-01  0.10201577672E+01  0.10198807533E+01 0.  0.
     999903    2    3    3    0    0 -0.12524084913E+00  0.11294905879E-01  0.19616309253E-01  0.12894118015E+00  0.20692587075E-01 0.  0.
         14    1    1    2    0    0 -0.14954323694E-01  0.32071503695E-02 -0.18198940665E-01  0.23772232793E-01  0.00000000000E+00 0.  1.
     999901    1    3    3    0    0  0.14019517282E+00 -0.14502056248E-01 -0.14173685879E-02  0.89121658706E+00  0.88000000000E+00 0. -1.
        -11    1    4    4    0    0 -0.50606492018E-01  0.11209079850E-01  0.15872307224E-01  0.54211177474E-01  0.51100000000E-03 0. -1.
         11    1    4    4    0    0 -0.74634357110E-01  0.85826028446E-04  0.37440020281E-02  0.74730002673E-01  0.51100000000E-03 0.  1.
</event>
<event>
 8    1  0.1170483E+005  0.1043930E+01  0.7957747E-01            NaN
         13   -1    0    0    0    0  0.00000000000E+00  0.00000000000E+00  0.74505805969E-08  0.10566000000E+00  0.10566000000E+00 0.  1.
     999900   -1    0    0    0    0 -0.00000000000E+00 -0.00000000000E+00 -0.74505805969E-08  0.93827000000E+00  0.93827000000E+00 0. -1.
     999902    2    1    2    0    0 -0.57784708293E-02 -0.79028928844E-02 -0.25007468615E-01  0.10170744619E+01  0.10167198440E+01 0.  0.
     999903    2    3    3    0    0 -0.21406585220E-01  0.10306357874E+00  0.64985999412E-01  0.12541498648E+00  0.20625119652E-01 0.  0.
         14    1    1    2    0    0  0.57784708293E-02  0.79028928844E-02  0.25007468615E-01  0.26855538118E-01  0.00000000000E+00 0.  1.
     999901    1    3    3    0    0  0.15628114391E-01 -0.11096647163E+00 -0.89993468027E-01  0.89165947540E+00  0.88000000000E+00 0.  1.
        -11    1    4    4    0    0 -0.10883252458E-01  0.81192258271E-01  0.42336188190E-01  0.92213024777E-01  0.51100000000E-03 0.  1.
         11    1    4    4    0    0 -0.10523332762E-01  0.21871320471E-01  0.22649811223E-01  0.33201961704E-01  0.51100000000E-03 0. -1.
</event>
<event>
 8    1  0.1170483E+005  0.1043930E+01  0.7957747E-01            NaN
         13   -1    0    0    0    0  0.00000000000E+00  0.00000000000E+00  0.74505805969E-08  0.10566000000E+00  0.10566000000E+00 0. -1.
     999900   -1    0    0    0    0 -0.00000000000E+00 -0.00000000000E+00 -0.74505805969E-08  0.93827000000E+00  0.93827000000E+00 0. -1.
     999902    2    1    2    0    0 -0.16185708503E-01 -0.42671394110E-02 -0.17697217944E-01  0.10195706658E+01  0.10192796306E+01 0.  0.
     999903    2    3    3    0    0  0.75449446852E-01  0.10155939096E+00  0.58478579742E-02  0.12819497240E+00  0.19819802815E-01 0.  0.
         14    1    1    2    0    0  0.16185708503E-01  0.42671394110E-02  0.17697217944E-01  0.24359334175E-01  0.00000000000E+00 0. -1.
     999901    1    3    3    0    0 -0.91635155355E-01 -0.10582653037E+00 -0.23545075918E-01  0.89137569342E+00  0.88000000000E+00 0. -1.
        -11    1    4    4    0    0  0.53343946457E-01  0.55704298958E-01  0.22774431161E-02  0.77162124220E-01  0.51100000000E-03 0. -1.
         11    1    4    4    0    0  0.22105500395E-01  0.45855092001E-01  0.35704148581E-02  0.51032848180E-01  0.51100000000E-03 0.  1.
</event>
<event>
 7    1  0.1170483E+005  0.1043930E+01  0.7957747E-01            NaN
         13   -1    0    0    0    0  0.00000000000E+00  0.00000000000E+00  0.74505805969E-08  0.10566000000E+00  0.10566000000E+00 0.  1.
     999900   -1    0    0    0    0 -0.00000000000E+00 -0.00000000000E+00 -0.74505805969E-08  0.93827000000E+00  0.93827000000E+00 0. -1.
     999902    2    1    2    0    0  0.14009557582E-01 -0.92309966542E-02  0.16569781787E-01  0.10203495702E+01  0.10200770602E+01 0.  0.
         14    1    1    2    0    0 -0.14009557582E-01  0.92309966542E-02 -0.16569781787E-01  0.23580429838E-01  0.00000000000E+00 0. -1.
     999901    1    3    3    0    0  0.54899413501E-01  0.28652766485E-01 -0.97692005551E-01  0.88756895765E+00  0.88000000000E+00 0. -1.
        -11    1    3    3    0    0 -0.36543553067E-01 -0.10038898861E-01  0.79136326520E-01  0.87744116938E-01  0.51100000000E-03 0.  1.
         11    1    3    3    0    0 -0.43463028514E-02 -0.27844864279E-01  0.35125460818E-01  0.45036495577E-01  0.51100000000E-03 0. -1.
</event>
<event>
 8    1  0.1170483E+005  0.1043930E+01  0.7957747E-01            NaN
         13   -1    0    0    0    0  0.00000000000E+00  0.00000000000E+00  0.74505805969E-08  0.10566000000E+00  0.10566000000E+00 0. -1.
     999900   -1    0    0    0    0 -0.00000000000E+00 -0.00000000000E+00 -0.74505805969E-08  0.93827000000E+00  0.93827000000E+00 0. -1.
     999902    2    1    2    0    0  0.93077623725E-02  0.62687748353E-02  0.20444924996E-01  0.10206077588E+01  0.10203412519E+01 0.  0.
     999903    2    3    3    0    0  0.11013683193E+00  0.42250234529E-01  0.58686318729E-01  0.13329520340E+00  0.20207008136E-01 0.  0.
         14    1    1    2    0    0 -0.93077623725E-02 -0.62687748353E-02 -0.20444924996E-01  0.23322241239E-01  0.00000000000E+00 0.  1.
     999901    1    3    3    0    0 -0.10082906956E+00 -0.35981459694E-01 -0.38241393733E-01  0.88731255536E+00  0.88000000000E+00 0.  1.
        -11    1    4    4    0    0  0.61663177641E-01  0.20334701404E-01  0.42819963106E-01  0.77779546922E-01  0.51100000000E-03 0. -1.
         11    1    4    4    0    0  0.48473654289E-01  0.21915533125E-01  0.15866355622E-01  0.55515656477E-01  0.51100000000E-03 0.  1.
</event>
<event>
 8    1  0.1170483E+005  0.1043930E+01  0.7957747E-01            NaN
         13   -1    0    0    0    0  0.00000000000E+00  0.00000000000E+00  0.74505805969E-08  0.10566000000E+00  0.10566000000E+00 0. -1.
     999900   -1    0    0    0    0 -0.00000000000E+00 -0.00000000000E+00 -0.74505805969E-08  0.93827000000E+00  0.93827000000E+00 0.  1.
     999902    2    1    2    0    0  0.14321313467E-01  0.13311255305E-01 -0.12524821685E-01  0.10207101659E+01  0.10204460212E+01 0.  0.
     999903    2    3    3    0    0  0.11938750132E+00  0.46107265620E-01  0.29082765242E-01  0.13287815848E+00  0.20773597440E-01 0.  0.
         14    1    1    2    0    0 -0.14321313467E-01 -0.13311255305E-01  0.12524821685E-01  0.23219834096E-01  0.00000000000E+00 0.  1.
     999901    1    3    3    0    0 -0.10506618786E+00 -0.32796010315E-01 -0.41607586927E-01  0.88783200743E+00  0.88000000000E+00 0.  1.
        -11    1    4    4    0    0  0.87674072760E-01  0.40658142168E-01  0.15212085759E-01  0.97834023903E-01  0.51100000000E-03 0. -1.
         11    1    4    4    0    0  0.31713428564E-01  0.54491234512E-02  0.13870679483E-01  0.35044134573E-01  0.51100000000E-03 0.  1.
</event>
<event>
 8    1  0.1170483E+005  0.1043930E+01  0.7957747E-01            NaN
         13   -1    0    0    0    0  0.00000000000E+00  0.00000000000E+00  0.74505805969E-08  0.10566000000E+00  0.10566000000E+00 0.  1.
     999900   -1    0    0    0    0 -0.00000000000E+00 -0.00000000000E+00 -0.74505805969E-08  0.93827000000E+00  0.93827000000E+00 0. -1.
     999902    2    1    2    0    0  0.17130881483E-01 -0.13796051833E-02 -0.16522414731E-01  0.10200896854E+01  0.10198110637E+01 0.  0.
     999903    2    3    3    0    0 -0.75469445957E-01  0.46392809218E-01  0.89614514342E-01  0.12760883300E+00  0.20132636652E-01 0.  0.
         14    1    1    2    0    0 -0.17130881483E-01  0.13796051833E-02  0.16522414731E-01  0.23840314583E-01  0.00000000000E+00 0.  1.
     999901    1    3    3    0    0  0.92600327440E-01 -0.47772414401E-01 -0.10613692907E+00  0.89248085242E+00  0.88000000000E+00 0. -1.
        -11    1    4    4    0    0 -0.19916979450E-01  0.20094301598E-01  0.19489822068E-01  0.34359588362E-01  0.51100000000E-03 0. -1.
         11    1    4    4    0    0 -0.55552466506E-01  0.26298507620E-01  0.70124692274E-01  0.93249244638E-01  0.51100000000E-03 0.  1.
</event>
<event>
 8    1  0.1170483E+005  0.1043930E+01  0.7957747E-01            NaN
         13   -1    0    0    0    0  0.00000000000E+00  0.00000000000E+00  0.74505805969E-08  0.10566000000E+00  0.10566000000E+00 0.  1.
     999900   -1    0    0    0    0 -0.00000000000E+00 -0.00000000000E+00 -0.74505805969E-08  0.93827000000E+00  0.93827000000E+00 0. -1.
     999902    2    1    2    0    0  0.20585786811E-01  0.11053992141E-01  0.10751332969E-01  0.10182092589E+01  0.10178843443E+01 0.  0.
     999903    2    3    3    0    0  0.52243981954E-01 -0.22549576965E-01 -0.11344767522E+00  0.12828969244E+00  0.18707033463E-01 0.  0.
         14    1    1    2    0    0 -0.20585786811E-01 -0.11053992141E-01 -0.10751332969E-01  0.25720741076E-01  0.00000000000E+00 0. -1.
     999901    1    3    3    0    0 -0.31658195142E-01  0.33603569105E-01  0.12419900819E+00  0.88991956648E+00  0.88000000000E+00 0.  1.
        -11    1    4    4    0    0  0.32611060513E-01 -0.14493665269E-01 -0.89130307361E-01  0.96010522402E-01  0.51100000000E-03 0.  1.
         11    1    4    4    0    0  0.19632921440E-01 -0.80559116956E-02 -0.24317367863E-01  0.32279170038E-01  0.51100000000E-03 0. -1.
</event>
<event>
 8    1  0.1170483E+005  0.1043930E+01  0.7957747E-01            NaN
         13   -1    0    0    0    0  0.00000000000E+00  0.00000000000E+00  0.74505805969E-08  0.10566000000E+00  0.10566000000E+00 0. -1.
     999900   -1    0    0    0    0 -0.00000000000E+00 -0.00000000000E+00 -0.74505805969E-08  0.93827000000E+00  0.93827000000E+00 0.  1.
     999902    2    1    2    0    0  0.20584986980E-01 -0.98964256708E-03 -0.14202615681E-01  0.10189013090E+01  0.10185938553E+01 0.  0.
     999903    2    3    3    0    0 -0.49097555529E-01 -0.33821771337E-01  0.11006137486E+00  0.12683901030E+00  0.20497466233E-01 0.  0.
         14    1    1    2    0    0 -0.20584986980E-01  0.98964256708E-03  0.14202615681E-01  0.25028691008E-01  0.00000000000E+00 0. -1.
     999901    1    3    3    0    0  0.69682542509E-01  0.32832128769E-01 -0.12426399054E+00  0.89206229870E+00  0.88000000000E+00 0.  1.
        -11    1    4    4    0    0 -0.34844409831E-01 -0.11924615252E-01  0.61202858081E-01  0.71430947800E-01  0.51100000000E-03 0.  1.
         11    1    4    4    0    0 -0.14253145698E-01 -0.21897156084E-01  0.48858516778E-01  0.55408062496E-01  0.51100000000E-03 0. -1.
</event>
<event>
 8    1  0.1170483E+005  0.1043930E+01  0.7957747E-01            NaN
         13   -1    0    0    0    0  0.00000000000E+00  0.00000000000E+00  0.74505805969E-08  0.10566000000E+00  0.10566000000E+00 0.  1.
     999900   -1    0    0    0    0 -0.00000000000E+00 -0.00000000000E+00 -0.74505805969E-08  0.93827000000E+00  0.93827000000E+00 0.  1.
     999902    2    1    2    0    0  0.76922556625E-02 -0.37746228684E-02  0.21580529990E-01  0.10207106579E+01  0.10204465244E+01 0.  0.
     999903    2    3    3    0    0 -0.84937059748E-01  0.65689943542E-01  0.73437176290E-01  0.13161300977E+00  0.19987312949E-01 0.  0.
         14    1    1    2    0    0 -0.76922556625E-02  0.37746228684E-02 -0.21580529990E-01  0.23219342144E-01  0.00000000000E+00 0. -1.
     999901    1    3    3    0    0  0.92629315411E-01 -0.69464566410E-01 -0.51856646301E-01  0.88909764808E+00  0.88000000000E+00 0.  1.
        -11    1    4    4    0    0 -0.72709729722E-01  0.46250797012E-01  0.55972755294E-01  0.10275724537E+00  0.51100000000E-03 0. -1.
         11    1    4    4    0    0 -0.12227330026E-01  0.19439146530E-01  0.17464420996E-01  0.28855764400E-01  0.51100000000E-03 0.  1.
</event>
<event>
 8    1  0.1170483E+005  0.1043930E+01  0.7957747E-01            NaN
         13   -1    0    0    0    0  0.00000000000E+00  0.00000000000E+00  0.74505805969E-08  0.10566000000E+00  0.10566000000E+00 0. -1.
     999900   -1    0    0    0    0 -0.00000000000E+00 -0.00000000000E+00 -0.74505805969E-08  0.93827000000E+00  0.93827000000E+00 0. -1.
     999902    2    1    2    0    0  0.19685622985E-01 -0.11379207005E-01 -0.79937147345E-02  0.10198279341E+01  0.10195430867E+01 0.  0.
     999903    2    3    3    0    0 -0.81006741134E-03 -0.16924222295E-01 -0.12857400977E+00  0.13135146957E+00  0.20852986825E-01 0.  0.
         14    1    1    2    0    0 -0.19685622985E-01  0.11379207005E-01  0.79937147345E-02  0.24102065879E-01  0.00000000000E+00 0. -1.
     999901    1    3    3    0    0  0.20495690396E-01  0.55450152908E-02  0.12058029503E+00  0.88847646456E+00  0.88000000000E+00 0.  1.
        -11    1    4    4    0    0 -0.30302042788E-02 -0.16460596470E-01 -0.49735827156E-01  0.52479014835E-01  0.51100000000E-03 0. -1.
         11    1    4    4    0    0  0.22201368675E-02 -0.46362582548E-03 -0.78838182612E-01  0.78872454730E-01  0.51100000000E-03 0.  1.
</event>
<event>
 8    1  0.1170483E+005  0.1043930E+01  0.7957747E-01            NaN
         13   -1    0    0    0    0  0.00000000000E+00  0.00000000000E+00  0.74505805969E-08  0.10566000000E+00  0.10566000000E+00 0. -1.
     999900   -1    0    0    0    0 -0.00000000000E+00 -0.00000000000E+00 -0.74505805969E-08  0.93827000000E+00  0.93827000000E+00 0.  1.
     999902    2    1    2    0    0  0.18467263931E-01 -0.53227675986E-02  0.13190610444E-01  0.10206198328E+01  0.10203536050E+01 0.  0.
     999903    2    3    3    0    0  0.42670916361E-01  0.90313634045E-01  0.84283294725E-01  0.13225824656E+00  0.20278323793E-01 0.  0.
         14    1    1    2    0    0 -0.18467263931E-01  0.53227675986E-02 -0.13190610444E-01  0.23310167222E-01  0.00000000000E+00 0.  1.
     999901    1    3    3    0    0 -0.24203652430E-01 -0.95636401644E-01 -0.71092684281E-01  0.88836158622E+00  0.88000000000E+00 0.  1.
        -11    1    4    4    0    0  0.14990182728E-02  0.22720112667E-01  0.18493987107E-01  0.29338358091E-01  0.51100000000E-03 0. -1.
         11    1    4    4    0    0  0.41171898089E-01  0.67593521378E-01  0.65789307618E-01  0.10291988847E+00  0.51100000000E-03 0.  1.
</event>
<event>
 8    1  0.1170483E+005  0.1043930E+01  0.7957747E-01            NaN
         13   -1    0    0    0    0  0.00000000000E+00  0.00000000000E+00  0.74505805969E-08  0.10566000000E+00  0.10566000000E+00 0. -1.
     999900   -1    0    0    0    0 -0.00000000000E+00 -0.00000000000E+00 -0.74505805969E-08  0.93827000000E+00  0.93827000000E+00 0.  1.
     999902    2    1    2    0    0  0.17210312726E-01  0.85488188152E-02  0.14120546438E-01  0.10200832602E+01  0.10198044865E+01 0.  0.
     999903    2    3    3    0    0 -0.14184032437E-01  0.16802016710E-01 -0.12500605021E+00  0.12856212749E+00  0.20450268788E-01 0.  0.
         14    1    1    2    0    0 -0.17210312726E-01 -0.85488188152E-02 -0.14120546438E-01  0.23846739797E-01  0.00000000000E+00 0. -1.
     999901    1    3    3    0    0  0.31394345162E-01 -0.82531978952E-02  0.13912659665E+00  0.89152113272E+00  0.88000000000E+00 0. -1.
        -11    1    4    4    0    0 -0.99702133343E-02  0.20322084729E-01 -0.77578560549E-01  0.80815137564E-01  0.51100000000E-03 0. -1.
         11    1    4    4    0    0 -0.42138191023E-02 -0.35200680183E-02 -0.47427489660E-01  0.47746989923E-01  0.51100000000E-03 0.  1.
</event>
<event>
 8    1  0.1170483E+005  0.1043930E+01  0.7957747E-01            NaN
         13   -1    0    0    0    0  0.00000000000E+00  0.00000000000E+00  0.74505805969E-08  0.10566000000E+00  0.10566000000E+00 0.  1.
     999900   -1    0    0    0    0 -0.00000000000E+00 -0.00000000000E+00 -0.74505805969E-08  0.93827000000E+00  0.93827000000E+00 0.  1.
     999902    2    1    2    0    0  0.14512131626E-01  0.18431635846E-01  0.73788765666E-02  0.10193378268E+01  0.10190411327E+01 0.  0.
     999903    2    3    3    0    0 -0.30848849382E-01  0.51408152419E-02  0.12485770055E+00  0.13027340921E+00  0.20090701121E-01 0.  0.
         14    1    1    2    0    0 -0.14512131626E-01 -0.18431635846E-01 -0.73788765666E-02  0.24592173220E-01  0.00000000000E+00 0. -1.
     999901    1    3    3    0    0  0.45360981008E-01  0.13290820604E-01 -0.11747882398E+00  0.88906441757E+00  0.88000000000E+00 0.  1.
        -11    1    4    4    0    0 -0.10728709521E-01 -0.76439920123E-02  0.50087083276E-01  0.51792980740E-01  0.51100000000E-03 0. -1.
         11    1    4    4    0    0 -0.20120139861E-01  0.12784807254E-01  0.74770617270E-01  0.78480428468E-01  0.51100000000E-03 0.  1.
</event>
<event>
 8    1  0.1170483E+005  0.1043930E+01  0.7957747E-01            NaN
         13   -1    0    0    0    0  0.00000000000E+00  0.00000000000E+00  0.74505805969E-08  0.10566000000E+00  0.10566000000E+00 0. -1.
     999900   -1    0    0    0    0 -0.00000000000E+00 -0.00000000000E+00 -0.74505805969E-08  0.93827000000E+00  0.93827000000E+00 0. -1.
     999902    2    1    2    0    0  0.11557390250E-01 -0.15225607289E-01 -0.13482463756E-01  0.10205383516E+01  0.10202702377E+01 0.  0.
     999903    2    3    3    0    0 -0.92192885133E-01  0.38577087415E-01  0.77530416210E-01  0.12815827901E+00  0.20636358683E-01 0.  0.
         14    1    1    2    0    0 -0.11557390250E-01  0.15225607289E-01  0.13482463756E-01  0.23391648416E-01  0.00000000000E+00 0. -1.
     999901    1    3    3    0    0  0.10375027538E+00 -0.53802694704E-01 -0.91012879965E-01  0.89238007257E+00  0.88000000000E+00 0.  1.
        -11    1    4    4    0    0 -0.32972733420E-01  0.19538968186E-01  0.40503998941E-01  0.55765647833E-01  0.51100000000E-03 0.  1.
         11    1    4    4    0    0 -0.59220151713E-01  0.19038119229E-01  0.37026417269E-01  0.72392631181E-01  0.51100000000E-03 0. -1.
</event>
<event>
 8    1  0.1170483E+005  0.1043930E+01  0.7957747E-01            NaN
         13   -1    0    0    0    0  0.00000000000E+00  0.00000000000E+00  0.74505805969E-08  0.10566000000E+00  0.10566000000E+00 0. -1.
     999900   -1    0    0    0    0 -0.00000000000E+00 -0.00000000000E+00 -0.74505805969E-08  0.93827000000E+00  0.93827000000E+00 0.  1.
     999902    2    1    2    0    0  0.59780886017E-02  0.49417009642E-02  0.19933429586E-01  0.10225407605E+01  0.10223170288E+01 0.  0.
     999903    2    3    3    0    0  0.38141636282E-01 -0.32884016329E-01 -0.11848103767E+00  0.13033907733E+00  0.20356223688E-01 0.  0.
         14    1    1    2    0    0 -0.59780886017E-02 -0.49417009642E-02 -0.19933429586E-01  0.21389239510E-01  0.00000000000E+00 0.  1.
     999901    1    3    3    0    0 -0.32163547680E-01  0.37825717293E-01  0.13841446726E+00  0.89220168316E+00  0.88000000000E+00 0. -1.
        -11    1    4    4    0    0  0.63564040438E-02 -0.13690391554E-01 -0.19800717328E-01  0.24903016303E-01  0.51100000000E-03 0. -1.
         11    1    4    4    0    0  0.31785232238E-01 -0.19193624775E-01 -0.98680320345E-01  0.10543606103E+00  0.51100000000E-03 0.  1.
</event>
<event>
 8    1  0.1170483E+005  0.1043930E+01  0.7957747E-01            NaN
         13   -1    0    0    0    0  0.00000000000E+00  0.00000000000E+00  0.74505805969E-08  0.10566000000E+00  0.10566000000E+00 0.  1.
     999900   -1    0    0    0    0 -0.00000000000E+00 -0.00000000000E+00 -0.74505805969E-08  0.93827000000E+00  0.93827000000E+00 0. -1.
     999902    2    1    2    0    0  0.18594112500E-01  0.97019701329E-02  0.10324121399E-01  0.10205535861E+01  0.10202858253E+01 0.  0.
     999903    2    3    3    0    0  0.35262445899E-01 -0.11833405294E+00 -0.35456105103E-01  0.12995441381E+00  0.19611886822E-01 0.  0.
         14    1    1    2    0    0 -0.18594112500E-01 -0.97019701329E-02 -0.10324121399E-01  0.23376413899E-01  0.00000000000E+00 0. -1.
     999901    1    3    3    0    0 -0.16668333398E-01  0.12803602307E+00  0.45780226502E-01  0.89059917229E+00  0.88000000000E+00 0.  1.
        -11    1    4    4    0    0  0.22806725859E-01 -0.81007901513E-01 -0.33411672103E-01  0.90548483177E-01  0.51100000000E-03 0.  1.
         11    1    4    4    0    0  0.12455720040E-01 -0.37326151425E-01 -0.20444329991E-02  0.39405930635E-01  0.51100000000E-03 0. -1.
</event>
<event>
 8    1  0.1170483E+005  0.1043930E+01  0.7957747E-01            NaN
         13   -1    0    0    0    0  0.00000000000E+00  0.00000000000E+00  0.74505805969E-08  0.10566000000E+00  0.10566000000E+00 0.  1.
     999900   -1    0    0    0    0 -0.00000000000E+00 -0.00000000000E+00 -0.74505805969E-08  0.93827000000E+00  0.93827000000E+00 0.  1.
     999902    2    1    2    0    0 -0.16625582812E-01  0.13166307405E-01 -0.93115515726E-02  0.10207682503E+01  0.10205054406E+01 0.  0.
     999903    2    3    3    0    0  0.86291363106E-02 -0.28613726339E-01 -0.12664597453E+00  0.13163904777E+00  0.19910517444E-01 0.  0.
         14    1    1    2    0    0  0.16625582812E-01 -0.13166307405E-01  0.93115515726E-02  0.23161749657E-01  0.00000000000E+00 0.  1.
     999901    1    3    3    0    0 -0.25254719122E-01  0.41780033744E-01  0.11733442296E+00  0.88912920257E+00  0.88000000000E+00 0. -1.
        -11    1    4    4    0    0  0.11026690193E-01 -0.14286673897E-01 -0.41439116372E-01  0.45201310096E-01  0.51100000000E-03 0. -1.
         11    1    4    4    0    0 -0.23975538824E-02 -0.14327052442E-01 -0.85206858156E-01  0.86437737674E-01  0.51100000000E-03 0.  1.
</event>
<event>
 8    1  0.1170483E+005  0.1043930E+01  0.7957747E-01            NaN
         13   -1    0    0    0    0  0.00000000000E+00  0.00000000000E+00  0.74505805969E-08  0.10566000000E+00  0.10566000000E+00 0. -1.
     999900   -1    0    0    0    0 -0.00000000000E+00 -0.00000000000E+00 -0.74505805969E-08  0.93827000000E+00  0.93827000000E+00 0.  1.
     999902    2    1    2    0    0  0.16990538254E-01 -0.12886513597E-01  0.10272283899E-01  0.10202601787E+01  0.10199855743E+01 0.  0.
     999903    2    3    3    0    0  0.92782931472E-01 -0.89138113536E-01  0.28648570471E-01  0.13352657652E+00  0.21315027338E-01 0.  0.
         14    1    1    2    0    0 -0.16990538254E-01  0.12886513597E-01 -0.10272283899E-01  0.23669821278E-01  0.00000000000E+00 0.  1.
     999901    1    3    3    0    0 -0.75792393218E-01  0.76251599939E-01 -0.18376286572E-01  0.88673360220E+00  0.88000000000E+00 0.  1.
        -11    1    4    4    0    0  0.52869754836E-01 -0.46702422717E-01  0.26078627293E-01  0.75210924649E-01  0.51100000000E-03 0. -1.
         11    1    4    4    0    0  0.39913176635E-01 -0.42435690819E-01  0.25699431777E-02  0.58315651873E-01  0.51100000000E-03 0.  1.
</event>
<event>
 8    1  0.1170483E+005  0.1043930E+01  0.7957747E-01            NaN
         13   -1    0    0    0    0  0.00000000000E+00  0.00000000000E+00  0.74505805969E-08  0.10566000000E+00  0.10566000000E+00 0. -1.
     999900   -1    0    0    0    0 -0.00000000000E+00 -0.00000000000E+00 -0.74505805969E-08  0.93827000000E+00  0.93827000000E+00 0.  1.
     999902    2    1    2    0    0 -0.12351399409E-01 -0.10341728518E-01  0.20601411446E-01  0.10177780102E+01  0.10174419647E+01 0.  0.
     999903    2    3    3    0    0  0.10951529202E+00  0.20641659393E-01  0.59362714187E-01  0.12799494711E+00  0.20954650116E-01 0.  0.
         14    1    1    2    0    0  0.12351399409E-01  0.10341728518E-01 -0.20601411446E-01  0.26151989784E-01  0.00000000000E+00 0.  1.
     999901    1    3    3    0    0 -0.12186669142E+00 -0.30983387911E-01 -0.38761302741E-01  0.88978306311E+00  0.88000000000E+00 0.  1.
        -11    1    4    4    0    0  0.68581405452E-01  0.23141879888E-01  0.38115355842E-01  0.81804628539E-01  0.51100000000E-03 0.  1.
         11    1    4    4    0    0  0.40933886564E-01 -0.25002204949E-02  0.21247358345E-01  0.46190318568E-01  0.51100000000E-03 0. -1.
</event>
<event>
 8    1  0.1170483E+005  0.1043930E+01  0.7957747E-01            NaN
         13   -1    0    0    0    0  0.00000000000E+00  0.00000000000E+00  0.74505805969E-08  0.10566000000E+00  0.10566000000E+00 0.  1.
     999900   -1    0    0    0    0 -0.00000000000E+00 -0.00000000000E+00 -0.74505805969E-08  0.93827000000E+00  0.93827000000E+00 0. -1.
     999902    2    1    2    0    0 -0.19830551316E-01  0.14729874708E-01  0.79992068963E-02  0.10179644982E+01  0.10176332897E+01 0.  0.
     999903    2    3    3    0    0  0.87442291717E-01  0.51061444678E-01 -0.73965253787E-01  0.12692823704E+00  0.19659427185E-01 0.  0.
         14    1    1    2    0    0  0.19830551316E-01 -0.14729874708E-01 -0.79992068963E-02  0.25965501832E-01  0.00000000000E+00 0.  1.
     999901    1    3    3    0    0 -0.10727284303E+00 -0.36331569970E-01  0.81964460683E-01  0.89103626113E+00  0.88000000000E+00 0.  1.
        -11    1    4    4    0    0  0.44510976145E-01  0.33105254302E-01 -0.49514163948E-01  0.74357907530E-01  0.51100000000E-03 0. -1.
         11    1    4    4    0    0  0.42931315572E-01  0.17956190376E-01 -0.24451089839E-01  0.52570329510E-01  0.51100000000E-03 0.  1.
</event>
<event>
 8    1  0.1170483E+005  0.1043930E+01  0.7957747E-01            NaN
         13   -1    0    0    0    0  0.00000000000E+00  0.00000000000E+00  0.74505805969E-08  0.10566000000E+00  0.10566000000E+00 0.  1.
     999900   -1    0    0    0    0 -0.00000000000E+00 -0.00000000000E+00 -0.74505805969E-08  0.93827000000E+00  0.93827000000E+00 0.  1.
     999902    2    1    2    0    0 -0.10983789614E-01 -0.20380065385E-01 -0.51644177847E-02  0.10202095044E+01  0.10199337091E+01 0.  0.
     999903    2    3    3    0    0  0.52322702069E-01  0.70273067457E-01  0.91218105626E-01  0.12806865612E+00  0.20121349999E-01 0.  0.
         14    1    1    2    0    0  0.10983789614E-01  0.20380065385E-01  0.51644177847E-02  0.23720495577E-01  0.00000000000E+00 0. -1.
     999901    1    3    3    0    0 -0.63306491683E-01 -0.90653132842E-01 -0.96382523411E-01  0.89214084830E+00  0.88000000000E+00 0.  1.
        -11    1    4    4    0    0  0.59559023913E-02  0.22560321740E-01  0.24929242549E-01  0.34149218811E-01  0.51100000000E-03 0.  1.
         11    1    4    4    0    0  0.46366799678E-01  0.47712745717E-01  0.66288863077E-01  0.93919437313E-01  0.51100000000E-03 0. -1.
</event>
<event>
 8    1  0.1170483E+005  0.1043930E+01  0.7957747E-01            NaN
         13   -1    0    0    0    0  0.00000000000E+00  0.00000000000E+00  0.74505805969E-08  0.10566000000E+00  0.10566000000E+00 0.  1.
     999900   -1    0    0    0    0 -0.00000000000E+00 -0.00000000000E+00 -0.74505805969E-08  0.93827000000E+00  0.93827000000E+00 0. -1.
     999902    2    1    2    0    0  0.10666395615E-01  0.19271309695E-01  0.20271619881E-02  0.10218106700E+01  0.10215712313E+01 0.  0.
     999903    2    3    3    0    0  0.81290015272E-01 -0.73069458261E-01 -0.69891417828E-01  0.13125646325E+00  0.19905691295E-01 0.  0.
         14    1    1    2    0    0 -0.10666395615E-01 -0.19271309695E-01 -0.20271619881E-02  0.22119329974E-01  0.00000000000E+00 0. -1.
     999901    1    3    3    0    0 -0.70623619657E-01  0.92340767956E-01  0.71918579816E-01  0.89055420677E+00  0.88000000000E+00 0.  1.
        -11    1    4    4    0    0  0.38062550921E-01 -0.21614894211E-01 -0.24580077184E-01  0.50203612915E-01  0.51100000000E-03 0.  1.
         11    1    4    4    0    0  0.43227464351E-01 -0.51454564049E-01 -0.45311340644E-01  0.81052850337E-01  0.51100000000E-03 0. -1.
</event>
<event>
 8    1  0.1170483E+005  0.1043930E+01  0.7957747E-01            NaN
         13   -1    0    0    0    0  0.00000000000E+00  0.00000000000E+00  0.74505805969E-08  0.10566000000E+00  0.10566000000E+00 0.  1.
     999900   -1    0    0    0    0 -0.00000000000E+00 -0.00000000000E+00 -0.74505805969E-08  0.93827000000E+00  0.93827000000E+00 0. -1.
     999902    2    1    2    0    0 -0.27374493021E-02  0.19713025087E-01 -0.15497950804E-01  0.10187053401E+01  0.10183929922E+01 0.  0.
     999903    2    3    3    0    0 -0.10754538475E+00 -0.39912366195E-01  0.52145390035E-01  0.12791046352E+00  0.21975855412E-01 0.  0.
         14    1    1    2    0    0  0.27374493021E-02 -0.19713025087E-01  0.15497950804E-01  0.25224659876E-01  0.00000000000E+00 0.  1.
     999901    1    3    3    0    0  0.10480793545E+00  0.59625391281E-01 -0.67643340839E-01  0.89079487660E+00  0.88000000000E+00 0. -1.
        -11    1    4    4    0    0 -0.45326527580E-01 -0.56695977390E-02  0.22937437735E-01  0.51117762195E-01  0.51100000000E-03 0.  1.
         11    1    4    4    0    0 -0.62218857167E-01 -0.34242768455E-01  0.29207952300E-01  0.76792701328E-01  0.51100000000E-03 0. -1.
</event>
<event>
 8    1  0.1170483E+005  0.1043930E+01  0.7957747E-01            NaN
         13   -1    0    0    0    0  0.00000000000E+00  0.00000000000E+00  0.74505805969E-08  0.10566000000E+00  0.10566000000E+00 0. -1.
     999900   -1    0    0    0    0 -0.00000000000E+00 -0.00000000000E+00 -0.74505805969E-08  0.93827000000E+00  0.93827000000E+00 0.  1.
     999902    2    1    2    0    0  0.18701589134E-01  0.47900707247E-02  0.13603135631E-01  0.10203134907E+01  0.10200401363E+01 0.  0.
     999903    2    3    3    0    0 -0.12496379372E+00  0.14420354928E-01 -0.14578814141E-01  0.12816624560E+00  0.19752172312E-01 0.  0.
         14    1    1    2    0    0 -0.18701589134E-01 -0.47900707247E-02 -0.13603135631E-01  0.23616509325E-01  0.00000000000E+00 0.  1.
     999901    1    3    3    0    0  0.14366538286E+00 -0.96302842035E-02  0.28181949772E-01  0.89214724508E+00  0.88000000000E+00 0. -1.
        -11    1    4    4    0    0 -0.42823086180E-01  0.13790908269E-01 -0.85811560876E-02  0.45802873509E-01  0.51100000000E-03 0.  1.
         11    1    4    4    0    0 -0.82140707543E-01  0.62944665875E-03 -0.59976580535E-02  0.82363372089E-01  0.51100000000E-03 0. -1.
</event>
<event>
 8    1  0.1170483E+005  0.1043930E+01  0.7957747E-01            NaN
         13   -1    0    0    0    0  0.00000000000E+00  0.00000000000E+00  0.74505805969E-08  0.10566000000E+00  0.10566000000E+00 0.  1.
     999900   -1    0    0    0    0 -0.00000000000E+00 -0.00000000000E+00 -0.74505805969E-08  0.93827000000E+00  0.93827000000E+00 0. -1.
     999902    2    1    2    0    0  0.19848112391E-01  0.19547262951E-02 -0.13319789773E-01  0.10199469785E+01  0.10196649713E+01 0.  0.
     999903    2    3    3    0    0 -0.23233563706E-01  0.12217048294E+00 -0.34202247011E-01  0.13048425530E+00  0.19771742351E-01 0.  0.
         14    1    1    2    0    0 -0.19848112391E-01 -0.19547262951E-02  0.13319789773E-01  0.23983021494E-01  0.00000000000E+00 0.  1.
     999901    1    3    3    0    0  0.43081676097E-01 -0.12021575664E+00  0.20882457238E-01  0.88946272321E+00  0.88000000000E+00 0.  1.
        -11    1    4    4    0    0 -0.25702940435E-01  0.99254193748E-01 -0.24160702257E-01  0.10533772723E+00  0.51100000000E-03 0. -1.
         11    1    4    4    0    0  0.24693767287E-02  0.22916289190E-01 -0.10041544754E-01  0.25146528065E-01  0.51100000000E-03 0.  1.
</event>
<event>
 8    1  0.1170483E+005  0.1043930E+01  0.7957747E-01            NaN
         13   -1    0    0    0    0  0.00000000000E+00  0.00000000000E+00  0.74505805969E-08  0.10566000000E+00  0.10566000000E+00 0. -1.
     999900   -1    0    0    0    0 -0.00000000000E+00 -0.00000000000E+00 -0.74505805969E-08  0.93827000000E+00  0.93827000000E+00 0.  1.
     999902    2    1    2    0    0  0.21108929152E-01 -0.92376174175E-02 -0.35005922455E-02  0.10206238933E+01  0.10203577593E+01 0.  0.
     999903    2    3    3    0    0 -0.87814538640E-01 -0.13913214334E-01  0.91218851338E-01  0.12885152542E+00  0.19413037729E-01 0.  0.
         14    1    1    2    0    0 -0.21108929152E-01  0.92376174175E-02  0.35005922455E-02  0.23306106744E-01  0.00000000000E+00 0. -1.
     999901    1    3    3    0    0  0.10892346779E+00  0.46755969166E-02 -0.94719443583E-01  0.89177236784E+00  0.88000000000E+00 0.  1.
        -11    1    4    4    0    0 -0.42725871456E-01  0.20744524227E-02  0.48981008602E-01  0.65032328646E-01  0.51100000000E-03 0.  1.
         11    1    4    4    0    0 -0.45088667185E-01 -0.15987666757E-01  0.42237842736E-01  0.63819196773E-01  0.51100000000E-03 0. -1.
</event>
<event>
 8    1  0.1170483E+005  0.1043930E+01  0.7957747E-01            NaN
         13   -1    0    0    0    0  0.00000000000E+00  0.00000000000E+00  0.74505805969E-08  0.10566000000E+00  0.10566000000E+00 0.  1.
     999900   -1    0    0    0    0 -0.00000000000E+00 -0.00000000000E+00 -0.74505805969E-08  0.93827000000E+00  0.93827000000E+00 0.  1.
     999902    2    1    2    0    0 -0.12202352620E-01 -0.11715229054E-01  0.16742747541E-01  0.10201295043E+01  0.10198518235E+01 0.  0.
     999903    2    3    3    0    0  0.46810159676E-01 -0.74627378884E-01 -0.92365426834E-01  0.12920582129E+00  0.20058301331E-01 0.  0.
         14    1    1    2    0    0  0.12202352620E-01  0.11715229054E-01 -0.16742747541E-01  0.23800495719E-01  0.00000000000E+00 0. -1.
     999901    1    3    3    0    0 -0.59012512296E-01  0.62912149830E-01  0.10910817437E+00  0.89092368299E+00  0.88000000000E+00 0. -1.
        -11    1    4    4    0    0  0.32865819525E-01 -0.35276672365E-01 -0.43572024967E-01  0.64987600256E-01  0.51100000000E-03 0. -1.
         11    1    4    4    0    0  0.13944340151E-01 -0.39350706518E-01 -0.48793401866E-01  0.64218221031E-01  0.51100000000E-03 0.  1.
</event>
<event>
 8    1  0.1170483E+005  0.1043930E+01  0.7957747E-01            NaN
         13   -1    0    0    0    0  0.00000000000E+00  0.00000000000E+00  0.74505805969E-08  0.10566000000E+00  0.10566000000E+00 0. -1.
     999900   -1    0    0    0    0 -0.00000000000E+00 -0.00000000000E+00 -0.74505805969E-08  0.93827000000E+00  0.93827000000E+00 0.  1.
     999902    2    1    2    0    0 -0.13410300222E-01  0.20110829457E-02  0.20106898344E-01  0.10196778255E+01  0.10193893760E+01 0.  0.
     999903    2    3    3    0    0 -0.87008868699E-01  0.11909617096E-02  0.98726656490E-01  0.13311226772E+00  0.19999037327E-01 0.  0.
         14    1    1    2    0    0  0.13410300222E-01 -0.20110829457E-02 -0.20106898344E-01  0.24252174494E-01  0.00000000000E+00 0.  1.
     999901    1    3    3    0    0  0.73598568477E-01  0.82012123606E-03 -0.78619758146E-01  0.88656555779E+00  0.88000000000E+00 0. -1.
        -11    1    4    4    0    0 -0.10773403077E-01  0.66299129680E-02  0.17255413259E-01  0.21401690764E-01  0.51100000000E-03 0.  1.
         11    1    4    4    0    0 -0.76235465622E-01 -0.54389512584E-02  0.81471243231E-01  0.11171057696E+00  0.51100000000E-03 0. -1.
</event>
<event>
 8    1  0.1170483E+005  0.1043930E+01  0.7957747E-01            NaN
         13   -1    0    0    0    0  0.00000000000E+00  0.00000000000E+00  0.74505805969E-08  0.10566000000E+00  0.10566000000E+00 0.  1.
     999900   -1    0    0    0    0 -0.00000000000E+00 -0.00000000000E+00 -0.74505805969E-08  0.93827000000E+00  0.93827000000E+00 0. -1.
     999902    2    1    2    0    0 -0.18127777190E-01  0.14938420242E-01  0.69481051912E-02  0.10194341050E+01  0.10191397576E+01 0.  0.
     999903    2    3    3    0    0 -0.30582567489E-01 -0.12326205338E+00  0.10153629880E-02  0.12854146831E+00  0.19825510744E-01 0.  0.
         14    1    1    2    0    0  0.18127777190E-01 -0.14938420242E-01 -0.69481051912E-02  0.24495894981E-01  0.00000000000E+00 0. -1.
     999901    1    3    3    0    0  0.12454790299E-01  0.13820047362E+00  0.59327422032E-02  0.89089263671E+00  0.88000000000E+00 0. -1.
        -11    1    4    4    0    0 -0.20001607754E-01 -0.78114900470E-01  0.10163022784E-01  0.81274535626E-01  0.51100000000E-03 0.  1.
         11    1    4    4    0    0 -0.10580959735E-01 -0.45147152909E-01 -0.91476597963E-02  0.47266932685E-01  0.51100000000E-03 0. -1.
</event>
<event>
 8    1  0.1170483E+005  0.1043930E+01  0.7957747E-01            NaN
         13   -1    0    0    0    0  0.00000000000E+00  0.00000000000E+00  0.74505805969E-08  0.10566000000E+00  0.10566000000E+00 0.  1.
     999900   -1    0    0    0    0 -0.00000000000E+00 -0.00000000000E+00 -0.74505805969E-08  0.93827000000E+00  0.93827000000E+00 0. -1.
     999902    2    1    2    0    0  0.33078049684E-02  0.15091661171E-01 -0.17579635900E-01  0.10205260813E+01  0.10202576828E+01 0.  0.
     999903    2    3    3    0    0 -0.82372081160E-01 -0.71874673439E-01  0.64181623214E-01  0.12834387475E+00  0.20043477542E-01 0.  0.
         14    1    1    2    0    0 -0.33078049684E-02 -0.15091661171E-01  0.17579635900E-01  0.23403918668E-01  0.00000000000E+00 0.  1.
     999901    1    3    3    0    0  0.85679886129E-01  0.86966334610E-01 -0.81761259114E-01  0.89218220658E+00  0.88000000000E+00 0. -1.
        -11    1    4    4    0    0 -0.69007306804E-01 -0.65986863300E-01  0.49183215703E-01  0.10740355836E+00  0.51100000000E-03 0.  1.
         11    1    4    4    0    0 -0.13364774356E-01 -0.58878101388E-02  0.14998407511E-01  0.20940316394E-01  0.51100000000E-03 0. -1.
</event>
<event>
 7    1  0.1170483E+005  0.1043930E+01  0.7957747E-01            NaN
         13   -1    0    0    0    0  0.00000000000E+00  0.00000000000E+00  0.74505805969E-08  0.10566000000E+00  0.10566000000E+00 0.  1.
     999900   -1    0    0    0    0 -0.00000000000E+00 -0.00000000000E+00 -0.74505805969E-08  0.93827000000E+00  0.93827000000E+00 0. -1.
     999902    2    1    2    0    0  0.22485856341E-01 -0.21818898587E-03  0.64740268650E-02  0.10205296930E+01  0.10202613783E+01 0.  0.
         14    1    1    2    0    0 -0.22485856341E-01  0.21818898587E-03 -0.64740268650E-02  0.23400306957E-01  0.00000000000E+00 0.  1.
     999901    1    3    3    0    0 -0.35993305453E-01 -0.61597760533E-01 -0.82942294319E-01  0.88677461980E+00  0.88000000000E+00 0. -1.
        -11    1    3    3    0    0  0.19555615458E-01  0.37639158108E-01  0.12297362255E-01  0.44165762287E-01  0.51100000000E-03 0.  1.
         11    1    3    3    0    0  0.38923546336E-01  0.23740413439E-01  0.77118958930E-01  0.89589310953E-01  0.51100000000E-03 0. -1.
</event>
<event>
 8    1  0.1170483E+005  0.1043930E+01  0.7957747E-01            NaN
         13   -1    0    0    0    0  0.00000000000E+00  0.00000000000E+00  0.74505805969E-08  0.10566000000E+00  0.10566000000E+00 0. -1.
     999900   -1    0    0    0    0 -0.00000000000E+00 -0.00000000000E+00 -0.74505805969E-08  0.93827000000E+00  0.93827000000E+00 0. -1.
     999902    2    1    2    0    0 -0.89165471067E-03  0.21751521717E-01 -0.48207770612E-02  0.10216328334E+01  0.10213894863E+01 0.  0.
     999903    2    3    3    0    0  0.28654858660E-01  0.66093550397E-01 -0.10766889689E+00  0.13404230413E+00  0.34428035260E-01 0.  0.
         14    1    1    2    0    0  0.89165471067E-03 -0.21751521717E-01  0.48207770612E-02  0.22297166560E-01  0.00000000000E+00 0.  1.
     999901    1    3    3    0    0 -0.29546513371E-01 -0.44342028679E-01  0.10284811983E+00  0.88759052930E+00  0.88000000000E+00 0.  1.
        -11    1    4    4    0    0  0.18365600157E-01  0.66307992250E-01 -0.86758777454E-01  0.11073116856E+00  0.51100000000E-03 0.  1.
         11    1    4    4    0    0  0.10289258503E-01 -0.21444185308E-03 -0.20910119433E-01  0.23311135570E-01  0.51100000000E-03 0. -1.
</event>
<event>
 8    1  0.1170483E+005  0.1043930E+01  0.7957747E-01            NaN
         13   -1    0    0    0    0  0.00000000000E+00  0.00000000000E+00  0.74505805969E-08  0.10566000000E+00  0.10566000000E+00 0.  1.
     999900   -1    0    0    0    0 -0.00000000000E+00 -0.00000000000E+00 -0.74505805969E-08  0.93827000000E+00  0.93827000000E+00 0. -1.
     999902    2    1    2    0    0 -0.11818193534E-02  0.23364025028E-01 -0.35934405287E-02  0.10202617264E+01  0.10199871583E+01 0.  0.
     999903    2    3    3    0    0  0.10594723845E+00 -0.70347616554E-01  0.17748166761E-02  0.12880935804E+00  0.20373911133E-01 0.  0.
         14    1    1    2    0    0  0.11818193534E-02 -0.23364025028E-01  0.35934405287E-02  0.23668273645E-01  0.00000000000E+00 0.  1.
     999901    1    3    3    0    0 -0.10712905780E+00  0.93711641582E-01 -0.53682572049E-02  0.89145236832E+00  0.88000000000E+00 0. -1.
        -11    1    4    4    0    0  0.58636457196E-01 -0.46669125582E-01  0.87145725627E-02  0.75448302109E-01  0.51100000000E-03 0. -1.
         11    1    4    4    0    0  0.47310781249E-01 -0.23678490971E-01 -0.69397558866E-02  0.53361055929E-01  0.51100000000E-03 0.  1.
</event>
<event>
 8    1  0.1170483E+005  0.1043930E+01  0.7957747E-01            NaN
         13   -1    0    0    0    0  0.00000000000E+00  0.00000000000E+00  0.74505805969E-08  0.10566000000E+00  0.10566000000E+00 0.  1.
     999900   -1    0    0    0    0 -0.00000000000E+00 -0.00000000000E+00 -0.74505805969E-08  0.93827000000E+00  0.93827000000E+00 0.  1.
     999902    2    1    2    0    0 -0.13703069003E-01 -0.16975646663E-01 -0.94299219546E-02  0.10201630038E+01  0.10198861134E+01 0.  0.
     999903    2    3    3    0    0 -0.11468330255E+00 -0.62745522409E-01  0.12649734430E-01  0.13293169219E+00  0.20531890819E-01 0.  0.
         14    1    1    2    0    0  0.13703069003E-01  0.16975646663E-01  0.94299219546E-02  0.23766996188E-01  0.00000000000E+00 0. -1.
     999901    1    3    3    0    0  0.10098023355E+00  0.45769875746E-01 -0.22079656384E-01  0.88723131162E+00  0.88000000000E+00 0. -1.
        -11    1    4    4    0    0 -0.20104876843E-01 -0.20089219148E-01  0.53148861064E-02  0.28918712526E-01  0.51100000000E-03 0.  1.
         11    1    4    4    0    0 -0.94578425712E-01 -0.42656303261E-01  0.73348483233E-02  0.10401297967E+00  0.51100000000E-03 0. -1.
</event>
<event>
 8    1  0.1170483E+005  0.1043930E+01  0.7957747E-01            NaN
         13   -1    0    0    0    0  0.00000000000E+00  0.00000000000E+00  0.74505805969E-08  0.10566000000E+00  0.10566000000E+00 0. -1.
     999900   -1    0    0    0    0 -0.00000000000E+00 -0.00000000000E+00 -0.74505805969E-08  0.93827000000E+00  0.93827000000E+00 0. -1.
     999902    2    1    2    0    0 -0.13495815879E-01  0.11807376025E-01 -0.14944721123E-01  0.10205869954E+01  0.10203200083E+01 0.  0.
     999903    2    3    3    0    0 -0.51970197284E-02  0.35939588019E-01 -0.12642862971E+00  0.13318635557E+00  0.20874479637E-01 0.  0.
         14    1    1    2    0    0  0.13495815879E-01 -0.11807376025E-01  0.14944721123E-01  0.23343004611E-01  0.00000000000E+00 0. -1.
     999901    1    3    3    0    0 -0.82987961509E-02 -0.24132211994E-01  0.11148390858E+00  0.88740063982E+00  0.88000000000E+00 0.  1.
        -11    1    4    4    0    0 -0.10835697515E-01  0.10035075115E-01 -0.35038819192E-01  0.38027556384E-01  0.51100000000E-03 0.  1.
         11    1    4    4    0    0  0.56386777867E-02  0.25904512904E-01 -0.91389810515E-01  0.95158799188E-01  0.51100000000E-03 0. -1.
</event>
<event>
 8    1  0.1170483E+005  0.1043930E+01  0.7957747E-01            NaN
         13   -1    0    0    0    0  0.00000000000E+00  0.00000000000E+00  0.74505805969E-08  0.10566000000E+00  0.10566000000E+00 0. -1.
     999900   -1    0    0    0    0 -0.00000000000E+00 -0.00000000000E+00 -0.74505805969E-08  0.93827000000E+00  0.93827000000E+00 0. -1.
     999902    2    1    2    0    0 -0.32781000631E-02 -0.22980206246E-01 -0.23560015321E-02  0.10205979070E+01  0.10203311724E+01 0.  0.
     999903    2    3    3    0    0  0.84482320919E-01  0.80124916424E-01  0.50616377007E-01  0.12866818407E+00  0.20885861024E-01 0.  0.
         14    1    1    2    0    0  0.32781000631E-02  0.22980206246E-01  0.23560015321E-02  0.23332092969E-01  0.00000000000E+00 0.  1.
     999901    1    3    3    0    0 -0.87760420982E-01 -0.10310512267E+00 -0.52972378540E-01  0.89192972296E+00  0.88000000000E+00 0. -1.
        -11    1    4    4    0    0  0.24907440593E-01  0.25176147962E-01  0.26089306684E-01  0.43990136024E-01  0.51100000000E-03 0.  1.
         11    1    4    4    0    0  0.59574880326E-01  0.54948768462E-01  0.24527070323E-01  0.84678048046E-01  0.51100000000E-03 0. -1.
</event>
<event>
 7    1  0.1170483E+005  0.1043930E+01  0.7957747E-01            NaN
         13   -1    0    0    0    0  0.00000000000E+00  0.00000000000E+00  0.74505805969E-08  0.10566000000E+00  0.10566000000E+00 0.  1.
     999900   -1    0    0    0    0 -0.00000000000E+00 -0.00000000000E+00 -0.74505805969E-08  0.93827000000E+00  0.93827000000E+00 0.  1.
     999903    2    1    2    0    0  0.63632585180E-01 -0.39013146064E-01 -0.96293864085E-02  0.76636738212E-01  0.14468348169E-01 0.  0.
         14    1    1    2    0    0  0.36588524291E-01  0.65491004761E-01  0.30453712927E-01  0.80964315877E-01  0.00000000000E+00 0.  1.
     999901    1    1    2    0    0 -0.10022110947E+00 -0.26477858697E-01 -0.20824326518E-01  0.88632894591E+00  0.88000000000E+00 0. -1.
        -11    1    3    3    0    0  0.30981197833E-01 -0.24230861313E-01  0.67172595234E-03  0.39340584590E-01  0.51100000000E-03 0. -1.
         11    1    3    3    0    0  0.32651387347E-01 -0.14782284751E-01 -0.10301112361E-01  0.37296153622E-01  0.51100000000E-03 0.  1.
</event>
<event>
 8    1  0.1170483E+005  0.1043930E+01  0.7957747E-01            NaN
         13   -1    0    0    0    0  0.00000000000E+00  0.00000000000E+00  0.74505805969E-08  0.10566000000E+00  0.10566000000E+00 0. -1.
     999900   -1    0    0    0    0 -0.00000000000E+00 -0.00000000000E+00 -0.74505805969E-08  0.93827000000E+00  0.93827000000E+00 0. -1.
     999902    2    1    2    0    0  0.93509978788E-02 -0.19345643360E-01  0.33832034285E-02  0.10221781922E+01  0.10219467283E+01 0.  0.
     999903    2    3    3    0    0 -0.11913875719E+00 -0.26384896169E-01  0.45685071199E-01  0.13181387558E+00  0.19939053534E-01 0.  0.
         14    1    1    2    0    0 -0.93509978788E-02  0.19345643360E-01 -0.33832034285E-02  0.21751807828E-01  0.00000000000E+00 0. -1.
     999901    1    3    3    0    0  0.12848975507E+00  0.70392528092E-02 -0.42301867770E-01  0.89036431659E+00  0.88000000000E+00 0. -1.
        -11    1    4    4    0    0 -0.63370702386E-01 -0.60223660875E-02  0.17074502432E-01  0.65908380108E-01  0.51100000000E-03 0. -1.
         11    1    4    4    0    0 -0.55768054802E-01 -0.20362530082E-01  0.28610568767E-01  0.65905495476E-01  0.51100000000E-03 0.  1.
</event>
<event>
 8    1  0.1170483E+005  0.1043930E+01  0.7957747E-01            NaN
         13   -1    0    0    0    0  0.00000000000E+00  0.00000000000E+00  0.74505805969E-08  0.10566000000E+00  0.10566000000E+00 0. -1.
     999900   -1    0    0    0    0 -0.00000000000E+00 -0.00000000000E+00 -0.74505805969E-08  0.93827000000E+00  0.93827000000E+00 0. -1.
     999902    2    1    2    0    0  0.18644276493E-01  0.50218378455E-02  0.14273399829E-01  0.10199183811E+01  0.10196356929E+01 0.  0.
     999903    2    3    3    0    0 -0.53028309457E-01  0.58866325242E-01  0.10221075403E+00  0.13100378074E+00  0.20921435858E-01 0.  0.
         14    1    1    2    0    0 -0.18644276493E-01 -0.50218378455E-02 -0.14273399829E-01  0.24011618937E-01  0.00000000000E+00 0.  1.
     999901    1    3    3    0    0  0.71672585951E-01 -0.53844487396E-01 -0.87937354198E-01  0.88891460032E+00  0.88000000000E+00 0. -1.
        -11    1    4    4    0    0 -0.77773301234E-02  0.95496995633E-02  0.30565387839E-01  0.32957361550E-01  0.51100000000E-03 0. -1.
         11    1    4    4    0    0 -0.45250979334E-01  0.49316625678E-01  0.71645366189E-01  0.98046419191E-01  0.51100000000E-03 0.  1.
</event>
<event>
 8    1  0.1170483E+005  0.1043930E+01  0.7957747E-01            NaN
         13   -1    0    0    0    0  0.00000000000E+00  0.00000000000E+00  0.74505805969E-08  0.10566000000E+00  0.10566000000E+00 0. -1.
     999900   -1    0    0    0    0 -0.00000000000E+00 -0.00000000000E+00 -0.74505805969E-08  0.93827000000E+00  0.93827000000E+00 0. -1.
     999902    2    1    2    0    0  0.12501093138E-01 -0.13460202490E-01 -0.16388326725E-01  0.10193122902E+01  0.10190149721E+01 0.  0.
     999903    2    3    3    0    0  0.71151941680E-01  0.10241545469E+00 -0.30357681906E-01  0.12967065855E+00  0.18476110924E-01 0.  0.
         14    1    1    2    0    0 -0.12501093138E-01  0.13460202490E-01  0.16388326725E-01  0.24617709755E-01  0.00000000000E+00 0. -1.
     999901    1    3    3    0    0 -0.58650848541E-01 -0.11587565718E+00  0.13969355181E-01  0.88964163169E+00  0.88000000000E+00 0.  1.
        -11    1    4    4    0    0  0.11334300927E-01  0.26428900607E-01 -0.12349883474E-01  0.31300701392E-01  0.51100000000E-03 0.  1.
         11    1    4    4    0    0  0.59817640753E-01  0.75986554079E-01 -0.18007798432E-01  0.98369957159E-01  0.51100000000E-03 0. -1.
</event>
<event>
 8    1  0.1170483E+005  0.1043930E+01  0.7957747E-01            NaN
         13   -1    0    0    0    0  0.00000000000E+00  0.00000000000E+00  0.74505805969E-08  0.10566000000E+00  0.10566000000E+00 0.  1.
     999900   -1    0    0    0    0 -0.00000000000E+00 -0.00000000000E+00 -0.74505805969E-08  0.93827000000E+00  0.93827000000E+00 0. -1.
     999902    2    1    2    0    0  0.75183270592E-03 -0.22553941527E-01  0.24844619444E-02  0.10212271790E+01  0.10209747955E+01 0.  0.
     999903    2    3    3    0    0 -0.34045725276E-01  0.35046294524E-01 -0.11904103238E+00  0.13033038193E+00  0.20685427100E-01 0.  0.
         14    1    1    2    0    0 -0.75183270592E-03  0.22553941527E-01 -0.24844619444E-02  0.22702821014E-01  0.00000000000E+00 0.  1.
     999901    1    3    3    0    0  0.34797557982E-01 -0.57600236051E-01  0.12152549433E+00  0.89089679706E+00  0.88000000000E+00 0.  1.
        -11    1    4    4    0    0 -0.45519361573E-02  0.13723354099E-01 -0.52820607161E-01  0.54766123036E-01  0.51100000000E-03 0. -1.
         11    1    4    4    0    0 -0.29493789119E-01  0.21322940425E-01 -0.66220425219E-01  0.75564258894E-01  0.51100000000E-03 0.  1.
</event>
<event>
 8    1  0.1170483E+005  0.1043930E+01  0.7957747E-01            NaN
         13   -1    0    0    0    0  0.00000000000E+00  0.00000000000E+00  0.74505805969E-08  0.10566000000E+00  0.10566000000E+00 0.  1.
     999900   -1    0    0    0    0 -0.00000000000E+00 -0.00000000000E+00 -0.74505805969E-08  0.93827000000E+00  0.93827000000E+00 0. -1.
     999902    2    1    2    0    0 -0.10196541423E-01 -0.20597991292E-01 -0.49075555766E-02  0.10204282808E+01  0.10201576082E+01 0.  0.
     999903    2    3    3    0    0  0.88851534061E-01  0.87442066977E-01 -0.21352703647E-01  0.12815387329E+00  0.20658342254E-01 0.  0.
         14    1    1    2    0    0  0.10196541423E-01  0.20597991292E-01  0.49075555766E-02  0.23501719172E-01  0.00000000000E+00 0.  1.
     999901    1    3    3    0    0 -0.99048075484E-01 -0.10804005827E+00  0.16445148071E-01  0.89227440754E+00  0.88000000000E+00 0.  1.
        -11    1    4    4    0    0  0.51992156287E-01  0.54241100240E-01 -0.22807964752E-01  0.78522262115E-01  0.51100000000E-03 0.  1.
         11    1    4    4    0    0  0.36859377774E-01  0.33200966737E-01  0.14552611049E-02  0.49631611177E-01  0.51100000000E-03 0. -1.
</event>
<event>
 8    1  0.1170483E+005  0.1043930E+01  0.7957747E-01            NaN
         13   -1    0    0    0    0  0.00000000000E+00  0.00000000000E+00  0.74505805969E-08  0.10566000000E+00  0.10566000000E+00 0.  1.
     999900   -1    0    0    0    0 -0.00000000000E+00 -0.00000000000E+00 -0.74505805969E-08  0.93827000000E+00  0.93827000000E+00 0.  1.
     999902    2    1    2    0    0  0.34945239139E-02  0.23431404410E-01  0.13605578477E-02  0.10202004082E+01  0.10199243988E+01 0.  0.
     999903    2    3    3    0    0 -0.25036013624E-01 -0.54386335846E-01 -0.11245260196E+00  0.12900849417E+00  0.20320639123E-01 0.  0.
         14    1    1    2    0    0 -0.34945239139E-02 -0.23431404410E-01 -0.13605578477E-02  0.23729591814E-01  0.00000000000E+00 0.  1.
     999901    1    3    3    0    0  0.28530537538E-01  0.77817740256E-01  0.11381315981E+00  0.89119191402E+00  0.88000000000E+00 0. -1.
        -11    1    4    4    0    0  0.34451095674E-02 -0.72942263560E-02 -0.17044582663E-01  0.18864077958E-01  0.51100000000E-03 0.  1.
         11    1    4    4    0    0 -0.28481123192E-01 -0.47092109490E-01 -0.95408019297E-01  0.11014441621E+00  0.51100000000E-03 0. -1.
</event>
<event>
 8    1  0.1170483E+005  0.1043930E+01  0.7957747E-01            NaN
         13   -1    0    0    0    0  0.00000000000E+00  0.00000000000E+00  0.74505805969E-08  0.10566000000E+00  0.10566000000E+00 0.  1.
     999900   -1    0    0    0    0 -0.00000000000E+00 -0.00000000000E+00 -0.74505805969E-08  0.93827000000E+00  0.93827000000E+00 0.  1.
     999902    2    1    2    0    0  0.12449793385E-01 -0.53973296284E-02 -0.19648836762E-01  0.10200510279E+01  0.10197714912E+01 0.  0.
     999903    2    3    3    0    0  0.48056602223E-02 -0.12339494122E+00  0.36499670430E-01  0.13036876778E+00  0.20356418716E-01 0.  0.
         14    1    1    2    0    0 -0.12449793385E-01  0.53973296284E-02  0.19648836762E-01  0.23878972100E-01  0.00000000000E+00 0.  1.
     999901    1    3    3    0    0  0.76441331631E-02  0.11799761159E+00 -0.56148507192E-01  0.88968226012E+00  0.88000000000E+00 0. -1.
        -11    1    4    4    0    0 -0.40169802368E-02 -0.88594797075E-01  0.20311875363E-01  0.90983556760E-01  0.51100000000E-03 0. -1.
         11    1    4    4    0    0  0.88226404590E-02 -0.34800144142E-01  0.16187795066E-01  0.39385211019E-01  0.51100000000E-03 0.  1.
</event>
<event>
 8    1  0.1170483E+005  0.1043930E+01  0.7957747E-01            NaN
         13   -1    0    0    0    0  0.00000000000E+00  0.00000000000E+00  0.74505805969E-08  0.10566000000E+00  0.10566000000E+00 0. -1.
     999900   -1    0    0    0    0 -0.00000000000E+00 -0.00000000000E+00 -0.74505805969E-08  0.93827000000E+00  0.93827000000E+00 0.  1.
     999902    2    1    2    0    0  0.16703414418E-01  0.15228674167E-01 -0.67453654058E-02  0.10203415171E+01  0.10200688188E+01 0.  0.
     999903    2    3    3    0    0  0.11664354081E+00  0.60706675468E-01 -0.10878857455E-01  0.13350818260E+00  0.20373247670E-01 0.  0.
         14    1    1    2    0    0 -0.16703414418E-01 -0.15228674167E-01  0.67453654058E-02  0.23588482880E-01  0.00000000000E+00 0. -1.
     999901    1    3    3    0    0 -0.99940126396E-01 -0.45478001301E-01  0.41334920489E-02  0.88683333452E+00  0.88000000000E+00 0. -1.
        -11    1    4    4    0    0  0.81132323649E-01  0.51250507165E-01 -0.35408868913E-02  0.96030554650E-01  0.51100000000E-03 0. -1.
         11    1    4    4    0    0  0.35511217165E-01  0.94561683031E-02 -0.73379705634E-02  0.37477627947E-01  0.51100000000E-03 0.  1.
</event>
<event>
 8    1  0.1170483E+005  0.1043930E+01  0.7957747E-01            NaN
         13   -1    0    0    0    0  0.00000000000E+00  0.00000000000E+00  0.74505805969E-08  0.10566000000E+00  0.10566000000E+00 0. -1.
     999900   -1    0    0    0    0 -0.00000000000E+00 -0.00000000000E+00 -0.74505805969E-08  0.93827000000E+00  0.93827000000E+00 0. -1.
     999902    2    1    2    0    0  0.21959273966E-02  0.55173159434E-02  0.22209486885E-01  0.10209403462E+01  0.10206814716E+01 0.  0.
     999903    2    3    3    0    0  0.12841020800E-01  0.31725438021E-01  0.12823207398E+00  0.13412527383E+00  0.19357919606E-01 0.  0.
         14    1    1    2    0    0 -0.21959273966E-02 -0.55173159434E-02 -0.22209486885E-01  0.22989653761E-01  0.00000000000E+00 0.  1.
     999901    1    3    3    0    0 -0.10645093403E-01 -0.26208122078E-01 -0.10602258709E+00  0.88681507241E+00  0.88000000000E+00 0. -1.
        -11    1    4    4    0    0  0.80279365647E-02  0.24937593763E-02  0.44883431291E-01  0.45666728882E-01  0.51100000000E-03 0.  1.
         11    1    4    4    0    0  0.48130842351E-02  0.29231678645E-01  0.83348642684E-01  0.88458544949E-01  0.51100000000E-03 0. -1.
</event>
<event>
 8    1  0.1170483E+005  0.1043930E+01  0.7957747E-01            NaN
         13   -1    0    0    0    0  0.00000000000E+00  0.00000000000E+00  0.74505805969E-08  0.10566000000E+00  0.10566000000E+00 0.  1.
     999900   -1    0    0    0    0 -0.00000000000E+00 -0.00000000000E+00 -0.74505805969E-08  0.93827000000E+00  0.93827000000E+00 0. -1.
     999902    2    1    2    0    0  0.15096256787E-01  0.12508577711E-01 -0.13149855187E-01  0.10203232176E+01  0.10200500910E+01 0.  0.
     999903    2    3    3    0    0 -0.71940789817E-01 -0.79115693086E-01  0.64842581893E-01  0.12788090866E+00  0.26724450271E-01 0.  0.
         14    1    1    2    0    0 -0.15096256787E-01 -0.12508577711E-01  0.13149855187E-01  0.23606782431E-01  0.00000000000E+00 0.  1.
     999901    1    3    3    0    0  0.87037046604E-01  0.91624270797E-01 -0.77992437079E-01  0.89244230890E+00  0.88000000000E+00 0. -1.
        -11    1    4    4    0    0 -0.53259531089E-01 -0.73275456533E-01  0.54843583030E-01  0.10589593903E+00  0.51100000000E-03 0. -1.
         11    1    4    4    0    0 -0.18681258728E-01 -0.58402365527E-02  0.99989988629E-02  0.21984969637E-01  0.51100000000E-03 0.  1.
</event>
<event>
 8    1  0.1170483E+005  0.1043930E+01  0.7957747E-01            NaN
         13   -1    0    0    0    0  0.00000000000E+00  0.00000000000E+00  0.74505805969E-08  0.10566000000E+00  0.10566000000E+00 0. -1.
     999900   -1    0    0    0    0 -0.00000000000E+00 -0.00000000000E+00 -0.74505805969E-08  0.93827000000E+00  0.93827000000E+00 0.  1.
     999902    2    1    2    0    0 -0.11843979490E-01  0.20630474394E-01  0.64994137632E-02  0.10192695316E+01  0.10189711671E+01 0.  0.
     999903    2    3    3    0    0 -0.33086811187E-01 -0.41273242987E-03 -0.12327074576E+00  0.12925022349E+00  0.20372434519E-01 0.  0.
         14    1    1    2    0    0  0.11843979490E-01 -0.20630474394E-01 -0.64994137632E-02  0.24660468430E-01  0.00000000000E+00 0. -1.
     999901    1    3    3    0    0  0.21242831697E-01  0.21043206824E-01  0.12977015953E+00  0.89001930808E+00  0.88000000000E+00 0. -1.
        -11    1    4    4    0    0 -0.11163593050E-01  0.34419188080E-02 -0.77208178952E-01  0.78088645993E-01  0.51100000000E-03 0. -1.
         11    1    4    4    0    0 -0.21923218137E-01 -0.38546512379E-02 -0.46062566812E-01  0.51161577497E-01  0.51100000000E-03 0.  1.
</event>
<event>
 8    1  0.1170483E+005  0.1043930E+01  0.7957747E-01            NaN
         13   -1    0    0    0    0  0.00000000000E+00  0.00000000000E+00  0.74505805969E-08  0.10566000000E+00  0.10566000000E+00 0. -1.
     999900   -1    0    0    0    0 -0.00000000000E+00 -0.00000000000E+00 -0.74505805969E-08  0.93827000000E+00  0.93827000000E+00 0.  1.
     999902    2    1    2    0    0  0.94311227883E-02  0.12666816778E-01 -0.17471743687E-01  0.10203788609E+01  0.10201070354E+01 0.  0.
     999903    2    3    3    0    0  0.77308295333E-01  0.83239363001E-01  0.62908550412E-01  0.13130699290E+00  0.19459614315E-01 0.  0.
         14    1    1    2    0    0 -0.94311227883E-02 -0.12666816778E-01  0.17471743687E-01  0.23551139076E-01  0.00000000000E+00 0. -1.
     999901    1    3    3    0    0 -0.67877172545E-01 -0.70572546223E-01 -0.80380294099E-01  0.88907186802E+00  0.88000000000E+00 0.  1.
        -11    1    4    4    0    0  0.19190464117E-01  0.10780966330E-01  0.81336849257E-02  0.23471708491E-01  0.51100000000E-03 0.  1.
         11    1    4    4    0    0  0.58117831216E-01  0.72458396670E-01  0.54774865486E-01  0.10783528441E+00  0.51100000000E-03 0. -1.
</event>
<event>
 8    1  0.1170483E+005  0.1043930E+01  0.7957747E-01            NaN
         13   -1    0    0    0    0  0.00000000000E+00  0.00000000000E+00  0.74505805969E-08  0.10566000000E+00  0.10566000000E+00 0. -1.
     999900   -1    0    0    0    0 -0.00000000000E+00 -0.00000000000E+00 -0.74505805969E-08  0.93827000000E+00  0.93827000000E+00 0.  1.
     999902    2    1    2    0    0  0.13881368141E-01  0.19712511330E-01 -0.29648731529E-02  0.10196387267E+01  0.10193493352E+01 0.  0.
     999903    2    3    3    0    0  0.26411017675E-01 -0.57940705059E-01 -0.11109844663E+00  0.12953767412E+00  0.19557019603E-01 0.  0.
         14    1    1    2    0    0 -0.13881368141E-01 -0.19712511330E-01  0.29648731529E-02  0.24291273273E-01  0.00000000000E+00 0.  1.
     999901    1    3    3    0    0 -0.12529649534E-01  0.77653216390E-01  0.10813357348E+00  0.89010105260E+00  0.88000000000E+00 0. -1.
        -11    1    4    4    0    0  0.11790878894E-01 -0.46125865798E-01 -0.75026840578E-01  0.88858923293E-01  0.51100000000E-03 0.  1.
         11    1    4    4    0    0  0.14620138781E-01 -0.11814839261E-01 -0.36071606054E-01  0.40678750830E-01  0.51100000000E-03 0. -1.
</event>
<event>
 8    1  0.1170483E+005  0.1043930E+01  0.7957747E-01            NaN
         13   -1    0    0    0    0  0.00000000000E+00  0.00000000000E+00  0.74505805969E-08  0.10566000000E+00  0.10566000000E+00 0. -1.
     999900   -1    0    0    0    0 -0.00000000000E+00 -0.00000000000E+00 -0.74505805969E-08  0.93827000000E+00  0.93827000000E+00 0.  1.
     999902    2    1    2    0    0  0.61832261974E-02  0.12828096445E-01 -0.19022430193E-01  0.10201677359E+01  0.10198909570E+01 0.  0.
     999903    2    3    3    0    0 -0.10265511874E+00 -0.62657572163E-01 -0.44889669742E-01  0.12987958840E+00  0.19737788143E-01 0.  0.
         14    1    1    2    0    0 -0.61832261974E-02 -0.12828096445E-01  0.19022430193E-01  0.23762264097E-01  0.00000000000E+00 0. -1.
     999901    1    3    3    0    0  0.10883834494E+00  0.75485668608E-01  0.25867239549E-01  0.89028814750E+00  0.88000000000E+00 0.  1.
        -11    1    4    4    0    0 -0.29432840432E-01 -0.15832949080E-01 -0.34866141143E-02  0.33606427532E-01  0.51100000000E-03 0. -1.
         11    1    4    4    0    0 -0.73222278312E-01 -0.46824623083E-01 -0.41403055627E-01  0.96273160872E-01  0.51100000000E-03 0.  1.
</event>
<event>
 8    1  0.1170483E+005  0.1043930E+01  0.7957747E-01            NaN
         13   -1    0    0    0    0  0.00000000000E+00  0.00000000000E+00  0.74505805969E-08  0.10566000000E+00  0.10566000000E+00 0. -1.
     999900   -1    0    0    0    0 -0.00000000000E+00 -0.00000000000E+00 -0.74505805969E-08  0.93827000000E+00  0.93827000000E+00 0. -1.
     999902    2    1    2    0    0  0.16890031258E-01 -0.29992754213E-02  0.16642640556E-01  0.10200292407E+01  0.10197491876E+01 0.  0.
     999903    2    3    3    0    0 -0.32167286383E-01 -0.80034700056E-01 -0.93239329910E-01  0.12850519479E+00  0.19486531733E-01 0.  0.
         14    1    1    2    0    0 -0.16890031258E-01  0.29992754213E-02 -0.16642640556E-01  0.23900759269E-01  0.00000000000E+00 0.  1.
     999901    1    3    3    0    0  0.49057317642E-01  0.77035424635E-01  0.10988197047E+00  0.89152404594E+00  0.88000000000E+00 0.  1.
        -11    1    4    4    0    0  0.49793272792E-03 -0.17140427977E-01 -0.13564169895E-01  0.21869843030E-01  0.51100000000E-03 0. -1.
         11    1    4    4    0    0 -0.32665219111E-01 -0.62894272079E-01 -0.79675160015E-01  0.10663535176E+00  0.51100000000E-03 0.  1.
</event>
<event>
 8    1  0.1170483E+005  0.1043930E+01  0.7957747E-01            NaN
         13   -1    0    0    0    0  0.00000000000E+00  0.00000000000E+00  0.74505805969E-08  0.10566000000E+00  0.10566000000E+00 0.  1.
     999900   -1    0    0    0    0 -0.00000000000E+00 -0.00000000000E+00 -0.74505805969E-08  0.93827000000E+00  0.93827000000E+00 0.  1.
     999902    2    1    2    0    0  0.17814164991E-01 -0.26246348939E-02 -0.13812794010E-01  0.10212358056E+01  0.10209836160E+01 0.  0.
     999903    2    3    3    0    0 -0.20290071822E-01  0.10579960642E+00  0.69104642021E-01  0.12989801877E+00  0.22199099075E-01 0.  0.
         14    1    1    2    0    0 -0.17814164991E-01  0.26246348939E-02  0.13812794010E-01  0.22694194434E-01  0.00000000000E+00 0.  1.
     999901    1    3    3    0    0  0.38104236813E-01 -0.10842424131E+00 -0.82917436031E-01  0.89133778679E+00  0.88000000000E+00 0. -1.
        -11    1    4    4    0    0 -0.24972173723E-01  0.87946383651E-01  0.55351950322E-01  0.10687504565E+00  0.51100000000E-03 0. -1.
         11    1    4    4    0    0  0.46821019010E-02  0.17853222766E-01  0.13752691699E-01  0.23022973120E-01  0.51100000000E-03 0.  1.
</event>
<event>
 8    1  0.1170483E+005  0.1043930E+01  0.7957747E-01            NaN
         13   -1    0    0    0    0  0.00000000000E+00  0.00000000000E+00  0.74505805969E-08  0.10566000000E+00  0.10566000000E+00 0.  1.
     999900   -1    0    0    0    0 -0.00000000000E+00 -0.00000000000E+00 -0.74505805969E-08  0.93827000000E+00  0.93827000000E+00 0. -1.
     999902    2    1    2    0    0 -0.18867390185E-01  0.14893290898E-01  0.30496073477E-02  0.10197000881E+01  0.10194121743E+01 0.  0.
     999903    2    3    3    0    0 -0.94041752627E-01 -0.62615182265E-01  0.63273872617E-01  0.13105746571E+00  0.20198120597E-01 0.  0.
         14    1    1    2    0    0  0.18867390185E-01 -0.14893290898E-01 -0.30496073477E-02  0.24229911910E-01  0.00000000000E+00 0.  1.
     999901    1    3    3    0    0  0.75174362442E-01  0.77508473163E-01 -0.60224265269E-01  0.88864262238E+00  0.88000000000E+00 0. -1.
        -11    1    4    4    0    0 -0.38533895535E-01 -0.14118548419E-01  0.23755524479E-01  0.47421309333E-01  0.51100000000E-03 0.  1.
         11    1    4    4    0    0 -0.55507857092E-01 -0.48496633846E-01  0.39518348138E-01  0.83636156379E-01  0.51100000000E-03 0. -1.
</event>
<event>
 8    1  0.1170483E+005  0.1043930E+01  0.7957747E-01            NaN
         13   -1    0    0    0    0  0.00000000000E+00  0.00000000000E+00  0.74505805969E-08  0.10566000000E+00  0.10566000000E+00 0.  1.
     999900   -1    0    0    0    0 -0.00000000000E+00 -0.00000000000E+00 -0.74505805969E-08  0.93827000000E+00  0.93827000000E+00 0.  1.
     999902    2    1    2    0    0 -0.14834866568E-01 -0.17025305826E-01  0.22425301474E-02  0.10212371984E+01  0.10209850401E+01 0.  0.
     999903    2    3    3    0    0  0.68332796745E-01  0.95993479025E-02  0.10895411147E+00  0.13049981058E+00  0.19942005013E-01 0.  0.
         14    1    1    2    0    0  0.14834866568E-01  0.17025305826E-01 -0.22425301474E-02  0.22692801635E-01  0.00000000000E+00 0.  1.
     999901    1    3    3    0    0 -0.83167663313E-01 -0.26624653729E-01 -0.10671158133E+00  0.89073738778E+00  0.88000000000E+00 0.  1.
        -11    1    4    4    0    0  0.44040310902E-01  0.42120799570E-02  0.85658935389E-01  0.96410605925E-01  0.51100000000E-03 0.  1.
         11    1    4    4    0    0  0.24292485842E-01  0.53872679456E-02  0.23295176084E-01  0.34089204656E-01  0.51100000000E-03 0. -1.
</event>
<event>
 8    1  0.1170483E+005  0.1043930E+01  0.7957747E-01            NaN
         13   -1    0    0    0    0  0.00000000000E+00  0.00000000000E+00  0.74505805969E-08  0.10566000000E+00  0.10566000000E+00 0. -1.
     999900   -1    0    0    0    0 -0.00000000000E+00 -0.00000000000E+00 -0.74505805969E-08  0.93827000000E+00  0.93827000000E+00 0.  1.
     999902    2    1    2    0    0 -0.19036018422E-01  0.16259860396E-01  0.85991711721E-02  0.10174592841E+01  0.10171148883E+01 0.  0.
     999903    2    3    3    0    0  0.55157046335E-01  0.11417798592E+00  0.10588420904E-01  0.12892311300E+00  0.20739869346E-01 0.  0.
         14    1    1    2    0    0  0.19036018422E-01 -0.16259860396E-01 -0.85991711721E-02  0.26470715938E-01  0.00000000000E+00 0.  1.
     999901    1    3    3    0    0 -0.74193064756E-01 -0.97918125523E-01 -0.19892497322E-02  0.88853617106E+00  0.88000000000E+00 0.  1.
        -11    1    4    4    0    0  0.44353056965E-01  0.10606703841E+00  0.94580953588E-02  0.11535652122E+00  0.51100000000E-03 0. -1.
         11    1    4    4    0    0  0.10803989369E-01  0.81109475091E-02  0.11303255455E-02  0.13566591784E-01  0.51100000000E-03 0.  1.
</event>
<event>
 8    1  0.1170483E+005  0.1043930E+01  0.7957747E-01            NaN
         13   -1    0    0    0    0  0.00000000000E+00  0.00000000000E+00  0.74505805969E-08  0.10566000000E+00  0.10566000000E+00 0.  1.
     999900   -1    0    0    0    0 -0.00000000000E+00 -0.00000000000E+00 -0.74505805969E-08  0.93827000000E+00  0.93827000000E+00 0.  1.
     999902    2    1    2    0    0 -0.21630663005E-01  0.49741680706E-02  0.81653846799E-02  0.10202804453E+01  0.10200063165E+01 0.  0.
     999903    2    3    3    0    0  0.75902117057E-01  0.82588476263E-01  0.62083700936E-01  0.12986267322E+00  0.20686715288E-01 0.  0.
         14    1    1    2    0    0  0.21630663005E-01 -0.49741680706E-02 -0.81653846799E-02  0.23649554690E-01  0.00000000000E+00 0.  1.
     999901    1    3    3    0    0 -0.97532780062E-01 -0.77614308192E-01 -0.53918316256E-01  0.89041777209E+00  0.88000000000E+00 0.  1.
        -11    1    4    4    0    0  0.27569233365E-01  0.21358017488E-01  0.28023825733E-01  0.44741741909E-01  0.51100000000E-03 0.  1.
         11    1    4    4    0    0  0.48332883691E-01  0.61230458775E-01  0.34059875203E-01  0.85120931313E-01  0.51100000000E-03 0. -1.
</event>
<event>
 8    1  0.1170483E+005  0.1043930E+01  0.7957747E-01            NaN
         13   -1    0    0    0    0  0.00000000000E+00  0.00000000000E+00  0.74505805969E-08  0.10566000000E+00  0.10566000000E+00 0.  1.
     999900   -1    0    0    0    0 -0.00000000000E+00 -0.00000000000E+00 -0.74505805969E-08  0.93827000000E+00  0.93827000000E+00 0.  1.
     999902    2    1    2    0    0  0.15395421588E-01 -0.14676944386E-01  0.78537343589E-02  0.10212559433E+01  0.10210042061E+01 0.  0.
     999903    2    3    3    0    0 -0.12280194905E+00  0.34014682712E-01 -0.41129418921E-02  0.12906056723E+00  0.20059820367E-01 0.  0.
         14    1    1    2    0    0 -0.15395421588E-01  0.14676944386E-01 -0.78537343589E-02  0.22674056667E-01  0.00000000000E+00 0. -1.
     999901    1    3    3    0    0  0.13819737063E+00 -0.48691627098E-01  0.11966676251E-01  0.89219537610E+00  0.88000000000E+00 0.  1.
        -11    1    4    4    0    0 -0.32045314264E-01  0.68382232909E-02 -0.96419234727E-02  0.34159790300E-01  0.51100000000E-03 0. -1.
         11    1    4    4    0    0 -0.90756634781E-01  0.27176459422E-01  0.55289815806E-02  0.94900776930E-01  0.51100000000E-03 0.  1.
</event>
<event>
 8    1  0.1170483E+005  0.1043930E+01  0.7957747E-01            NaN
         13   -1    0    0    0    0  0.00000000000E+00  0.00000000000E+00  0.74505805969E-08  0.10566000000E+00  0.10566000000E+00 0.  1.
     999900   -1    0    0    0    0 -0.00000000000E+00 -0.00000000000E+00 -0.74505805969E-08  0.93827000000E+00  0.93827000000E+00 0. -1.
     999902    2    1    2    0    0 -0.10785839935E-02 -0.93402993350E-02 -0.21303108762E-01  0.10206442323E+01  0.10203785679E+01 0.  0.
     999903    2    3    3    0    0 -0.80560242520E-01 -0.92843769344E-01 -0.46150430962E-01  0.13277737686E+00  0.19749717635E-01 0.  0.
         14    1    1    2    0    0  0.10785839935E-02  0.93402993350E-02  0.21303108762E-01  0.23285767714E-01  0.00000000000E+00 0.  1.
     999901    1    3    3    0    0  0.79481658526E-01  0.83503470009E-01  0.24847322199E-01  0.88786685543E+00  0.88000000000E+00 0.  1.
        -11    1    4    4    0    0 -0.61878713718E-02 -0.17713801401E-01 -0.63097800640E-02  0.19802599770E-01  0.51100000000E-03 0.  1.
         11    1    4    4    0    0 -0.74372371148E-01 -0.75129967943E-01 -0.39840650898E-01  0.11297477709E+00  0.51100000000E-03 0. -1.
</event>
<event>
 7    1  0.1170483E+005  0.1043930E+01  0.7957747E-01            NaN
         13   -1    0    0    0    0  0.00000000000E+00  0.00000000000E+00  0.74505805969E-08  0.10566000000E+00  0.10566000000E+00 0. -1.
     999900   -1    0    0    0    0 -0.00000000000E+00 -0.00000000000E+00 -0.74505805969E-08  0.93827000000E+00  0.93827000000E+00 0. -1.
     999903    2    1    2    0    0  0.74937548394E-01  0.14109668303E-01  0.77545967646E-01  0.11035067852E+00  0.18686258414E-01 0.  0.
         14    1    1    2    0    0 -0.37458994490E-01  0.17650036223E-02 -0.35495556366E-01  0.51635511305E-01  0.00000000000E+00 0. -1.
     999901    1    1    2    0    0 -0.37478553903E-01 -0.15874671925E-01 -0.42050411281E-01  0.88194381017E+00  0.88000000000E+00 0. -1.
        -11    1    3    3    0    0  0.19676404471E-01  0.81179526012E-02  0.12121315745E-01  0.24499989055E-01  0.51100000000E-03 0. -1.
         11    1    3    3    0    0  0.55261143923E-01  0.59917157014E-02  0.65424651901E-01  0.85850689468E-01  0.51100000000E-03 0.  1.
</event>
<event>
 8    1  0.1170483E+005  0.1043930E+01  0.7957747E-01            NaN
         13   -1    0    0    0    0  0.00000000000E+00  0.00000000000E+00  0.74505805969E-08  0.10566000000E+00  0.10566000000E+00 0.  1.
     999900   -1    0    0    0    0 -0.00000000000E+00 -0.00000000000E+00 -0.74505805969E-08  0.93827000000E+00  0.93827000000E+00 0. -1.
     999902    2    1    2    0    0 -0.10562028254E-01 -0.20319206793E-01 -0.54511209390E-02  0.10203897934E+01  0.10201182232E+01 0.  0.
     999903    2    3    3    0    0 -0.36123397107E-01 -0.39041795412E-01  0.11824211347E+00  0.13117444543E+00  0.19909197046E-01 0.  0.
         14    1    1    2    0    0  0.10562028254E-01  0.20319206793E-01  0.54511209390E-02  0.23540206562E-01  0.00000000000E+00 0.  1.
     999901    1    3    3    0    0  0.25561368853E-01  0.18722588620E-01 -0.12369323441E+00  0.88921534801E+00  0.88000000000E+00 0. -1.
        -11    1    4    4    0    0 -0.23596698215E-01 -0.31269168387E-01  0.64692879911E-01  0.75630647825E-01  0.51100000000E-03 0. -1.
         11    1    4    4    0    0 -0.12526698892E-01 -0.77726270250E-02  0.53549233559E-01  0.55543797600E-01  0.51100000000E-03 0.  1.
</event>
<event>
 8    1  0.1170483E+005  0.1043930E+01  0.7957747E-01            NaN
         13   -1    0    0    0    0  0.00000000000E+00  0.00000000000E+00  0.74505805969E-08  0.10566000000E+00  0.10566000000E+00 0.  1.
     999900   -1    0    0    0    0 -0.00000000000E+00 -0.00000000000E+00 -0.74505805969E-08  0.93827000000E+00  0.93827000000E+00 0.  1.
     999902    2    1    2    0    0 -0.15323769195E-02 -0.21673278563E-01  0.17511887851E-01  0.10160239899E+01  0.10156406858E+01 0.  0.
     999903    2    3    3    0    0 -0.12103059806E+00 -0.36376830313E-01  0.10412169015E-01  0.12779742800E+00  0.15877338866E-01 0.  0.
         14    1    1    2    0    0  0.15323769195E-02  0.21673278563E-01 -0.17511887851E-01  0.27906010084E-01  0.00000000000E+00 0.  1.
     999901    1    3    3    0    0  0.11949822114E+00  0.14703551750E-01  0.70997188363E-02  0.88822656192E+00  0.88000000000E+00 0.  1.
        -11    1    4    4    0    0 -0.69255498312E-01 -0.28493850479E-01  0.87207118161E-02  0.75395858621E-01  0.51100000000E-03 0. -1.
         11    1    4    4    0    0 -0.51775099746E-01 -0.78829798336E-02  0.16914571988E-02  0.52401569377E-01  0.51100000000E-03 0.  1.
</event>
<event>
 8    1  0.1170483E+005  0.1043930E+01  0.7957747E-01            NaN
         13   -1    0    0    0    0  0.00000000000E+00  0.00000000000E+00  0.74505805969E-08  0.10566000000E+00  0.10566000000E+00 0.  1.
     999900   -1    0    0    0    0 -0.00000000000E+00 -0.00000000000E+00 -0.74505805969E-08  0.93827000000E+00  0.93827000000E+00 0.  1.
     999902    2    1    2    0    0  0.21229684045E-01 -0.45871192092E-02 -0.47561496494E-02  0.10216957447E+01  0.10214537839E+01 0.  0.
     999903    2    3    3    0    0  0.33368426734E-01  0.99092734756E-01  0.77584408577E-01  0.13170876241E+00  0.19875503959E-01 0.  0.
         14    1    1    2    0    0 -0.21229684045E-01  0.45871192092E-02  0.47561496494E-02  0.22234255255E-01  0.00000000000E+00 0.  1.
     999901    1    3    3    0    0 -0.12138742689E-01 -0.10367985397E+00 -0.82340558227E-01  0.88998698233E+00  0.88000000000E+00 0.  1.
        -11    1    4    4    0    0  0.21110498519E-01  0.46597672366E-01  0.27298174837E-01  0.57986616457E-01  0.51100000000E-03 0.  1.
         11    1    4    4    0    0  0.12257928215E-01  0.52495062390E-01  0.50286233740E-01  0.73722145955E-01  0.51100000000E-03 0. -1.
</event>
<event>
 8    1  0.1170483E+005  0.1043930E+01  0.7957747E-01            NaN
         13   -1    0    0    0    0  0.00000000000E+00  0.00000000000E+00  0.74505805969E-08  0.10566000000E+00  0.10566000000E+00 0. -1.
     999900   -1    0    0    0    0 -0.00000000000E+00 -0.00000000000E+00 -0.74505805969E-08  0.93827000000E+00  0.93827000000E+00 0.  1.
     999902    2    1    2    0    0  0.21519836891E-01  0.12611496003E-01 -0.30157091005E-02  0.10188053565E+01  0.10184955114E+01 0.  0.
     999903    2    3    3    0    0  0.52279050241E-01  0.10971022006E+00 -0.47087438413E-01  0.13183488980E+00  0.19843886534E-01 0.  0.
         14    1    1    2    0    0 -0.21519836891E-01 -0.12611496003E-01  0.30157091005E-02  0.25124643533E-01  0.00000000000E+00 0.  1.
     999901    1    3    3    0    0 -0.30759213350E-01 -0.97098724053E-01  0.44071729312E-01  0.88697046667E+00  0.88000000000E+00 0. -1.
        -11    1    4    4    0    0  0.41924351812E-01  0.80071187114E-01 -0.26137267784E-01  0.94087534609E-01  0.51100000000E-03 0.  1.
         11    1    4    4    0    0  0.10354698430E-01  0.29639032943E-01 -0.20950170629E-01  0.37747355189E-01  0.51100000000E-03 0. -1.
</event>
<event>
 8    1  0.1170483E+005  0.1043930E+01  0.7957747E-01            NaN
         13   -1    0    0    0    0  0.00000000000E+00  0.00000000000E+00  0.74505805969E-08  0.10566000000E+00  0.10566000000E+00 0. -1.
     999900   -1    0    0    0    0 -0.00000000000E+00 -0.00000000000E+00 -0.74505805969E-08  0.93827000000E+00  0.93827000000E+00 0.  1.
     999902    2    1    2    0    0 -0.11416143938E-01  0.18761321366E-01 -0.10275593946E-01  0.10196832816E+01  0.10193949634E+01 0.  0.
     999903    2    3    3    0    0  0.17929773670E-01 -0.56103270313E-01 -0.11413201286E+00  0.12993497691E+00  0.19695891465E-01 0.  0.
         14    1    1    2    0    0  0.11416143938E-01 -0.18761321366E-01  0.10275593946E-01  0.24246718391E-01  0.00000000000E+00 0. -1.
     999901    1    3    3    0    0 -0.29345917608E-01  0.74864591679E-01  0.10385641892E+00  0.88974830470E+00  0.88000000000E+00 0. -1.
        -11    1    4    4    0    0  0.10688408372E-01 -0.33096973181E-01 -0.86625063234E-01  0.93347814161E-01  0.51100000000E-03 0.  1.
         11    1    4    4    0    0  0.72413652980E-02 -0.23006297132E-01 -0.27506949628E-01  0.36587162748E-01  0.51100000000E-03 0. -1.
</event>
<event>
 8    1  0.1170483E+005  0.1043930E+01  0.7957747E-01            NaN
         13   -1    0    0    0    0  0.00000000000E+00  0.00000000000E+00  0.74505805969E-08  0.10566000000E+00  0.10566000000E+00 0.  1.
     999900   -1    0    0    0    0 -0.00000000000E+00 -0.00000000000E+00 -0.74505805969E-08  0.93827000000E+00  0.93827000000E+00 0.  1.
     999902    2    1    2    0    0 -0.28634611146E-03  0.33487143212E-02 -0.24079664678E-01  0.10196169144E+01  0.10193269966E+01 0.  0.
     999903    2    3    3    0    0  0.10996162830E+00 -0.63566056194E-01 -0.20576575366E-01  0.13021010418E+00  0.19976801045E-01 0.  0.
         14    1    1    2    0    0  0.28634611146E-03 -0.33487143212E-02  0.24079664678E-01  0.24313085627E-01  0.00000000000E+00 0.  1.
     999901    1    3    3    0    0 -0.11024797441E+00  0.66914770516E-01 -0.35030893123E-02  0.88940681019E+00  0.88000000000E+00 0.  1.
        -11    1    4    4    0    0  0.68809888591E-01 -0.33465260720E-01 -0.20521653501E-01  0.79221990800E-01  0.51100000000E-03 0. -1.
         11    1    4    4    0    0  0.41151739707E-01 -0.30100795474E-01 -0.54921865330E-04  0.50988113384E-01  0.51100000000E-03 0.  1.
</event>
<event>
 8    1  0.1170483E+005  0.1043930E+01  0.7957747E-01            NaN
         13   -1    0    0    0    0  0.00000000000E+00  0.00000000000E+00  0.74505805969E-08  0.10566000000E+00  0.10566000000E+00 0.  1.
     999900   -1    0    0    0    0 -0.00000000000E+00 -0.00000000000E+00 -0.74505805969E-08  0.93827000000E+00  0.93827000000E+00 0. -1.
     999902    2    1    2    0    0  0.15750536714E-01 -0.16300719677E-01 -0.14574587314E-02  0.10212161924E+01  0.10209635618E+01 0.  0.
     999903    2    3    3    0    0 -0.31502554989E-01 -0.39033068704E-01  0.11975894658E+00  0.13136056858E+00  0.19934950938E-01 0.  0.
         14    1    1    2    0    0 -0.15750536714E-01  0.16300719677E-01  0.14574587314E-02  0.22713807578E-01  0.00000000000E+00 0. -1.
     999901    1    3    3    0    0  0.47253091703E-01  0.22732349028E-01 -0.12121640531E+00  0.88985562384E+00  0.88000000000E+00 0. -1.
        -11    1    4    4    0    0 -0.26391379066E-01 -0.17131395234E-01  0.71176265379E-01  0.77822306995E-01  0.51100000000E-03 0. -1.
         11    1    4    4    0    0 -0.51111759234E-02 -0.21901673470E-01  0.48582681198E-01  0.53538261584E-01  0.51100000000E-03 0.  1.
</event>
<event>
 8    1  0.1170483E+005  0.1043930E+01  0.7957747E-01            NaN
         13   -1    0    0    0    0  0.00000000000E+00  0.00000000000E+00  0.74505805969E-08  0.10566000000E+00  0.10566000000E+00 0.  1.
     999900   -1    0    0    0    0 -0.00000000000E+00 -0.00000000000E+00 -0.74505805969E-08  0.93827000000E+00  0.93827000000E+00 0.  1.
     999902    2    1    2    0    0 -0.15219964912E-02  0.22522562720E-01 -0.86260677315E-02  0.10197640870E+01  0.10194777103E+01 0.  0.
     999903    2    3    3    0    0  0.77301050845E-01  0.95082015389E-01  0.43840514842E-01  0.13171527686E+00  0.20270207342E-01 0.  0.
         14    1    1    2    0    0  0.15219964912E-02 -0.22522562720E-01  0.86260677315E-02  0.24165912963E-01  0.00000000000E+00 0. -1.
     999901    1    3    3    0    0 -0.78823047336E-01 -0.72559452669E-01 -0.52466582573E-01  0.88804881017E+00  0.88000000000E+00 0. -1.
        -11    1    4    4    0    0  0.39968108352E-01  0.38391173077E-01  0.11854849563E-01  0.56675659984E-01  0.51100000000E-03 0. -1.
         11    1    4    4    0    0  0.37332942494E-01  0.56690842312E-01  0.31985665279E-01  0.75039616881E-01  0.51100000000E-03 0.  1.
</event>
<event>
 8    1  0.1170483E+005  0.1043930E+01  0.7957747E-01            NaN
         13   -1    0    0    0    0  0.00000000000E+00  0.00000000000E+00  0.74505805969E-08  0.10566000000E+00  0.10566000000E+00 0. -1.
     999900   -1    0    0    0    0 -0.00000000000E+00 -0.00000000000E+00 -0.74505805969E-08  0.93827000000E+00  0.93827000000E+00 0.  1.
     999902    2    1    2    0    0  0.15111456563E-01  0.51039045272E-03 -0.23104850277E-01  0.10163174897E+01  0.10159423159E+01 0.  0.
     999903    2    3    3    0    0  0.35761298100E-02  0.89537468324E-01 -0.90005579942E-01  0.12922415078E+00  0.23835473259E-01 0.  0.
         14    1    1    2    0    0 -0.15111456563E-01 -0.51039045272E-03  0.23104850277E-01  0.27612510284E-01  0.00000000000E+00 0. -1.
     999901    1    3    3    0    0  0.11535326753E-01 -0.89027077871E-01  0.66900729665E-01  0.88709333894E+00  0.88000000000E+00 0.  1.
        -11    1    4    4    0    0  0.67283521933E-02  0.33304505088E-01 -0.48675185852E-01  0.59363251436E-01  0.51100000000E-03 0.  1.
         11    1    4    4    0    0 -0.31522223834E-02  0.56232963236E-01 -0.41330394090E-01  0.69860899342E-01  0.51100000000E-03 0. -1.
</event>
<event>
 8    1  0.1170483E+005  0.1043930E+01  0.7957747E-01            NaN
         13   -1    0    0    0    0  0.00000000000E+00  0.00000000000E+00  0.74505805969E-08  0.10566000000E+00  0.10566000000E+00 0.  1.
     999900   -1    0    0    0    0 -0.00000000000E+00 -0.00000000000E+00 -0.74505805969E-08  0.93827000000E+00  0.93827000000E+00 0. -1.
     999902    2    1    2    0    0 -0.23613999907E-01  0.75357142437E-02 -0.26452681646E-02  0.10190019952E+01  0.10186970407E+01 0.  0.
     999903    2    3    3    0    0 -0.11366801786E-01 -0.67210210026E-01  0.10767815231E+00  0.12888503423E+00  0.19244506996E-01 0.  0.
         14    1    1    2    0    0  0.23613999907E-01 -0.75357142437E-02  0.26452681646E-02  0.24928004823E-01  0.00000000000E+00 0. -1.
     999901    1    3    3    0    0 -0.12247198121E-01  0.74745924270E-01 -0.11032342047E+00  0.89011696095E+00  0.88000000000E+00 0. -1.
        -11    1    4    4    0    0 -0.14665523911E-01 -0.29280350128E-01  0.49463449490E-01  0.59323776445E-01  0.51100000000E-03 0. -1.
         11    1    4    4    0    0  0.32987221254E-02 -0.37929859898E-01  0.58214702820E-01  0.69561257788E-01  0.51100000000E-03 0.  1.
</event>
<event>
 8    1  0.1170483E+005  0.1043930E+01  0.7957747E-01            NaN
         13   -1    0    0    0    0  0.00000000000E+00  0.00000000000E+00  0.74505805969E-08  0.10566000000E+00  0.10566000000E+00 0.  1.
     999900   -1    0    0    0    0 -0.00000000000E+00 -0.00000000000E+00 -0.74505805969E-08  0.93827000000E+00  0.93827000000E+00 0.  1.
     999902    2    1    2    0    0  0.10975323875E-02 -0.11644347993E-01 -0.58834028486E-03  0.10322192544E+01  0.10321528219E+01 0.  0.
     999903    2    3    3    0    0  0.56667798408E-01 -0.10179661751E-01  0.12736437391E+00  0.14122986233E+00  0.20231791342E-01 0.  0.
         14    1    1    2    0    0 -0.10975323875E-02  0.11644347993E-01  0.58834028486E-03  0.11710745570E-01  0.00000000000E+00 0. -1.
     999901    1    3    3    0    0 -0.55570266020E-01 -0.14646862417E-02 -0.12795271420E+00  0.89098939210E+00  0.88000000000E+00 0.  1.
        -11    1    4    4    0    0  0.49695282907E-01 -0.12966737222E-01  0.12071351642E+00  0.13118601902E+00  0.51100000000E-03 0.  1.
         11    1    4    4    0    0  0.69725155004E-02  0.27870754705E-02  0.66508574909E-02  0.10043843310E-01  0.51100000000E-03 0. -1.
</event>
<event>
 8    1  0.1170483E+005  0.1043930E+01  0.7957747E-01            NaN
         13   -1    0    0    0    0  0.00000000000E+00  0.00000000000E+00  0.74505805969E-08  0.10566000000E+00  0.10566000000E+00 0.  1.
     999900   -1    0    0    0    0 -0.00000000000E+00 -0.00000000000E+00 -0.74505805969E-08  0.93827000000E+00  0.93827000000E+00 0. -1.
     999902    2    1    2    0    0 -0.25356528265E-01 -0.32369230773E-03  0.88952324811E-02  0.10170565286E+01  0.10167014306E+01 0.  0.
     999903    2    3    3    0    0 -0.25620367077E-01  0.55584516217E-01  0.11223368448E+00  0.12924763419E+00  0.19039678583E-01 0.  0.
         14    1    1    2    0    0  0.25356528265E-01  0.32369230773E-03 -0.88952324811E-02  0.26873471366E-01  0.00000000000E+00 0.  1.
     999901    1    3    3    0    0  0.26383881139E-03 -0.55908208525E-01 -0.10333845200E+00  0.88780889444E+00  0.88000000000E+00 0. -1.
        -11    1    4    4    0    0 -0.10648609648E-01  0.20949888100E-01  0.25615111150E-01  0.34766157957E-01  0.51100000000E-03 0. -1.
         11    1    4    4    0    0 -0.14971757428E-01  0.34634628118E-01  0.86618573326E-01  0.94481476234E-01  0.51100000000E-03 0.  1.
</event>
<event>
 8    1  0.1170483E+005  0.1043930E+01  0.7957747E-01            NaN
         13   -1    0    0    0    0  0.00000000000E+00  0.00000000000E+00  0.74505805969E-08  0.10566000000E+00  0.10566000000E+00 0.  1.
     999900   -1    0    0    0    0 -0.00000000000E+00 -0.00000000000E+00 -0.74505805969E-08  0.93827000000E+00  0.93827000000E+00 0.  1.
     999902    2    1    2    0    0 -0.19325651851E-01  0.92054097646E-02 -0.10541409427E-01  0.10200691178E+01  0.10197900094E+01 0.  0.
     999903    2    3    3    0    0 -0.11864328020E+00  0.66552227545E-02  0.54326165139E-01  0.13210611348E+00  0.19498027389E-01 0.  0.
         14    1    1    2    0    0  0.19325651851E-01 -0.92054097646E-02  0.10541409427E-01  0.23860882236E-01  0.00000000000E+00 0.  1.
     999901    1    3    3    0    0  0.99317628350E-01  0.25501870101E-02 -0.64867574566E-01  0.88796300429E+00  0.88000000000E+00 0.  1.
        -11    1    4    4    0    0 -0.66346062607E-01  0.37728295266E-02  0.19689550208E-01  0.69310704617E-01  0.51100000000E-03 0. -1.
         11    1    4    4    0    0 -0.52297217593E-01  0.28823932279E-02  0.34636614932E-01  0.62795408858E-01  0.51100000000E-03 0.  1.
</event>
<event>
 8    1  0.1170483E+005  0.1043930E+01  0.7957747E-01            NaN
         13   -1    0    0    0    0  0.00000000000E+00  0.00000000000E+00  0.74505805969E-08  0.10566000000E+00  0.10566000000E+00 0. -1.
     999900   -1    0    0    0    0 -0.00000000000E+00 -0.00000000000E+00 -0.74505805969E-08  0.93827000000E+00  0.93827000000E+00 0.  1.
     999902    2    1    2    0    0  0.14426152138E-01  0.12969117597E-01  0.13594116113E-01  0.10202422000E+01  0.10199671734E+01 0.  0.
     999903    2    3    3    0    0  0.72775746902E-01 -0.10504526860E+00 -0.13329899856E-01  0.13004167583E+00  0.20058250929E-01 0.  0.
         14    1    1    2    0    0 -0.14426152138E-01 -0.12969117597E-01 -0.13594116113E-01  0.23687800017E-01  0.00000000000E+00 0. -1.
     999901    1    3    3    0    0 -0.58349594764E-01  0.11801438620E+00  0.26924015969E-01  0.89020052415E+00  0.88000000000E+00 0.  1.
        -11    1    4    4    0    0  0.15268640536E-01 -0.12476231963E-01 -0.68148236445E-02  0.20868413695E-01  0.51100000000E-03 0.  1.
         11    1    4    4    0    0  0.57507106366E-01 -0.92569036640E-01 -0.65150762110E-02  0.10917326214E+00  0.51100000000E-03 0. -1.
</event>
<event>
 8    1  0.1170483E+005  0.1043930E+01  0.7957747E-01            NaN
         13   -1    0    0    0    0  0.00000000000E+00  0.00000000000E+00  0.74505805969E-08  0.10566000000E+00  0.10566000000E+00 0. -1.
     999900   -1    0    0    0    0 -0.00000000000E+00 -0.00000000000E+00 -0.74505805969E-08  0.93827000000E+00  0.93827000000E+00 0.  1.
     999902    2    1    2    0    0  0.13064865282E-01 -0.36665936925E-02 -0.17674806700E-01  0.10216469704E+01  0.10214039352E+01 0.  0.
     999903    2    3    3    0    0 -0.11640773892E+00 -0.24999916575E-01  0.46458567701E-01  0.12960921586E+00  0.21549775223E-01 0.  0.
         14    1    1    2    0    0 -0.13064865282E-01  0.36665936925E-02  0.17674806700E-01  0.22283029552E-01  0.00000000000E+00 0. -1.
     999901    1    3    3    0    0  0.12947260420E+00  0.21333322882E-01 -0.64133374401E-01  0.89203775459E+00  0.88000000000E+00 0.  1.
        -11    1    4    4    0    0 -0.31462937941E-01 -0.15858490948E-01  0.93162025219E-02  0.36448058240E-01  0.51100000000E-03 0. -1.
         11    1    4    4    0    0 -0.84944800982E-01 -0.91414256271E-02  0.37142365179E-01  0.93161157617E-01  0.51100000000E-03 0.  1.
</event>
<event>
 8    1  0.1170483E+005  0.1043930E+01  0.7957747E-01            NaN
         13   -1    0    0    0    0  0.00000000000E+00  0.00000000000E+00  0.74505805969E-08  0.10566000000E+00  0.10566000000E+00 0. -1.
     999900   -1    0    0    0    0 -0.00000000000E+00 -0.00000000000E+00 -0.74505805969E-08  0.93827000000E+00  0.93827000000E+00 0.  1.
     999902    2    1    2    0    0 -0.20248468057E-01  0.11875117715E-01  0.17862475872E-02  0.10203883442E+01  0.10201167401E+01 0.  0.
     999903    2    3    3    0    0  0.22740986565E-01  0.49292597098E-01  0.11717397509E+00  0.13102762508E+00  0.22171727423E-01 0.  0.
         14    1    1    2    0    0  0.20248468057E-01 -0.11875117715E-01 -0.17862475872E-02  0.23541655844E-01  0.00000000000E+00 0.  1.
     999901    1    3    3    0    0 -0.42989454622E-01 -0.37417479382E-01 -0.11538772751E+00  0.88936071907E+00  0.88000000000E+00 0.  1.
        -11    1    4    4    0    0  0.82768709418E-02  0.13680530246E-01  0.60264667179E-01  0.62351862294E-01  0.51100000000E-03 0. -1.
         11    1    4    4    0    0  0.14464115623E-01  0.35612066851E-01  0.56909307916E-01  0.68675762789E-01  0.51100000000E-03 0.  1.
</event>
<event>
 8    1  0.1170483E+005  0.1043930E+01  0.7957747E-01            NaN
         13   -1    0    0    0    0  0.00000000000E+00  0.00000000000E+00  0.74505805969E-08  0.10566000000E+00  0.10566000000E+00 0. -1.
     999900   -1    0    0    0    0 -0.00000000000E+00 -0.00000000000E+00 -0.74505805969E-08  0.93827000000E+00  0.93827000000E+00 0. -1.
     999902    2    1    2    0    0 -0.29162987912E-02 -0.23566029000E-01 -0.41690069200E-02  0.10198210154E+01  0.10195360024E+01 0.  0.
     999903    2    3    3    0    0 -0.12367210686E+00  0.51892823067E-02  0.35292872280E-01  0.13023342945E+00  0.19835338317E-01 0.  0.
         14    1    1    2    0    0  0.29162987912E-02  0.23566029000E-01  0.41690069200E-02  0.24108984635E-01  0.00000000000E+00 0. -1.
     999901    1    3    3    0    0  0.12075580807E+00 -0.28755311306E-01 -0.39461879200E-01  0.88958758592E+00  0.88000000000E+00 0. -1.
        -11    1    4    4    0    0 -0.49544278254E-01 -0.27682475524E-02  0.54329404423E-02  0.49920703772E-01  0.51100000000E-03 0.  1.
         11    1    4    4    0    0 -0.74127828603E-01  0.79575298590E-02  0.29859931837E-01  0.80312725674E-01  0.51100000000E-03 0. -1.
</event>
<event>
 8    1  0.1170483E+005  0.1043930E+01  0.7957747E-01            NaN
         13   -1    0    0    0    0  0.00000000000E+00  0.00000000000E+00  0.74505805969E-08  0.10566000000E+00  0.10566000000E+00 0. -1.
     999900   -1    0    0    0    0 -0.00000000000E+00 -0.00000000000E+00 -0.74505805969E-08  0.93827000000E+00  0.93827000000E+00 0.  1.
     999902    2    1    2    0    0  0.94687549510E-02 -0.22045035084E-01  0.54073531425E-02  0.10193356844E+01  0.10190389380E+01 0.  0.
     999903    2    3    3    0    0  0.70190119578E-01  0.61318853597E-02 -0.10700764276E+00  0.12966262407E+00  0.19937591780E-01 0.  0.
         14    1    1    2    0    0 -0.94687549510E-02  0.22045035084E-01 -0.54073531425E-02  0.24594315608E-01  0.00000000000E+00 0. -1.
     999901    1    3    3    0    0 -0.60721364627E-01 -0.28176920444E-01  0.11241499590E+00  0.88967306033E+00  0.88000000000E+00 0. -1.
        -11    1    4    4    0    0  0.30534234193E-01  0.12367503148E-01 -0.52094080656E-01  0.61638859109E-01  0.51100000000E-03 0. -1.
         11    1    4    4    0    0  0.39655885386E-01 -0.62356177882E-02 -0.54913562104E-01  0.68023764956E-01  0.51100000000E-03 0.  1.
</event>
<event>
 8    1  0.1170483E+005  0.1043930E+01  0.7957747E-01            NaN
         13   -1    0    0    0    0  0.00000000000E+00  0.00000000000E+00  0.74505805969E-08  0.10566000000E+00  0.10566000000E+00 0.  1.
     999900   -1    0    0    0    0 -0.00000000000E+00 -0.00000000000E+00 -0.74505805969E-08  0.93827000000E+00  0.93827000000E+00 0.  1.
     999902    2    1    2    0    0  0.11149392313E-01 -0.14303265389E-01 -0.16014062353E-01  0.10197361466E+01  0.10194490993E+01 0.  0.
     999903    2    3    3    0    0 -0.96643598801E-02 -0.18470008778E-01 -0.12903670359E+00  0.13225392623E+00  0.20151651384E-01 0.  0.
         14    1    1    2    0    0 -0.11149392313E-01  0.14303265389E-01  0.16014062353E-01  0.24193853409E-01  0.00000000000E+00 0.  1.
     999901    1    3    3    0    0  0.20813752193E-01  0.41667433891E-02  0.11302264123E+00  0.88748222036E+00  0.88000000000E+00 0. -1.
        -11    1    4    4    0    0 -0.14509566771E-01 -0.17180779676E-01 -0.84856662845E-01  0.87787362805E-01  0.51100000000E-03 0.  1.
         11    1    4    4    0    0  0.48452068907E-02 -0.12892291025E-02 -0.44180040742E-01  0.44466563421E-01  0.51100000000E-03 0. -1.
</event>
<event>
 8    1  0.1170483E+005  0.1043930E+01  0.7957747E-01            NaN
         13   -1    0    0    0    0  0.00000000000E+00  0.00000000000E+00  0.74505805969E-08  0.10566000000E+00  0.10566000000E+00 0. -1.
     999900   -1    0    0    0    0 -0.00000000000E+00 -0.00000000000E+00 -0.74505805969E-08  0.93827000000E+00  0.93827000000E+00 0. -1.
     999902    2    1    2    0    0 -0.12005636539E-01  0.10565188360E-01 -0.23418368325E-01  0.10155719590E+01  0.10151759579E+01 0.  0.
     999903    2    3    3    0    0 -0.96219188396E-01 -0.62393059856E-01  0.43735547734E-01  0.12600775293E+00  0.28532955131E-01 0.  0.
         14    1    1    2    0    0  0.12005636539E-01 -0.10565188360E-01  0.23418368325E-01  0.28358040990E-01  0.00000000000E+00 0. -1.
     999901    1    3    3    0    0  0.84213551857E-01  0.72958248217E-01 -0.67153916059E-01  0.88956420608E+00  0.88000000000E+00 0. -1.
        -11    1    4    4    0    0 -0.31215093627E-01 -0.60068074757E-02  0.16027464713E-01  0.35603434557E-01  0.51100000000E-03 0.  1.
         11    1    4    4    0    0 -0.65004094769E-01 -0.56386252381E-01  0.27708083022E-01  0.90404318371E-01  0.51100000000E-03 0. -1.
</event>
<event>
 8    1  0.1170483E+005  0.1043930E+01  0.7957747E-01            NaN
         13   -1    0    0    0    0  0.00000000000E+00  0.00000000000E+00  0.74505805969E-08  0.10566000000E+00  0.10566000000E+00 0. -1.
     999900   -1    0    0    0    0 -0.00000000000E+00 -0.00000000000E+00 -0.74505805969E-08  0.93827000000E+00  0.93827000000E+00 0. -1.
     999902    2    1    2    0    0  0.23107675653E-01  0.68840077047E-02  0.53797058762E-03  0.10198127106E+01  0.10195274989E+01 0.  0.
     999903    2    3    3    0    0  0.89016774868E-01 -0.71681437149E-01  0.62303317361E-01  0.13170714448E+00  0.20071221054E-01 0.  0.
         14    1    1    2    0    0 -0.23107675653E-01 -0.68840077047E-02 -0.53797058762E-03  0.24117289410E-01  0.00000000000E+00 0.  1.
     999901    1    3    3    0    0 -0.65909099215E-01  0.78565444854E-01 -0.61765346773E-01  0.88810556610E+00  0.88000000000E+00 0. -1.
        -11    1    4    4    0    0  0.65218875459E-01 -0.60522580353E-01  0.41479044884E-01  0.98169530579E-01  0.51100000000E-03 0. -1.
         11    1    4    4    0    0  0.23797899409E-01 -0.11158856796E-01  0.20824272477E-01  0.33537613905E-01  0.51100000000E-03 0.  1.
</event>
<event>
 8    1  0.1170483E+005  0.1043930E+01  0.7957747E-01            NaN
         13   -1    0    0    0    0  0.00000000000E+00  0.00000000000E+00  0.74505805969E-08  0.10566000000E+00  0.10566000000E+00 0.  1.
     999900   -1    0    0    0    0 -0.00000000000E+00 -0.00000000000E+00 -0.74505805969E-08  0.93827000000E+00  0.93827000000E+00 0. -1.
     999902    2    1    2    0    0 -0.21236533054E-01 -0.36431438752E-02  0.96212685700E-02  0.10203327196E+01  0.10200598154E+01 0.  0.
     999903    2    3    3    0    0  0.76362918910E-01 -0.90894018471E-01 -0.45463086514E-01  0.12894467037E+00  0.21605966814E-01 0.  0.
         14    1    1    2    0    0  0.21236533054E-01  0.36431438752E-02 -0.96212685700E-02  0.23597280401E-01  0.00000000000E+00 0. -1.
     999901    1    3    3    0    0 -0.97599451963E-01  0.87250874596E-01  0.55084355084E-01  0.89138804923E+00  0.88000000000E+00 0.  1.
        -11    1    4    4    0    0  0.64216026017E-01 -0.65396945463E-01 -0.40753949551E-01  0.10030754707E+00  0.51100000000E-03 0.  1.
         11    1    4    4    0    0  0.12146892893E-01 -0.25497073009E-01 -0.47091369626E-02  0.28637123300E-01  0.51100000000E-03 0. -1.
</event>
<event>
 8    1  0.1170483E+005  0.1043930E+01  0.7957747E-01            NaN
         13   -1    0    0    0    0  0.00000000000E+00  0.00000000000E+00  0.74505805969E-08  0.10566000000E+00  0.10566000000E+00 0.  1.
     999900   -1    0    0    0    0 -0.00000000000E+00 -0.00000000000E+00 -0.74505805969E-08  0.93827000000E+00  0.93827000000E+00 0.  1.
     999902    2    1    2    0    0 -0.14586698877E-02 -0.40875426031E-02 -0.23212799238E-01  0.10203149673E+01  0.10200416475E+01 0.  0.
     999903    2    3    3    0    0  0.34555630282E-01  0.21589094761E-01  0.11938346689E+00  0.12774003224E+00  0.20122700463E-01 0.  0.
         14    1    1    2    0    0  0.14586698877E-02  0.40875426031E-02  0.23212799238E-01  0.23615032730E-01  0.00000000000E+00 0.  1.
     999901    1    3    3    0    0 -0.36014300170E-01 -0.25676637365E-01 -0.14259626613E+00  0.89257493503E+00  0.88000000000E+00 0.  1.
        -11    1    4    4    0    0  0.20803280739E-02  0.80540152664E-02  0.40741292152E-01  0.41584960430E-01  0.51100000000E-03 0.  1.
         11    1    4    4    0    0  0.32475302208E-01  0.13535079495E-01  0.78642174739E-01  0.86155071813E-01  0.51100000000E-03 0. -1.
</event>
<event>
 8    1  0.1170483E+005  0.1043930E+01  0.7957747E-01            NaN
         13   -1    0    0    0    0  0.00000000000E+00  0.00000000000E+00  0.74505805969E-08  0.10566000000E+00  0.10566000000E+00 0. -1.
     999900   -1    0    0    0    0 -0.00000000000E+00 -0.00000000000E+00 -0.74505805969E-08  0.93827000000E+00  0.93827000000E+00 0.  1.
     999902    2    1    2    0    0 -0.51971645286E-03  0.23973838520E-01 -0.25794830184E-02  0.10198121898E+01  0.10195269656E+01 0.  0.
     999903    2    3    3    0    0  0.56935445659E-01  0.11802567602E+00 -0.10315612025E-01  0.13290368743E+00  0.19628375122E-01 0.  0.
         14    1    1    2    0    0  0.51971645286E-03 -0.23973838520E-01  0.25794830184E-02  0.24117810249E-01  0.00000000000E+00 0.  1.
     999901    1    3    3    0    0 -0.57455162112E-01 -0.94051837499E-01  0.77361290068E-02  0.88690850232E+00  0.88000000000E+00 0. -1.
        -11    1    4    4    0    0  0.71304360069E-03  0.11382603392E-01  0.24389474057E-02  0.11673974328E-01  0.51100000000E-03 0. -1.
         11    1    4    4    0    0  0.56222402059E-01  0.10664307263E+00 -0.12754559431E-01  0.12122971311E+00  0.51100000000E-03 0.  1.
</event>
<event>
 8    1  0.1170483E+005  0.1043930E+01  0.7957747E-01            NaN
         13   -1    0    0    0    0  0.00000000000E+00  0.00000000000E+00  0.74505805969E-08  0.10566000000E+00  0.10566000000E+00 0. -1.
     999900   -1    0    0    0    0 -0.00000000000E+00 -0.00000000000E+00 -0.74505805969E-08  0.93827000000E+00  0.93827000000E+00 0. -1.
     999902    2    1    2    0    0 -0.15649616240E-01  0.10535126847E-01  0.14812095488E-01  0.10199446387E+01  0.10196625757E+01 0.  0.
     999903    2    3    3    0    0 -0.95275198186E-01 -0.83530544792E-01 -0.23632077006E-01  0.13052542463E+00  0.20583879811E-01 0.  0.
         14    1    1    2    0    0  0.15649616240E-01 -0.10535126847E-01 -0.14812095488E-01  0.23985361346E-01  0.00000000000E+00 0.  1.
     999901    1    3    3    0    0  0.79625581945E-01  0.94065671638E-01  0.38444172494E-01  0.88941921403E+00  0.88000000000E+00 0.  1.
        -11    1    4    4    0    0 -0.61326745691E-01 -0.64707805615E-01 -0.21135396951E-01  0.91624428892E-01  0.51100000000E-03 0.  1.
         11    1    4    4    0    0 -0.33948452495E-01 -0.18822739176E-01 -0.24966800552E-02  0.38900995735E-01  0.51100000000E-03 0. -1.
</event>
<event>
 8    1  0.1170483E+005  0.1043930E+01  0.7957747E-01            NaN
         13   -1    0    0    0    0  0.00000000000E+00  0.00000000000E+00  0.74505805969E-08  0.10566000000E+00  0.10566000000E+00 0.  1.
     999900   -1    0    0    0    0 -0.00000000000E+00 -0.00000000000E+00 -0.74505805969E-08  0.93827000000E+00  0.93827000000E+00 0.  1.
     999902    2    1    2    0    0 -0.57147240052E-02  0.19354657478E-01  0.13024772282E-01  0.10199111422E+01  0.10196282815E+01 0.  0.
     999903    2    3    3    0    0 -0.45697414111E-01 -0.56042427710E-01 -0.10375749333E+00  0.12810318445E+00  0.20391201114E-01 0.  0.
         14    1    1    2    0    0  0.57147240052E-02 -0.19354657478E-01 -0.13024772282E-01  0.24018857790E-01  0.00000000000E+00 0. -1.
     999901    1    3    3    0    0  0.39982690106E-01  0.75397085188E-01  0.11678226562E+00  0.89180795776E+00  0.88000000000E+00 0. -1.
        -11    1    4    4    0    0 -0.37517901153E-01 -0.39112608042E-01 -0.88961271618E-01  0.10417177153E+00  0.51100000000E-03 0.  1.
         11    1    4    4    0    0 -0.81795129575E-02 -0.16929819668E-01 -0.14796221716E-01  0.23931412919E-01  0.51100000000E-03 0. -1.
</event>
<event>
 8    1  0.1170483E+005  0.1043930E+01  0.7957747E-01            NaN
         13   -1    0    0    0    0  0.00000000000E+00  0.00000000000E+00  0.74505805969E-08  0.10566000000E+00  0.10566000000E+00 0.  1.
     999900   -1    0    0    0    0 -0.00000000000E+00 -0.00000000000E+00 -0.74505805969E-08  0.93827000000E+00  0.93827000000E+00 0. -1.
     999902    2    1    2    0    0 -0.20695937083E-01 -0.58929748172E-02 -0.44401808190E-02  0.10219581050E+01  0.10217218820E+01 0.  0.
     999903    2    3    3    0    0 -0.45105422901E-01 -0.10326907115E+00 -0.69359194050E-01  0.13387454733E+00  0.20314930254E-01 0.  0.
         14    1    1    2    0    0  0.20695937083E-01  0.58929748172E-02  0.44401808190E-02  0.21971894994E-01  0.00000000000E+00 0. -1.
     999901    1    3    3    0    0  0.24409485818E-01  0.97376096337E-01  0.64919013231E-01  0.88808355768E+00  0.88000000000E+00 0.  1.
        -11    1    4    4    0    0 -0.25850259512E-01 -0.71836233498E-01 -0.37084392118E-01  0.84877521287E-01  0.51100000000E-03 0.  1.
         11    1    4    4    0    0 -0.19255163389E-01 -0.31432837656E-01 -0.32274801933E-01  0.48997026043E-01  0.51100000000E-03 0. -1.
</event>
<event>
 8    1  0.1170483E+005  0.1043930E+01  0.7957747E-01            NaN
         13   -1    0    0    0    0  0.00000000000E+00  0.00000000000E+00  0.74505805969E-08  0.10566000000E+00  0.10566000000E+00 0. -1.
     999900   -1    0    0    0    0 -0.00000000000E+00 -0.00000000000E+00 -0.74505805969E-08  0.93827000000E+00  0.93827000000E+00 0. -1.
     999902    2    1    2    0    0  0.17304055092E-01 -0.25320266435E-01 -0.11857862593E-01  0.10110490767E+01  0.10105142653E+01 0.  0.
     999903    2    3    3    0    0 -0.24390709090E-01 -0.35661338185E-01 -0.11454492202E+00  0.12403722594E+00  0.19951354019E-01 0.  0.
         14    1    1    2    0    0 -0.17304055092E-01  0.25320266435E-01  0.11857862593E-01  0.32880923348E-01  0.00000000000E+00 0.  1.
     999901    1    3    3    0    0  0.41694764183E-01  0.10341071750E-01  0.10268705943E+00  0.88701185071E+00  0.88000000000E+00 0.  1.
        -11    1    4    4    0    0 -0.62973753483E-02 -0.41687744811E-02 -0.44448091777E-01  0.45088020588E-01  0.51100000000E-03 0.  1.
         11    1    4    4    0    0 -0.18093333742E-01 -0.31492563704E-01 -0.70096830246E-01  0.78949205354E-01  0.51100000000E-03 0. -1.
</event>
<event>
 8    1  0.1170483E+005  0.1043930E+01  0.7957747E-01            NaN
         13   -1    0    0    0    0  0.00000000000E+00  0.00000000000E+00  0.74505805969E-08  0.10566000000E+00  0.10566000000E+00 0.  1.
     999900   -1    0    0    0    0 -0.00000000000E+00 -0.00000000000E+00 -0.74505805969E-08  0.93827000000E+00  0.93827000000E+00 0.  1.
     999902    2    1    2    0    0 -0.99383757108E-02  0.63151080309E-02 -0.20904286110E-01  0.10199374787E+01  0.10196552453E+01 0.  0.
     999903    2    3    3    0    0 -0.41404949522E-01  0.10464555295E+00  0.61891067895E-01  0.13004192734E+00  0.20379818057E-01 0.  0.
         14    1    1    2    0    0  0.99383757108E-02 -0.63151080309E-02  0.20904286110E-01  0.23992521313E-01  0.00000000000E+00 0.  1.
     999901    1    3    3    0    0  0.31466573811E-01 -0.98330444916E-01 -0.82795354005E-01  0.88989555135E+00  0.88000000000E+00 0.  1.
        -11    1    4    4    0    0 -0.32420916260E-01  0.62656393666E-01  0.46160210347E-01  0.84308751733E-01  0.51100000000E-03 0.  1.
         11    1    4    4    0    0 -0.89840332621E-02  0.41989159281E-01  0.15730857548E-01  0.45733175606E-01  0.51100000000E-03 0. -1.
</event>
<event>
 8    1  0.1170483E+005  0.1043930E+01  0.7957747E-01            NaN
         13   -1    0    0    0    0  0.00000000000E+00  0.00000000000E+00  0.74505805969E-08  0.10566000000E+00  0.10566000000E+00 0.  1.
     999900   -1    0    0    0    0 -0.00000000000E+00 -0.00000000000E+00 -0.74505805969E-08  0.93827000000E+00  0.93827000000E+00 0. -1.
     999902    2    1    2    0    0 -0.19160076811E-02 -0.12503777793E-01 -0.19891438613E-01  0.10203570308E+01  0.10200846953E+01 0.  0.
     999903    2    3    3    0    0  0.26207832707E-01  0.76485260111E-01 -0.10219762958E+00  0.13160267314E+00  0.18386478105E-01 0.  0.
         14    1    1    2    0    0  0.19160076811E-02  0.12503777793E-01  0.19891438613E-01  0.23572969151E-01  0.00000000000E+00 0.  1.
     999901    1    3    3    0    0 -0.28123840388E-01 -0.88989037904E-01  0.82306190970E-01  0.88875435770E+00  0.88000000000E+00 0.  1.
        -11    1    4    4    0    0 -0.13739831503E-02  0.87114998448E-02 -0.18007953985E-01  0.20058055413E-01  0.51100000000E-03 0. -1.
         11    1    4    4    0    0  0.27581815857E-01  0.67773760266E-01 -0.84189675598E-01  0.11154461773E+00  0.51100000000E-03 0.  1.
</event>
<event>
 8    1  0.1170483E+005  0.1043930E+01  0.7957747E-01            NaN
         13   -1    0    0    0    0  0.00000000000E+00  0.00000000000E+00  0.74505805969E-08  0.10566000000E+00  0.10566000000E+00 0.  1.
     999900   -1    0    0    0    0 -0.00000000000E+00 -0.00000000000E+00 -0.74505805969E-08  0.93827000000E+00  0.93827000000E+00 0. -1.
     999902    2    1    2    0    0 -0.19246325899E-01 -0.95729466173E-02  0.11091576010E-01  0.10197414609E+01  0.10194545412E+01 0.  0.
     999903    2    3    3    0    0 -0.60760437331E-01 -0.55958842667E-01 -0.99279877010E-01  0.13066501283E+00  0.19840080147E-01 0.  0.
         14    1    1    2    0    0  0.19246325899E-01  0.95729466173E-02 -0.11091576010E-01  0.24188539144E-01  0.00000000000E+00 0.  1.
     999901    1    3    3    0    0  0.41514111432E-01  0.46385896050E-01  0.11037145302E+00  0.88907644803E+00  0.88000000000E+00 0.  1.
        -11    1    4    4    0    0 -0.40494937609E-02  0.39754869472E-03 -0.15190331667E-02  0.43732170591E-02  0.51100000000E-03 0. -1.
         11    1    4    4    0    0 -0.56710943570E-01 -0.56356391362E-01 -0.97760843843E-01  0.12629179577E+00  0.51100000000E-03 0.  1.
</event>
<event>
 8    1  0.1170483E+005  0.1043930E+01  0.7957747E-01            NaN
         13   -1    0    0    0    0  0.00000000000E+00  0.00000000000E+00  0.74505805969E-08  0.10566000000E+00  0.10566000000E+00 0.  1.
     999900   -1    0    0    0    0 -0.00000000000E+00 -0.00000000000E+00 -0.74505805969E-08  0.93827000000E+00  0.93827000000E+00 0.  1.
     999902    2    1    2    0    0  0.16684423991E-01 -0.68922249406E-02 -0.44914035778E-02  0.10253277024E+01  0.10251589398E+01 0.  0.
     999903    2    3    3    0    0 -0.10728055232E+00 -0.35016594048E-01  0.67622850116E-01  0.13327458682E+00  0.21306967675E-01 0.  0.
         14    1    1    2    0    0 -0.16684423991E-01  0.68922249406E-02  0.44914035778E-02  0.18602297563E-01  0.00000000000E+00 0. -1.
     999901    1    3    3    0    0  0.12396497631E+00  0.28124369107E-01 -0.72114253694E-01  0.89205311561E+00  0.88000000000E+00 0.  1.
        -11    1    4    4    0    0 -0.77361234753E-01 -0.33045827665E-01  0.56267872756E-01  0.10120830991E+00  0.51100000000E-03 0. -1.
         11    1    4    4    0    0 -0.29919317562E-01 -0.19707663830E-02  0.11354977360E-01  0.32066276918E-01  0.51100000000E-03 0.  1.
</event>
<event>
 8    1  0.1170483E+005  0.1043930E+01  0.7957747E-01            NaN
         13   -1    0    0    0    0  0.00000000000E+00  0.00000000000E+00  0.74505805969E-08  0.10566000000E+00  0.10566000000E+00 0.  1.
     999900   -1    0    0    0    0 -0.00000000000E+00 -0.00000000000E+00 -0.74505805969E-08  0.93827000000E+00  0.93827000000E+00 0.  1.
     999902    2    1    2    0    0  0.23188982632E-01 -0.26417999558E-02 -0.70709673525E-02  0.10195433930E+01  0.10192516979E+01 0.  0.
     999903    2    3    3    0    0 -0.33389797194E-01  0.11364794363E+00 -0.44737571495E-01  0.12929441890E+00  0.26169883564E-01 0.  0.
         14    1    1    2    0    0 -0.23188982632E-01  0.26417999558E-02  0.70709673525E-02  0.24386607018E-01  0.00000000000E+00 0. -1.
     999901    1    3    3    0    0  0.56578779827E-01 -0.11628974359E+00  0.37666604143E-01  0.89024897408E+00  0.88000000000E+00 0.  1.
        -11    1    4    4    0    0 -0.24009922071E-01  0.88126998055E-01 -0.22263110383E-01  0.94014633696E-01  0.51100000000E-03 0. -1.
         11    1    4    4    0    0 -0.93798751236E-02  0.25520945579E-01 -0.22474461112E-01  0.35279785202E-01  0.51100000000E-03 0.  1.
</event>
<event>
 8    1  0.1170483E+005  0.1043930E+01  0.7957747E-01            NaN
         13   -1    0    0    0    0  0.00000000000E+00  0.00000000000E+00  0.74505805969E-08  0.10566000000E+00  0.10566000000E+00 0.  1.
     999900   -1    0    0    0    0 -0.00000000000E+00 -0.00000000000E+00 -0.74505805969E-08  0.93827000000E+00  0.93827000000E+00 0. -1.
     999902    2    1    2    0    0  0.17163956335E-01 -0.14934679464E-02  0.15744381581E-01  0.10205908185E+01  0.10203239198E+01 0.  0.
     999903    2    3    3    0    0  0.11755197586E+00  0.58310899321E-01 -0.13877110792E-03  0.13272450457E+00  0.19928543492E-01 0.  0.
         14    1    1    2    0    0 -0.17163956335E-01  0.14934679464E-02 -0.15744381581E-01  0.23339181540E-01  0.00000000000E+00 0. -1.
     999901    1    3    3    0    0 -0.10038801953E+00 -0.59804367267E-01  0.15883152689E-01  0.88786631389E+00  0.88000000000E+00 0.  1.
        -11    1    4    4    0    0  0.68384702943E-01  0.26339793719E-01  0.71112441271E-02  0.73628005839E-01  0.51100000000E-03 0.  1.
         11    1    4    4    0    0  0.49167272920E-01  0.31971105601E-01 -0.72500152350E-02  0.59096498726E-01  0.51100000000E-03 0. -1.
</event>
<event>
 8    1  0.1170483E+005  0.1043930E+01  0.7957747E-01            NaN
         13   -1    0    0    0    0  0.00000000000E+00  0.00000000000E+00  0.74505805969E-08  0.10566000000E+00  0.10566000000E+00 0.  1.
     999900   -1    0    0    0    0 -0.00000000000E+00 -0.00000000000E+00 -0.74505805969E-08  0.93827000000E+00  0.93827000000E+00 0. -1.
     999902    2    1    2    0    0  0.11812284032E-01 -0.18339554937E-01 -0.91426807614E-02  0.10202771367E+01  0.10200029303E+01 0.  0.
     999903    2    3    3    0    0  0.11385716792E+00  0.26052161125E-01 -0.57875593423E-01  0.13193110080E+00  0.20348495189E-01 0.  0.
         14    1    1    2    0    0 -0.11812284032E-01  0.18339554937E-01  0.91426807614E-02  0.23652863270E-01  0.00000000000E+00 0.  1.
     999901    1    3    3    0    0 -0.10204488389E+00 -0.44391716062E-01  0.48732912661E-01  0.88834603593E+00  0.88000000000E+00 0. -1.
        -11    1    4    4    0    0  0.63546023353E-01  0.21330985657E-01 -0.41361948174E-01  0.78766616728E-01  0.51100000000E-03 0. -1.
         11    1    4    4    0    0  0.50311144571E-01  0.47211754672E-02 -0.16513645249E-01  0.53164484068E-01  0.51100000000E-03 0.  1.
</event>
<event>
 8    1  0.1170483E+005  0.1043930E+01  0.7957747E-01            NaN
         13   -1    0    0    0    0  0.00000000000E+00  0.00000000000E+00  0.74505805969E-08  0.10566000000E+00  0.10566000000E+00 0. -1.
     999900   -1    0    0    0    0 -0.00000000000E+00 -0.00000000000E+00 -0.74505805969E-08  0.93827000000E+00  0.93827000000E+00 0. -1.
     999902    2    1    2    0    0 -0.93519564597E-03 -0.12169020107E-01  0.20827053785E-01  0.10197902856E+01  0.10195045369E+01 0.  0.
     999903    2    3    3    0    0  0.96793687921E-01  0.72400050897E-01  0.43691827100E-01  0.13005680849E+00  0.19874916063E-01 0.  0.
         14    1    1    2    0    0  0.93519564597E-03  0.12169020107E-01 -0.20827053785E-01  0.24139714386E-01  0.00000000000E+00 0.  1.
     999901    1    3    3    0    0 -0.97728883567E-01 -0.84569071004E-01 -0.22864773316E-01  0.88973347712E+00  0.88000000000E+00 0. -1.
        -11    1    4    4    0    0  0.53038996070E-01  0.37449125352E-01  0.33754722681E-01  0.73179331221E-01  0.51100000000E-03 0.  1.
         11    1    4    4    0    0  0.43754691851E-01  0.34950925545E-01  0.99371044195E-02  0.56877477271E-01  0.51100000000E-03 0. -1.
</event>
<event>
 7    1  0.1170483E+005  0.1043930E+01  0.7957747E-01            NaN
         13   -1    0    0    0    0  0.00000000000E+00  0.00000000000E+00  0.74505805969E-08  0.10566000000E+00  0.10566000000E+00 0.  1.
     999900   -1    0    0    0    0 -0.00000000000E+00 -0.00000000000E+00 -0.74505805969E-08  0.93827000000E+00  0.93827000000E+00 0.  1.
     999903    2    1    2    0    0 -0.80985253925E-01 -0.59990302476E-01  0.36245379758E-01  0.10894892644E+00  0.19967305136E-01 0.  0.
         14    1    1    2    0    0 -0.10837354287E-02 -0.39296920646E-01 -0.22915388520E-01  0.45503159075E-01  0.00000000000E+00 0.  1.
     999901    1    1    2    0    0  0.82068989354E-01  0.99287223121E-01 -0.13329991238E-01  0.88947791448E+00  0.88000000000E+00 0.  1.
        -11    1    3    3    0    0 -0.47733990220E-01 -0.24295759972E-01  0.14201542775E-01  0.55414463032E-01  0.51100000000E-03 0. -1.
         11    1    3    3    0    0 -0.33251263705E-01 -0.35694542504E-01  0.22043836984E-01  0.53534463409E-01  0.51100000000E-03 0.  1.
</event>
<event>
 8    1  0.1170483E+005  0.1043930E+01  0.7957747E-01            NaN
         13   -1    0    0    0    0  0.00000000000E+00  0.00000000000E+00  0.74505805969E-08  0.10566000000E+00  0.10566000000E+00 0. -1.
     999900   -1    0    0    0    0 -0.00000000000E+00 -0.00000000000E+00 -0.74505805969E-08  0.93827000000E+00  0.93827000000E+00 0. -1.
     999902    2    1    2    0    0  0.18913978002E-01  0.12548219815E-01 -0.62168890392E-02  0.10203960651E+01  0.10201246412E+01 0.  0.
     999903    2    3    3    0    0  0.67992698104E-01 -0.87251706856E-01 -0.67829593575E-01  0.13125891507E+00  0.19803577367E-01 0.  0.
         14    1    1    2    0    0 -0.18913978002E-01 -0.12548219815E-01  0.62168890392E-02  0.23533934939E-01  0.00000000000E+00 0. -1.
     999901    1    3    3    0    0 -0.49078720103E-01  0.99799926671E-01  0.61612704536E-01  0.88913714999E+00  0.88000000000E+00 0.  1.
        -11    1    4    4    0    0  0.19678962338E-01 -0.41034864779E-01 -0.27670876792E-01  0.53264061332E-01  0.51100000000E-03 0. -1.
         11    1    4    4    0    0  0.48313735767E-01 -0.46216842077E-01 -0.40158716784E-01  0.77994853740E-01  0.51100000000E-03 0.  1.
</event>
<event>
 8    1  0.1170483E+005  0.1043930E+01  0.7957747E-01            NaN
         13   -1    0    0    0    0  0.00000000000E+00  0.00000000000E+00  0.74505805969E-08  0.10566000000E+00  0.10566000000E+00 0.  1.
     999900   -1    0    0    0    0 -0.00000000000E+00 -0.00000000000E+00 -0.74505805969E-08  0.93827000000E+00  0.93827000000E+00 0.  1.
     999902    2    1    2    0    0 -0.97605312813E-02  0.22822338301E-01  0.34501059001E-02  0.10188694667E+01  0.10185612205E+01 0.  0.
     999903    2    3    3    0    0  0.11702520405E+00 -0.45404517227E-01 -0.31341213090E-02  0.12714480153E+00  0.19987728028E-01 0.  0.
         14    1    1    2    0    0  0.97605312813E-02 -0.22822338301E-01 -0.34501059001E-02  0.25060533257E-01  0.00000000000E+00 0.  1.
     999901    1    3    3    0    0 -0.12678573533E+00  0.68226855528E-01  0.65842272091E-02  0.89172466521E+00  0.88000000000E+00 0.  1.
        -11    1    4    4    0    0  0.34082587969E-01 -0.72876784705E-02 -0.78869196151E-02  0.35737902599E-01  0.51100000000E-03 0. -1.
         11    1    4    4    0    0  0.82942616084E-01 -0.38116838757E-01  0.47527983061E-02  0.91406898932E-01  0.51100000000E-03 0.  1.
</event>
<event>
 8    1  0.1170483E+005  0.1043930E+01  0.7957747E-01            NaN
         13   -1    0    0    0    0  0.00000000000E+00  0.00000000000E+00  0.74505805969E-08  0.10566000000E+00  0.10566000000E+00 0. -1.
     999900   -1    0    0    0    0 -0.00000000000E+00 -0.00000000000E+00 -0.74505805969E-08  0.93827000000E+00  0.93827000000E+00 0.  1.
     999902    2    1    2    0    0 -0.30506094753E-02 -0.17312247136E-01 -0.14566326191E-01  0.10211002392E+01  0.10208449934E+01 0.  0.
     999903    2    3    3    0    0 -0.38378895039E-01 -0.24607608912E-01  0.12012648534E+00  0.13012130369E+00  0.20559844187E-01 0.  0.
         14    1    1    2    0    0  0.30506094753E-02  0.17312247136E-01  0.14566326191E-01  0.22829760791E-01  0.00000000000E+00 0. -1.
     999901    1    3    3    0    0  0.35328285564E-01  0.72953617759E-02 -0.13469281153E+00  0.89097893552E+00  0.88000000000E+00 0.  1.
        -11    1    4    4    0    0 -0.16287985791E-01 -0.15986357546E-01  0.82857610865E-01  0.85944789882E-01  0.51100000000E-03 0.  1.
         11    1    4    4    0    0 -0.22090909248E-01 -0.86212513653E-02  0.37268874473E-01  0.44176513806E-01  0.51100000000E-03 0. -1.
</event>
<event>
 8    1  0.1170483E+005  0.1043930E+01  0.7957747E-01            NaN
         13   -1    0    0    0    0  0.00000000000E+00  0.00000000000E+00  0.74505805969E-08  0.10566000000E+00  0.10566000000E+00 0. -1.
     999900   -1    0    0    0    0 -0.00000000000E+00 -0.00000000000E+00 -0.74505805969E-08  0.93827000000E+00  0.93827000000E+00 0. -1.
     999902    2    1    2    0    0 -0.38602306110E-02  0.12939040561E-01  0.19672704527E-01  0.10200692487E+01  0.10197901434E+01 0.  0.
     999903    2    3    3    0    0 -0.84391553564E-01 -0.86229706466E-01  0.45542194608E-01  0.13046879628E+00  0.19761546561E-01 0.  0.
         14    1    1    2    0    0  0.38602306110E-02 -0.12939040561E-01 -0.19672704527E-01  0.23860751338E-01  0.00000000000E+00 0.  1.
     999901    1    3    3    0    0  0.80531322953E-01  0.99168747027E-01 -0.25869490081E-01  0.88960045238E+00  0.88000000000E+00 0. -1.
        -11    1    4    4    0    0 -0.65249293319E-01 -0.74318606222E-01  0.42758423709E-01  0.10774631979E+00  0.51100000000E-03 0.  1.
         11    1    4    4    0    0 -0.19142260245E-01 -0.11911100244E-01  0.27837708987E-02  0.22722476488E-01  0.51100000000E-03 0. -1.
</event>
<event>
 8    1  0.1170483E+005  0.1043930E+01  0.7957747E-01            NaN
         13   -1    0    0    0    0  0.00000000000E+00  0.00000000000E+00  0.74505805969E-08  0.10566000000E+00  0.10566000000E+00 0.  1.
     999900   -1    0    0    0    0 -0.00000000000E+00 -0.00000000000E+00 -0.74505805969E-08  0.93827000000E+00  0.93827000000E+00 0.  1.
     999902    2    1    2    0    0  0.53693548407E-02  0.13373200987E-01  0.19538574802E-01  0.10196518538E+01  0.10193627787E+01 0.  0.
     999903    2    3    3    0    0  0.11911247690E+00 -0.39405704325E-01  0.30297659441E-01  0.13069804819E+00  0.20577656479E-01 0.  0.
         14    1    1    2    0    0 -0.53693548407E-02 -0.13373200987E-01 -0.19538574802E-01  0.24278146168E-01  0.00000000000E+00 0. -1.
     999901    1    3    3    0    0 -0.11374312206E+00  0.52778905312E-01 -0.10759084639E-01  0.88895380564E+00  0.88000000000E+00 0. -1.
        -11    1    4    4    0    0  0.51189773713E-01 -0.74342261034E-02  0.17039806608E-01  0.54463536249E-01  0.51100000000E-03 0. -1.
         11    1    4    4    0    0  0.67922703189E-01 -0.31971478222E-01  0.13257852833E-01  0.76234511941E-01  0.51100000000E-03 0.  1.
</event>
<event>
 8    1  0.1170483E+005  0.1043930E+01  0.7957747E-01            NaN
         13   -1    0    0    0    0  0.00000000000E+00  0.00000000000E+00  0.74505805969E-08  0.10566000000E+00  0.10566000000E+00 0.  1.
     999900   -1    0    0    0    0 -0.00000000000E+00 -0.00000000000E+00 -0.74505805969E-08  0.93827000000E+00  0.93827000000E+00 0.  1.
     999902    2    1    2    0    0  0.12378269880E-01 -0.69156086089E-02  0.19134822746E-01  0.10201142773E+01  0.10198362369E+01 0.  0.
     999903    2    3    3    0    0  0.68587209330E-01  0.65978253371E-02 -0.10740212271E+00  0.12918574123E+00  0.20149520850E-01 0.  0.
         14    1    1    2    0    0 -0.12378269880E-01  0.69156086089E-02 -0.19134822746E-01  0.23815722731E-01  0.00000000000E+00 0. -1.
     999901    1    3    3    0    0 -0.56208939450E-01 -0.13513433946E-01  0.12653694546E+00  0.89092853604E+00  0.88000000000E+00 0. -1.
        -11    1    4    4    0    0  0.46716701545E-01  0.13530135307E-01 -0.68346057557E-01  0.83886586945E-01  0.51100000000E-03 0.  1.
         11    1    4    4    0    0  0.21870507784E-01 -0.69323099700E-02 -0.39056065154E-01  0.45299154281E-01  0.51100000000E-03 0. -1.
</event>
<event>
 8    1  0.1170483E+005  0.1043930E+01  0.7957747E-01            NaN
         13   -1    0    0    0    0  0.00000000000E+00  0.00000000000E+00  0.74505805969E-08  0.10566000000E+00  0.10566000000E+00 0. -1.
     999900   -1    0    0    0    0 -0.00000000000E+00 -0.00000000000E+00 -0.74505805969E-08  0.93827000000E+00  0.93827000000E+00 0. -1.
     999902    2    1    2    0    0 -0.59367971722E-02 -0.98341916524E-02  0.19099237994E-01  0.10216423851E+01  0.10213992487E+01 0.  0.
     999903    2    3    3    0    0 -0.21888781506E-01 -0.43632844622E-01  0.12391627201E+00  0.13463425359E+00  0.19702687261E-01 0.  0.
         14    1    1    2    0    0  0.59367971722E-02  0.98341916524E-02 -0.19099237994E-01  0.22287614903E-01  0.00000000000E+00 0.  1.
     999901    1    3    3    0    0  0.15951984334E-01  0.33798652970E-01 -0.10481703401E+00  0.88700813151E+00  0.88000000000E+00 0. -1.
        -11    1    4    4    0    0 -0.75748727004E-02 -0.42106125776E-02  0.38612084011E-01  0.39576029454E-01  0.51100000000E-03 0.  1.
         11    1    4    4    0    0 -0.14313908805E-01 -0.39422232045E-01  0.85304187995E-01  0.95058224132E-01  0.51100000000E-03 0. -1.
</event>
<event>
 8    1  0.1170483E+005  0.1043930E+01  0.7957747E-01            NaN
         13   -1    0    0    0    0  0.00000000000E+00  0.00000000000E+00  0.74505805969E-08  0.10566000000E+00  0.10566000000E+00 0.  1.
     999900   -1    0    0    0    0 -0.00000000000E+00 -0.00000000000E+00 -0.74505805969E-08  0.93827000000E+00  0.93827000000E+00 0.  1.
     999902    2    1    2    0    0  0.17096657635E-01 -0.65848152843E-02  0.14804370434E-01  0.10203752791E+01  0.10201033699E+01 0.  0.
     999903    2    3    3    0    0 -0.63088655299E-01  0.86315183638E-01  0.71297046382E-01  0.13006549216E+00  0.20081685059E-01 0.  0.
         14    1    1    2    0    0 -0.17096657635E-01  0.65848152843E-02 -0.14804370434E-01  0.23554720940E-01  0.00000000000E+00 0.  1.
     999901    1    3    3    0    0  0.80185312933E-01 -0.92899998923E-01 -0.56492675948E-01  0.89030978690E+00  0.88000000000E+00 0. -1.
        -11    1    4    4    0    0 -0.36174144797E-01  0.48346068684E-01  0.28242073045E-01  0.66661735051E-01  0.51100000000E-03 0. -1.
         11    1    4    4    0    0 -0.26914510501E-01  0.37969114954E-01  0.43054973337E-01  0.63403757112E-01  0.51100000000E-03 0.  1.
</event>
<event>
 8    1  0.1170483E+005  0.1043930E+01  0.7957747E-01            NaN
         13   -1    0    0    0    0  0.00000000000E+00  0.00000000000E+00  0.74505805969E-08  0.10566000000E+00  0.10566000000E+00 0.  1.
     999900   -1    0    0    0    0 -0.00000000000E+00 -0.00000000000E+00 -0.74505805969E-08  0.93827000000E+00  0.93827000000E+00 0.  1.
     999902    2    1    2    0    0  0.13562410818E-01 -0.15400752320E-01 -0.13921417688E-01  0.10191322576E+01  0.10188305209E+01 0.  0.
     999903    2    3    3    0    0  0.83635496085E-01 -0.95831479374E-01  0.27655780859E-01  0.13171578118E+00  0.20140410911E-01 0.  0.
         14    1    1    2    0    0 -0.13562410818E-01  0.15400752320E-01  0.13921417688E-01  0.24797742431E-01  0.00000000000E+00 0.  1.
     999901    1    3    3    0    0 -0.70073085267E-01  0.80430727054E-01 -0.41577198547E-01  0.88741647639E+00  0.88000000000E+00 0.  1.
        -11    1    4    4    0    0  0.58090290346E-01 -0.52063409419E-01  0.19180251679E-01  0.80331958822E-01  0.51100000000E-03 0. -1.
         11    1    4    4    0    0  0.25545205740E-01 -0.43768069955E-01  0.84755291794E-02  0.51383822354E-01  0.51100000000E-03 0.  1.
</event>
<event>
 8    1  0.1170483E+005  0.1043930E+01  0.7957747E-01            NaN
         13   -1    0    0    0    0  0.00000000000E+00  0.00000000000E+00  0.74505805969E-08  0.10566000000E+00  0.10566000000E+00 0.  1.
     999900   -1    0    0    0    0 -0.00000000000E+00 -0.00000000000E+00 -0.74505805969E-08  0.93827000000E+00  0.93827000000E+00 0.  1.
     999902    2    1    2    0    0  0.75332556009E-02 -0.19065195070E-01 -0.10775058803E-01  0.10207711249E+01  0.10205083811E+01 0.  0.
     999903    2    3    3    0    0  0.50492104877E-01  0.11709428323E+00 -0.64539632409E-02  0.12925357706E+00  0.20107454348E-01 0.  0.
         14    1    1    2    0    0 -0.75332556009E-02  0.19065195070E-01  0.10775058803E-01  0.23158875086E-01  0.00000000000E+00 0. -1.
     999901    1    3    3    0    0 -0.42958849276E-01 -0.13615947831E+00 -0.43210955625E-02  0.89151754785E+00  0.88000000000E+00 0. -1.
        -11    1    4    4    0    0  0.34722543043E-01  0.72303055522E-01 -0.13196743931E-01  0.81288387883E-01  0.51100000000E-03 0.  1.
         11    1    4    4    0    0  0.15769561835E-01  0.44791227713E-01  0.67427806906E-02  0.47965189178E-01  0.51100000000E-03 0. -1.
</event>
<event>
 7    1  0.1259041E+005  0.1043930E+01  0.7957747E-01            NaN
         13   -1    0    0    0    0  0.00000000000E+00  0.00000000000E+00  0.74505805969E-08  0.10566000000E+00  0.10566000000E+00 0.  1.
     999900   -1    0    0    0    0 -0.00000000000E+00 -0.00000000000E+00 -0.74505805969E-08  0.93827000000E+00  0.93827000000E+00 0. -1.
     999903    2    1    2    0    0 -0.52778995973E-01 -0.25732412749E-01 -0.67751049805E-01  0.91778398724E-01  0.19628811500E-01 0.  0.
         14    1    1    2    0    0  0.39251268133E-01  0.39280680817E-01 -0.35500107389E-01  0.65908205560E-01  0.00000000000E+00 0. -1.
     999901    1    1    2    0    0  0.13527727840E-01 -0.13548268068E-01  0.10325115719E+00  0.88624339572E+00  0.88000000000E+00 0.  1.
        -11    1    3    3    0    0 -0.40197403427E-01 -0.26783056301E-01 -0.46471363773E-01  0.67029934499E-01  0.51100000000E-03 0.  1.
         11    1    3    3    0    0 -0.12581592547E-01  0.10506435520E-02 -0.21279686032E-01  0.24748464225E-01  0.51100000000E-03 0. -1.
</event>
<event>
 7    1  0.1170483E+005  0.1043930E+01  0.7957747E-01            NaN
         13   -1    0    0    0    0  0.00000000000E+00  0.00000000000E+00  0.74505805969E-08  0.10566000000E+00  0.10566000000E+00 0.  1.
     999900   -1    0    0    0    0 -0.00000000000E+00 -0.00000000000E+00 -0.74505805969E-08  0.93827000000E+00  0.93827000000E+00 0. -1.
     999903    2    1    2    0    0 -0.46327191641E-01 -0.73074158485E-01 -0.17389856935E-02  0.87874924175E-01  0.15262270600E-01 0.  0.
         14    1    1    2    0    0  0.35131840273E-01 -0.52767088181E-01 -0.20885903011E-01  0.66744533414E-01  0.00000000000E+00 0. -1.
     999901    1    1    2    0    0  0.11195351368E-01  0.12584124667E+00  0.22624888705E-01  0.88931054241E+00  0.88000000000E+00 0.  1.
        -11    1    3    3    0    0 -0.42848017146E-01 -0.57294555042E-01  0.54009560286E-03  0.71548385272E-01  0.51100000000E-03 0. -1.
         11    1    3    3    0    0 -0.34791744951E-02 -0.15779603444E-01 -0.22790812964E-02  0.16326538903E-01  0.51100000000E-03 0.  1.
</event>
<event>
 8    1  0.1170483E+005  0.1043930E+01  0.7957747E-01            NaN
         13   -1    0    0    0    0  0.00000000000E+00  0.00000000000E+00  0.74505805969E-08  0.10566000000E+00  0.10566000000E+00 0.  1.
     999900   -1    0    0    0    0 -0.00000000000E+00 -0.00000000000E+00 -0.74505805969E-08  0.93827000000E+00  0.93827000000E+00 0.  1.
     999902    2    1    2    0    0  0.22628157667E-01 -0.38244339322E-02 -0.13129139548E-01  0.10174907466E+01  0.10171471798E+01 0.  0.
     999903    2    3    3    0    0  0.69963286591E-01  0.36077929319E-01 -0.10294647626E+00  0.13075517893E+00  0.17391417069E-01 0.  0.
         14    1    1    2    0    0 -0.22628157667E-01  0.38244339322E-02  0.13129139548E-01  0.26439253385E-01  0.00000000000E+00 0.  1.
     999901    1    3    3    0    0 -0.47335128924E-01 -0.39902363251E-01  0.89817336714E-01  0.88673556768E+00  0.88000000000E+00 0. -1.
        -11    1    4    4    0    0  0.11053721462E-01  0.90543892575E-02 -0.29616335505E-01  0.32887006138E-01  0.51100000000E-03 0.  1.
         11    1    4    4    0    0  0.58909565129E-01  0.27023540061E-01 -0.73330140757E-01  0.97868172791E-01  0.51100000000E-03 0. -1.
</event>
<event>
 8    1  0.1170483E+005  0.1043930E+01  0.7957747E-01            NaN
         13   -1    0    0    0    0  0.00000000000E+00  0.00000000000E+00  0.74505805969E-08  0.10566000000E+00  0.10566000000E+00 0.  1.
     999900   -1    0    0    0    0 -0.00000000000E+00 -0.00000000000E+00 -0.74505805969E-08  0.93827000000E+00  0.93827000000E+00 0.  1.
     999902    2    1    2    0    0 -0.14146791426E-01 -0.14360001639E-01 -0.99225634421E-02  0.10214622760E+01  0.10212151501E+01 0.  0.
     999903    2    3    3    0    0 -0.10499304483E+00 -0.43296979409E-01 -0.69049801911E-01  0.13433972488E+00  0.19522260373E-01 0.  0.
         14    1    1    2    0    0  0.14146791426E-01  0.14360001639E-01  0.99225634421E-02  0.22467723961E-01  0.00000000000E+00 0.  1.
     999901    1    3    3    0    0  0.90846253400E-01  0.28936977770E-01  0.59127238469E-01  0.88712255116E+00  0.88000000000E+00 0. -1.
        -11    1    4    4    0    0 -0.99467213716E-01 -0.44799283829E-01 -0.67839249754E-01  0.12846449846E+00  0.51100000000E-03 0. -1.
         11    1    4    4    0    0 -0.55258311096E-02  0.15023044194E-02 -0.12105521572E-02  0.58752264250E-02  0.51100000000E-03 0.  1.
</event>
<event>
 8    1  0.1170483E+005  0.1043930E+01  0.7957747E-01            NaN
         13   -1    0    0    0    0  0.00000000000E+00  0.00000000000E+00  0.74505805969E-08  0.10566000000E+00  0.10566000000E+00 0. -1.
     999900   -1    0    0    0    0 -0.00000000000E+00 -0.00000000000E+00 -0.74505805969E-08  0.93827000000E+00  0.93827000000E+00 0.  1.
     999902    2    1    2    0    0 -0.15502548437E-01 -0.21362497227E-01 -0.11993955337E-01  0.10149379276E+01  0.10145237586E+01 0.  0.
     999903    2    3    3    0    0 -0.19665180063E-02 -0.44497667208E-01  0.11547368522E+00  0.12535012443E+00  0.19863839890E-01 0.  0.
         14    1    1    2    0    0  0.15502548437E-01  0.21362497227E-01  0.11993955337E-01  0.28992072373E-01  0.00000000000E+00 0. -1.
     999901    1    3    3    0    0 -0.13536030431E-01  0.23135169980E-01 -0.12746764056E+00  0.88958780320E+00  0.88000000000E+00 0.  1.
        -11    1    4    4    0    0  0.54589998792E-02 -0.34373490337E-01  0.70065730296E-01  0.78235575031E-01  0.51100000000E-03 0. -1.
         11    1    4    4    0    0 -0.74255178856E-02 -0.10124176871E-01  0.45407954927E-01  0.47114549397E-01  0.51100000000E-03 0.  1.
</event>
<event>
 8    1  0.1170483E+005  0.1043930E+01  0.7957747E-01            NaN
         13   -1    0    0    0    0  0.00000000000E+00  0.00000000000E+00  0.74505805969E-08  0.10566000000E+00  0.10566000000E+00 0. -1.
     999900   -1    0    0    0    0 -0.00000000000E+00 -0.00000000000E+00 -0.74505805969E-08  0.93827000000E+00  0.93827000000E+00 0. -1.
     999902    2    1    2    0    0  0.31134751655E-02  0.67160265913E-02  0.20743894711E-01  0.10219048347E+01  0.10216674523E+01 0.  0.
     999903    2    3    3    0    0 -0.12714433369E+00  0.78601382668E-02  0.29040049789E-01  0.13227725417E+00  0.20651491864E-01 0.  0.
         14    1    1    2    0    0 -0.31134751655E-02 -0.67160265913E-02 -0.20743894711E-01  0.22025165347E-01  0.00000000000E+00 0.  1.
     999901    1    3    3    0    0  0.13025780886E+00 -0.11441116755E-02 -0.82961550775E-02  0.88962758048E+00  0.88000000000E+00 0. -1.
        -11    1    4    4    0    0 -0.71363761012E-01 -0.50613690154E-02  0.20176044163E-01  0.74335306020E-01  0.51100000000E-03 0.  1.
         11    1    4    4    0    0 -0.55780572681E-01  0.12921507282E-01  0.88640056262E-02  0.57941948153E-01  0.51100000000E-03 0. -1.
</event>
<event>
 8    1  0.1170483E+005  0.1043930E+01  0.7957747E-01            NaN
         13   -1    0    0    0    0  0.00000000000E+00  0.00000000000E+00  0.74505805969E-08  0.10566000000E+00  0.10566000000E+00 0.  1.
     999900   -1    0    0    0    0 -0.00000000000E+00 -0.00000000000E+00 -0.74505805969E-08  0.93827000000E+00  0.93827000000E+00 0. -1.
     999902    2    1    2    0    0  0.39546915728E-02  0.75991723208E-02 -0.22032308694E-01  0.10202908454E+01  0.10200169604E+01 0.  0.
     999903    2    3    3    0    0  0.26568530109E-01 -0.52670388627E-01  0.11167448577E+00  0.12786644377E+00  0.19964469453E-01 0.  0.
         14    1    1    2    0    0 -0.39546915728E-02 -0.75991723208E-02  0.22032308694E-01  0.23639154633E-01  0.00000000000E+00 0.  1.
     999901    1    3    3    0    0 -0.22613838536E-01  0.60269560948E-01 -0.13370679447E+00  0.89242440159E+00  0.88000000000E+00 0.  1.
        -11    1    4    4    0    0  0.16528423864E-01 -0.48764626601E-01  0.92658826670E-01  0.10600517385E+00  0.51100000000E-03 0. -1.
         11    1    4    4    0    0  0.10040106245E-01 -0.39057620268E-02  0.19015659104E-01  0.21861269921E-01  0.51100000000E-03 0.  1.
</event>
<event>
 8    1  0.1170483E+005  0.1043930E+01  0.7957747E-01            NaN
         13   -1    0    0    0    0  0.00000000000E+00  0.00000000000E+00  0.74505805969E-08  0.10566000000E+00  0.10566000000E+00 0. -1.
     999900   -1    0    0    0    0 -0.00000000000E+00 -0.00000000000E+00 -0.74505805969E-08  0.93827000000E+00  0.93827000000E+00 0.  1.
     999902    2    1    2    0    0  0.81412312044E-02  0.36661206095E-02  0.28948550510E-01  0.10136357982E+01  0.10131830006E+01 0.  0.
     999903    2    3    3    0    0  0.27923559397E-01 -0.13404424558E-01  0.12280675804E+00  0.12825898173E+00  0.20235187359E-01 0.  0.
         14    1    1    2    0    0 -0.81412312044E-02 -0.36661206095E-02 -0.28948550510E-01  0.30294201796E-01  0.00000000000E+00 0.  1.
     999901    1    3    3    0    0 -0.19782328193E-01  0.17070545168E-01 -0.93858207533E-01  0.88537681647E+00  0.88000000000E+00 0.  1.
        -11    1    4    4    0    0  0.15019937838E-01  0.31539740866E-02  0.63970650457E-01  0.65787926903E-01  0.51100000000E-03 0.  1.
         11    1    4    4    0    0  0.12903621559E-01 -0.16558398645E-01  0.58836107585E-01  0.62471054832E-01  0.51100000000E-03 0. -1.
</event>
<event>
 8    1  0.1170483E+005  0.1043930E+01  0.7957747E-01            NaN
         13   -1    0    0    0    0  0.00000000000E+00  0.00000000000E+00  0.74505805969E-08  0.10566000000E+00  0.10566000000E+00 0.  1.
     999900   -1    0    0    0    0 -0.00000000000E+00 -0.00000000000E+00 -0.74505805969E-08  0.93827000000E+00  0.93827000000E+00 0. -1.
     999902    2    1    2    0    0 -0.80697580315E-02  0.61238103454E-02  0.15995987296E-01  0.10249960713E+01  0.10248211807E+01 0.  0.
     999903    2    3    3    0    0  0.23600319941E-01  0.13132727460E+00 -0.97591710374E-02  0.13519708864E+00  0.19472626967E-01 0.  0.
         14    1    1    2    0    0  0.80697580315E-02 -0.61238103454E-02 -0.15995987296E-01  0.18933928737E-01  0.00000000000E+00 0. -1.
     999901    1    3    3    0    0 -0.31670077973E-01 -0.12520346426E+00  0.25755158334E-01  0.88979898263E+00  0.88000000000E+00 0. -1.
        -11    1    4    4    0    0  0.20269626258E-03  0.26859722874E-01  0.43473077035E-02  0.27214812215E-01  0.51100000000E-03 0.  1.
         11    1    4    4    0    0  0.23397623679E-01  0.10446755173E+00 -0.14106478741E-01  0.10798227642E+00  0.51100000000E-03 0. -1.
</event>
<event>
 8    1  0.1170483E+005  0.1043930E+01  0.7957747E-01            NaN
         13   -1    0    0    0    0  0.00000000000E+00  0.00000000000E+00  0.74505805969E-08  0.10566000000E+00  0.10566000000E+00 0. -1.
     999900   -1    0    0    0    0 -0.00000000000E+00 -0.00000000000E+00 -0.74505805969E-08  0.93827000000E+00  0.93827000000E+00 0.  1.
     999902    2    1    2    0    0  0.14780513999E-01  0.11607019555E-02 -0.11376740969E-01  0.10252420076E+01  0.10250716722E+01 0.  0.
     999903    2    3    3    0    0 -0.84421997298E-03 -0.12464256116E+00 -0.48839005802E-01  0.13536897479E+00  0.20075609299E-01 0.  0.
         14    1    1    2    0    0 -0.14780513999E-01 -0.11607019555E-02  0.11376740969E-01  0.18687992353E-01  0.00000000000E+00 0. -1.
     999901    1    3    3    0    0  0.15624733972E-01  0.12580326311E+00  0.37462264833E-01  0.88987303286E+00  0.88000000000E+00 0. -1.
        -11    1    4    4    0    0  0.72014662740E-02 -0.41971749845E-01 -0.10381700813E-01  0.43835256750E-01  0.51100000000E-03 0. -1.
         11    1    4    4    0    0 -0.80456862470E-02 -0.82670811311E-01 -0.38457304990E-01  0.91533718039E-01  0.51100000000E-03 0.  1.
</event>
<event>
 8    1  0.1170483E+005  0.1043930E+01  0.7957747E-01            NaN
         13   -1    0    0    0    0  0.00000000000E+00  0.00000000000E+00  0.74505805969E-08  0.10566000000E+00  0.10566000000E+00 0.  1.
     999900   -1    0    0    0    0 -0.00000000000E+00 -0.00000000000E+00 -0.74505805969E-08  0.93827000000E+00  0.93827000000E+00 0.  1.
     999902    2    1    2    0    0  0.21624539974E-01 -0.88912076932E-02  0.51920300330E-02  0.10199793950E+01  0.10196981587E+01 0.  0.
     999903    2    3    3    0    0  0.10684986615E-01  0.12673945148E+00  0.13295235702E-01  0.12948458230E+00  0.20308526747E-01 0.  0.
         14    1    1    2    0    0 -0.21624539974E-01  0.88912076932E-02 -0.51920300330E-02  0.23950604986E-01  0.00000000000E+00 0. -1.
     999901    1    3    3    0    0  0.10939553359E-01 -0.13563065918E+00 -0.81032056690E-02  0.89049481272E+00  0.88000000000E+00 0.  1.
        -11    1    4    4    0    0  0.10286830492E-01  0.43207238063E-01 -0.24231143185E-02  0.44483894913E-01  0.51100000000E-03 0.  1.
         11    1    4    4    0    0  0.39815612344E-03  0.83532213420E-01  0.15718350021E-01  0.85000687383E-01  0.51100000000E-03 0. -1.
</event>
<event>
 8    1  0.1170483E+005  0.1043930E+01  0.7957747E-01            NaN
         13   -1    0    0    0    0  0.00000000000E+00  0.00000000000E+00  0.74505805969E-08  0.10566000000E+00  0.10566000000E+00 0.  1.
     999900   -1    0    0    0    0 -0.00000000000E+00 -0.00000000000E+00 -0.74505805969E-08  0.93827000000E+00  0.93827000000E+00 0. -1.
     999902    2    1    2    0    0  0.10874973425E-01  0.20778076708E-01  0.10346096914E-02  0.10204552490E+01  0.10201852044E+01 0.  0.
     999903    2    3    3    0    0  0.74666482977E-01 -0.68494783999E-01 -0.79999239931E-01  0.12994669475E+00  0.14820457909E-01 0.  0.
         14    1    1    2    0    0 -0.10874973425E-01 -0.20778076708E-01 -0.10346096914E-02  0.23474751029E-01  0.00000000000E+00 0. -1.
     999901    1    3    3    0    0 -0.63791509552E-01  0.89272860707E-01  0.81033849622E-01  0.89050855422E+00  0.88000000000E+00 0.  1.
        -11    1    4    4    0    0  0.35426678025E-01 -0.23520151837E-01 -0.37179568206E-01  0.56487418699E-01  0.51100000000E-03 0. -1.
         11    1    4    4    0    0  0.39239804951E-01 -0.44974632162E-01 -0.42819671725E-01  0.73459276054E-01  0.51100000000E-03 0.  1.
</event>
<event>
 8    1  0.1170483E+005  0.1043930E+01  0.7957747E-01            NaN
         13   -1    0    0    0    0  0.00000000000E+00  0.00000000000E+00  0.74505805969E-08  0.10566000000E+00  0.10566000000E+00 0.  1.
     999900   -1    0    0    0    0 -0.00000000000E+00 -0.00000000000E+00 -0.74505805969E-08  0.93827000000E+00  0.93827000000E+00 0.  1.
     999902    2    1    2    0    0  0.18319505576E-01  0.45495771218E-02 -0.16763155132E-01  0.10186850736E+01  0.10183722173E+01 0.  0.
     999903    2    3    3    0    0  0.41005440859E-01 -0.68401371397E-01  0.98219974393E-01  0.12792269645E+00  0.18890714894E-01 0.  0.
         14    1    1    2    0    0 -0.18319505576E-01 -0.45495771218E-02  0.16763155132E-01  0.25244926352E-01  0.00000000000E+00 0.  1.
     999901    1    3    3    0    0 -0.22685935283E-01  0.72950948518E-01 -0.11498312953E+00  0.89076237719E+00  0.88000000000E+00 0.  1.
        -11    1    4    4    0    0  0.26692653510E-01 -0.44976595964E-01  0.77620872528E-01  0.93598359542E-01  0.51100000000E-03 0.  1.
         11    1    4    4    0    0  0.14312787349E-01 -0.23424775433E-01  0.20599101865E-01  0.34324336912E-01  0.51100000000E-03 0. -1.
</event>
<event>
 8    1  0.1170483E+005  0.1043930E+01  0.7957747E-01            NaN
         13   -1    0    0    0    0  0.00000000000E+00  0.00000000000E+00  0.74505805969E-08  0.10566000000E+00  0.10566000000E+00 0. -1.
     999900   -1    0    0    0    0 -0.00000000000E+00 -0.00000000000E+00 -0.74505805969E-08  0.93827000000E+00  0.93827000000E+00 0. -1.
     999902    2    1    2    0    0 -0.10538458282E-01 -0.12477348812E-01  0.14852073342E-01  0.10218545064E+01  0.10216160261E+01 0.  0.
     999903    2    3    3    0    0 -0.84711930338E-01 -0.13838940576E-02 -0.98620053559E-01  0.13140479287E+00  0.19059861503E-01 0.  0.
         14    1    1    2    0    0  0.10538458282E-01  0.12477348812E-01 -0.14852073342E-01  0.22075493628E-01  0.00000000000E+00 0.  1.
     999901    1    3    3    0    0  0.74173472055E-01 -0.11093454755E-01  0.11347212690E+00  0.89044971350E+00  0.88000000000E+00 0.  1.
        -11    1    4    4    0    0 -0.34458960888E-01 -0.82437396604E-02 -0.48800430170E-01  0.60308559383E-01  0.51100000000E-03 0.  1.
         11    1    4    4    0    0 -0.50252969450E-01  0.68598456028E-02 -0.49819623389E-01  0.71096233486E-01  0.51100000000E-03 0. -1.
</event>
<event>
 8    1  0.1170483E+005  0.1043930E+01  0.7957747E-01            NaN
         13   -1    0    0    0    0  0.00000000000E+00  0.00000000000E+00  0.74505805969E-08  0.10566000000E+00  0.10566000000E+00 0. -1.
     999900   -1    0    0    0    0 -0.00000000000E+00 -0.00000000000E+00 -0.74505805969E-08  0.93827000000E+00  0.93827000000E+00 0. -1.
     999902    2    1    2    0    0 -0.25903503025E-03 -0.28522587510E-02  0.23468390659E-01  0.10202874993E+01  0.10200135359E+01 0.  0.
     999903    2    3    3    0    0  0.14842730511E-01 -0.96585518969E-01 -0.81648279848E-01  0.12896067831E+00  0.20380034982E-01 0.  0.
         14    1    1    2    0    0  0.25903503025E-03  0.28522587510E-02 -0.23468390659E-01  0.23642500698E-01  0.00000000000E+00 0.  1.
     999901    1    3    3    0    0 -0.15101765541E-01  0.93733260218E-01  0.10511667051E+00  0.89132682099E+00  0.88000000000E+00 0.  1.
        -11    1    4    4    0    0  0.13127787548E-01 -0.25646981816E-01 -0.25345138621E-01  0.38376342386E-01  0.51100000000E-03 0. -1.
         11    1    4    4    0    0  0.17149429621E-02 -0.70938537153E-01 -0.56303141226E-01  0.90584335929E-01  0.51100000000E-03 0.  1.
</event>
<event>
 8    1  0.1170483E+005  0.1043930E+01  0.7957747E-01            NaN
         13   -1    0    0    0    0  0.00000000000E+00  0.00000000000E+00  0.74505805969E-08  0.10566000000E+00  0.10566000000E+00 0. -1.
     999900   -1    0    0    0    0 -0.00000000000E+00 -0.00000000000E+00 -0.74505805969E-08  0.93827000000E+00  0.93827000000E+00 0.  1.
     999902    2    1    2    0    0 -0.35786628720E-02  0.18146843235E-01 -0.14405817991E-01  0.10204855478E+01  0.10202162079E+01 0.  0.
     999903    2    3    3    0    0  0.29525117697E-01  0.23158853741E-01 -0.12585881901E+00  0.13282415291E+00  0.19843089266E-01 0.  0.
         14    1    1    2    0    0  0.35786628720E-02 -0.18146843235E-01  0.14405817991E-01  0.23444452208E-01  0.00000000000E+00 0. -1.
     999901    1    3    3    0    0 -0.33103780569E-01 -0.50120105067E-02  0.11145300101E+00  0.88766139489E+00  0.88000000000E+00 0. -1.
        -11    1    4    4    0    0  0.12007188743E-02  0.19864957654E-02 -0.38564029603E-01  0.38637202170E-01  0.51100000000E-03 0.  1.
         11    1    4    4    0    0  0.28324398823E-01  0.21172357976E-01 -0.87294789403E-01  0.94186950735E-01  0.51100000000E-03 0. -1.
</event>
<event>
 8    1  0.1170483E+005  0.1043930E+01  0.7957747E-01            NaN
         13   -1    0    0    0    0  0.00000000000E+00  0.00000000000E+00  0.74505805969E-08  0.10566000000E+00  0.10566000000E+00 0.  1.
     999900   -1    0    0    0    0 -0.00000000000E+00 -0.00000000000E+00 -0.74505805969E-08  0.93827000000E+00  0.93827000000E+00 0. -1.
     999902    2    1    2    0    0  0.23325096189E-01 -0.13778139976E-02 -0.18749083071E-02  0.10204891433E+01  0.10202198870E+01 0.  0.
     999903    2    3    3    0    0  0.70851889573E-01  0.38174457640E-01 -0.10348316709E+00  0.13248721954E+00  0.19152493246E-01 0.  0.
         14    1    1    2    0    0 -0.23325096189E-01  0.13778139976E-02  0.18749083071E-02  0.23440856742E-01  0.00000000000E+00 0.  1.
     999901    1    3    3    0    0 -0.47526793384E-01 -0.39552271637E-01  0.10160825878E+00  0.88800192372E+00  0.88000000000E+00 0.  1.
        -11    1    4    4    0    0  0.59873145863E-01  0.39207809983E-01 -0.91972922024E-01  0.11653894399E+00  0.51100000000E-03 0. -1.
         11    1    4    4    0    0  0.10978743710E-01 -0.10333523429E-02 -0.11510245064E-01  0.15948275548E-01  0.51100000000E-03 0.  1.
</event>
<event>
 8    1  0.1170483E+005  0.1043930E+01  0.7957747E-01            NaN
         13   -1    0    0    0    0  0.00000000000E+00  0.00000000000E+00  0.74505805969E-08  0.10566000000E+00  0.10566000000E+00 0.  1.
     999900   -1    0    0    0    0 -0.00000000000E+00 -0.00000000000E+00 -0.74505805969E-08  0.93827000000E+00  0.93827000000E+00 0. -1.
     999902    2    1    2    0    0 -0.12556611065E-02 -0.23950400378E-01  0.29703996179E-02  0.10197634604E+01  0.10194770686E+01 0.  0.
     999903    2    3    3    0    0 -0.57013042941E-01  0.83307802811E-01  0.76750899340E-01  0.12844041574E+00  0.20385356770E-01 0.  0.
         14    1    1    2    0    0  0.12556611065E-02  0.23950400378E-01 -0.29703996179E-02  0.24166539615E-01  0.00000000000E+00 0. -1.
     999901    1    3    3    0    0  0.55757381835E-01 -0.10725820319E+00 -0.73780499722E-01  0.89132304465E+00  0.88000000000E+00 0.  1.
        -11    1    4    4    0    0 -0.41835472567E-01  0.55463311172E-01  0.41089693030E-01  0.80715609676E-01  0.51100000000E-03 0. -1.
         11    1    4    4    0    0 -0.15177570374E-01  0.27844491639E-01  0.35661206310E-01  0.47724806061E-01  0.51100000000E-03 0.  1.
</event>
<event>
 8    1  0.1170483E+005  0.1043930E+01  0.7957747E-01            NaN
         13   -1    0    0    0    0  0.00000000000E+00  0.00000000000E+00  0.74505805969E-08  0.10566000000E+00  0.10566000000E+00 0. -1.
     999900   -1    0    0    0    0 -0.00000000000E+00 -0.00000000000E+00 -0.74505805969E-08  0.93827000000E+00  0.93827000000E+00 0. -1.
     999902    2    1    2    0    0 -0.14744055393E-01  0.12924006867E-01  0.12934196297E-01  0.10204414803E+01  0.10201711152E+01 0.  0.
     999903    2    3    3    0    0  0.34897601613E-02 -0.85504081455E-01  0.96920080211E-01  0.13079312884E+00  0.19753840923E-01 0.  0.
         14    1    1    2    0    0  0.14744055393E-01 -0.12924006867E-01 -0.12934196297E-01  0.23488519680E-01  0.00000000000E+00 0. -1.
     999901    1    3    3    0    0 -0.18233815554E-01  0.98428088322E-01 -0.83985883914E-01  0.88964835148E+00  0.88000000000E+00 0. -1.
        -11    1    4    4    0    0  0.10777576957E-01 -0.31498378177E-01  0.38502201755E-01  0.50901715627E-01  0.51100000000E-03 0.  1.
         11    1    4    4    0    0 -0.72878167954E-02 -0.54005703278E-01  0.58417878456E-01  0.79891413209E-01  0.51100000000E-03 0. -1.
</event>
<event>
 8    1  0.1170483E+005  0.1043930E+01  0.7957747E-01            NaN
         13   -1    0    0    0    0  0.00000000000E+00  0.00000000000E+00  0.74505805969E-08  0.10566000000E+00  0.10566000000E+00 0. -1.
     999900   -1    0    0    0    0 -0.00000000000E+00 -0.00000000000E+00 -0.74505805969E-08  0.93827000000E+00  0.93827000000E+00 0.  1.
     999902    2    1    2    0    0 -0.18882977837E-01 -0.11075420628E-01 -0.39192398706E-02  0.10216905703E+01  0.10214484956E+01 0.  0.
     999903    2    3    3    0    0 -0.23989038852E-01 -0.67172662279E-01  0.10993506523E+00  0.13256978253E+00  0.20034673181E-01 0.  0.
         14    1    1    2    0    0  0.18882977837E-01  0.11075420628E-01  0.39192398706E-02  0.22239429742E-01  0.00000000000E+00 0. -1.
     999901    1    3    3    0    0  0.51060610141E-02  0.56097241650E-01 -0.11385430510E+00  0.88912078773E+00  0.88000000000E+00 0. -1.
        -11    1    4    4    0    0 -0.23579186908E-01 -0.40688206186E-01  0.62230838695E-01  0.78002862662E-01  0.51100000000E-03 0. -1.
         11    1    4    4    0    0 -0.40985194339E-03 -0.26484456093E-01  0.47704226538E-01  0.54566919867E-01  0.51100000000E-03 0.  1.
</event>
<event>
 8    1  0.1170483E+005  0.1043930E+01  0.7957747E-01            NaN
         13   -1    0    0    0    0  0.00000000000E+00  0.00000000000E+00  0.74505805969E-08  0.10566000000E+00  0.10566000000E+00 0. -1.
     999900   -1    0    0    0    0 -0.00000000000E+00 -0.00000000000E+00 -0.74505805969E-08  0.93827000000E+00  0.93827000000E+00 0.  1.
     999902    2    1    2    0    0  0.68329068053E-02 -0.19431012908E-01 -0.10620490106E-01  0.10207557106E+01  0.10204926129E+01 0.  0.
     999903    2    3    3    0    0  0.42826097236E-01  0.67197002138E-01 -0.10211152517E+00  0.13105321414E+00  0.19966713914E-01 0.  0.
         14    1    1    2    0    0 -0.68329068053E-02  0.19431012908E-01  0.10620490106E-01  0.23174289377E-01  0.00000000000E+00 0. -1.
     999901    1    3    3    0    0 -0.35993190431E-01 -0.86628015046E-01  0.91491035060E-01  0.88970249648E+00  0.88000000000E+00 0. -1.
        -11    1    4    4    0    0  0.18483486191E-01  0.13163688147E-01 -0.32303847812E-01  0.39480649081E-01  0.51100000000E-03 0. -1.
         11    1    4    4    0    0  0.24342611045E-01  0.54033313991E-01 -0.69807677354E-01  0.91572565061E-01  0.51100000000E-03 0.  1.
</event>
<event>
 8    1  0.1170483E+005  0.1043930E+01  0.7957747E-01            NaN
         13   -1    0    0    0    0  0.00000000000E+00  0.00000000000E+00  0.74505805969E-08  0.10566000000E+00  0.10566000000E+00 0. -1.
     999900   -1    0    0    0    0 -0.00000000000E+00 -0.00000000000E+00 -0.74505805969E-08  0.93827000000E+00  0.93827000000E+00 0. -1.
     999902    2    1    2    0    0 -0.18927645021E-01 -0.40370673665E-02  0.90045801018E-02  0.10225843653E+01  0.10223615544E+01 0.  0.
     999903    2    3    3    0    0  0.61704568657E-01  0.14973349775E-01  0.11447013051E+00  0.13242374372E+00  0.20024538065E-01 0.  0.
         14    1    1    2    0    0  0.18927645021E-01  0.40370673665E-02 -0.90045801018E-02  0.21345634724E-01  0.00000000000E+00 0.  1.
     999901    1    3    3    0    0 -0.80632213677E-01 -0.19010417141E-01 -0.10546555041E+00  0.89016062155E+00  0.88000000000E+00 0. -1.
        -11    1    4    4    0    0  0.37523241267E-01  0.17496320093E-01  0.61512310474E-01  0.74149445802E-01  0.51100000000E-03 0. -1.
         11    1    4    4    0    0  0.24181327390E-01 -0.25229703176E-02  0.52957820041E-01  0.58274297920E-01  0.51100000000E-03 0.  1.
</event>
<event>
 7    1  0.1896153E+005  0.1043930E+01  0.7957747E-01            NaN
         13   -1    0    0    0    0  0.00000000000E+00  0.00000000000E+00  0.74505805969E-08  0.10566000000E+00  0.10566000000E+00 0.  1.
     999900   -1    0    0    0    0 -0.00000000000E+00 -0.00000000000E+00 -0.74505805969E-08  0.93827000000E+00  0.93827000000E+00 0.  1.
     999903    2    1    2    0    0 -0.10060204581E-01 -0.68975884709E-01 -0.85216478995E-01  0.11195829150E+00  0.20345278485E-01 0.  0.
         14    1    1    2    0    0  0.82165872506E-02 -0.23176892668E-01  0.38806528451E-01  0.45941564081E-01  0.00000000000E+00 0.  1.
     999901    1    1    2    0    0  0.18436173300E-02  0.92152777377E-01  0.46409950544E-01  0.88603014442E+00  0.88000000000E+00 0. -1.
        -11    1    3    3    0    0  0.90052047300E-03 -0.43749648295E-01 -0.41524220126E-01  0.60327146801E-01  0.51100000000E-03 0. -1.
         11    1    3    3    0    0 -0.10960725054E-01 -0.25226236414E-01 -0.43692258869E-01  0.51631144703E-01  0.51100000000E-03 0.  1.
</event>
<event>
 8    1  0.1170483E+005  0.1043930E+01  0.7957747E-01            NaN
         13   -1    0    0    0    0  0.00000000000E+00  0.00000000000E+00  0.74505805969E-08  0.10566000000E+00  0.10566000000E+00 0.  1.
     999900   -1    0    0    0    0 -0.00000000000E+00 -0.00000000000E+00 -0.74505805969E-08  0.93827000000E+00  0.93827000000E+00 0. -1.
     999902    2    1    2    0    0  0.19586416024E-01 -0.27616382058E-02  0.53205679086E-02  0.10234467683E+01  0.10232417724E+01 0.  0.
     999903    2    3    3    0    0  0.35678538384E-01  0.12598677595E+00  0.18935126318E-01  0.13382861046E+00  0.20147758022E-01 0.  0.
         14    1    1    2    0    0 -0.19586416024E-01  0.27616382058E-02 -0.53205679086E-02  0.20483231706E-01  0.00000000000E+00 0.  1.
     999901    1    3    3    0    0 -0.16092122360E-01 -0.12874841416E+00 -0.13614558409E-01  0.88961815784E+00  0.88000000000E+00 0.  1.
        -11    1    4    4    0    0  0.31051264964E-01  0.77040100359E-01  0.15863560120E-01  0.84565192484E-01  0.51100000000E-03 0.  1.
         11    1    4    4    0    0  0.46272734204E-02  0.48946675590E-01  0.30715661977E-02  0.49263417974E-01  0.51100000000E-03 0. -1.
</event>
<event>
 8    1  0.1170483E+005  0.1043930E+01  0.7957747E-01            NaN
         13   -1    0    0    0    0  0.00000000000E+00  0.00000000000E+00  0.74505805969E-08  0.10566000000E+00  0.10566000000E+00 0.  1.
     999900   -1    0    0    0    0 -0.00000000000E+00 -0.00000000000E+00 -0.74505805969E-08  0.93827000000E+00  0.93827000000E+00 0. -1.
     999902    2    1    2    0    0 -0.27412593940E-02 -0.45712679533E-02 -0.22936532901E-01  0.10203822711E+01  0.10201105252E+01 0.  0.
     999903    2    3    3    0    0 -0.75705483742E-01  0.23942325901E-01  0.99082439593E-01  0.12851600720E+00  0.19861496260E-01 0.  0.
         14    1    1    2    0    0  0.27412593940E-02  0.45712679533E-02  0.22936532901E-01  0.23547728877E-01  0.00000000000E+00 0.  1.
     999901    1    3    3    0    0  0.72964224348E-01 -0.28513593855E-01 -0.12201897249E+00  0.89186626392E+00  0.88000000000E+00 0. -1.
        -11    1    4    4    0    0 -0.25508643934E-01 -0.14591462368E-02  0.29300398316E-01  0.38879229488E-01  0.51100000000E-03 0. -1.
         11    1    4    4    0    0 -0.50196839808E-01  0.25401472138E-01  0.69782041277E-01  0.89636777716E-01  0.51100000000E-03 0.  1.
</event>
<event>
 8    1  0.1170483E+005  0.1043930E+01  0.7957747E-01            NaN
         13   -1    0    0    0    0  0.00000000000E+00  0.00000000000E+00  0.74505805969E-08  0.10566000000E+00  0.10566000000E+00 0.  1.
     999900   -1    0    0    0    0 -0.00000000000E+00 -0.00000000000E+00 -0.74505805969E-08  0.93827000000E+00  0.93827000000E+00 0.  1.
     999902    2    1    2    0    0 -0.46368467615E-02  0.10444954715E-02  0.23483520130E-01  0.10199703039E+01  0.10196888515E+01 0.  0.
     999903    2    3    3    0    0  0.62180283806E-01 -0.11178676842E+00  0.13036849191E-01  0.13019249121E+00  0.20431741051E-01 0.  0.
         14    1    1    2    0    0  0.46368467615E-02 -0.10444954715E-02 -0.23483520130E-01  0.23959696083E-01  0.00000000000E+00 0. -1.
     999901    1    3    3    0    0 -0.66817130568E-01  0.11283126389E+00  0.10446670939E-01  0.88977781271E+00  0.88000000000E+00 0. -1.
        -11    1    4    4    0    0  0.19667955372E-01 -0.40068751814E-01 -0.49168021255E-02  0.44908455825E-01  0.51100000000E-03 0. -1.
         11    1    4    4    0    0  0.42512328435E-01 -0.71718016610E-01  0.17953651317E-01  0.85284035387E-01  0.51100000000E-03 0.  1.
</event>
<event>
 8    1  0.1170483E+005  0.1043930E+01  0.7957747E-01            NaN
         13   -1    0    0    0    0  0.00000000000E+00  0.00000000000E+00  0.74505805969E-08  0.10566000000E+00  0.10566000000E+00 0.  1.
     999900   -1    0    0    0    0 -0.00000000000E+00 -0.00000000000E+00 -0.74505805969E-08  0.93827000000E+00  0.93827000000E+00 0. -1.
     999902    2    1    2    0    0  0.21526288041E-01  0.68168073066E-02 -0.68117282012E-02  0.10203450561E+01  0.10200724405E+01 0.  0.
     999903    2    3    3    0    0  0.54203301639E-01 -0.46517011434E-01  0.10768844505E+00  0.13072571439E+00  0.19763120764E-01 0.  0.
         14    1    1    2    0    0 -0.21526288041E-01 -0.68168073066E-02  0.68117282012E-02  0.23584943921E-01  0.00000000000E+00 0.  1.
     999901    1    3    3    0    0 -0.32677013599E-01  0.53333818740E-01 -0.11450017325E+00  0.88961934169E+00  0.88000000000E+00 0. -1.
        -11    1    4    4    0    0  0.15739106928E-01 -0.15966028359E-01  0.51011200192E-01  0.55722860789E-01  0.51100000000E-03 0.  1.
         11    1    4    4    0    0  0.38464194711E-01 -0.30550983075E-01  0.56677244862E-01  0.75002853597E-01  0.51100000000E-03 0. -1.
</event>
<event>
 8    1  0.1170483E+005  0.1043930E+01  0.7957747E-01            NaN
         13   -1    0    0    0    0  0.00000000000E+00  0.00000000000E+00  0.74505805969E-08  0.10566000000E+00  0.10566000000E+00 0. -1.
     999900   -1    0    0    0    0 -0.00000000000E+00 -0.00000000000E+00 -0.74505805969E-08  0.93827000000E+00  0.93827000000E+00 0.  1.
     999902    2    1    2    0    0  0.18734390499E-01 -0.13714993210E-01  0.21631711575E-01  0.10121965890E+01  0.10116990291E+01 0.  0.
     999903    2    3    3    0    0  0.10184741247E+00  0.19043201019E-01 -0.63735363269E-01  0.12356370016E+00  0.21685306868E-01 0.  0.
         14    1    1    2    0    0 -0.18734390499E-01  0.13714993210E-01 -0.21631711575E-01  0.31733410970E-01  0.00000000000E+00 0.  1.
     999901    1    3    3    0    0 -0.83113021975E-01 -0.32758194229E-01  0.85367074844E-01  0.88863288887E+00  0.88000000000E+00 0. -1.
        -11    1    4    4    0    0  0.29102108956E-01 -0.42164142083E-02 -0.19779866922E-01  0.35443125581E-01  0.51100000000E-03 0.  1.
         11    1    4    4    0    0  0.72745303518E-01  0.23259615227E-01 -0.43955496346E-01  0.88120574581E-01  0.51100000000E-03 0. -1.
</event>
<event>
 8    1  0.1170483E+005  0.1043930E+01  0.7957747E-01            NaN
         13   -1    0    0    0    0  0.00000000000E+00  0.00000000000E+00  0.74505805969E-08  0.10566000000E+00  0.10566000000E+00 0.  1.
     999900   -1    0    0    0    0 -0.00000000000E+00 -0.00000000000E+00 -0.74505805969E-08  0.93827000000E+00  0.93827000000E+00 0.  1.
     999902    2    1    2    0    0 -0.27884872914E-02  0.18553618035E-01  0.14964705228E-01  0.10199309416E+01  0.10196485526E+01 0.  0.
     999903    2    3    3    0    0  0.67921628106E-01  0.26851063347E-01 -0.10470480432E+00  0.12898225643E+00  0.18411932488E-01 0.  0.
         14    1    1    2    0    0  0.27884872914E-02 -0.18553618035E-01 -0.14964705228E-01  0.23999058443E-01  0.00000000000E+00 0. -1.
     999901    1    3    3    0    0 -0.70710115398E-01 -0.82974453117E-02  0.11966950955E+00  0.89094868513E+00  0.88000000000E+00 0. -1.
        -11    1    4    4    0    0 -0.13068841589E-03 -0.30607490037E-03 -0.61165097893E-02  0.61468344951E-02  0.51100000000E-03 0.  1.
         11    1    4    4    0    0  0.68052316522E-01  0.27157138248E-01 -0.98588294531E-01  0.12283542193E+00  0.51100000000E-03 0. -1.
</event>
<event>
 8    1  0.1170483E+005  0.1043930E+01  0.7957747E-01            NaN
         13   -1    0    0    0    0  0.00000000000E+00  0.00000000000E+00  0.74505805969E-08  0.10566000000E+00  0.10566000000E+00 0.  1.
     999900   -1    0    0    0    0 -0.00000000000E+00 -0.00000000000E+00 -0.74505805969E-08  0.93827000000E+00  0.93827000000E+00 0.  1.
     999902    2    1    2    0    0 -0.79183385998E-02  0.84869260937E-02 -0.20277446424E-01  0.10205654364E+01  0.10202979501E+01 0.  0.
     999903    2    3    3    0    0  0.69839412651E-01 -0.72093590557E-01  0.77127850495E-01  0.12813769171E+00  0.19888020433E-01 0.  0.
         14    1    1    2    0    0  0.79183385998E-02 -0.84869260937E-02  0.20277446424E-01  0.23364563642E-01  0.00000000000E+00 0.  1.
     999901    1    3    3    0    0 -0.77757751251E-01  0.80580516651E-01 -0.97405296919E-01  0.89242774464E+00  0.88000000000E+00 0.  1.
        -11    1    4    4    0    0  0.30143763139E-01 -0.40873253324E-01  0.47746743336E-01  0.69708549789E-01  0.51100000000E-03 0.  1.
         11    1    4    4    0    0  0.39695649512E-01 -0.31220337233E-01  0.29381107159E-01  0.58429141924E-01  0.51100000000E-03 0. -1.
</event>
<event>
 8    1  0.1170483E+005  0.1043930E+01  0.7957747E-01            NaN
         13   -1    0    0    0    0  0.00000000000E+00  0.00000000000E+00  0.74505805969E-08  0.10566000000E+00  0.10566000000E+00 0.  1.
     999900   -1    0    0    0    0 -0.00000000000E+00 -0.00000000000E+00 -0.74505805969E-08  0.93827000000E+00  0.93827000000E+00 0. -1.
     999902    2    1    2    0    0 -0.47844104143E-02 -0.12833874596E-01  0.19419779493E-01  0.10201660198E+01  0.10198892004E+01 0.  0.
     999903    2    3    3    0    0 -0.10987494306E+00  0.49495184889E-01 -0.43109783951E-01  0.12952643049E+00  0.19908949832E-01 0.  0.
         14    1    1    2    0    0  0.47844104143E-02  0.12833874596E-01 -0.19419779493E-01  0.23763980216E-01  0.00000000000E+00 0. -1.
     999901    1    3    3    0    0  0.10509053265E+00 -0.62329059485E-01  0.62529563444E-01  0.89063958929E+00  0.88000000000E+00 0.  1.
        -11    1    4    4    0    0 -0.53661447684E-01  0.20826820367E-01 -0.30611255498E-01  0.65196759876E-01  0.51100000000E-03 0.  1.
         11    1    4    4    0    0 -0.56213495379E-01  0.28668364522E-01 -0.12498528453E-01  0.64329670616E-01  0.51100000000E-03 0. -1.
</event>
<event>
 8    1  0.1170483E+005  0.1043930E+01  0.7957747E-01            NaN
         13   -1    0    0    0    0  0.00000000000E+00  0.00000000000E+00  0.74505805969E-08  0.10566000000E+00  0.10566000000E+00 0.  1.
     999900   -1    0    0    0    0 -0.00000000000E+00 -0.00000000000E+00 -0.74505805969E-08  0.93827000000E+00  0.93827000000E+00 0. -1.
     999902    2    1    2    0    0  0.55241371497E-02  0.19725886013E-01 -0.12662332221E-01  0.10198476137E+01  0.10195632369E+01 0.  0.
     999903    2    3    3    0    0  0.44850761496E-01  0.55859002817E-01  0.10716127259E+00  0.13012300367E+00  0.17794345666E-01 0.  0.
         14    1    1    2    0    0 -0.55241371497E-02 -0.19725886013E-01  0.12662332221E-01  0.24082386251E-01  0.00000000000E+00 0. -1.
     999901    1    3    3    0    0 -0.39326624346E-01 -0.36133116803E-01 -0.11982360481E+00  0.88972461008E+00  0.88000000000E+00 0. -1.
        -11    1    4    4    0    0  0.25046419823E-01  0.31744988312E-01  0.75607883259E-01  0.85743107949E-01  0.51100000000E-03 0.  1.
         11    1    4    4    0    0  0.19804341673E-01  0.24114014505E-01  0.31553389333E-01  0.44379895719E-01  0.51100000000E-03 0. -1.
</event>
<event>
 8    1  0.1170483E+005  0.1043930E+01  0.7957747E-01            NaN
         13   -1    0    0    0    0  0.00000000000E+00  0.00000000000E+00  0.74505805969E-08  0.10566000000E+00  0.10566000000E+00 0. -1.
     999900   -1    0    0    0    0 -0.00000000000E+00 -0.00000000000E+00 -0.74505805969E-08  0.93827000000E+00  0.93827000000E+00 0. -1.
     999902    2    1    2    0    0  0.25753171439E-02  0.21349539204E-01 -0.19803124560E-01  0.10146964777E+01  0.10142752797E+01 0.  0.
     999903    2    3    3    0    0 -0.52428490134E-01  0.10926384115E+00  0.32511816582E-01  0.12706412344E+00  0.20023478421E-01 0.  0.
         14    1    1    2    0    0 -0.25753171439E-02 -0.21349539204E-01  0.19803124560E-01  0.29233522281E-01  0.00000000000E+00 0. -1.
     999901    1    3    3    0    0  0.55003807278E-01 -0.87914301941E-01 -0.52314941142E-01  0.88763235428E+00  0.88000000000E+00 0.  1.
        -11    1    4    4    0    0 -0.53253684440E-01  0.98110038608E-01  0.29186564584E-01  0.11538479647E+00  0.51100000000E-03 0.  1.
         11    1    4    4    0    0  0.82519430672E-03  0.11153802537E-01  0.33252519976E-02  0.11679326972E-01  0.51100000000E-03 0. -1.
</event>
<event>
 8    1  0.1170483E+005  0.1043930E+01  0.7957747E-01            NaN
         13   -1    0    0    0    0  0.00000000000E+00  0.00000000000E+00  0.74505805969E-08  0.10566000000E+00  0.10566000000E+00 0.  1.
     999900   -1    0    0    0    0 -0.00000000000E+00 -0.00000000000E+00 -0.74505805969E-08  0.93827000000E+00  0.93827000000E+00 0.  1.
     999902    2    1    2    0    0  0.17062565520E-01 -0.60596685852E-02  0.13948861054E-01  0.10210734594E+01  0.10208176076E+01 0.  0.
     999903    2    3    3    0    0 -0.58064471397E-01  0.60684044477E-02 -0.11263222934E+00  0.12876525348E+00  0.22049105365E-01 0.  0.
         14    1    1    2    0    0 -0.17062565520E-01  0.60596685852E-02 -0.13948861054E-01  0.22856540644E-01  0.00000000000E+00 0. -1.
     999901    1    3    3    0    0  0.75127036917E-01 -0.12128073033E-01  0.12658109039E+00  0.89230820588E+00  0.88000000000E+00 0. -1.
        -11    1    4    4    0    0 -0.38619354739E-01 -0.62643596109E-02 -0.65262651578E-01  0.76093176920E-01  0.51100000000E-03 0.  1.
         11    1    4    4    0    0 -0.19445116659E-01  0.12332764059E-01 -0.47369577757E-01  0.52672076559E-01  0.51100000000E-03 0. -1.
</event>
<event>
 8    1  0.1170483E+005  0.1043930E+01  0.7957747E-01            NaN
         13   -1    0    0    0    0  0.00000000000E+00  0.00000000000E+00  0.74505805969E-08  0.10566000000E+00  0.10566000000E+00 0.  1.
     999900   -1    0    0    0    0 -0.00000000000E+00 -0.00000000000E+00 -0.74505805969E-08  0.93827000000E+00  0.93827000000E+00 0. -1.
     999902    2    1    2    0    0  0.27052839256E-02 -0.14250688098E-01 -0.17729214078E-01  0.10210231079E+01  0.10207661149E+01 0.  0.
     999903    2    3    3    0    0 -0.12473970813E+00 -0.31620092262E-01 -0.19429461179E-01  0.13167120174E+00  0.19999409716E-01 0.  0.
         14    1    1    2    0    0 -0.27052839256E-02  0.14250688098E-01  0.17729214078E-01  0.22906892068E-01  0.00000000000E+00 0.  1.
     999901    1    3    3    0    0  0.12744499205E+00  0.17369404164E-01  0.17002471008E-02  0.88935190619E+00  0.88000000000E+00 0. -1.
        -11    1    4    4    0    0 -0.61368423343E-01 -0.11226142155E-01 -0.24929474396E-03  0.62389365441E-01  0.51100000000E-03 0.  1.
         11    1    4    4    0    0 -0.63371284783E-01 -0.20393950107E-01 -0.19180166435E-01  0.69281836303E-01  0.51100000000E-03 0. -1.
</event>
<event>
 8    1  0.1170483E+005  0.1043930E+01  0.7957747E-01            NaN
         13   -1    0    0    0    0  0.00000000000E+00  0.00000000000E+00  0.74505805969E-08  0.10566000000E+00  0.10566000000E+00 0. -1.
     999900   -1    0    0    0    0 -0.00000000000E+00 -0.00000000000E+00 -0.74505805969E-08  0.93827000000E+00  0.93827000000E+00 0.  1.
     999902    2    1    2    0    0  0.17237773453E-01  0.14172952063E-01 -0.92263154342E-02  0.10197817433E+01  0.10194957899E+01 0.  0.
     999903    2    3    3    0    0 -0.60005303699E-01  0.10954777567E+00 -0.33781045794E-01  0.13092529557E+00  0.19973040269E-01 0.  0.
         14    1    1    2    0    0 -0.17237773453E-01 -0.14172952063E-01  0.92263154342E-02  0.24148256672E-01  0.00000000000E+00 0.  1.
     999901    1    3    3    0    0  0.77243077152E-01 -0.95374823608E-01  0.24554730359E-01  0.88885644776E+00  0.88000000000E+00 0.  1.
        -11    1    4    4    0    0 -0.37405123220E-01  0.63358298271E-01 -0.29676471175E-01  0.79337073713E-01  0.51100000000E-03 0.  1.
         11    1    4    4    0    0 -0.22600180479E-01  0.46189477399E-01 -0.41045746189E-02  0.51588221853E-01  0.51100000000E-03 0. -1.
</event>
<event>
 8    1  0.1170483E+005  0.1043930E+01  0.7957747E-01            NaN
         13   -1    0    0    0    0  0.00000000000E+00  0.00000000000E+00  0.74505805969E-08  0.10566000000E+00  0.10566000000E+00 0. -1.
     999900   -1    0    0    0    0 -0.00000000000E+00 -0.00000000000E+00 -0.74505805969E-08  0.93827000000E+00  0.93827000000E+00 0. -1.
     999902    2    1    2    0    0  0.17005532758E-01 -0.16610313453E-01 -0.39734953684E-02  0.10198285618E+01  0.10195437294E+01 0.  0.
     999903    2    3    3    0    0 -0.30159460783E-01 -0.11302390339E+00 -0.57224839222E-01  0.13170930036E+00  0.19714506430E-01 0.  0.
         14    1    1    2    0    0 -0.17005532758E-01  0.16610313453E-01  0.39734953684E-02  0.24101438190E-01  0.00000000000E+00 0. -1.
     999901    1    3    3    0    0  0.47164993541E-01  0.96413589940E-01  0.53251343854E-01  0.88811926145E+00  0.88000000000E+00 0.  1.
        -11    1    4    4    0    0 -0.17547134682E-01 -0.85261164080E-01 -0.49925761462E-01  0.10035044003E+00  0.51100000000E-03 0. -1.
         11    1    4    4    0    0 -0.12612326101E-01 -0.27762739313E-01 -0.72990777597E-02  0.31358860326E-01  0.51100000000E-03 0.  1.
</event>
<event>
 8    1  0.1170483E+005  0.1043930E+01  0.7957747E-01            NaN
         13   -1    0    0    0    0  0.00000000000E+00  0.00000000000E+00  0.74505805969E-08  0.10566000000E+00  0.10566000000E+00 0.  1.
     999900   -1    0    0    0    0 -0.00000000000E+00 -0.00000000000E+00 -0.74505805969E-08  0.93827000000E+00  0.93827000000E+00 0. -1.
     999902    2    1    2    0    0 -0.80622136380E-02  0.13102257297E-01  0.14813611686E-01  0.10225732323E+01  0.10223501865E+01 0.  0.
     999903    2    3    3    0    0 -0.12040723118E+00 -0.17827513895E-01  0.52437703204E-01  0.13409496810E+00  0.20396719859E-01 0.  0.
         14    1    1    2    0    0  0.80622136380E-02 -0.13102257297E-01 -0.14813611686E-01  0.21356767691E-01  0.00000000000E+00 0.  1.
     999901    1    3    3    0    0  0.11234501754E+00  0.30929771193E-01 -0.37624091519E-01  0.88847826421E+00  0.88000000000E+00 0. -1.
        -11    1    4    4    0    0 -0.52510101817E-01  0.18537413174E-02  0.25926728491E-01  0.58593545045E-01  0.51100000000E-03 0. -1.
         11    1    4    4    0    0 -0.67897129359E-01 -0.19681255213E-01  0.26510974714E-01  0.75501423054E-01  0.51100000000E-03 0.  1.
</event>
<event>
 8    1  0.1170483E+005  0.1043930E+01  0.7957747E-01            NaN
         13   -1    0    0    0    0  0.00000000000E+00  0.00000000000E+00  0.74505805969E-08  0.10566000000E+00  0.10566000000E+00 0. -1.
     999900   -1    0    0    0    0 -0.00000000000E+00 -0.00000000000E+00 -0.74505805969E-08  0.93827000000E+00  0.93827000000E+00 0. -1.
     999902    2    1    2    0    0 -0.71128053004E-02  0.16101937312E-01 -0.16141665136E-01  0.10200465803E+01  0.10197669382E+01 0.  0.
     999903    2    3    3    0    0 -0.86545798855E-01 -0.27444890293E-01  0.89646940306E-01  0.12909363219E+00  0.19626376717E-01 0.  0.
         14    1    1    2    0    0  0.71128053004E-02 -0.16101937312E-01  0.16141665136E-01  0.23883419726E-01  0.00000000000E+00 0. -1.
     999901    1    3    3    0    0  0.79432993555E-01  0.43546827605E-01 -0.10578860544E+00  0.89095294808E+00  0.88000000000E+00 0. -1.
        -11    1    4    4    0    0 -0.42781848996E-01 -0.20663535533E-01  0.36518798673E-01  0.59926221988E-01  0.51100000000E-03 0.  1.
         11    1    4    4    0    0 -0.43763949859E-01 -0.67813547605E-02  0.53128141633E-01  0.69167410201E-01  0.51100000000E-03 0. -1.
</event>
<event>
 8    1  0.1170483E+005  0.1043930E+01  0.7957747E-01            NaN
         13   -1    0    0    0    0  0.00000000000E+00  0.00000000000E+00  0.74505805969E-08  0.10566000000E+00  0.10566000000E+00 0. -1.
     999900   -1    0    0    0    0 -0.00000000000E+00 -0.00000000000E+00 -0.74505805969E-08  0.93827000000E+00  0.93827000000E+00 0. -1.
     999902    2    1    2    0    0  0.58804071222E-02 -0.23711127662E-01 -0.54304433516E-02  0.10189042837E+01  0.10185969040E+01 0.  0.
     999903    2    3    3    0    0  0.93164596110E-01  0.77228947130E-02  0.86913963432E-01  0.12922225234E+00  0.20126310848E-01 0.  0.
         14    1    1    2    0    0 -0.58804071222E-02  0.23711127662E-01  0.54304433516E-02  0.25025716332E-01  0.00000000000E+00 0. -1.
     999901    1    3    3    0    0 -0.87284188988E-01 -0.31434022375E-01 -0.92344406784E-01  0.88968203133E+00  0.88000000000E+00 0. -1.
        -11    1    4    4    0    0  0.32716027915E-01  0.95164161906E-02  0.40870088108E-01  0.53212083990E-01  0.51100000000E-03 0. -1.
         11    1    4    4    0    0  0.60448568196E-01 -0.17935214775E-02  0.46043875324E-01  0.76010168347E-01  0.51100000000E-03 0.  1.
</event>
