<event>
 8    1  0.1208168E+005  0.1043930E+01  0.7957747E-01            NaN
         13   -1    0    0    0    0  0.00000000000E+00  0.00000000000E+00  0.74505805969E-08  0.10566000000E+00  0.10566000000E+00 0. -1.
     999900   -1    0    0    0    0 -0.00000000000E+00 -0.00000000000E+00 -0.74505805969E-08  0.93827000000E+00  0.93827000000E+00 0. -1.
     999902    2    1    2    0    0 -0.59805225186E-02 -0.17773738054E-01 -0.16162925867E-01  0.10191729286E+01  0.10188721930E+01 0.  0.
     999903    2    3    3    0    0  0.83153333193E-01 -0.92011380705E-01  0.34125131843E-01  0.13013695596E+00  0.19761874466E-01 0.  0.
         14    1    1    2    0    0  0.59805225186E-02  0.17773738054E-01  0.16162925867E-01  0.24757071446E-01  0.00000000000E+00 0. -1.
     999901    1    3    3    0    0 -0.89133855711E-01  0.74237642651E-01 -0.50288057710E-01  0.88903597260E+00  0.88000000000E+00 0.  1.
        -11    1    4    4    0    0  0.52695979559E-01 -0.71039076598E-01  0.26931748772E-01  0.92460785625E-01  0.51100000000E-03 0. -1.
         11    1    4    4    0    0  0.30457353634E-01 -0.20972304108E-01  0.71933830714E-02  0.37676170333E-01  0.51100000000E-03 0.  1.
</event>
<event>
 8    1  0.1208168E+005  0.1043930E+01  0.7957747E-01            NaN
         13   -1    0    0    0    0  0.00000000000E+00  0.00000000000E+00  0.74505805969E-08  0.10566000000E+00  0.10566000000E+00 0. -1.
     999900   -1    0    0    0    0 -0.00000000000E+00 -0.00000000000E+00 -0.74505805969E-08  0.93827000000E+00  0.93827000000E+00 0. -1.
     999902    2    1    2    0    0  0.16548451821E-01  0.16269901136E-01 -0.11691917641E-01  0.10179441985E+01  0.10176124652E+01 0.  0.
     999903    2    3    3    0    0  0.82523998192E-01  0.78047466108E-01  0.56401331929E-01  0.13069793569E+00  0.31610487310E-01 0.  0.
         14    1    1    2    0    0 -0.16548451821E-01 -0.16269901136E-01  0.11691917641E-01  0.25985801484E-01  0.00000000000E+00 0. -1.
     999901    1    3    3    0    0 -0.65975546371E-01 -0.61777564972E-01 -0.68093249570E-01  0.88724626282E+00  0.88000000000E+00 0. -1.
        -11    1    4    4    0    0  0.17051565219E-01  0.20788802043E-02  0.12332714694E-01  0.21152649764E-01  0.51100000000E-03 0.  1.
         11    1    4    4    0    0  0.65472432973E-01  0.75968585904E-01  0.44068617235E-01  0.10954528593E+00  0.51100000000E-03 0. -1.
</event>
<event>
 8    1  0.1208168E+005  0.1043930E+01  0.7957747E-01            NaN
         13   -1    0    0    0    0  0.00000000000E+00  0.00000000000E+00  0.74505805969E-08  0.10566000000E+00  0.10566000000E+00 0.  1.
     999900   -1    0    0    0    0 -0.00000000000E+00 -0.00000000000E+00 -0.74505805969E-08  0.93827000000E+00  0.93827000000E+00 0. -1.
     999902    2    1    2    0    0  0.67705846558E-02  0.75397596031E-02 -0.21775850631E-01  0.10199117473E+01  0.10196289010E+01 0.  0.
     999903    2    3    3    0    0  0.60962858092E-01 -0.11047952663E+00  0.20339193082E-01  0.12938435788E+00  0.20110530028E-01 0.  0.
         14    1    1    2    0    0 -0.67705846558E-02 -0.75397596031E-02  0.21775850631E-01  0.24018252687E-01  0.00000000000E+00 0.  1.
     999901    1    3    3    0    0 -0.54192273436E-01  0.11801928623E+00 -0.42115043713E-01  0.89052738943E+00  0.88000000000E+00 0.  1.
        -11    1    4    4    0    0  0.16873408818E-02 -0.16077064098E-01  0.63624609572E-03  0.16185951914E-01  0.51100000000E-03 0.  1.
         11    1    4    4    0    0  0.59275517210E-01 -0.94402462530E-01  0.19702946986E-01  0.11319840597E+00  0.51100000000E-03 0. -1.
</event>
<event>
 8    1  0.1208168E+005  0.1043930E+01  0.7957747E-01            NaN
         13   -1    0    0    0    0  0.00000000000E+00  0.00000000000E+00  0.74505805969E-08  0.10566000000E+00  0.10566000000E+00 0.  1.
     999900   -1    0    0    0    0 -0.00000000000E+00 -0.00000000000E+00 -0.74505805969E-08  0.93827000000E+00  0.93827000000E+00 0.  1.
     999902    2    1    2    0    0 -0.63931207134E-02 -0.20414751722E-01 -0.10459195986E-01  0.10201176322E+01  0.10198396710E+01 0.  0.
     999903    2    3    3    0    0  0.91749366544E-01  0.27461792653E-01  0.83178435945E-01  0.12843825179E+00  0.20140407133E-01 0.  0.
         14    1    1    2    0    0  0.63931207134E-02  0.20414751722E-01  0.10459195986E-01  0.23812367816E-01  0.00000000000E+00 0.  1.
     999901    1    3    3    0    0 -0.98142487258E-01 -0.47876544375E-01 -0.93637631932E-01  0.89167938039E+00  0.88000000000E+00 0.  1.
        -11    1    4    4    0    0  0.23630040008E-01  0.63084943650E-02  0.33636323336E-01  0.41591336364E-01  0.51100000000E-03 0. -1.
         11    1    4    4    0    0  0.68119326537E-01  0.21153298288E-01  0.49542112609E-01  0.86846915426E-01  0.51100000000E-03 0.  1.
</event>
<event>
 8    1  0.1208168E+005  0.1043930E+01  0.7957747E-01            NaN
         13   -1    0    0    0    0  0.00000000000E+00  0.00000000000E+00  0.74505805969E-08  0.10566000000E+00  0.10566000000E+00 0. -1.
     999900   -1    0    0    0    0 -0.00000000000E+00 -0.00000000000E+00 -0.74505805969E-08  0.93827000000E+00  0.93827000000E+00 0.  1.
     999902    2    1    2    0    0  0.17796945806E-01  0.13610289769E-01 -0.78703586163E-02  0.10201831305E+01  0.10199067143E+01 0.  0.
     999903    2    3    3    0    0 -0.43415266733E-01  0.10836068893E+00  0.55210908462E-01  0.13074295859E+00  0.20458556091E-01 0.  0.
         14    1    1    2    0    0 -0.17796945806E-01 -0.13610289769E-01  0.78703586163E-02  0.23746869527E-01  0.00000000000E+00 0. -1.
     999901    1    3    3    0    0  0.61212212539E-01 -0.94750399157E-01 -0.63081267079E-01  0.88944017188E+00  0.88000000000E+00 0. -1.
        -11    1    4    4    0    0 -0.31182021322E-01  0.60205939420E-01  0.40259012016E-01  0.78855074438E-01  0.51100000000E-03 0. -1.
         11    1    4    4    0    0 -0.12233245412E-01  0.48154749506E-01  0.14951896446E-01  0.51887884151E-01  0.51100000000E-03 0.  1.
</event>
<event>
 8    1  0.1208168E+005  0.1043930E+01  0.7957747E-01            NaN
         13   -1    0    0    0    0  0.00000000000E+00  0.00000000000E+00  0.74505805969E-08  0.10566000000E+00  0.10566000000E+00 0.  1.
     999900   -1    0    0    0    0 -0.00000000000E+00 -0.00000000000E+00 -0.74505805969E-08  0.93827000000E+00  0.93827000000E+00 0.  1.
     999902    2    1    2    0    0  0.14039923376E-01  0.19158455477E-01  0.53012969273E-04  0.10201777648E+01  0.10199012223E+01 0.  0.
     999903    2    3    3    0    0  0.12362001525E-01  0.11080389317E+00 -0.69497558862E-01  0.13268749238E+00  0.18594034601E-01 0.  0.
         14    1    1    2    0    0 -0.14039923376E-01 -0.19158455477E-01 -0.53012969273E-04  0.23752235159E-01  0.00000000000E+00 0. -1.
     999901    1    3    3    0    0  0.16779218513E-02 -0.91645437693E-01  0.69550571832E-01  0.88749027246E+00  0.88000000000E+00 0. -1.
        -11    1    4    4    0    0  0.17380796899E-02  0.85481541146E-01 -0.54511416616E-01  0.10139955848E+00  0.51100000000E-03 0. -1.
         11    1    4    4    0    0  0.10623921835E-01  0.25322352025E-01 -0.14986142247E-01  0.31287933899E-01  0.51100000000E-03 0.  1.
</event>
<event>
 8    1  0.1208168E+005  0.1043930E+01  0.7957747E-01            NaN
         13   -1    0    0    0    0  0.00000000000E+00  0.00000000000E+00  0.74505805969E-08  0.10566000000E+00  0.10566000000E+00 0. -1.
     999900   -1    0    0    0    0 -0.00000000000E+00 -0.00000000000E+00 -0.74505805969E-08  0.93827000000E+00  0.93827000000E+00 0. -1.
     999902    2    1    2    0    0 -0.23904569895E-02 -0.39462596947E-02  0.22961173405E-01  0.10205098648E+01  0.10202410898E+01 0.  0.
     999903    2    3    3    0    0 -0.12942570538E+00 -0.48624313844E-02  0.67521942163E-02  0.13123964447E+00  0.20089691409E-01 0.  0.
         14    1    1    2    0    0  0.23904569895E-02  0.39462596947E-02 -0.22961173405E-01  0.23420135233E-01  0.00000000000E+00 0.  1.
     999901    1    3    3    0    0  0.12703524839E+00  0.91617168963E-03  0.16208979189E-01  0.88927022030E+00  0.88000000000E+00 0.  1.
        -11    1    4    4    0    0 -0.13155410508E-01  0.13081608390E-02 -0.51514624897E-02  0.14197703941E-01  0.51100000000E-03 0.  1.
         11    1    4    4    0    0 -0.11627029487E+00 -0.61705922233E-02  0.11903656706E-01  0.11704194053E+00  0.51100000000E-03 0. -1.
</event>
<event>
 8    1  0.1208168E+005  0.1043930E+01  0.7957747E-01            NaN
         13   -1    0    0    0    0  0.00000000000E+00  0.00000000000E+00  0.74505805969E-08  0.10566000000E+00  0.10566000000E+00 0.  1.
     999900   -1    0    0    0    0 -0.00000000000E+00 -0.00000000000E+00 -0.74505805969E-08  0.93827000000E+00  0.93827000000E+00 0. -1.
     999902    2    1    2    0    0 -0.19791369266E-01  0.39780595396E-02 -0.12666977697E-01  0.10200977618E+01  0.10198193311E+01 0.  0.
     999903    2    3    3    0    0  0.10303796385E+00  0.14645804200E-01 -0.74156872502E-01  0.12937791074E+00  0.20201001777E-01 0.  0.
         14    1    1    2    0    0  0.19791369266E-01 -0.39780595396E-02  0.12666977697E-01  0.23832238231E-01  0.00000000000E+00 0.  1.
     999901    1    3    3    0    0 -0.12282933312E+00 -0.10667744660E-01  0.61489894805E-01  0.89071985103E+00  0.88000000000E+00 0.  1.
        -11    1    4    4    0    0  0.17734422213E-01  0.78920245895E-02 -0.21181483802E-01  0.28735172880E-01  0.51100000000E-03 0. -1.
         11    1    4    4    0    0  0.85303541640E-01  0.67537796104E-02 -0.52975388700E-01  0.10064273786E+00  0.51100000000E-03 0.  1.
</event>
<event>
 8    1  0.1208168E+005  0.1043930E+01  0.7957747E-01            NaN
         13   -1    0    0    0    0  0.00000000000E+00  0.00000000000E+00  0.74505805969E-08  0.10566000000E+00  0.10566000000E+00 0. -1.
     999900   -1    0    0    0    0 -0.00000000000E+00 -0.00000000000E+00 -0.74505805969E-08  0.93827000000E+00  0.93827000000E+00 0.  1.
     999902    2    1    2    0    0 -0.34312119478E-02 -0.93799186746E-02  0.22577940156E-01  0.10192415519E+01  0.10189425016E+01 0.  0.
     999903    2    3    3    0    0 -0.10046558873E+00  0.10611935807E-01 -0.76260327137E-01  0.12818355846E+00  0.20234610552E-01 0.  0.
         14    1    1    2    0    0  0.34312119478E-02  0.93799186746E-02 -0.22577940156E-01  0.24688448138E-01  0.00000000000E+00 0.  1.
     999901    1    3    3    0    0  0.97034376782E-01 -0.19991854482E-01  0.98838267293E-01  0.89105799340E+00  0.88000000000E+00 0. -1.
        -11    1    4    4    0    0 -0.63454503557E-01  0.16042079512E-01 -0.44978249099E-01  0.79417418428E-01  0.51100000000E-03 0.  1.
         11    1    4    4    0    0 -0.37011085173E-01 -0.54301437049E-02 -0.31282078038E-01  0.48766140033E-01  0.51100000000E-03 0. -1.
</event>
<event>
 8    1  0.1208168E+005  0.1043930E+01  0.7957747E-01            NaN
         13   -1    0    0    0    0  0.00000000000E+00  0.00000000000E+00  0.74505805969E-08  0.10566000000E+00  0.10566000000E+00 0. -1.
     999900   -1    0    0    0    0 -0.00000000000E+00 -0.00000000000E+00 -0.74505805969E-08  0.93827000000E+00  0.93827000000E+00 0.  1.
     999902    2    1    2    0    0 -0.58552568101E-02  0.14940527047E-01  0.14122441338E-01  0.10225536876E+01  0.10223302291E+01 0.  0.
     999903    2    3    3    0    0 -0.77801290160E-01  0.67299044424E-01  0.85199545051E-01  0.13521519488E+00  0.21023423112E-01 0.  0.
         14    1    1    2    0    0  0.58552568101E-02 -0.14940527047E-01 -0.14122441338E-01  0.21376312360E-01  0.00000000000E+00 0.  1.
     999901    1    3    3    0    0  0.71946033350E-01 -0.52358517376E-01 -0.71077103714E-01  0.88733849276E+00  0.88000000000E+00 0.  1.
        -11    1    4    4    0    0 -0.40873265376E-01  0.46050716815E-01  0.41978782714E-01  0.74523631559E-01  0.51100000000E-03 0. -1.
         11    1    4    4    0    0 -0.36928024784E-01  0.21248327609E-01  0.43220762337E-01  0.60691563324E-01  0.51100000000E-03 0.  1.
</event>
<event>
 8    1  0.1208168E+005  0.1043930E+01  0.7957747E-01            NaN
         13   -1    0    0    0    0  0.00000000000E+00  0.00000000000E+00  0.74505805969E-08  0.10566000000E+00  0.10566000000E+00 0. -1.
     999900   -1    0    0    0    0 -0.00000000000E+00 -0.00000000000E+00 -0.74505805969E-08  0.93827000000E+00  0.93827000000E+00 0. -1.
     999902    2    1    2    0    0 -0.12423896349E-01  0.98494609093E-02  0.17686706908E-01  0.10201774279E+01  0.10199008774E+01 0.  0.
     999903    2    3    3    0    0 -0.93903747033E-01 -0.87182785295E-01  0.19233240219E-01  0.13110115746E+00  0.19971084085E-01 0.  0.
         14    1    1    2    0    0  0.12423896349E-01 -0.98494609093E-02 -0.17686706908E-01  0.23752572113E-01  0.00000000000E+00 0.  1.
     999901    1    3    3    0    0  0.81479850683E-01  0.97032246204E-01 -0.15465333107E-02  0.88907627043E+00  0.88000000000E+00 0.  1.
        -11    1    4    4    0    0 -0.28561683455E-01 -0.32780390186E-01  0.14905726190E-01  0.45964829345E-01  0.51100000000E-03 0.  1.
         11    1    4    4    0    0 -0.65342063578E-01 -0.54402395109E-01  0.43275140295E-02  0.85136328115E-01  0.51100000000E-03 0. -1.
</event>
<event>
 8    1  0.1208168E+005  0.1043930E+01  0.7957747E-01            NaN
         13   -1    0    0    0    0  0.00000000000E+00  0.00000000000E+00  0.74505805969E-08  0.10566000000E+00  0.10566000000E+00 0.  1.
     999900   -1    0    0    0    0 -0.00000000000E+00 -0.00000000000E+00 -0.74505805969E-08  0.93827000000E+00  0.93827000000E+00 0. -1.
     999902    2    1    2    0    0  0.17787328033E-01 -0.11481796831E-01 -0.13002641074E-01  0.10190846911E+01  0.10187817815E+01 0.  0.
     999903    2    3    3    0    0 -0.26290151662E-02 -0.57212249738E-01 -0.11638934362E+00  0.13161812183E+00  0.22286710062E-01 0.  0.
         14    1    1    2    0    0 -0.17787328033E-01  0.11481796831E-01  0.13002641074E-01  0.24845308852E-01  0.00000000000E+00 0. -1.
     999901    1    3    3    0    0  0.20416343199E-01  0.45730452907E-01  0.10338670255E+00  0.88746656932E+00  0.88000000000E+00 0.  1.
        -11    1    4    4    0    0 -0.98751512589E-02 -0.42169104664E-01 -0.70043691184E-01  0.82353699348E-01  0.51100000000E-03 0. -1.
         11    1    4    4    0    0  0.72461360927E-02 -0.15043145074E-01 -0.46345652435E-01  0.49264422483E-01  0.51100000000E-03 0.  1.
</event>
<event>
 8    1  0.1208168E+005  0.1043930E+01  0.7957747E-01            NaN
         13   -1    0    0    0    0  0.00000000000E+00  0.00000000000E+00  0.74505805969E-08  0.10566000000E+00  0.10566000000E+00 0. -1.
     999900   -1    0    0    0    0 -0.00000000000E+00 -0.00000000000E+00 -0.74505805969E-08  0.93827000000E+00  0.93827000000E+00 0.  1.
     999902    2    1    2    0    0 -0.17181803951E-01 -0.57438073558E-02  0.99705224794E-02  0.10232510970E+01  0.10230421255E+01 0.  0.
     999903    2    3    3    0    0  0.76326373945E-01 -0.10336103475E+00 -0.24828503244E-01  0.13224948389E+00  0.19085401487E-01 0.  0.
         14    1    1    2    0    0  0.17181803951E-01  0.57438073558E-02 -0.99705224794E-02  0.20678902980E-01  0.00000000000E+00 0.  1.
     999901    1    3    3    0    0 -0.93508177895E-01  0.97617227397E-01  0.34799025723E-01  0.89100161314E+00  0.88000000000E+00 0.  1.
        -11    1    4    4    0    0  0.43871153954E-01 -0.74143973062E-01 -0.14371507700E-01  0.87343049209E-01  0.51100000000E-03 0. -1.
         11    1    4    4    0    0  0.32455219991E-01 -0.29217061691E-01 -0.10456995543E-01  0.44906434676E-01  0.51100000000E-03 0.  1.
</event>
<event>
 8    1  0.1208168E+005  0.1043930E+01  0.7957747E-01            NaN
         13   -1    0    0    0    0  0.00000000000E+00  0.00000000000E+00  0.74505805969E-08  0.10566000000E+00  0.10566000000E+00 0.  1.
     999900   -1    0    0    0    0 -0.00000000000E+00 -0.00000000000E+00 -0.74505805969E-08  0.93827000000E+00  0.93827000000E+00 0.  1.
     999902    2    1    2    0    0 -0.60361539096E-03  0.22759224406E-01  0.55892324678E-02  0.10204867458E+01  0.10202174338E+01 0.  0.
     999903    2    3    3    0    0  0.70121369613E-01  0.10272057619E+00 -0.42425885035E-01  0.13273605289E+00  0.18718460568E-01 0.  0.
         14    1    1    2    0    0  0.60361539096E-03 -0.22759224406E-01 -0.55892324678E-02  0.23443254183E-01  0.00000000000E+00 0. -1.
     999901    1    3    3    0    0 -0.70724985004E-01 -0.79961351787E-01  0.48015117503E-01  0.88775069293E+00  0.88000000000E+00 0. -1.
        -11    1    4    4    0    0  0.22838019180E-01  0.27941703624E-01 -0.20801193617E-01  0.41656508476E-01  0.51100000000E-03 0. -1.
         11    1    4    4    0    0  0.47283350433E-01  0.74778872569E-01 -0.21624691418E-01  0.91079544415E-01  0.51100000000E-03 0.  1.
</event>
<event>
 8    1  0.1208168E+005  0.1043930E+01  0.7957747E-01            NaN
         13   -1    0    0    0    0  0.00000000000E+00  0.00000000000E+00  0.74505805969E-08  0.10566000000E+00  0.10566000000E+00 0. -1.
     999900   -1    0    0    0    0 -0.00000000000E+00 -0.00000000000E+00 -0.74505805969E-08  0.93827000000E+00  0.93827000000E+00 0.  1.
     999902    2    1    2    0    0 -0.54392012588E-02 -0.11328566906E-01 -0.21440684002E-01  0.10190779524E+01  0.10187748764E+01 0.  0.
     999903    2    3    3    0    0 -0.12686881210E+00  0.13363406378E-01  0.12002732452E-01  0.12976737335E+00  0.20523876056E-01 0.  0.
         14    1    1    2    0    0  0.54392012588E-02  0.11328566906E-01  0.21440684002E-01  0.24852047581E-01  0.00000000000E+00 0.  1.
     999901    1    3    3    0    0  0.12142961084E+00 -0.24691973284E-01 -0.33443416454E-01  0.88931057906E+00  0.88000000000E+00 0.  1.
        -11    1    4    4    0    0 -0.93569536562E-01  0.11340480850E-01  0.17747214940E-01  0.95911883713E-01  0.51100000000E-03 0. -1.
         11    1    4    4    0    0 -0.33299275534E-01  0.20229255273E-02 -0.57444824880E-02  0.33855489641E-01  0.51100000000E-03 0.  1.
</event>
<event>
 8    1  0.1208168E+005  0.1043930E+01  0.7957747E-01            NaN
         13   -1    0    0    0    0  0.00000000000E+00  0.00000000000E+00  0.74505805969E-08  0.10566000000E+00  0.10566000000E+00 0.  1.
     999900   -1    0    0    0    0 -0.00000000000E+00 -0.00000000000E+00 -0.74505805969E-08  0.93827000000E+00  0.93827000000E+00 0.  1.
     999902    2    1    2    0    0  0.15835082496E-01  0.25191983666E-02 -0.20075644870E-01  0.10182370493E+01  0.10179128454E+01 0.  0.
     999903    2    3    3    0    0  0.29911923673E-01  0.67846676906E-01 -0.10680793538E+00  0.13145165976E+00  0.19331555787E-01 0.  0.
         14    1    1    2    0    0 -0.15835082496E-01 -0.25191983666E-02  0.20075644870E-01  0.25692950687E-01  0.00000000000E+00 0.  1.
     999901    1    3    3    0    0 -0.14076841178E-01 -0.65327478539E-01  0.86732290506E-01  0.88678538955E+00  0.88000000000E+00 0. -1.
        -11    1    4    4    0    0  0.28749313310E-01  0.43018249077E-01 -0.73620358502E-01  0.89985060295E-01  0.51100000000E-03 0. -1.
         11    1    4    4    0    0  0.11626103638E-02  0.24828427829E-01 -0.33187576874E-01  0.41466599464E-01  0.51100000000E-03 0.  1.
</event>
<event>
 8    1  0.1208168E+005  0.1043930E+01  0.7957747E-01            NaN
         13   -1    0    0    0    0  0.00000000000E+00  0.00000000000E+00  0.74505805969E-08  0.10566000000E+00  0.10566000000E+00 0.  1.
     999900   -1    0    0    0    0 -0.00000000000E+00 -0.00000000000E+00 -0.74505805969E-08  0.93827000000E+00  0.93827000000E+00 0.  1.
     999902    2    1    2    0    0 -0.66141159012E-02  0.19760264905E-02  0.21095596586E-01  0.10217337074E+01  0.10214925812E+01 0.  0.
     999903    2    3    3    0    0 -0.57685704325E-01  0.90412866641E-01  0.77894809720E-01  0.13400878804E+00  0.19713623540E-01 0.  0.
         14    1    1    2    0    0  0.66141159012E-02 -0.19760264905E-02 -0.21095596586E-01  0.22196292599E-01  0.00000000000E+00 0. -1.
     999901    1    3    3    0    0  0.51071588424E-01 -0.88436840151E-01 -0.56799213134E-01  0.88772491936E+00  0.88000000000E+00 0.  1.
        -11    1    4    4    0    0 -0.24669500290E-01  0.42521548314E-01  0.23997119615E-01  0.54706390727E-01  0.51100000000E-03 0.  1.
         11    1    4    4    0    0 -0.33016204034E-01  0.47891318327E-01  0.53897690105E-01  0.79302397313E-01  0.51100000000E-03 0. -1.
</event>
<event>
 8    1  0.1208168E+005  0.1043930E+01  0.7957747E-01            NaN
         13   -1    0    0    0    0  0.00000000000E+00  0.00000000000E+00  0.74505805969E-08  0.10566000000E+00  0.10566000000E+00 0. -1.
     999900   -1    0    0    0    0 -0.00000000000E+00 -0.00000000000E+00 -0.74505805969E-08  0.93827000000E+00  0.93827000000E+00 0. -1.
     999902    2    1    2    0    0 -0.17910940773E-01  0.80300651768E-02  0.13946073581E-01  0.10198514470E+01  0.10195671617E+01 0.  0.
     999903    2    3    3    0    0  0.48065401952E-02  0.12282303673E+00 -0.39246899619E-01  0.13051292728E+00  0.19613869536E-01 0.  0.
         14    1    1    2    0    0  0.17910940773E-01 -0.80300651768E-02 -0.13946073581E-01  0.24078552997E-01  0.00000000000E+00 0.  1.
     999901    1    3    3    0    0 -0.22717480968E-01 -0.11479297155E+00  0.53192973200E-01  0.88933851972E+00  0.88000000000E+00 0. -1.
        -11    1    4    4    0    0 -0.16251837197E-02  0.89606286872E-01 -0.20922700195E-01  0.92032322439E-01  0.51100000000E-03 0.  1.
         11    1    4    4    0    0  0.64317239149E-02  0.33216749858E-01 -0.18324199424E-01  0.38480604844E-01  0.51100000000E-03 0. -1.
</event>
<event>
 8    1  0.1208168E+005  0.1043930E+01  0.7957747E-01            NaN
         13   -1    0    0    0    0  0.00000000000E+00  0.00000000000E+00  0.74505805969E-08  0.10566000000E+00  0.10566000000E+00 0. -1.
     999900   -1    0    0    0    0 -0.00000000000E+00 -0.00000000000E+00 -0.74505805969E-08  0.93827000000E+00  0.93827000000E+00 0. -1.
     999902    2    1    2    0    0  0.34022211326E-02 -0.23702966976E-01  0.18805821151E-02  0.10199103759E+01  0.10196274970E+01 0.  0.
     999903    2    3    3    0    0  0.11605589323E+00  0.52490487715E-01 -0.10096745900E-01  0.12938258367E+00  0.20339297566E-01 0.  0.
         14    1    1    2    0    0 -0.34022211326E-02  0.23702966976E-01 -0.18805821151E-02  0.24019624085E-01  0.00000000000E+00 0.  1.
     999901    1    3    3    0    0 -0.11265367210E+00 -0.76193454691E-01  0.11977328015E-01  0.89052779225E+00  0.88000000000E+00 0. -1.
        -11    1    4    4    0    0  0.46679227759E-01  0.15053060847E-01 -0.12110407586E-01  0.50521955999E-01  0.51100000000E-03 0. -1.
         11    1    4    4    0    0  0.69376665471E-01  0.37437426869E-01  0.20136616856E-02  0.78860627672E-01  0.51100000000E-03 0.  1.
</event>
<event>
 8    1  0.1208168E+005  0.1043930E+01  0.7957747E-01            NaN
         13   -1    0    0    0    0  0.00000000000E+00  0.00000000000E+00  0.74505805969E-08  0.10566000000E+00  0.10566000000E+00 0. -1.
     999900   -1    0    0    0    0 -0.00000000000E+00 -0.00000000000E+00 -0.74505805969E-08  0.93827000000E+00  0.93827000000E+00 0.  1.
     999902    2    1    2    0    0 -0.72305942585E-02  0.22369091275E-01 -0.24780350000E-02  0.10202910830E+01  0.10200172036E+01 0.  0.
     999903    2    3    3    0    0 -0.83146035855E-01 -0.29165326461E-01  0.93635732249E-01  0.13031534924E+00  0.21226406870E-01 0.  0.
         14    1    1    2    0    0  0.72305942585E-02 -0.22369091275E-01  0.24780350000E-02  0.23638916965E-01  0.00000000000E+00 0.  1.
     999901    1    3    3    0    0  0.75915441597E-01  0.51534417736E-01 -0.96113767249E-01  0.88997573379E+00  0.88000000000E+00 0.  1.
        -11    1    4    4    0    0 -0.57428123059E-01 -0.20150745460E-01  0.49543141969E-01  0.78478187402E-01  0.51100000000E-03 0. -1.
         11    1    4    4    0    0 -0.25717912796E-01 -0.90145810011E-02  0.44092590280E-01  0.51837161842E-01  0.51100000000E-03 0.  1.
</event>
<event>
 8    1  0.1208168E+005  0.1043930E+01  0.7957747E-01            NaN
         13   -1    0    0    0    0  0.00000000000E+00  0.00000000000E+00  0.74505805969E-08  0.10566000000E+00  0.10566000000E+00 0.  1.
     999900   -1    0    0    0    0 -0.00000000000E+00 -0.00000000000E+00 -0.74505805969E-08  0.93827000000E+00  0.93827000000E+00 0. -1.
     999902    2    1    2    0    0  0.19869102946E-01  0.17154243427E-02  0.12658892238E-01  0.10203085799E+01  0.10200351106E+01 0.  0.
     999903    2    3    3    0    0  0.63123206839E-03  0.12388038692E+00 -0.33037877199E-01  0.13048693012E+00  0.24260850900E-01 0.  0.
         14    1    1    2    0    0 -0.19869102946E-01 -0.17154243427E-02 -0.12658892238E-01  0.23621420052E-01  0.00000000000E+00 0.  1.
     999901    1    3    3    0    0  0.19237870878E-01 -0.12216496258E+00  0.45696769437E-01  0.88982164982E+00  0.88000000000E+00 0. -1.
        -11    1    4    4    0    0  0.73182650421E-02  0.75082949720E-01 -0.29838202992E-01  0.81126973447E-01  0.51100000000E-03 0.  1.
         11    1    4    4    0    0 -0.66870329737E-02  0.48797437199E-01 -0.31996742069E-02  0.49359956678E-01  0.51100000000E-03 0. -1.
</event>
<event>
 8    1  0.1208168E+005  0.1043930E+01  0.7957747E-01            NaN
         13   -1    0    0    0    0  0.00000000000E+00  0.00000000000E+00  0.74505805969E-08  0.10566000000E+00  0.10566000000E+00 0. -1.
     999900   -1    0    0    0    0 -0.00000000000E+00 -0.00000000000E+00 -0.74505805969E-08  0.93827000000E+00  0.93827000000E+00 0. -1.
     999902    2    1    2    0    0 -0.23521339508E-01 -0.42692368729E-02  0.24143988852E-02  0.10199027422E+01  0.10196196813E+01 0.  0.
     999903    2    3    3    0    0  0.90665370784E-01 -0.88694147416E-01  0.34193147370E-02  0.12851776353E+00  0.20451469012E-01 0.  0.
         14    1    1    2    0    0  0.23521339508E-01  0.42692368729E-02 -0.24143988852E-02  0.24027257807E-01  0.00000000000E+00 0. -1.
     999901    1    3    3    0    0 -0.11418671029E+00  0.84424910543E-01 -0.10049158518E-02  0.89138497866E+00  0.88000000000E+00 0. -1.
        -11    1    4    4    0    0  0.47327134736E-01 -0.56825485181E-01  0.86916593726E-02  0.74463410559E-01  0.51100000000E-03 0.  1.
         11    1    4    4    0    0  0.43338236048E-01 -0.31868662235E-01 -0.52723446355E-02  0.54054352973E-01  0.51100000000E-03 0. -1.
</event>
<event>
 8    1  0.1208168E+005  0.1043930E+01  0.7957747E-01            NaN
         13   -1    0    0    0    0  0.00000000000E+00  0.00000000000E+00  0.74505805969E-08  0.10566000000E+00  0.10566000000E+00 0.  1.
     999900   -1    0    0    0    0 -0.00000000000E+00 -0.00000000000E+00 -0.74505805969E-08  0.93827000000E+00  0.93827000000E+00 0. -1.
     999902    2    1    2    0    0 -0.14143215903E-01 -0.20652794186E-02 -0.18816141285E-01  0.10203007150E+01  0.10200270614E+01 0.  0.
     999903    2    3    3    0    0  0.43628056139E-01 -0.60659492719E-01  0.10196551596E+00  0.12824745965E+00  0.21620895507E-01 0.  0.
         14    1    1    2    0    0  0.14143215903E-01  0.20652794186E-02  0.18816141285E-01  0.23629284966E-01  0.00000000000E+00 0.  1.
     999901    1    3    3    0    0 -0.57771272042E-01  0.58594213300E-01 -0.12078165725E+00  0.89205325538E+00  0.88000000000E+00 0. -1.
        -11    1    4    4    0    0  0.18823052890E-01 -0.31551577573E-01  0.33002516789E-01  0.49388628275E-01  0.51100000000E-03 0.  1.
         11    1    4    4    0    0  0.24805003248E-01 -0.29107915146E-01  0.68962999176E-01  0.78858831380E-01  0.51100000000E-03 0. -1.
</event>
<event>
 8    1  0.1208168E+005  0.1043930E+01  0.7957747E-01            NaN
         13   -1    0    0    0    0  0.00000000000E+00  0.00000000000E+00  0.74505805969E-08  0.10566000000E+00  0.10566000000E+00 0.  1.
     999900   -1    0    0    0    0 -0.00000000000E+00 -0.00000000000E+00 -0.74505805969E-08  0.93827000000E+00  0.93827000000E+00 0.  1.
     999902    2    1    2    0    0 -0.17126360498E-01  0.10461239924E-01 -0.12247183349E-01  0.10204195074E+01  0.10201486302E+01 0.  0.
     999903    2    3    3    0    0  0.78849121191E-01  0.86030576904E-01 -0.55824817411E-01  0.13091344893E+00  0.20086731854E-01 0.  0.
         14    1    1    2    0    0  0.17126360498E-01 -0.10461239924E-01  0.12247183349E-01  0.23510492649E-01  0.00000000000E+00 0.  1.
     999901    1    3    3    0    0 -0.95975481689E-01 -0.75569336981E-01  0.43577634062E-01  0.88950605842E+00  0.88000000000E+00 0.  1.
        -11    1    4    4    0    0  0.59508784871E-01  0.57866948102E-01 -0.47906285223E-01  0.95839200979E-01  0.51100000000E-03 0. -1.
         11    1    4    4    0    0  0.19340336320E-01  0.28163628802E-01 -0.79185321885E-02  0.35074247951E-01  0.51100000000E-03 0.  1.
</event>
<event>
 8    1  0.1345855E+005  0.1043930E+01  0.7957747E-01            NaN
         13   -1    0    0    0    0  0.00000000000E+00  0.00000000000E+00  0.74505805969E-08  0.10566000000E+00  0.10566000000E+00 0.  1.
     999900   -1    0    0    0    0 -0.00000000000E+00 -0.00000000000E+00 -0.74505805969E-08  0.93827000000E+00  0.93827000000E+00 0.  1.
     999902    2    1    2    0    0 -0.22110285920E-01 -0.87123584515E-02 -0.66113729416E-02  0.10192626089E+01  0.10189640748E+01 0.  0.
     999903    2    3    3    0    0 -0.27057771272E-03  0.24626905610E-01 -0.12638035297E+00  0.13025581026E+00  0.19698345075E-01 0.  0.
         14    1    1    2    0    0  0.22110285920E-01  0.87123584515E-02  0.66113729416E-02  0.24667391135E-01  0.00000000000E+00 0. -1.
     999901    1    3    3    0    0 -0.21839708207E-01 -0.33339264061E-01  0.11976898003E+00  0.88900679860E+00  0.88000000000E+00 0. -1.
        -11    1    4    4    0    0 -0.95913371519E-02  0.15723809695E-01 -0.66766045941E-01  0.69261807306E-01  0.51100000000E-03 0. -1.
         11    1    4    4    0    0  0.93207594392E-02  0.89030959148E-02 -0.59614307028E-01  0.60994002957E-01  0.51100000000E-03 0.  1.
</event>
<event>
 8    1  0.1208168E+005  0.1043930E+01  0.7957747E-01            NaN
         13   -1    0    0    0    0  0.00000000000E+00  0.00000000000E+00  0.74505805969E-08  0.10566000000E+00  0.10566000000E+00 0.  1.
     999900   -1    0    0    0    0 -0.00000000000E+00 -0.00000000000E+00 -0.74505805969E-08  0.93827000000E+00  0.93827000000E+00 0.  1.
     999902    2    1    2    0    0 -0.47992586373E-02  0.20238177675E-01  0.11023432424E-01  0.10203899749E+01  0.10201184089E+01 0.  0.
     999903    2    3    3    0    0 -0.38537395585E-01 -0.11927802926E+00 -0.18638813902E-01  0.12826729122E+00  0.19817000049E-01 0.  0.
         14    1    1    2    0    0  0.47992586373E-02 -0.20238177675E-01 -0.11023432424E-01  0.23540025095E-01  0.00000000000E+00 0.  1.
     999901    1    3    3    0    0  0.33738136948E-01  0.13951620694E+00  0.29662246326E-01  0.89212268368E+00  0.88000000000E+00 0.  1.
        -11    1    4    4    0    0 -0.21842981062E-01 -0.82657196698E-01 -0.45292077199E-02  0.85616019712E-01  0.51100000000E-03 0. -1.
         11    1    4    4    0    0 -0.16694414523E-01 -0.36620832564E-01 -0.14109606182E-01  0.42651271512E-01  0.51100000000E-03 0.  1.
</event>
<event>
 8    1  0.1208168E+005  0.1043930E+01  0.7957747E-01            NaN
         13   -1    0    0    0    0  0.00000000000E+00  0.00000000000E+00  0.74505805969E-08  0.10566000000E+00  0.10566000000E+00 0. -1.
     999900   -1    0    0    0    0 -0.00000000000E+00 -0.00000000000E+00 -0.74505805969E-08  0.93827000000E+00  0.93827000000E+00 0. -1.
     999902    2    1    2    0    0 -0.12190600511E-01  0.28473655375E-02 -0.20621676279E-01  0.10198059091E+01  0.10195205346E+01 0.  0.
     999903    2    3    3    0    0 -0.59143648440E-01  0.10702042335E+00 -0.45620850227E-01  0.13206632259E+00  0.20221508892E-01 0.  0.
         14    1    1    2    0    0  0.12190600511E-01 -0.28473655375E-02  0.20621676279E-01  0.24124090944E-01  0.00000000000E+00 0. -1.
     999901    1    3    3    0    0  0.46953047929E-01 -0.10417305781E+00  0.24999173948E-01  0.88773958647E+00  0.88000000000E+00 0.  1.
        -11    1    4    4    0    0 -0.13626944339E-01  0.11189855282E-01 -0.92134761043E-02  0.19901149116E-01  0.51100000000E-03 0. -1.
         11    1    4    4    0    0 -0.45516704102E-01  0.95830568068E-01 -0.36407374122E-01  0.11216517347E+00  0.51100000000E-03 0.  1.
</event>
<event>
 8    1  0.1208168E+005  0.1043930E+01  0.7957747E-01            NaN
         13   -1    0    0    0    0  0.00000000000E+00  0.00000000000E+00  0.74505805969E-08  0.10566000000E+00  0.10566000000E+00 0. -1.
     999900   -1    0    0    0    0 -0.00000000000E+00 -0.00000000000E+00 -0.74505805969E-08  0.93827000000E+00  0.93827000000E+00 0.  1.
     999902    2    1    2    0    0  0.11162003065E-01 -0.93318532029E-02 -0.18097983411E-01  0.10207090870E+01  0.10204449174E+01 0.  0.
     999903    2    3    3    0    0 -0.95516154146E-02 -0.12285777713E+00 -0.45171068340E-01  0.13276193694E+00  0.20000993090E-01 0.  0.
         14    1    1    2    0    0 -0.11162003065E-01  0.93318532029E-02  0.18097983411E-01  0.23220912992E-01  0.00000000000E+00 0. -1.
     999901    1    3    3    0    0  0.20713618480E-01  0.11352592393E+00  0.27073084930E-01  0.88794715007E+00  0.88000000000E+00 0.  1.
        -11    1    4    4    0    0  0.58723527800E-02 -0.20657430195E-01 -0.76804060073E-02  0.22813673682E-01  0.51100000000E-03 0.  1.
         11    1    4    4    0    0 -0.15423968195E-01 -0.10220034694E+00 -0.37490662333E-01  0.10994826325E+00  0.51100000000E-03 0. -1.
</event>
<event>
 8    1  0.1208168E+005  0.1043930E+01  0.7957747E-01            NaN
         13   -1    0    0    0    0  0.00000000000E+00  0.00000000000E+00  0.74505805969E-08  0.10566000000E+00  0.10566000000E+00 0.  1.
     999900   -1    0    0    0    0 -0.00000000000E+00 -0.00000000000E+00 -0.74505805969E-08  0.93827000000E+00  0.93827000000E+00 0. -1.
     999902    2    1    2    0    0 -0.11738368457E-02  0.20093698648E-01  0.11840565600E-01  0.10205776208E+01  0.10203104168E+01 0.  0.
     999903    2    3    3    0    0  0.31908787109E-01 -0.10839024190E+00 -0.55854051301E-01  0.12806143380E+00  0.22659226540E-01 0.  0.
         14    1    1    2    0    0  0.11738368457E-02 -0.20093698648E-01 -0.11840565600E-01  0.23352379151E-01  0.00000000000E+00 0.  1.
     999901    1    3    3    0    0 -0.33082623955E-01  0.12848394054E+00  0.67694616901E-01  0.89251618705E+00  0.88000000000E+00 0.  1.
        -11    1    4    4    0    0  0.66237280323E-03 -0.37504313311E-01 -0.22272241314E-01  0.43627125837E-01  0.51100000000E-03 0. -1.
         11    1    4    4    0    0  0.31246414306E-01 -0.70885928584E-01 -0.33581809987E-01  0.84434307963E-01  0.51100000000E-03 0.  1.
</event>
<event>
 8    1  0.1208168E+005  0.1043930E+01  0.7957747E-01            NaN
         13   -1    0    0    0    0  0.00000000000E+00  0.00000000000E+00  0.74505805969E-08  0.10566000000E+00  0.10566000000E+00 0. -1.
     999900   -1    0    0    0    0 -0.00000000000E+00 -0.00000000000E+00 -0.74505805969E-08  0.93827000000E+00  0.93827000000E+00 0.  1.
     999902    2    1    2    0    0  0.20178521747E-01 -0.22326721407E-01 -0.21158721400E-01  0.10071421390E+01  0.10064700400E+01 0.  0.
     999903    2    3    3    0    0  0.28267296472E-01  0.84963858510E-01  0.70290116809E-01  0.11588483221E+00  0.21695541334E-01 0.  0.
         14    1    1    2    0    0 -0.20178521747E-01  0.22326721407E-01  0.21158721400E-01  0.36787861041E-01  0.00000000000E+00 0. -1.
     999901    1    3    3    0    0 -0.80887747246E-02 -0.10729057992E+00 -0.91448838208E-01  0.89125730674E+00  0.88000000000E+00 0.  1.
        -11    1    4    4    0    0  0.29124493803E-01  0.67724424877E-01  0.63601043479E-01  0.97366255535E-01  0.51100000000E-03 0. -1.
         11    1    4    4    0    0 -0.85719733157E-03  0.17239433633E-01  0.66890733294E-02  0.18518576680E-01  0.51100000000E-03 0.  1.
</event>
<event>
 8    1  0.1208168E+005  0.1043930E+01  0.7957747E-01            NaN
         13   -1    0    0    0    0  0.00000000000E+00  0.00000000000E+00  0.74505805969E-08  0.10566000000E+00  0.10566000000E+00 0.  1.
     999900   -1    0    0    0    0 -0.00000000000E+00 -0.00000000000E+00 -0.74505805969E-08  0.93827000000E+00  0.93827000000E+00 0.  1.
     999902    2    1    2    0    0 -0.10944129855E-01  0.12293446093E-01 -0.16881521314E-01  0.10203527110E+01  0.10200802744E+01 0.  0.
     999903    2    3    3    0    0 -0.34063710746E-01  0.12489658490E+00 -0.22234530032E-01  0.13286038055E+00  0.19950265276E-01 0.  0.
         14    1    1    2    0    0  0.10944129855E-01 -0.12293446093E-01  0.16881521314E-01  0.23577289008E-01  0.00000000000E+00 0.  1.
     999901    1    3    3    0    0  0.23119580892E-01 -0.11260313881E+00  0.53530087181E-02  0.88749233044E+00  0.88000000000E+00 0. -1.
        -11    1    4    4    0    0 -0.98201883346E-02  0.12138270014E-01 -0.35595419838E-02  0.16022021034E-01  0.51100000000E-03 0.  1.
         11    1    4    4    0    0 -0.24243522412E-01  0.11275831489E+00 -0.18674988048E-01  0.11683835952E+00  0.51100000000E-03 0. -1.
</event>
<event>
 8    1  0.1208168E+005  0.1043930E+01  0.7957747E-01            NaN
         13   -1    0    0    0    0  0.00000000000E+00  0.00000000000E+00  0.74505805969E-08  0.10566000000E+00  0.10566000000E+00 0.  1.
     999900   -1    0    0    0    0 -0.00000000000E+00 -0.00000000000E+00 -0.74505805969E-08  0.93827000000E+00  0.93827000000E+00 0. -1.
     999902    2    1    2    0    0 -0.21020138397E-01  0.97610411150E-02 -0.13601327490E-04  0.10207540572E+01  0.10204909215E+01 0.  0.
     999903    2    3    3    0    0 -0.12532294394E+00  0.26470837927E-01  0.33295520085E-01  0.13381111078E+00  0.19755408672E-01 0.  0.
         14    1    1    2    0    0  0.21020138397E-01 -0.97610411150E-02  0.13601327490E-04  0.23175942847E-01  0.00000000000E+00 0. -1.
     999901    1    3    3    0    0  0.10430280554E+00 -0.16709796812E-01 -0.33309121413E-01  0.88694294637E+00  0.88000000000E+00 0.  1.
        -11    1    4    4    0    0 -0.91342750355E-01  0.27106491607E-01  0.28713069159E-01  0.99513624148E-01  0.51100000000E-03 0.  1.
         11    1    4    4    0    0 -0.33980193585E-01 -0.63565367941E-03  0.45824509260E-02  0.34297486630E-01  0.51100000000E-03 0. -1.
</event>
<event>
 8    1  0.1208168E+005  0.1043930E+01  0.7957747E-01            NaN
         13   -1    0    0    0    0  0.00000000000E+00  0.00000000000E+00  0.74505805969E-08  0.10566000000E+00  0.10566000000E+00 0. -1.
     999900   -1    0    0    0    0 -0.00000000000E+00 -0.00000000000E+00 -0.74505805969E-08  0.93827000000E+00  0.93827000000E+00 0.  1.
     999902    2    1    2    0    0 -0.22596212305E-01 -0.60143700494E-02  0.44267300977E-02  0.10201317354E+01  0.10198541073E+01 0.  0.
     999903    2    3    3    0    0  0.11371827537E+00  0.21514085230E-01 -0.50090497198E-01  0.12754471811E+00  0.19076037138E-01 0.  0.
         14    1    1    2    0    0  0.22596212305E-01  0.60143700494E-02 -0.44267300977E-02  0.23798264580E-01  0.00000000000E+00 0. -1.
     999901    1    3    3    0    0 -0.13631448767E+00 -0.27528455279E-01  0.54517227295E-01  0.89258701731E+00  0.88000000000E+00 0.  1.
        -11    1    4    4    0    0  0.63110402868E-01  0.20501495368E-01 -0.23749028053E-01  0.70480576878E-01  0.51100000000E-03 0. -1.
         11    1    4    4    0    0  0.50607872497E-01  0.10125898619E-02 -0.26341469144E-01  0.57064141233E-01  0.51100000000E-03 0.  1.
</event>
<event>
 8    1  0.1208168E+005  0.1043930E+01  0.7957747E-01            NaN
         13   -1    0    0    0    0  0.00000000000E+00  0.00000000000E+00  0.74505805969E-08  0.10566000000E+00  0.10566000000E+00 0. -1.
     999900   -1    0    0    0    0 -0.00000000000E+00 -0.00000000000E+00 -0.74505805969E-08  0.93827000000E+00  0.93827000000E+00 0. -1.
     999902    2    1    2    0    0 -0.64709041995E-02  0.15042279616E-01  0.16344848058E-01  0.10207935172E+01  0.10205312871E+01 0.  0.
     999903    2    3    3    0    0  0.15920171499E-01  0.10416926046E+00 -0.75651053110E-01  0.13123844596E+00  0.19893747110E-01 0.  0.
         14    1    1    2    0    0  0.64709041995E-02 -0.15042279616E-01 -0.16344848058E-01  0.23136482777E-01  0.00000000000E+00 0.  1.
     999901    1    3    3    0    0 -0.22391075698E-01 -0.89126980848E-01  0.91995901168E-01  0.88955507127E+00  0.88000000000E+00 0.  1.
        -11    1    4    4    0    0  0.85118511125E-02  0.89216555119E-01 -0.69622064206E-01  0.11348805339E+00  0.51100000000E-03 0. -1.
         11    1    4    4    0    0  0.74083203861E-02  0.14952705345E-01 -0.60289889040E-02  0.17750392567E-01  0.51100000000E-03 0.  1.
</event>
<event>
 8    1  0.1208168E+005  0.1043930E+01  0.7957747E-01            NaN
         13   -1    0    0    0    0  0.00000000000E+00  0.00000000000E+00  0.74505805969E-08  0.10566000000E+00  0.10566000000E+00 0. -1.
     999900   -1    0    0    0    0 -0.00000000000E+00 -0.00000000000E+00 -0.74505805969E-08  0.93827000000E+00  0.93827000000E+00 0. -1.
     999902    2    1    2    0    0 -0.14402075993E-01 -0.11068269501E-01  0.14551310430E-01  0.10206562590E+01  0.10203908722E+01 0.  0.
     999903    2    3    3    0    0 -0.12813164280E-02 -0.11276402881E+00  0.67265176569E-01  0.13313559254E+00  0.21979855735E-01 0.  0.
         14    1    1    2    0    0  0.14402075993E-01  0.11068269501E-01 -0.14551310430E-01  0.23273740951E-01  0.00000000000E+00 0.  1.
     999901    1    3    3    0    0 -0.13120759565E-01  0.10169575931E+00 -0.52713866139E-01  0.88752066651E+00  0.88000000000E+00 0. -1.
        -11    1    4    4    0    0  0.10150335241E-01 -0.62945620873E-01  0.38465316416E-01  0.74464905697E-01  0.51100000000E-03 0.  1.
         11    1    4    4    0    0 -0.11431651669E-01 -0.49818407934E-01  0.28799860153E-01  0.58670686845E-01  0.51100000000E-03 0. -1.
</event>
<event>
 8    1  0.1208168E+005  0.1043930E+01  0.7957747E-01            NaN
         13   -1    0    0    0    0  0.00000000000E+00  0.00000000000E+00  0.74505805969E-08  0.10566000000E+00  0.10566000000E+00 0.  1.
     999900   -1    0    0    0    0 -0.00000000000E+00 -0.00000000000E+00 -0.74505805969E-08  0.93827000000E+00  0.93827000000E+00 0. -1.
     999902    2    1    2    0    0 -0.84743990611E-02 -0.21856590464E-01 -0.22663725148E-02  0.10203787276E+01  0.10201068990E+01 0.  0.
     999903    2    3    3    0    0 -0.10928374896E+00  0.64732439711E-01 -0.19360266433E-01  0.13023694881E+00  0.21298271823E-01 0.  0.
         14    1    1    2    0    0  0.84743990611E-02  0.21856590464E-01  0.22663725148E-02  0.23551272376E-01  0.00000000000E+00 0. -1.
     999901    1    3    3    0    0  0.10080934990E+00 -0.86589030175E-01  0.17093893918E-01  0.89014177881E+00  0.88000000000E+00 0.  1.
        -11    1    4    4    0    0 -0.69859611118E-01  0.37467137683E-01 -0.21465644770E-02  0.79303345023E-01  0.51100000000E-03 0. -1.
         11    1    4    4    0    0 -0.39424137840E-01  0.27265302028E-01 -0.17213701956E-01  0.50933603791E-01  0.51100000000E-03 0.  1.
</event>
<event>
 8    1  0.1208168E+005  0.1043930E+01  0.7957747E-01            NaN
         13   -1    0    0    0    0  0.00000000000E+00  0.00000000000E+00  0.74505805969E-08  0.10566000000E+00  0.10566000000E+00 0. -1.
     999900   -1    0    0    0    0 -0.00000000000E+00 -0.00000000000E+00 -0.74505805969E-08  0.93827000000E+00  0.93827000000E+00 0. -1.
     999902    2    1    2    0    0 -0.18701776026E-01 -0.93966295539E-02  0.45178510096E-02  0.10225182263E+01  0.10222940180E+01 0.  0.
     999903    2    3    3    0    0  0.24163396800E-01 -0.13642258582E-02  0.12894589587E+00  0.13269561430E+00  0.19883438709E-01 0.  0.
         14    1    1    2    0    0  0.18701776026E-01  0.93966295539E-02 -0.45178510096E-02  0.21411773660E-01  0.00000000000E+00 0.  1.
     999901    1    3    3    0    0 -0.42865172826E-01 -0.80324036956E-02 -0.12442804486E+00  0.88982261204E+00  0.88000000000E+00 0. -1.
        -11    1    4    4    0    0  0.24963785400E-01 -0.12780117454E-02  0.81695262558E-01  0.85435361186E-01  0.51100000000E-03 0.  1.
         11    1    4    4    0    0 -0.80038859977E-03 -0.86214112857E-04  0.47250633314E-01  0.47260253114E-01  0.51100000000E-03 0. -1.
</event>
<event>
 8    1  0.1208168E+005  0.1043930E+01  0.7957747E-01            NaN
         13   -1    0    0    0    0  0.00000000000E+00  0.00000000000E+00  0.74505805969E-08  0.10566000000E+00  0.10566000000E+00 0. -1.
     999900   -1    0    0    0    0 -0.00000000000E+00 -0.00000000000E+00 -0.74505805969E-08  0.93827000000E+00  0.93827000000E+00 0.  1.
     999902    2    1    2    0    0  0.14115715124E-01 -0.88962410724E-02  0.16425581391E-01  0.10205164090E+01  0.10202477860E+01 0.  0.
     999903    2    3    3    0    0  0.50779677713E-01  0.11725985394E+00 -0.14700008291E-01  0.13021959964E+00  0.20312677565E-01 0.  0.
         14    1    1    2    0    0 -0.14115715124E-01  0.88962410724E-02 -0.16425581391E-01  0.23413590983E-01  0.00000000000E+00 0.  1.
     999901    1    3    3    0    0 -0.36663962589E-01 -0.12615609502E+00  0.31125589682E-01  0.89029680938E+00  0.88000000000E+00 0. -1.
        -11    1    4    4    0    0  0.35393713339E-01  0.10028249451E+00 -0.99138553587E-02  0.10680748708E+00  0.51100000000E-03 0.  1.
         11    1    4    4    0    0  0.15385964374E-01  0.16977359438E-01 -0.47861529319E-02  0.23412112551E-01  0.51100000000E-03 0. -1.
</event>
<event>
 8    1  0.1208168E+005  0.1043930E+01  0.7957747E-01            NaN
         13   -1    0    0    0    0  0.00000000000E+00  0.00000000000E+00  0.74505805969E-08  0.10566000000E+00  0.10566000000E+00 0. -1.
     999900   -1    0    0    0    0 -0.00000000000E+00 -0.00000000000E+00 -0.74505805969E-08  0.93827000000E+00  0.93827000000E+00 0. -1.
     999902    2    1    2    0    0 -0.19660989933E-01 -0.10011661446E-01  0.11003919899E-01  0.10192748962E+01  0.10189766631E+01 0.  0.
     999903    2    3    3    0    0  0.21369046866E-01  0.10914654291E+00 -0.59295969457E-01  0.12752144596E+00  0.19393380127E-01 0.  0.
         14    1    1    2    0    0  0.19660989933E-01  0.10011661446E-01 -0.11003919899E-01  0.24655103797E-01  0.00000000000E+00 0.  1.
     999901    1    3    3    0    0 -0.41030036799E-01 -0.11915820435E+00  0.70299889356E-01  0.89175345025E+00  0.88000000000E+00 0. -1.
        -11    1    4    4    0    0  0.13068831241E-01  0.73366273574E-01 -0.29223715008E-01  0.80048054867E-01  0.51100000000E-03 0.  1.
         11    1    4    4    0    0  0.83002156256E-02  0.35780269332E-01 -0.30072254449E-01  0.47473391090E-01  0.51100000000E-03 0. -1.
</event>
<event>
 8    1  0.1208168E+005  0.1043930E+01  0.7957747E-01            NaN
         13   -1    0    0    0    0  0.00000000000E+00  0.00000000000E+00  0.74505805969E-08  0.10566000000E+00  0.10566000000E+00 0.  1.
     999900   -1    0    0    0    0 -0.00000000000E+00 -0.00000000000E+00 -0.74505805969E-08  0.93827000000E+00  0.93827000000E+00 0.  1.
     999902    2    1    2    0    0 -0.79949091075E-02  0.23208007838E-01 -0.29427788648E-02  0.10192077399E+01  0.10189078598E+01 0.  0.
     999903    2    3    3    0    0 -0.47168955275E-01 -0.10628972946E+00  0.47488896799E-01  0.12744116514E+00  0.21532262397E-01 0.  0.
         14    1    1    2    0    0  0.79949091075E-02 -0.23208007838E-01  0.29427788648E-02  0.24722260149E-01  0.00000000000E+00 0. -1.
     999901    1    3    3    0    0  0.39174046168E-01  0.12949773729E+00 -0.50431675664E-01  0.89176657471E+00  0.88000000000E+00 0.  1.
        -11    1    4    4    0    0 -0.33234707715E-01 -0.80934280684E-01  0.45026756158E-01  0.98400068485E-01  0.51100000000E-03 0. -1.
         11    1    4    4    0    0 -0.13934247560E-01 -0.25355448773E-01  0.24621406411E-02  0.29041096657E-01  0.51100000000E-03 0.  1.
</event>
<event>
 8    1  0.1208168E+005  0.1043930E+01  0.7957747E-01            NaN
         13   -1    0    0    0    0  0.00000000000E+00  0.00000000000E+00  0.74505805969E-08  0.10566000000E+00  0.10566000000E+00 0. -1.
     999900   -1    0    0    0    0 -0.00000000000E+00 -0.00000000000E+00 -0.74505805969E-08  0.93827000000E+00  0.93827000000E+00 0. -1.
     999902    2    1    2    0    0  0.97085525847E-02  0.67756448630E-02  0.20771640608E-01  0.10200212901E+01  0.10197410484E+01 0.  0.
     999903    2    3    3    0    0 -0.83032615413E-01 -0.41803437439E-01  0.89490429820E-01  0.13115508897E+00  0.23477174652E-01 0.  0.
         14    1    1    2    0    0 -0.97085525847E-02 -0.67756448630E-02 -0.20771640608E-01  0.23908709922E-01  0.00000000000E+00 0.  1.
     999901    1    3    3    0    0  0.92741167998E-01  0.48579082302E-01 -0.68718789211E-01  0.88886620111E+00  0.88000000000E+00 0. -1.
        -11    1    4    4    0    0 -0.39463017183E-01 -0.30127073519E-01  0.36858181410E-01  0.61836534038E-01  0.51100000000E-03 0.  1.
         11    1    4    4    0    0 -0.43569598230E-01 -0.11676363920E-01  0.52632248410E-01  0.69318554933E-01  0.51100000000E-03 0. -1.
</event>
<event>
 8    1  0.1208168E+005  0.1043930E+01  0.7957747E-01            NaN
         13   -1    0    0    0    0  0.00000000000E+00  0.00000000000E+00  0.74505805969E-08  0.10566000000E+00  0.10566000000E+00 0. -1.
     999900   -1    0    0    0    0 -0.00000000000E+00 -0.00000000000E+00 -0.74505805969E-08  0.93827000000E+00  0.93827000000E+00 0.  1.
     999902    2    1    2    0    0 -0.10283477284E-01 -0.34214038102E-02  0.21208587742E-01  0.10201127772E+01  0.10198347013E+01 0.  0.
     999903    2    3    3    0    0 -0.94615521322E-01  0.71705708818E-01 -0.48268003167E-01  0.13017852489E+00  0.22865753018E-01 0.  0.
         14    1    1    2    0    0  0.10283477284E-01  0.34214038102E-02 -0.21208587742E-01  0.23817222825E-01  0.00000000000E+00 0.  1.
     999901    1    3    3    0    0  0.84332044037E-01 -0.75127112629E-01  0.69476590909E-01  0.88993425228E+00  0.88000000000E+00 0. -1.
        -11    1    4    4    0    0 -0.51156535711E-01  0.28163313955E-01 -0.31779794057E-01  0.66485937085E-01  0.51100000000E-03 0.  1.
         11    1    4    4    0    0 -0.43458985611E-01  0.43542394863E-01 -0.16488209111E-01  0.63692587806E-01  0.51100000000E-03 0. -1.
</event>
<event>
 8    1  0.1208168E+005  0.1043930E+01  0.7957747E-01            NaN
         13   -1    0    0    0    0  0.00000000000E+00  0.00000000000E+00  0.74505805969E-08  0.10566000000E+00  0.10566000000E+00 0.  1.
     999900   -1    0    0    0    0 -0.00000000000E+00 -0.00000000000E+00 -0.74505805969E-08  0.93827000000E+00  0.93827000000E+00 0.  1.
     999902    2    1    2    0    0 -0.20896975064E-01  0.30283931412E-02  0.10431497718E-01  0.10203785483E+01  0.10201067155E+01 0.  0.
     999903    2    3    3    0    0 -0.58954457336E-01  0.47622373742E-01  0.10751768208E+00  0.13310028178E+00  0.20300604208E-01 0.  0.
         14    1    1    2    0    0  0.20896975064E-01 -0.30283931412E-02 -0.10431497718E-01  0.23551451686E-01  0.00000000000E+00 0. -1.
     999901    1    3    3    0    0  0.38057482271E-01 -0.44593980600E-01 -0.97086184359E-01  0.88727826653E+00  0.88000000000E+00 0.  1.
        -11    1    4    4    0    0 -0.48949151482E-01  0.44920135112E-01  0.81890726187E-01  0.10545231209E+00  0.51100000000E-03 0.  1.
         11    1    4    4    0    0 -0.10005305854E-01  0.27022386293E-02  0.25626955891E-01  0.27647969692E-01  0.51100000000E-03 0. -1.
</event>
<event>
 8    1  0.1208168E+005  0.1043930E+01  0.7957747E-01            NaN
         13   -1    0    0    0    0  0.00000000000E+00  0.00000000000E+00  0.74505805969E-08  0.10566000000E+00  0.10566000000E+00 0.  1.
     999900   -1    0    0    0    0 -0.00000000000E+00 -0.00000000000E+00 -0.74505805969E-08  0.93827000000E+00  0.93827000000E+00 0. -1.
     999902    2    1    2    0    0  0.96824758311E-03 -0.16068146297E-01 -0.18120168631E-01  0.10196923570E+01  0.10194042572E+01 0.  0.
     999903    2    3    3    0    0  0.17689169484E-01  0.12412163949E+00 -0.19654591113E-01  0.12843755629E+00  0.19769036571E-01 0.  0.
         14    1    1    2    0    0 -0.96824758311E-03  0.16068146297E-01  0.18120168631E-01  0.24237643038E-01  0.00000000000E+00 0.  1.
     999901    1    3    3    0    0 -0.16720921901E-01 -0.14018978579E+00  0.15344224817E-02  0.89125480067E+00  0.88000000000E+00 0.  1.
        -11    1    4    4    0    0  0.15234203586E-01  0.65954334111E-01 -0.24893935760E-02  0.67738566182E-01  0.51100000000E-03 0. -1.
         11    1    4    4    0    0  0.24549658982E-02  0.58167305380E-01 -0.17165197537E-01  0.60698990109E-01  0.51100000000E-03 0.  1.
</event>
<event>
 7    1  0.1208168E+005  0.1043930E+01  0.7957747E-01            NaN
         13   -1    0    0    0    0  0.00000000000E+00  0.00000000000E+00  0.74505805969E-08  0.10566000000E+00  0.10566000000E+00 0.  1.
     999900   -1    0    0    0    0 -0.00000000000E+00 -0.00000000000E+00 -0.74505805969E-08  0.93827000000E+00  0.93827000000E+00 0.  1.
     999903    2    1    2    0    0  0.30381526890E-01 -0.21247163699E-02  0.14146781742E+00  0.14601416989E+00  0.19479292809E-01 0.  0.
         14    1    1    2    0    0 -0.17195312016E-02  0.37531197680E-02 -0.57054116031E-02  0.70423303747E-02  0.00000000000E+00 0. -1.
     999901    1    1    2    0    0 -0.28661995689E-01 -0.16284033981E-02 -0.13576240582E+00  0.89087349973E+00  0.88000000000E+00 0.  1.
        -11    1    3    3    0    0  0.41329826355E-03 -0.58594157132E-02  0.20348646827E-01  0.21185658278E-01  0.51100000000E-03 0.  1.
         11    1    3    3    0    0  0.29968228627E-01  0.37346993433E-02  0.12111917059E+00  0.12482851161E+00  0.51100000000E-03 0. -1.
</event>
<event>
 8    1  0.1208168E+005  0.1043930E+01  0.7957747E-01            NaN
         13   -1    0    0    0    0  0.00000000000E+00  0.00000000000E+00  0.74505805969E-08  0.10566000000E+00  0.10566000000E+00 0.  1.
     999900   -1    0    0    0    0 -0.00000000000E+00 -0.00000000000E+00 -0.74505805969E-08  0.93827000000E+00  0.93827000000E+00 0.  1.
     999902    2    1    2    0    0  0.70771374013E-02 -0.24064284870E-02  0.23776829013E-01  0.10190058276E+01  0.10187009681E+01 0.  0.
     999903    2    3    3    0    0  0.26880128861E-01 -0.96650880852E-01  0.83057271459E-01  0.13176947458E+00  0.20018740988E-01 0.  0.
         14    1    1    2    0    0 -0.70771374013E-02  0.24064284870E-02 -0.23776829013E-01  0.24924172399E-01  0.00000000000E+00 0. -1.
     999901    1    3    3    0    0 -0.19802991460E-01  0.94244452365E-01 -0.59280442446E-01  0.88723635302E+00  0.88000000000E+00 0.  1.
        -11    1    4    4    0    0  0.68734801494E-02 -0.58050646624E-01  0.53041186255E-01  0.78935105391E-01  0.51100000000E-03 0.  1.
         11    1    4    4    0    0  0.20006648712E-01 -0.38600234229E-01  0.30016085204E-01  0.52834369185E-01  0.51100000000E-03 0. -1.
</event>
<event>
 8    1  0.1208168E+005  0.1043930E+01  0.7957747E-01            NaN
         13   -1    0    0    0    0  0.00000000000E+00  0.00000000000E+00  0.74505805969E-08  0.10566000000E+00  0.10566000000E+00 0. -1.
     999900   -1    0    0    0    0 -0.00000000000E+00 -0.00000000000E+00 -0.74505805969E-08  0.93827000000E+00  0.93827000000E+00 0.  1.
     999902    2    1    2    0    0  0.19090940587E-01  0.16414104765E-02 -0.14180941872E-01  0.10200918509E+01  0.10198132804E+01 0.  0.
     999903    2    3    3    0    0 -0.48181384529E-01 -0.97726740125E-01  0.66167434152E-01  0.12832088443E+00  0.14702329349E-01 0.  0.
         14    1    1    2    0    0 -0.19090940587E-01 -0.16414104765E-02  0.14180941872E-01  0.23838149116E-01  0.00000000000E+00 0. -1.
     999901    1    3    3    0    0  0.67272325116E-01  0.99368150601E-01 -0.80348376024E-01  0.89177096645E+00  0.88000000000E+00 0.  1.
        -11    1    4    4    0    0 -0.77076384154E-02 -0.25680669910E-01  0.11144524324E-01  0.29040765148E-01  0.51100000000E-03 0. -1.
         11    1    4    4    0    0 -0.40473746114E-01 -0.72046070215E-01  0.55022909828E-01  0.99280119282E-01  0.51100000000E-03 0.  1.
</event>
<event>
 8    1  0.1208168E+005  0.1043930E+01  0.7957747E-01            NaN
         13   -1    0    0    0    0  0.00000000000E+00  0.00000000000E+00  0.74505805969E-08  0.10566000000E+00  0.10566000000E+00 0. -1.
     999900   -1    0    0    0    0 -0.00000000000E+00 -0.00000000000E+00 -0.74505805969E-08  0.93827000000E+00  0.93827000000E+00 0.  1.
     999902    2    1    2    0    0 -0.19521146627E-01 -0.17488261895E-01 -0.30255461272E-02  0.10175468918E+01  0.10172048017E+01 0.  0.
     999903    2    3    3    0    0 -0.83795909943E-01 -0.68467300309E-01 -0.71171521326E-01  0.13110795904E+00  0.20356466783E-01 0.  0.
         14    1    1    2    0    0  0.19521146627E-01  0.17488261895E-01  0.30255461272E-02  0.26383108216E-01  0.00000000000E+00 0.  1.
     999901    1    3    3    0    0  0.64274763315E-01  0.50979038413E-01  0.68145975198E-01  0.88643893275E+00  0.88000000000E+00 0. -1.
        -11    1    4    4    0    0 -0.40447521159E-01 -0.44711270461E-01 -0.44505316755E-01  0.74940536525E-01  0.51100000000E-03 0. -1.
         11    1    4    4    0    0 -0.43348388784E-01 -0.23756029847E-01 -0.26666204570E-01  0.56167422510E-01  0.51100000000E-03 0.  1.
</event>
<event>
 8    1  0.1208168E+005  0.1043930E+01  0.7957747E-01            NaN
         13   -1    0    0    0    0  0.00000000000E+00  0.00000000000E+00  0.74505805969E-08  0.10566000000E+00  0.10566000000E+00 0.  1.
     999900   -1    0    0    0    0 -0.00000000000E+00 -0.00000000000E+00 -0.74505805969E-08  0.93827000000E+00  0.93827000000E+00 0. -1.
     999902    2    1    2    0    0  0.22047756469E-01 -0.93167510402E-02 -0.11404711708E-02  0.10199674023E+01  0.10196858809E+01 0.  0.
     999903    2    3    3    0    0  0.45416771280E-01  0.10849409328E+00  0.51744288478E-01  0.13023581146E+00  0.21218949208E-01 0.  0.
         14    1    1    2    0    0 -0.22047756469E-01  0.93167510402E-02  0.11404711708E-02  0.23962597725E-01  0.00000000000E+00 0.  1.
     999901    1    3    3    0    0 -0.23369014811E-01 -0.11781084432E+00 -0.52884759649E-01  0.88973159082E+00  0.88000000000E+00 0. -1.
        -11    1    4    4    0    0  0.27623865989E-01  0.66335477204E-01  0.20164481032E-01  0.74634716616E-01  0.51100000000E-03 0.  1.
         11    1    4    4    0    0  0.17792905291E-01  0.42158616078E-01  0.31579807446E-01  0.55601094842E-01  0.51100000000E-03 0. -1.
</event>
<event>
 8    1  0.1208168E+005  0.1043930E+01  0.7957747E-01            NaN
         13   -1    0    0    0    0  0.00000000000E+00  0.00000000000E+00  0.74505805969E-08  0.10566000000E+00  0.10566000000E+00 0.  1.
     999900   -1    0    0    0    0 -0.00000000000E+00 -0.00000000000E+00 -0.74505805969E-08  0.93827000000E+00  0.93827000000E+00 0.  1.
     999902    2    1    2    0    0 -0.22758944405E-01  0.31026453242E-02  0.13892550748E-02  0.10209185683E+01  0.10206591974E+01 0.  0.
     999903    2    3    3    0    0  0.75394204982E-01  0.99687601452E-01 -0.27131481599E-01  0.12975296816E+00  0.21858898052E-01 0.  0.
         14    1    1    2    0    0  0.22758944405E-01 -0.31026453242E-02 -0.13892550748E-02  0.23011431683E-01  0.00000000000E+00 0.  1.
     999901    1    3    3    0    0 -0.98153149387E-01 -0.96584956128E-01  0.28520736674E-01  0.89116560016E+00  0.88000000000E+00 0.  1.
        -11    1    4    4    0    0  0.51408620379E-01  0.54500443935E-01 -0.23239574353E-01  0.78444143028E-01  0.51100000000E-03 0.  1.
         11    1    4    4    0    0  0.23985584604E-01  0.45187157517E-01 -0.38919072465E-02  0.51308825130E-01  0.51100000000E-03 0. -1.
</event>
<event>
 8    1  0.1208168E+005  0.1043930E+01  0.7957747E-01            NaN
         13   -1    0    0    0    0  0.00000000000E+00  0.00000000000E+00  0.74505805969E-08  0.10566000000E+00  0.10566000000E+00 0.  1.
     999900   -1    0    0    0    0 -0.00000000000E+00 -0.00000000000E+00 -0.74505805969E-08  0.93827000000E+00  0.93827000000E+00 0. -1.
     999902    2    1    2    0    0 -0.19533979744E-02 -0.16991444631E-01  0.15098470825E-01  0.10211157769E+01  0.10208608823E+01 0.  0.
     999903    2    3    3    0    0  0.32677691205E-01 -0.25400319290E-02 -0.12359070050E+00  0.12946402767E+00  0.20297535431E-01 0.  0.
         14    1    1    2    0    0  0.19533979744E-02  0.16991444631E-01 -0.15098470825E-01  0.22814223097E-01  0.00000000000E+00 0. -1.
     999901    1    3    3    0    0 -0.34631089180E-01 -0.14451412702E-01  0.13868917133E+00  0.89165174923E+00  0.88000000000E+00 0.  1.
        -11    1    4    4    0    0  0.22660994756E-01 -0.91314509507E-02 -0.60626331226E-01  0.65366025110E-01  0.51100000000E-03 0. -1.
         11    1    4    4    0    0  0.10016696450E-01  0.65914190217E-02 -0.62964369279E-01  0.64098002560E-01  0.51100000000E-03 0.  1.
</event>
<event>
 8    1  0.1208168E+005  0.1043930E+01  0.7957747E-01            NaN
         13   -1    0    0    0    0  0.00000000000E+00  0.00000000000E+00  0.74505805969E-08  0.10566000000E+00  0.10566000000E+00 0. -1.
     999900   -1    0    0    0    0 -0.00000000000E+00 -0.00000000000E+00 -0.74505805969E-08  0.93827000000E+00  0.93827000000E+00 0.  1.
     999902    2    1    2    0    0  0.18609225993E-01  0.12789994839E-01  0.24031189909E-02  0.10212218023E+01  0.10209692979E+01 0.  0.
     999903    2    3    3    0    0 -0.93585383984E-01 -0.85532681393E-01  0.89904353700E-02  0.12864218578E+00  0.19847426821E-01 0.  0.
         14    1    1    2    0    0 -0.18609225993E-01 -0.12789994839E-01 -0.24031189909E-02  0.22708197659E-01  0.00000000000E+00 0. -1.
     999901    1    3    3    0    0  0.11219460998E+00  0.98322676232E-01 -0.65873163791E-02  0.89257961656E+00  0.88000000000E+00 0. -1.
        -11    1    4    4    0    0 -0.34932379563E-01 -0.23151988210E-01  0.96758437686E-02  0.43013588244E-01  0.51100000000E-03 0.  1.
         11    1    4    4    0    0 -0.58653004421E-01 -0.62380693183E-01 -0.68540839864E-03  0.85628597532E-01  0.51100000000E-03 0. -1.
</event>
<event>
 8    1  0.1208168E+005  0.1043930E+01  0.7957747E-01            NaN
         13   -1    0    0    0    0  0.00000000000E+00  0.00000000000E+00  0.74505805969E-08  0.10566000000E+00  0.10566000000E+00 0.  1.
     999900   -1    0    0    0    0 -0.00000000000E+00 -0.00000000000E+00 -0.74505805969E-08  0.93827000000E+00  0.93827000000E+00 0. -1.
     999902    2    1    2    0    0  0.21532671821E-01 -0.67988654754E-03  0.97174455404E-02  0.10202964021E+01  0.10200226474E+01 0.  0.
     999903    2    3    3    0    0  0.80433781594E-01 -0.15477936690E-01  0.10347985244E+00  0.13323399620E+00  0.18277257378E-01 0.  0.
         14    1    1    2    0    0 -0.21532671821E-01  0.67988654754E-03 -0.97174455404E-02  0.23633597892E-01  0.00000000000E+00 0. -1.
     999901    1    3    3    0    0 -0.58901109773E-01  0.14798050143E-01 -0.93762406902E-01  0.88706240590E+00  0.88000000000E+00 0. -1.
        -11    1    4    4    0    0  0.66735199035E-01 -0.90594624588E-02  0.73763757821E-01  0.99885002574E-01  0.51100000000E-03 0. -1.
         11    1    4    4    0    0  0.13698582558E-01 -0.64184742313E-02  0.29716094622E-01  0.33348993630E-01  0.51100000000E-03 0.  1.
</event>
<event>
 8    1  0.1208168E+005  0.1043930E+01  0.7957747E-01            NaN
         13   -1    0    0    0    0  0.00000000000E+00  0.00000000000E+00  0.74505805969E-08  0.10566000000E+00  0.10566000000E+00 0. -1.
     999900   -1    0    0    0    0 -0.00000000000E+00 -0.00000000000E+00 -0.74505805969E-08  0.93827000000E+00  0.93827000000E+00 0. -1.
     999902    2    1    2    0    0 -0.10011549462E-01  0.19424805663E-01  0.86867085994E-02  0.10204137693E+01  0.10201427584E+01 0.  0.
     999903    2    3    3    0    0  0.82789652234E-01  0.75253687034E-01  0.66813569147E-01  0.13187133426E+00  0.20217612348E-01 0.  0.
         14    1    1    2    0    0  0.10011549462E-01 -0.19424805663E-01 -0.86867085994E-02  0.23516230650E-01  0.00000000000E+00 0.  1.
     999901    1    3    3    0    0 -0.92801201697E-01 -0.55828881371E-01 -0.58126860548E-01  0.88854243509E+00  0.88000000000E+00 0. -1.
        -11    1    4    4    0    0  0.67031627327E-01  0.49354932847E-01  0.51720420402E-01  0.98002099294E-01  0.51100000000E-03 0.  1.
         11    1    4    4    0    0  0.15758024908E-01  0.25898754187E-01  0.15093148745E-01  0.33869234970E-01  0.51100000000E-03 0. -1.
</event>
<event>
 8    1  0.1208168E+005  0.1043930E+01  0.7957747E-01            NaN
         13   -1    0    0    0    0  0.00000000000E+00  0.00000000000E+00  0.74505805969E-08  0.10566000000E+00  0.10566000000E+00 0.  1.
     999900   -1    0    0    0    0 -0.00000000000E+00 -0.00000000000E+00 -0.74505805969E-08  0.93827000000E+00  0.93827000000E+00 0.  1.
     999902    2    1    2    0    0 -0.16321689846E-01  0.19071717299E-01  0.29625252490E-02  0.10186534394E+01  0.10183397886E+01 0.  0.
     999903    2    3    3    0    0 -0.30019049174E-01 -0.11806777013E+00 -0.31410696292E-01  0.12726330313E+00  0.19187882303E-01 0.  0.
         14    1    1    2    0    0  0.16321689846E-01 -0.19071717299E-01 -0.29625252490E-02  0.25276560604E-01  0.00000000000E+00 0.  1.
     999901    1    3    3    0    0  0.13697359328E-01  0.13713948743E+00  0.34373221541E-01  0.89139013626E+00  0.88000000000E+00 0. -1.
        -11    1    4    4    0    0 -0.13060347392E-01 -0.57655926625E-01 -0.54968553427E-02  0.59373858630E-01  0.51100000000E-03 0. -1.
         11    1    4    4    0    0 -0.16958701782E-01 -0.60411843502E-01 -0.25913840950E-01  0.67889444505E-01  0.51100000000E-03 0.  1.
</event>
<event>
 8    1  0.1208168E+005  0.1043930E+01  0.7957747E-01            NaN
         13   -1    0    0    0    0  0.00000000000E+00  0.00000000000E+00  0.74505805969E-08  0.10566000000E+00  0.10566000000E+00 0.  1.
     999900   -1    0    0    0    0 -0.00000000000E+00 -0.00000000000E+00 -0.74505805969E-08  0.93827000000E+00  0.93827000000E+00 0. -1.
     999902    2    1    2    0    0 -0.15395630772E-01  0.18651726945E-01 -0.13661884187E-02  0.10197064818E+01  0.10194187217E+01 0.  0.
     999903    2    3    3    0    0 -0.14939014636E-01  0.11096445657E+00 -0.67746595372E-01  0.13239131398E+00  0.20039312696E-01 0.  0.
         14    1    1    2    0    0  0.15395630772E-01 -0.18651726945E-01  0.13661884187E-02  0.24223518235E-01  0.00000000000E+00 0.  1.
     999901    1    3    3    0    0 -0.45661613652E-03 -0.92312729626E-01  0.66380406953E-01  0.88731516778E+00  0.88000000000E+00 0.  1.
        -11    1    4    4    0    0 -0.81210549611E-03  0.74924454628E-02 -0.11542842756E-01  0.13794730669E-01  0.51100000000E-03 0. -1.
         11    1    4    4    0    0 -0.14126909140E-01  0.10347201111E+00 -0.56203752616E-01  0.11859658331E+00  0.51100000000E-03 0.  1.
</event>
<event>
 8    1  0.1208168E+005  0.1043930E+01  0.7957747E-01            NaN
         13   -1    0    0    0    0  0.00000000000E+00  0.00000000000E+00  0.74505805969E-08  0.10566000000E+00  0.10566000000E+00 0. -1.
     999900   -1    0    0    0    0 -0.00000000000E+00 -0.00000000000E+00 -0.74505805969E-08  0.93827000000E+00  0.93827000000E+00 0. -1.
     999902    2    1    2    0    0  0.15025461164E-01  0.82904859908E-02  0.17162474320E-01  0.10196597061E+01  0.10193708202E+01 0.  0.
     999903    2    3    3    0    0  0.23838456920E-01 -0.31660206930E-01  0.12406366461E+00  0.13224684207E+00  0.22951985306E-01 0.  0.
         14    1    1    2    0    0 -0.15025461164E-01 -0.82904859908E-02 -0.17162474320E-01  0.24270293898E-01  0.00000000000E+00 0.  1.
     999901    1    3    3    0    0 -0.88129957566E-02  0.39950692921E-01 -0.10690119029E+00  0.88741286403E+00  0.88000000000E+00 0. -1.
        -11    1    4    4    0    0 -0.14282258123E-02 -0.71920461301E-02  0.75416929298E-02  0.10531078281E-01  0.51100000000E-03 0. -1.
         11    1    4    4    0    0  0.25266682733E-01 -0.24468160800E-01  0.11652197168E+00  0.12171576379E+00  0.51100000000E-03 0.  1.
</event>
<event>
 8    1  0.1208168E+005  0.1043930E+01  0.7957747E-01            NaN
         13   -1    0    0    0    0  0.00000000000E+00  0.00000000000E+00  0.74505805969E-08  0.10566000000E+00  0.10566000000E+00 0. -1.
     999900   -1    0    0    0    0 -0.00000000000E+00 -0.00000000000E+00 -0.74505805969E-08  0.93827000000E+00  0.93827000000E+00 0. -1.
     999902    2    1    2    0    0  0.22111336553E-01  0.67054763715E-02 -0.37671209898E-02  0.10205191944E+01  0.10202506360E+01 0.  0.
     999903    2    3    3    0    0  0.12881342032E+00 -0.16857427229E-03 -0.29471123216E-01  0.13367462913E+00  0.20184986897E-01 0.  0.
         14    1    1    2    0    0 -0.22111336553E-01 -0.67054763715E-02  0.37671209898E-02  0.23410805584E-01  0.00000000000E+00 0.  1.
     999901    1    3    3    0    0 -0.10670208377E+00  0.68740506438E-02  0.25704002226E-01  0.88684456529E+00  0.88000000000E+00 0. -1.
        -11    1    4    4    0    0  0.63769715441E-01  0.43643270190E-02 -0.23864777015E-01  0.68230584496E-01  0.51100000000E-03 0. -1.
         11    1    4    4    0    0  0.65043704882E-01 -0.45329012913E-02 -0.56063462016E-02  0.65444044630E-01  0.51100000000E-03 0.  1.
</event>
<event>
 8    1  0.1208168E+005  0.1043930E+01  0.7957747E-01            NaN
         13   -1    0    0    0    0  0.00000000000E+00  0.00000000000E+00  0.74505805969E-08  0.10566000000E+00  0.10566000000E+00 0. -1.
     999900   -1    0    0    0    0 -0.00000000000E+00 -0.00000000000E+00 -0.74505805969E-08  0.93827000000E+00  0.93827000000E+00 0. -1.
     999902    2    1    2    0    0 -0.16554944858E-01  0.12966874839E-01 -0.10764480238E-01  0.10203062815E+01  0.10200327583E+01 0.  0.
     999903    2    3    3    0    0 -0.41288655592E-01  0.76629827231E-01 -0.98418564753E-01  0.13331813810E+00  0.22597091750E-01 0.  0.
         14    1    1    2    0    0  0.16554944858E-01 -0.12966874839E-01  0.10764480238E-01  0.23623718529E-01  0.00000000000E+00 0. -1.
     999901    1    3    3    0    0  0.24733710734E-01 -0.63662952392E-01  0.87654084515E-01  0.88698814337E+00  0.88000000000E+00 0.  1.
        -11    1    4    4    0    0 -0.26732503890E-01  0.44362068312E-01 -0.73937964457E-01  0.90275708683E-01  0.51100000000E-03 0.  1.
         11    1    4    4    0    0 -0.14556151701E-01  0.32267758919E-01 -0.24480600296E-01  0.43042429414E-01  0.51100000000E-03 0. -1.
</event>
<event>
 8    1  0.1208168E+005  0.1043930E+01  0.7957747E-01            NaN
         13   -1    0    0    0    0  0.00000000000E+00  0.00000000000E+00  0.74505805969E-08  0.10566000000E+00  0.10566000000E+00 0. -1.
     999900   -1    0    0    0    0 -0.00000000000E+00 -0.00000000000E+00 -0.74505805969E-08  0.93827000000E+00  0.93827000000E+00 0.  1.
     999902    2    1    2    0    0  0.42487761803E-02  0.30798921681E-02 -0.24283716849E-01  0.10190857504E+01  0.10187828669E+01 0.  0.
     999903    2    3    3    0    0  0.59221037125E-02  0.68760687235E-01 -0.11117132349E+00  0.13236920997E+00  0.19986024087E-01 0.  0.
         14    1    1    2    0    0 -0.42487761803E-02 -0.30798921681E-02  0.24283716849E-01  0.24844249613E-01  0.00000000000E+00 0. -1.
     999901    1    3    3    0    0 -0.16733275322E-02 -0.65680795067E-01  0.86887606643E-01  0.88671654042E+00  0.88000000000E+00 0. -1.
        -11    1    4    4    0    0  0.10428614849E-01  0.28179723766E-01 -0.58047116050E-01  0.65364987890E-01  0.51100000000E-03 0.  1.
         11    1    4    4    0    0 -0.45065111363E-02  0.40580963470E-01 -0.53124207443E-01  0.67004222077E-01  0.51100000000E-03 0. -1.
</event>
<event>
 8    1  0.1208168E+005  0.1043930E+01  0.7957747E-01            NaN
         13   -1    0    0    0    0  0.00000000000E+00  0.00000000000E+00  0.74505805969E-08  0.10566000000E+00  0.10566000000E+00 0. -1.
     999900   -1    0    0    0    0 -0.00000000000E+00 -0.00000000000E+00 -0.74505805969E-08  0.93827000000E+00  0.93827000000E+00 0. -1.
     999902    2    1    2    0    0  0.19929854725E-01  0.13197202687E-01  0.10710608749E-02  0.10200027678E+01  0.10197220866E+01 0.  0.
     999903    2    3    3    0    0 -0.56095278764E-01  0.42999901886E-01  0.10710030898E+00  0.12988467271E+00  0.20096769883E-01 0.  0.
         14    1    1    2    0    0 -0.19929854725E-01 -0.13197202687E-01 -0.10710608749E-02  0.23927232174E-01  0.00000000000E+00 0.  1.
     999901    1    3    3    0    0  0.76025133489E-01 -0.29802699200E-01 -0.10602924810E+00  0.89011809512E+00  0.88000000000E+00 0. -1.
        -11    1    4    4    0    0 -0.55210098297E-02  0.25498266839E-02  0.22666527474E-01  0.23473724765E-01  0.51100000000E-03 0. -1.
         11    1    4    4    0    0 -0.50574268934E-01  0.40450075203E-01  0.84433781504E-01  0.10641094794E+00  0.51100000000E-03 0.  1.
</event>
<event>
 8    1  0.1208168E+005  0.1043930E+01  0.7957747E-01            NaN
         13   -1    0    0    0    0  0.00000000000E+00  0.00000000000E+00  0.74505805969E-08  0.10566000000E+00  0.10566000000E+00 0. -1.
     999900   -1    0    0    0    0 -0.00000000000E+00 -0.00000000000E+00 -0.74505805969E-08  0.93827000000E+00  0.93827000000E+00 0.  1.
     999902    2    1    2    0    0 -0.41118640235E-02  0.10893644362E-01 -0.19868070193E-01  0.10209013412E+01  0.10206415773E+01 0.  0.
     999903    2    3    3    0    0 -0.81736731165E-01 -0.69205409395E-01 -0.74662425269E-01  0.13216971705E+00  0.20593067909E-01 0.  0.
         14    1    1    2    0    0  0.41118640235E-02 -0.10893644362E-01  0.19868070193E-01  0.23028658807E-01  0.00000000000E+00 0. -1.
     999901    1    3    3    0    0  0.77624867141E-01  0.80099053757E-01  0.54794355076E-01  0.88873162415E+00  0.88000000000E+00 0. -1.
        -11    1    4    4    0    0 -0.65597903984E-01 -0.58782641945E-01 -0.51357285677E-01  0.10196232596E+00  0.51100000000E-03 0.  1.
         11    1    4    4    0    0 -0.16138827181E-01 -0.10422767450E-01 -0.23305139592E-01  0.30207391091E-01  0.51100000000E-03 0. -1.
</event>
<event>
 8    1  0.1208168E+005  0.1043930E+01  0.7957747E-01            NaN
         13   -1    0    0    0    0  0.00000000000E+00  0.00000000000E+00  0.74505805969E-08  0.10566000000E+00  0.10566000000E+00 0. -1.
     999900   -1    0    0    0    0 -0.00000000000E+00 -0.00000000000E+00 -0.74505805969E-08  0.93827000000E+00  0.93827000000E+00 0. -1.
     999902    2    1    2    0    0 -0.11339106128E-01  0.66272287627E-04  0.15438789982E-01  0.10247744275E+01  0.10245953794E+01 0.  0.
     999903    2    3    3    0    0 -0.43327976597E-02  0.10893669833E+00  0.78497711284E-01  0.13579845173E+00  0.19833089433E-01 0.  0.
         14    1    1    2    0    0  0.11339106128E-01 -0.66272287627E-04 -0.15438789982E-01  0.19155572451E-01  0.00000000000E+00 0.  1.
     999901    1    3    3    0    0 -0.70063084685E-02 -0.10887042605E+00 -0.63058921302E-01  0.88897597582E+00  0.88000000000E+00 0. -1.
        -11    1    4    4    0    0  0.15368024156E-02  0.50899846174E-01  0.25364615660E-01  0.56892714391E-01  0.51100000000E-03 0.  1.
         11    1    4    4    0    0 -0.58696000753E-02  0.58036852159E-01  0.53133095624E-01  0.78905737340E-01  0.51100000000E-03 0. -1.
</event>
<event>
 8    1  0.1208168E+005  0.1043930E+01  0.7957747E-01            NaN
         13   -1    0    0    0    0  0.00000000000E+00  0.00000000000E+00  0.74505805969E-08  0.10566000000E+00  0.10566000000E+00 0. -1.
     999900   -1    0    0    0    0 -0.00000000000E+00 -0.00000000000E+00 -0.74505805969E-08  0.93827000000E+00  0.93827000000E+00 0. -1.
     999902    2    1    2    0    0 -0.32157556981E-02 -0.74175247180E-02  0.22853187501E-01  0.10196889411E+01  0.10194007591E+01 0.  0.
     999903    2    3    3    0    0 -0.83917733130E-01 -0.66382332859E-02 -0.93913965103E-01  0.12831472990E+00  0.23634402766E-01 0.  0.
         14    1    1    2    0    0  0.32157556981E-02  0.74175247180E-02 -0.22853187501E-01  0.24241058901E-01  0.00000000000E+00 0.  1.
     999901    1    3    3    0    0  0.80701977432E-01 -0.77929143209E-03  0.11676715260E+00  0.89137421120E+00  0.88000000000E+00 0.  1.
        -11    1    4    4    0    0 -0.62367597975E-01 -0.32298945851E-02 -0.83118117535E-01  0.10396649499E+00  0.51100000000E-03 0. -1.
         11    1    4    4    0    0 -0.21550135155E-01 -0.34083387008E-02 -0.10795847569E-01  0.24348234918E-01  0.51100000000E-03 0.  1.
</event>
<event>
 8    1  0.1208168E+005  0.1043930E+01  0.7957747E-01            NaN
         13   -1    0    0    0    0  0.00000000000E+00  0.00000000000E+00  0.74505805969E-08  0.10566000000E+00  0.10566000000E+00 0.  1.
     999900   -1    0    0    0    0 -0.00000000000E+00 -0.00000000000E+00 -0.74505805969E-08  0.93827000000E+00  0.93827000000E+00 0. -1.
     999902    2    1    2    0    0 -0.11540056243E-01 -0.10686669942E-01 -0.15859242625E-01  0.10215940785E+01  0.10213498753E+01 0.  0.
     999903    2    3    3    0    0 -0.10927553193E-01  0.12667932368E+00  0.19526762585E-01  0.13023446492E+00  0.20314008200E-01 0.  0.
         14    1    1    2    0    0  0.11540056243E-01  0.10686669942E-01  0.15859242625E-01  0.22335921499E-01  0.00000000000E+00 0.  1.
     999901    1    3    3    0    0 -0.61250304980E-03 -0.13736599362E+00 -0.35386005211E-01  0.89135961358E+00  0.88000000000E+00 0. -1.
        -11    1    4    4    0    0 -0.13507203111E-01  0.99026633612E-01  0.22031358379E-01  0.10234432360E+00  0.51100000000E-03 0.  1.
         11    1    4    4    0    0  0.25796499179E-02  0.27652690066E-01 -0.25045957934E-02  0.27890141317E-01  0.51100000000E-03 0. -1.
</event>
<event>
 8    1  0.1208168E+005  0.1043930E+01  0.7957747E-01            NaN
         13   -1    0    0    0    0  0.00000000000E+00  0.00000000000E+00  0.74505805969E-08  0.10566000000E+00  0.10566000000E+00 0. -1.
     999900   -1    0    0    0    0 -0.00000000000E+00 -0.00000000000E+00 -0.74505805969E-08  0.93827000000E+00  0.93827000000E+00 0.  1.
     999902    2    1    2    0    0 -0.12413296578E-01  0.16562519653E-01 -0.12018598312E-01  0.10199956378E+01  0.10197147873E+01 0.  0.
     999903    2    3    3    0    0  0.58652769904E-01 -0.56697939330E-01 -0.99066055535E-01  0.12983006866E+00  0.19671289396E-01 0.  0.
         14    1    1    2    0    0  0.12413296578E-01 -0.16562519653E-01  0.12018598312E-01  0.23934362213E-01  0.00000000000E+00 0. -1.
     999901    1    3    3    0    0 -0.71066066481E-01  0.73260458983E-01  0.87047457223E-01  0.89016556913E+00  0.88000000000E+00 0. -1.
        -11    1    4    4    0    0  0.13639395151E-01 -0.25573854115E-01 -0.38626095897E-01  0.48293804154E-01  0.51100000000E-03 0.  1.
         11    1    4    4    0    0  0.45013374752E-01 -0.31124085215E-01 -0.60439959638E-01  0.81536264503E-01  0.51100000000E-03 0. -1.
</event>
<event>
 8    1  0.1208168E+005  0.1043930E+01  0.7957747E-01            NaN
         13   -1    0    0    0    0  0.00000000000E+00  0.00000000000E+00  0.74505805969E-08  0.10566000000E+00  0.10566000000E+00 0. -1.
     999900   -1    0    0    0    0 -0.00000000000E+00 -0.00000000000E+00 -0.74505805969E-08  0.93827000000E+00  0.93827000000E+00 0. -1.
     999902    2    1    2    0    0 -0.15459694019E-01  0.15394715660E-01 -0.91790479166E-02  0.10202603078E+01  0.10199857064E+01 0.  0.
     999903    2    3    3    0    0 -0.54326752692E-01 -0.11335696980E+00 -0.19678330740E-01  0.12998064402E+00  0.26580678269E-01 0.  0.
         14    1    1    2    0    0  0.15459694019E-01 -0.15394715660E-01  0.91790479166E-02  0.23669692226E-01  0.00000000000E+00 0.  1.
     999901    1    3    3    0    0  0.38867058672E-01  0.12875168546E+00  0.10499282823E-01  0.89027966376E+00  0.88000000000E+00 0.  1.
        -11    1    4    4    0    0 -0.14070804990E-01 -0.47769098600E-01 -0.18156082296E-01  0.53007346467E-01  0.51100000000E-03 0.  1.
         11    1    4    4    0    0 -0.40255947702E-01 -0.65587871204E-01 -0.15222484439E-02  0.76973297550E-01  0.51100000000E-03 0. -1.
</event>
<event>
 8    1  0.1208168E+005  0.1043930E+01  0.7957747E-01            NaN
         13   -1    0    0    0    0  0.00000000000E+00  0.00000000000E+00  0.74505805969E-08  0.10566000000E+00  0.10566000000E+00 0. -1.
     999900   -1    0    0    0    0 -0.00000000000E+00 -0.00000000000E+00 -0.74505805969E-08  0.93827000000E+00  0.93827000000E+00 0. -1.
     999902    2    1    2    0    0  0.13138412908E-01 -0.10000261970E-01  0.16871385409E-01  0.10203235013E+01  0.10200503814E+01 0.  0.
     999903    2    3    3    0    0  0.77650346497E-01  0.23210674066E-01  0.10376593311E+00  0.13307189201E+00  0.19298908419E-01 0.  0.
         14    1    1    2    0    0 -0.13138412908E-01  0.10000261970E-01 -0.16871385409E-01  0.23606498656E-01  0.00000000000E+00 0.  1.
     999901    1    3    3    0    0 -0.64511933589E-01 -0.33210936036E-01 -0.86894547704E-01  0.88725160934E+00  0.88000000000E+00 0.  1.
        -11    1    4    4    0    0  0.46878862987E-01  0.40482375169E-02  0.58251826698E-01  0.74883592706E-01  0.51100000000E-03 0.  1.
         11    1    4    4    0    0  0.30771483510E-01  0.19162436549E-01  0.45514106415E-01  0.58188299302E-01  0.51100000000E-03 0. -1.
</event>
<event>
 8    1  0.1208168E+005  0.1043930E+01  0.7957747E-01            NaN
         13   -1    0    0    0    0  0.00000000000E+00  0.00000000000E+00  0.74505805969E-08  0.10566000000E+00  0.10566000000E+00 0. -1.
     999900   -1    0    0    0    0 -0.00000000000E+00 -0.00000000000E+00 -0.74505805969E-08  0.93827000000E+00  0.93827000000E+00 0. -1.
     999902    2    1    2    0    0 -0.19238732763E-01 -0.43484203497E-02 -0.13307110003E-01  0.10201367914E+01  0.10198592827E+01 0.  0.
     999903    2    3    3    0    0  0.49358765004E-01 -0.97734685325E-01  0.65332012678E-01  0.12906399821E+00  0.20022171580E-01 0.  0.
         14    1    1    2    0    0  0.19238732763E-01  0.43484203497E-02  0.13307110003E-01  0.23793208579E-01  0.00000000000E+00 0. -1.
     999901    1    3    3    0    0 -0.68597497767E-01  0.93386264976E-01 -0.78639122681E-01  0.89107279321E+00  0.88000000000E+00 0. -1.
        -11    1    4    4    0    0  0.43765082893E-01 -0.70869906346E-01  0.54593062603E-01  0.99592116714E-01  0.51100000000E-03 0. -1.
         11    1    4    4    0    0  0.55936821111E-02 -0.26864778979E-01  0.10738950075E-01  0.29471881495E-01  0.51100000000E-03 0.  1.
</event>
<event>
 8    1  0.1208168E+005  0.1043930E+01  0.7957747E-01            NaN
         13   -1    0    0    0    0  0.00000000000E+00  0.00000000000E+00  0.74505805969E-08  0.10566000000E+00  0.10566000000E+00 0. -1.
     999900   -1    0    0    0    0 -0.00000000000E+00 -0.00000000000E+00 -0.74505805969E-08  0.93827000000E+00  0.93827000000E+00 0. -1.
     999902    2    1    2    0    0 -0.20385919837E-01  0.12671581613E-01  0.41205468634E-02  0.10195756654E+01  0.10192847511E+01 0.  0.
     999903    2    3    3    0    0  0.33696132586E-01  0.97294041468E-01 -0.77077025781E-01  0.13014951617E+00  0.19911524269E-01 0.  0.
         14    1    1    2    0    0  0.20385919837E-01 -0.12671581613E-01 -0.41205468634E-02  0.24354334617E-01  0.00000000000E+00 0. -1.
     999901    1    3    3    0    0 -0.54082052423E-01 -0.84622459855E-01  0.81197572644E-01  0.88942614922E+00  0.88000000000E+00 0.  1.
        -11    1    4    4    0    0  0.11598541894E-01  0.63059827086E-01 -0.47522188115E-01  0.79810321703E-01  0.51100000000E-03 0.  1.
         11    1    4    4    0    0  0.22097590691E-01  0.34234214383E-01 -0.29554837666E-01  0.50339194463E-01  0.51100000000E-03 0. -1.
</event>
<event>
 8    1  0.1208168E+005  0.1043930E+01  0.7957747E-01            NaN
         13   -1    0    0    0    0  0.00000000000E+00  0.00000000000E+00  0.74505805969E-08  0.10566000000E+00  0.10566000000E+00 0.  1.
     999900   -1    0    0    0    0 -0.00000000000E+00 -0.00000000000E+00 -0.74505805969E-08  0.93827000000E+00  0.93827000000E+00 0.  1.
     999902    2    1    2    0    0  0.14898762469E-01  0.18093169247E-01 -0.39795239186E-02  0.10201566429E+01  0.10198796025E+01 0.  0.
     999903    2    3    3    0    0 -0.10661988938E+00  0.41800057701E-01 -0.57587982409E-01  0.12987429100E+00  0.20878460432E-01 0.  0.
         14    1    1    2    0    0 -0.14898762469E-01 -0.18093169247E-01  0.39795239186E-02  0.23773357086E-01  0.00000000000E+00 0.  1.
     999901    1    3    3    0    0  0.12151865185E+00 -0.23706888454E-01  0.53608458491E-01  0.89028235191E+00  0.88000000000E+00 0. -1.
        -11    1    4    4    0    0 -0.62685841623E-01  0.13876251833E-01 -0.35001906312E-01  0.73126326801E-01  0.51100000000E-03 0.  1.
         11    1    4    4    0    0 -0.43934047756E-01  0.27923805868E-01 -0.22586076097E-01  0.56747964199E-01  0.51100000000E-03 0. -1.
</event>
<event>
 8    1  0.1208168E+005  0.1043930E+01  0.7957747E-01            NaN
         13   -1    0    0    0    0  0.00000000000E+00  0.00000000000E+00  0.74505805969E-08  0.10566000000E+00  0.10566000000E+00 0. -1.
     999900   -1    0    0    0    0 -0.00000000000E+00 -0.00000000000E+00 -0.74505805969E-08  0.93827000000E+00  0.93827000000E+00 0. -1.
     999902    2    1    2    0    0  0.14779894200E-01 -0.86352483918E-02  0.16242396838E-01  0.10203327916E+01  0.10200598892E+01 0.  0.
     999903    2    3    3    0    0 -0.56238280459E-01 -0.11185512931E+00 -0.29689373624E-01  0.13027231477E+00  0.20374075381E-01 0.  0.
         14    1    1    2    0    0 -0.14779894200E-01  0.86352483918E-02 -0.16242396838E-01  0.23597208360E-01  0.00000000000E+00 0.  1.
     999901    1    3    3    0    0  0.71018174658E-01  0.10321988092E+00  0.45931770462E-01  0.89006047687E+00  0.88000000000E+00 0.  1.
        -11    1    4    4    0    0 -0.46927372806E-01 -0.72600365262E-01 -0.21923744632E-01  0.89184657057E-01  0.51100000000E-03 0. -1.
         11    1    4    4    0    0 -0.93109076524E-02 -0.39254764047E-01 -0.77656289917E-02  0.41087657713E-01  0.51100000000E-03 0.  1.
</event>
<event>
 8    1  0.1208168E+005  0.1043930E+01  0.7957747E-01            NaN
         13   -1    0    0    0    0  0.00000000000E+00  0.00000000000E+00  0.74505805969E-08  0.10566000000E+00  0.10566000000E+00 0. -1.
     999900   -1    0    0    0    0 -0.00000000000E+00 -0.00000000000E+00 -0.74505805969E-08  0.93827000000E+00  0.93827000000E+00 0. -1.
     999902    2    1    2    0    0  0.15082646762E-01 -0.33574196908E-04 -0.17595254782E-01  0.10207550059E+01  0.10204918920E+01 0.  0.
     999903    2    3    3    0    0  0.41327047084E-01  0.12098789388E+00  0.11651572200E-01  0.13160353333E+00  0.28943661917E-01 0.  0.
         14    1    1    2    0    0 -0.15082646762E-01  0.33574196908E-04  0.17595254782E-01  0.23174994097E-01  0.00000000000E+00 0. -1.
     999901    1    3    3    0    0 -0.26244400322E-01 -0.12102146808E+00 -0.29246826982E-01  0.88915147257E+00  0.88000000000E+00 0.  1.
        -11    1    4    4    0    0  0.31894511305E-01  0.76513750896E-01 -0.53336326806E-02  0.83068180949E-01  0.51100000000E-03 0. -1.
         11    1    4    4    0    0  0.94325357798E-02  0.44474142983E-01  0.16985204881E-01  0.48535352385E-01  0.51100000000E-03 0.  1.
</event>
<event>
 8    1  0.1208168E+005  0.1043930E+01  0.7957747E-01            NaN
         13   -1    0    0    0    0  0.00000000000E+00  0.00000000000E+00  0.74505805969E-08  0.10566000000E+00  0.10566000000E+00 0.  1.
     999900   -1    0    0    0    0 -0.00000000000E+00 -0.00000000000E+00 -0.74505805969E-08  0.93827000000E+00  0.93827000000E+00 0. -1.
     999902    2    1    2    0    0  0.22589644068E-01  0.70602953469E-02 -0.35308857455E-02  0.10200007931E+01  0.10197200650E+01 0.  0.
     999903    2    3    3    0    0 -0.46542724492E-02  0.60754882385E-01  0.11334635378E+00  0.13023361635E+00  0.20014517907E-01 0.  0.
         14    1    1    2    0    0 -0.22589644068E-01 -0.70602953469E-02  0.35308857455E-02  0.23929206917E-01  0.00000000000E+00 0.  1.
     999901    1    3    3    0    0  0.27243916517E-01 -0.53694587038E-01 -0.11687723953E+00  0.88976717673E+00  0.88000000000E+00 0. -1.
        -11    1    4    4    0    0 -0.11979695652E-01  0.46780168011E-01  0.87733184233E-01  0.10014624288E+00  0.51100000000E-03 0. -1.
         11    1    4    4    0    0  0.73254232029E-02  0.13974714373E-01  0.25613169551E-01  0.30087373471E-01  0.51100000000E-03 0.  1.
</event>
<event>
 8    1  0.1208168E+005  0.1043930E+01  0.7957747E-01            NaN
         13   -1    0    0    0    0  0.00000000000E+00  0.00000000000E+00  0.74505805969E-08  0.10566000000E+00  0.10566000000E+00 0.  1.
     999900   -1    0    0    0    0 -0.00000000000E+00 -0.00000000000E+00 -0.74505805969E-08  0.93827000000E+00  0.93827000000E+00 0. -1.
     999902    2    1    2    0    0 -0.14794966809E-01  0.16798705473E-01  0.88432920672E-02  0.10198615276E+01  0.10195774831E+01 0.  0.
     999903    2    3    3    0    0  0.23222396860E-01  0.12015016844E+00 -0.43682271869E-01  0.13144395704E+00  0.19850195801E-01 0.  0.
         14    1    1    2    0    0  0.14794966809E-01 -0.16798705473E-01 -0.88432920672E-02  0.24068472386E-01  0.00000000000E+00 0. -1.
     999901    1    3    3    0    0 -0.38017363669E-01 -0.10335146297E+00  0.52525563936E-01  0.88841757057E+00  0.88000000000E+00 0.  1.
        -11    1    4    4    0    0  0.29528596750E-02  0.12886679866E-01 -0.11779848495E-01  0.17714735386E-01  0.51100000000E-03 0. -1.
         11    1    4    4    0    0  0.20269537185E-01  0.10726348858E+00 -0.31902423374E-01  0.11372922165E+00  0.51100000000E-03 0.  1.
</event>
<event>
 8    1  0.1208168E+005  0.1043930E+01  0.7957747E-01            NaN
         13   -1    0    0    0    0  0.00000000000E+00  0.00000000000E+00  0.74505805969E-08  0.10566000000E+00  0.10566000000E+00 0. -1.
     999900   -1    0    0    0    0 -0.00000000000E+00 -0.00000000000E+00 -0.74505805969E-08  0.93827000000E+00  0.93827000000E+00 0.  1.
     999902    2    1    2    0    0  0.24868071344E-02 -0.20573504173E-01  0.10633142071E-01  0.10206380058E+01  0.10203721977E+01 0.  0.
     999903    2    3    3    0    0 -0.71469121739E-01  0.24135872864E-01  0.10637379707E+00  0.13123670108E+00  0.14741481792E-01 0.  0.
         14    1    1    2    0    0 -0.24868071344E-02  0.20573504173E-01 -0.10633142071E-01  0.23291994204E-01  0.00000000000E+00 0.  1.
     999901    1    3    3    0    0  0.73955928874E-01 -0.44709377037E-01 -0.95740655002E-01  0.88940130472E+00  0.88000000000E+00 0.  1.
        -11    1    4    4    0    0 -0.48105038954E-01  0.16902718821E-01  0.82938356420E-01  0.97359276718E-01  0.51100000000E-03 0. -1.
         11    1    4    4    0    0 -0.23364082786E-01  0.72331540423E-02  0.23435440654E-01  0.33877424363E-01  0.51100000000E-03 0.  1.
</event>
<event>
 8    1  0.1208168E+005  0.1043930E+01  0.7957747E-01            NaN
         13   -1    0    0    0    0  0.00000000000E+00  0.00000000000E+00  0.74505805969E-08  0.10566000000E+00  0.10566000000E+00 0. -1.
     999900   -1    0    0    0    0 -0.00000000000E+00 -0.00000000000E+00 -0.74505805969E-08  0.93827000000E+00  0.93827000000E+00 0. -1.
     999902    2    1    2    0    0  0.91691238093E-02 -0.18418251777E-01 -0.13318490696E-01  0.10194210828E+01  0.10191264185E+01 0.  0.
     999903    2    3    3    0    0 -0.80358776804E-01  0.96008499457E-01  0.94065673458E-02  0.12721866478E+00  0.20516826785E-01 0.  0.
         14    1    1    2    0    0 -0.91691238093E-02  0.18418251777E-01  0.13318490696E-01  0.24508917242E-01  0.00000000000E+00 0. -1.
     999901    1    3    3    0    0  0.89527900614E-01 -0.11442675123E+00 -0.22725058042E-01  0.89220241798E+00  0.88000000000E+00 0.  1.
        -11    1    4    4    0    0 -0.56495286114E-01  0.68145034496E-01  0.15965184922E-01  0.89947825600E-01  0.51100000000E-03 0.  1.
         11    1    4    4    0    0 -0.23863490691E-01  0.27863464961E-01 -0.65586175766E-02  0.37270839179E-01  0.51100000000E-03 0. -1.
</event>
<event>
 8    1  0.1208168E+005  0.1043930E+01  0.7957747E-01            NaN
         13   -1    0    0    0    0  0.00000000000E+00  0.00000000000E+00  0.74505805969E-08  0.10566000000E+00  0.10566000000E+00 0. -1.
     999900   -1    0    0    0    0 -0.00000000000E+00 -0.00000000000E+00 -0.74505805969E-08  0.93827000000E+00  0.93827000000E+00 0. -1.
     999902    2    1    2    0    0 -0.20646429389E-01  0.11908367202E-01  0.46139419835E-02  0.10196530003E+01  0.10193639528E+01 0.  0.
     999903    2    3    3    0    0  0.11784062239E+00 -0.39665419511E-01 -0.17043126888E-01  0.12706824371E+00  0.19902577596E-01 0.  0.
         14    1    1    2    0    0  0.20646429389E-01 -0.11908367202E-01 -0.46139419835E-02  0.24276999743E-01  0.00000000000E+00 0.  1.
     999901    1    3    3    0    0 -0.13848705178E+00  0.51573786713E-01  0.21657068872E-01  0.89258475655E+00  0.88000000000E+00 0.  1.
        -11    1    4    4    0    0  0.96761731832E-02 -0.87317525666E-02  0.11925002013E-02  0.13097900904E-01  0.51100000000E-03 0.  1.
         11    1    4    4    0    0  0.10816444921E+00 -0.30933666944E-01 -0.18235627090E-01  0.11397034281E+00  0.51100000000E-03 0. -1.
</event>
<event>
 8    1  0.1208168E+005  0.1043930E+01  0.7957747E-01            NaN
         13   -1    0    0    0    0  0.00000000000E+00  0.00000000000E+00  0.74505805969E-08  0.10566000000E+00  0.10566000000E+00 0.  1.
     999900   -1    0    0    0    0 -0.00000000000E+00 -0.00000000000E+00 -0.74505805969E-08  0.93827000000E+00  0.93827000000E+00 0. -1.
     999902    2    1    2    0    0 -0.60887817868E-02  0.18097560179E-01  0.11863600731E-01  0.10214502320E+01  0.10212028380E+01 0.  0.
     999903    2    3    3    0    0 -0.77477805154E-01  0.40462692386E-01  0.98203062011E-01  0.13406582014E+00  0.26263338997E-01 0.  0.
         14    1    1    2    0    0  0.60887817868E-02 -0.18097560179E-01 -0.11863600731E-01  0.22479768023E-01  0.00000000000E+00 0. -1.
     999901    1    3    3    0    0  0.71389023367E-01 -0.22365132207E-01 -0.86339461280E-01  0.88738441184E+00  0.88000000000E+00 0. -1.
        -11    1    4    4    0    0 -0.42913327665E-01  0.82171381201E-02  0.41768114668E-01  0.60447593617E-01  0.51100000000E-03 0. -1.
         11    1    4    4    0    0 -0.34564477489E-01  0.32245554266E-01  0.56434947342E-01  0.73618226524E-01  0.51100000000E-03 0.  1.
</event>
<event>
 8    1  0.1208168E+005  0.1043930E+01  0.7957747E-01            NaN
         13   -1    0    0    0    0  0.00000000000E+00  0.00000000000E+00  0.74505805969E-08  0.10566000000E+00  0.10566000000E+00 0. -1.
     999900   -1    0    0    0    0 -0.00000000000E+00 -0.00000000000E+00 -0.74505805969E-08  0.93827000000E+00  0.93827000000E+00 0. -1.
     999902    2    1    2    0    0 -0.18045336412E-01  0.14075545342E-01  0.45210376335E-02  0.10206020141E+01  0.10203353744E+01 0.  0.
     999903    2    3    3    0    0 -0.40445625295E-01  0.11604993485E+00 -0.46468619138E-01  0.13296442247E+00  0.20414923267E-01 0.  0.
         14    1    1    2    0    0  0.18045336412E-01 -0.14075545342E-01 -0.45210376335E-02  0.23327985858E-01  0.00000000000E+00 0.  1.
     999901    1    3    3    0    0  0.22400288883E-01 -0.10197438951E+00  0.50989656771E-01  0.88763759168E+00  0.88000000000E+00 0.  1.
        -11    1    4    4    0    0 -0.41467187422E-01  0.97580866460E-01 -0.40868921442E-01  0.11363134688E+00  0.51100000000E-03 0.  1.
         11    1    4    4    0    0  0.10215621268E-02  0.18469068394E-01 -0.55996976955E-02  0.19333075591E-01  0.51100000000E-03 0. -1.
</event>
<event>
 8    1  0.1208168E+005  0.1043930E+01  0.7957747E-01            NaN
         13   -1    0    0    0    0  0.00000000000E+00  0.00000000000E+00  0.74505805969E-08  0.10566000000E+00  0.10566000000E+00 0.  1.
     999900   -1    0    0    0    0 -0.00000000000E+00 -0.00000000000E+00 -0.74505805969E-08  0.93827000000E+00  0.93827000000E+00 0. -1.
     999902    2    1    2    0    0 -0.41824232388E-02  0.67444138157E-02 -0.22189211087E-01  0.10203643286E+01  0.10200921635E+01 0.  0.
     999903    2    3    3    0    0  0.12294114563E+00  0.11813346209E-01  0.33252058386E-01  0.12948845045E+00  0.20186108476E-01 0.  0.
         14    1    1    2    0    0  0.41824232388E-02 -0.67444138157E-02  0.22189211087E-01  0.23565671443E-01  0.00000000000E+00 0.  1.
     999901    1    3    3    0    0 -0.12712356887E+00 -0.50689323934E-02 -0.55441269474E-01  0.89087587811E+00  0.88000000000E+00 0.  1.
        -11    1    4    4    0    0  0.85779552851E-01 -0.10514101196E-02  0.21482042943E-01  0.88436284638E-01  0.51100000000E-03 0. -1.
         11    1    4    4    0    0  0.37161592777E-01  0.12864756329E-01  0.11770015443E-01  0.41052165809E-01  0.51100000000E-03 0.  1.
</event>
<event>
 8    1  0.1208168E+005  0.1043930E+01  0.7957747E-01            NaN
         13   -1    0    0    0    0  0.00000000000E+00  0.00000000000E+00  0.74505805969E-08  0.10566000000E+00  0.10566000000E+00 0.  1.
     999900   -1    0    0    0    0 -0.00000000000E+00 -0.00000000000E+00 -0.74505805969E-08  0.93827000000E+00  0.93827000000E+00 0.  1.
     999902    2    1    2    0    0  0.97693637448E-02 -0.67758792277E-02 -0.21578558492E-01  0.10192928899E+01  0.10189950972E+01 0.  0.
     999903    2    3    3    0    0  0.10886013872E+00  0.45521872022E-01 -0.54830088589E-01  0.13156562282E+00  0.19503944707E-01 0.  0.
         14    1    1    2    0    0 -0.97693637448E-02  0.67758792277E-02  0.21578558492E-01  0.24637110096E-01  0.00000000000E+00 0.  1.
     999901    1    3    3    0    0 -0.99090774974E-01 -0.52297751250E-01  0.33251530097E-01  0.88772726708E+00  0.88000000000E+00 0. -1.
        -11    1    4    4    0    0  0.54255847048E-01  0.26665607431E-01 -0.18103073245E-01  0.63108905398E-01  0.51100000000E-03 0. -1.
         11    1    4    4    0    0  0.54604291670E-01  0.18856264591E-01 -0.36727015344E-01  0.68456717422E-01  0.51100000000E-03 0.  1.
</event>
<event>
 8    1  0.1208168E+005  0.1043930E+01  0.7957747E-01            NaN
         13   -1    0    0    0    0  0.00000000000E+00  0.00000000000E+00  0.74505805969E-08  0.10566000000E+00  0.10566000000E+00 0. -1.
     999900   -1    0    0    0    0 -0.00000000000E+00 -0.00000000000E+00 -0.74505805969E-08  0.93827000000E+00  0.93827000000E+00 0. -1.
     999902    2    1    2    0    0 -0.16760865429E-01  0.83521613478E-02 -0.14863916643E-01  0.10200213985E+01  0.10197411594E+01 0.  0.
     999903    2    3    3    0    0 -0.86257743474E-01 -0.95638912002E-01  0.11431499470E-01  0.13078835348E+00  0.19690465403E-01 0.  0.
         14    1    1    2    0    0  0.16760865429E-01 -0.83521613478E-02  0.14863916643E-01  0.23908601529E-01  0.00000000000E+00 0. -1.
     999901    1    3    3    0    0  0.69496878045E-01  0.10399107335E+00 -0.26295416113E-01  0.88923304499E+00  0.88000000000E+00 0. -1.
        -11    1    4    4    0    0 -0.33705059358E-01 -0.51937131787E-01  0.65557155221E-02  0.62263433985E-01  0.51100000000E-03 0. -1.
         11    1    4    4    0    0 -0.52552684116E-01 -0.43701780215E-01  0.48757839480E-02  0.68524919496E-01  0.51100000000E-03 0.  1.
</event>
<event>
 8    1  0.1208168E+005  0.1043930E+01  0.7957747E-01            NaN
         13   -1    0    0    0    0  0.00000000000E+00  0.00000000000E+00  0.74505805969E-08  0.10566000000E+00  0.10566000000E+00 0.  1.
     999900   -1    0    0    0    0 -0.00000000000E+00 -0.00000000000E+00 -0.74505805969E-08  0.93827000000E+00  0.93827000000E+00 0. -1.
     999902    2    1    2    0    0  0.97703955820E-02  0.11959978418E-01 -0.19200190965E-01  0.10192896054E+01  0.10189917324E+01 0.  0.
     999903    2    3    3    0    0  0.95943218847E-01  0.10782982361E-01  0.84409098223E-01  0.12903007829E+00  0.14229943370E-01 0.  0.
         14    1    1    2    0    0 -0.97703955820E-02 -0.11959978418E-01  0.19200190965E-01  0.24640394613E-01  0.00000000000E+00 0.  1.
     999901    1    3    3    0    0 -0.86172823265E-01  0.11769960574E-02 -0.10360928919E+00  0.89025952710E+00  0.88000000000E+00 0. -1.
        -11    1    4    4    0    0  0.58897618997E-01  0.50794239124E-02  0.60386820438E-01  0.84507746831E-01  0.51100000000E-03 0. -1.
         11    1    4    4    0    0  0.37045599850E-01  0.57035584484E-02  0.24022277785E-01  0.44522331455E-01  0.51100000000E-03 0.  1.
</event>
<event>
 8    1  0.1208168E+005  0.1043930E+01  0.7957747E-01            NaN
         13   -1    0    0    0    0  0.00000000000E+00  0.00000000000E+00  0.74505805969E-08  0.10566000000E+00  0.10566000000E+00 0.  1.
     999900   -1    0    0    0    0 -0.00000000000E+00 -0.00000000000E+00 -0.74505805969E-08  0.93827000000E+00  0.93827000000E+00 0.  1.
     999902    2    1    2    0    0  0.11127942534E-01  0.12288120130E-01  0.17477333775E-01  0.10198408697E+01  0.10195563316E+01 0.  0.
     999903    2    3    3    0    0 -0.19721974195E-01  0.49798413483E-02  0.12904260082E+00  0.13223063031E+00  0.20474171094E-01 0.  0.
         14    1    1    2    0    0 -0.11127942534E-01 -0.12288120130E-01 -0.17477333775E-01  0.24089130272E-01  0.00000000000E+00 0. -1.
     999901    1    3    3    0    0  0.30849916729E-01  0.73082787822E-02 -0.11156526704E+00  0.88761023941E+00  0.88000000000E+00 0.  1.
        -11    1    4    4    0    0 -0.56610618023E-02  0.11876460356E-01  0.56205392490E-01  0.57726988466E-01  0.51100000000E-03 0.  1.
         11    1    4    4    0    0 -0.14060912393E-01 -0.68966190075E-02  0.72837208326E-01  0.74503641849E-01  0.51100000000E-03 0. -1.
</event>
<event>
 8    1  0.1208168E+005  0.1043930E+01  0.7957747E-01            NaN
         13   -1    0    0    0    0  0.00000000000E+00  0.00000000000E+00  0.74505805969E-08  0.10566000000E+00  0.10566000000E+00 0.  1.
     999900   -1    0    0    0    0 -0.00000000000E+00 -0.00000000000E+00 -0.74505805969E-08  0.93827000000E+00  0.93827000000E+00 0.  1.
     999902    2    1    2    0    0 -0.20200235839E-01  0.63885705418E-02  0.28594995752E-02  0.10225515038E+01  0.10223279991E+01 0.  0.
     999903    2    3    3    0    0 -0.10931698258E+00 -0.24404766259E-01 -0.71331936971E-01  0.13441052773E+00  0.20788204234E-01 0.  0.
         14    1    1    2    0    0  0.20200235839E-01 -0.63885705418E-02 -0.28594995752E-02  0.21378496190E-01  0.00000000000E+00 0.  1.
     999901    1    3    3    0    0  0.89116746741E-01  0.30793336800E-01  0.74191436546E-01  0.88814097608E+00  0.88000000000E+00 0. -1.
        -11    1    4    4    0    0 -0.71980665613E-01 -0.24246148494E-01 -0.41078947801E-01  0.86352956014E-01  0.51100000000E-03 0.  1.
         11    1    4    4    0    0 -0.37336316967E-01 -0.15861776445E-03 -0.30252989169E-01  0.48057571713E-01  0.51100000000E-03 0. -1.
</event>
<event>
 8    1  0.1208168E+005  0.1043930E+01  0.7957747E-01            NaN
         13   -1    0    0    0    0  0.00000000000E+00  0.00000000000E+00  0.74505805969E-08  0.10566000000E+00  0.10566000000E+00 0. -1.
     999900   -1    0    0    0    0 -0.00000000000E+00 -0.00000000000E+00 -0.74505805969E-08  0.93827000000E+00  0.93827000000E+00 0. -1.
     999902    2    1    2    0    0  0.79943697049E-02  0.10926772837E-01  0.22847771168E-01  0.10173720453E+01  0.10170253456E+01 0.  0.
     999903    2    3    3    0    0  0.37804126274E-01  0.11969856975E+00 -0.19120519506E-01  0.12918216535E+00  0.23781043166E-01 0.  0.
         14    1    1    2    0    0 -0.79943697049E-02 -0.10926772837E-01 -0.22847771168E-01  0.26557954721E-01  0.00000000000E+00 0.  1.
     999901    1    3    3    0    0 -0.29809756569E-01 -0.10877179691E+00  0.41968290674E-01  0.88818987993E+00  0.88000000000E+00 0. -1.
        -11    1    4    4    0    0  0.12941924402E-01  0.15063517182E-01  0.42693650315E-03  0.19870741125E-01  0.51100000000E-03 0.  1.
         11    1    4    4    0    0  0.24862201873E-01  0.10463505257E+00 -0.19547456009E-01  0.10931142422E+00  0.51100000000E-03 0. -1.
</event>
<event>
 8    1  0.1208168E+005  0.1043930E+01  0.7957747E-01            NaN
         13   -1    0    0    0    0  0.00000000000E+00  0.00000000000E+00  0.74505805969E-08  0.10566000000E+00  0.10566000000E+00 0. -1.
     999900   -1    0    0    0    0 -0.00000000000E+00 -0.00000000000E+00 -0.74505805969E-08  0.93827000000E+00  0.93827000000E+00 0.  1.
     999902    2    1    2    0    0  0.21783943323E-01  0.81527616704E-02  0.30641333132E-02  0.10204694667E+01  0.10201997529E+01 0.  0.
     999903    2    3    3    0    0  0.52485905704E-01 -0.43461558358E-03  0.11964629048E+00  0.13220838295E+00  0.20220348872E-01 0.  0.
         14    1    1    2    0    0 -0.21783943323E-01 -0.81527616704E-02 -0.30641333132E-02  0.23460533296E-01  0.00000000000E+00 0. -1.
     999901    1    3    3    0    0 -0.30701962381E-01  0.85873772539E-02 -0.11658215717E+00  0.88826108375E+00  0.88000000000E+00 0.  1.
        -11    1    4    4    0    0  0.18868518184E-01  0.49920840791E-02  0.64531267417E-01  0.67420230475E-01  0.51100000000E-03 0.  1.
         11    1    4    4    0    0  0.33617387520E-01 -0.54266996627E-02  0.55115023063E-01  0.64788152475E-01  0.51100000000E-03 0. -1.
</event>
<event>
 8    1  0.1208168E+005  0.1043930E+01  0.7957747E-01            NaN
         13   -1    0    0    0    0  0.00000000000E+00  0.00000000000E+00  0.74505805969E-08  0.10566000000E+00  0.10566000000E+00 0.  1.
     999900   -1    0    0    0    0 -0.00000000000E+00 -0.00000000000E+00 -0.74505805969E-08  0.93827000000E+00  0.93827000000E+00 0.  1.
     999902    2    1    2    0    0  0.11358040848E-01 -0.14766820999E-02 -0.20930388810E-01  0.10200706861E+01  0.10197916149E+01 0.  0.
     999903    2    3    3    0    0  0.19113852855E-01  0.12486590797E+00  0.22679936173E-01  0.12994459219E+00  0.20356404217E-01 0.  0.
         14    1    1    2    0    0 -0.11358040848E-01  0.14766820999E-02  0.20930388810E-01  0.23859313856E-01  0.00000000000E+00 0.  1.
     999901    1    3    3    0    0 -0.77558120076E-02 -0.12634259007E+00 -0.43610324983E-01  0.89012609395E+00  0.88000000000E+00 0.  1.
        -11    1    4    4    0    0 -0.26433001633E-02  0.93232200115E-02 -0.17453586218E-02  0.98598613000E-02  0.51100000000E-03 0.  1.
         11    1    4    4    0    0  0.21757153018E-01  0.11554268795E+00  0.24425294795E-01  0.12008473089E+00  0.51100000000E-03 0. -1.
</event>
<event>
 8    1  0.1208168E+005  0.1043930E+01  0.7957747E-01            NaN
         13   -1    0    0    0    0  0.00000000000E+00  0.00000000000E+00  0.74505805969E-08  0.10566000000E+00  0.10566000000E+00 0.  1.
     999900   -1    0    0    0    0 -0.00000000000E+00 -0.00000000000E+00 -0.74505805969E-08  0.93827000000E+00  0.93827000000E+00 0. -1.
     999902    2    1    2    0    0 -0.10244475105E-01  0.15690080831E-01  0.85356213080E-02  0.10233391103E+01  0.10231319319E+01 0.  0.
     999903    2    3    3    0    0  0.23819764359E-01  0.12666584718E+00  0.36201363784E-01  0.13528427731E+00  0.19485351690E-01 0.  0.
         14    1    1    2    0    0  0.10244475105E-01 -0.15690080831E-01 -0.85356213080E-02  0.20590889679E-01  0.00000000000E+00 0. -1.
     999901    1    3    3    0    0 -0.34064239464E-01 -0.11097576635E+00 -0.27665742476E-01  0.88805483301E+00  0.88000000000E+00 0. -1.
        -11    1    4    4    0    0  0.52612798888E-02  0.22940109096E-01 -0.92944241680E-03  0.23559597951E-01  0.51100000000E-03 0.  1.
         11    1    4    4    0    0  0.18558484470E-01  0.10372573809E+00  0.37130806200E-01  0.11172467936E+00  0.51100000000E-03 0. -1.
</event>
<event>
 8    1  0.1208168E+005  0.1043930E+01  0.7957747E-01            NaN
         13   -1    0    0    0    0  0.00000000000E+00  0.00000000000E+00  0.74505805969E-08  0.10566000000E+00  0.10566000000E+00 0.  1.
     999900   -1    0    0    0    0 -0.00000000000E+00 -0.00000000000E+00 -0.74505805969E-08  0.93827000000E+00  0.93827000000E+00 0. -1.
     999902    2    1    2    0    0 -0.81423040525E-02 -0.13177539590E-01 -0.17700243406E-01  0.10204088758E+01  0.10201377508E+01 0.  0.
     999903    2    3    3    0    0  0.24779810513E-01 -0.72550435100E-02  0.12428753848E+00  0.12840020336E+00  0.19301433528E-01 0.  0.
         14    1    1    2    0    0  0.81423040525E-02  0.13177539590E-01  0.17700243406E-01  0.23521124155E-01  0.00000000000E+00 0.  1.
     999901    1    3    3    0    0 -0.32922114566E-01 -0.59224960796E-02 -0.14198778188E+00  0.89200867249E+00  0.88000000000E+00 0. -1.
        -11    1    4    4    0    0  0.13450604521E-01 -0.10691519047E-01  0.43926624615E-01  0.47170295871E-01  0.51100000000E-03 0. -1.
         11    1    4    4    0    0  0.11329205993E-01  0.34364755370E-02  0.80360913863E-01  0.81229907487E-01  0.51100000000E-03 0.  1.
</event>
<event>
 8    1  0.1208168E+005  0.1043930E+01  0.7957747E-01            NaN
         13   -1    0    0    0    0  0.00000000000E+00  0.00000000000E+00  0.74505805969E-08  0.10566000000E+00  0.10566000000E+00 0.  1.
     999900   -1    0    0    0    0 -0.00000000000E+00 -0.00000000000E+00 -0.74505805969E-08  0.93827000000E+00  0.93827000000E+00 0.  1.
     999902    2    1    2    0    0  0.45952447425E-02 -0.99035828943E-02 -0.21519841489E-01  0.10197990902E+01  0.10195135525E+01 0.  0.
     999903    2    3    3    0    0 -0.12612661996E+00  0.85855310567E-02 -0.20706990354E-01  0.12995038738E+00  0.21833188579E-01 0.  0.
         14    1    1    2    0    0 -0.45952447425E-02  0.99035828943E-02  0.21519841489E-01  0.24130909765E-01  0.00000000000E+00 0.  1.
     999901    1    3    3    0    0  0.13072186471E+00 -0.18489113951E-01 -0.81285113511E-03  0.88984870286E+00  0.88000000000E+00 0.  1.
        -11    1    4    4    0    0 -0.32914159080E-01  0.11932670429E-01 -0.53368439739E-02  0.35418547628E-01  0.51100000000E-03 0.  1.
         11    1    4    4    0    0 -0.93212460884E-01 -0.33471393718E-02 -0.15370146380E-01  0.94531839751E-01  0.51100000000E-03 0. -1.
</event>
<event>
 8    1  0.1208168E+005  0.1043930E+01  0.7957747E-01            NaN
         13   -1    0    0    0    0  0.00000000000E+00  0.00000000000E+00  0.74505805969E-08  0.10566000000E+00  0.10566000000E+00 0. -1.
     999900   -1    0    0    0    0 -0.00000000000E+00 -0.00000000000E+00 -0.74505805969E-08  0.93827000000E+00  0.93827000000E+00 0.  1.
     999902    2    1    2    0    0  0.70789815826E-02  0.18632558941E-01 -0.13768114849E-01  0.10197051116E+01  0.10194173185E+01 0.  0.
     999903    2    3    3    0    0 -0.93038386456E-01  0.76621729249E-01  0.43754589652E-01  0.13026984535E+00  0.22994298110E-01 0.  0.
         14    1    1    2    0    0 -0.70789815826E-02 -0.18632558941E-01  0.13768114849E-01  0.24224888429E-01  0.00000000000E+00 0. -1.
     999901    1    3    3    0    0  0.10011736804E+00 -0.57989170308E-01 -0.57522704501E-01  0.88943526622E+00  0.88000000000E+00 0. -1.
        -11    1    4    4    0    0 -0.46267913334E-01  0.26387607954E-01  0.26510270537E-01  0.59498581687E-01  0.51100000000E-03 0. -1.
         11    1    4    4    0    0 -0.46770473121E-01  0.50234121295E-01  0.17244319115E-01  0.70771263667E-01  0.51100000000E-03 0.  1.
</event>
<event>
 8    1  0.1208168E+005  0.1043930E+01  0.7957747E-01            NaN
         13   -1    0    0    0    0  0.00000000000E+00  0.00000000000E+00  0.74505805969E-08  0.10566000000E+00  0.10566000000E+00 0.  1.
     999900   -1    0    0    0    0 -0.00000000000E+00 -0.00000000000E+00 -0.74505805969E-08  0.93827000000E+00  0.93827000000E+00 0.  1.
     999902    2    1    2    0    0  0.40167809564E-02  0.14625057249E-01 -0.17491743620E-01  0.10207785870E+01  0.10205160145E+01 0.  0.
     999903    2    3    3    0    0 -0.10228940343E+00 -0.34678055938E-01  0.67804710742E-01  0.12892249607E+00  0.18916701015E-01 0.  0.
         14    1    1    2    0    0 -0.40167809564E-02 -0.14625057249E-01  0.17491743620E-01  0.23151412995E-01  0.00000000000E+00 0.  1.
     999901    1    3    3    0    0  0.10630618438E+00  0.49303113187E-01 -0.85296454362E-01  0.89185609093E+00  0.88000000000E+00 0.  1.
        -11    1    4    4    0    0 -0.21507082564E-01 -0.12500560164E-01  0.23178381501E-01  0.34004662840E-01  0.51100000000E-03 0.  1.
         11    1    4    4    0    0 -0.80782320864E-01 -0.22177495775E-01  0.44626329241E-01  0.94917833232E-01  0.51100000000E-03 0. -1.
</event>
<event>
 8    1  0.1208168E+005  0.1043930E+01  0.7957747E-01            NaN
         13   -1    0    0    0    0  0.00000000000E+00  0.00000000000E+00  0.74505805969E-08  0.10566000000E+00  0.10566000000E+00 0. -1.
     999900   -1    0    0    0    0 -0.00000000000E+00 -0.00000000000E+00 -0.74505805969E-08  0.93827000000E+00  0.93827000000E+00 0.  1.
     999902    2    1    2    0    0  0.18348594065E-01  0.94810890773E-02 -0.12523129957E-01  0.10197765171E+01  0.10194904384E+01 0.  0.
     999903    2    3    3    0    0 -0.65524011563E-01 -0.94897430249E-01  0.49819298926E-01  0.12746711572E+00  0.21609828466E-01 0.  0.
         14    1    1    2    0    0 -0.18348594065E-01 -0.94810890773E-02  0.12523129957E-01  0.24153482941E-01  0.00000000000E+00 0. -1.
     999901    1    3    3    0    0  0.83872605628E-01  0.10437851933E+00 -0.62342428884E-01  0.89230940133E+00  0.88000000000E+00 0.  1.
        -11    1    4    4    0    0 -0.43871002451E-01 -0.79034101781E-01  0.36341824830E-01  0.97427118675E-01  0.51100000000E-03 0.  1.
         11    1    4    4    0    0 -0.21653009111E-01 -0.15863328468E-01  0.13477474097E-01  0.30039997049E-01  0.51100000000E-03 0. -1.
</event>
<event>
 8    1  0.1208168E+005  0.1043930E+01  0.7957747E-01            NaN
         13   -1    0    0    0    0  0.00000000000E+00  0.00000000000E+00  0.74505805969E-08  0.10566000000E+00  0.10566000000E+00 0.  1.
     999900   -1    0    0    0    0 -0.00000000000E+00 -0.00000000000E+00 -0.74505805969E-08  0.93827000000E+00  0.93827000000E+00 0. -1.
     999902    2    1    2    0    0 -0.19157097702E-01  0.80434026811E-02  0.12198426540E-01  0.10198365916E+01  0.10195519512E+01 0.  0.
     999903    2    3    3    0    0 -0.10201557544E+00  0.28057090824E-01  0.78367190817E-01  0.13324515219E+00  0.20456686096E-01 0.  0.
         14    1    1    2    0    0  0.19157097702E-01 -0.80434026811E-02 -0.12198426540E-01  0.24093408416E-01  0.00000000000E+00 0. -1.
     999901    1    3    3    0    0  0.82858477741E-01 -0.20013688143E-01 -0.66168764277E-01  0.88659143940E+00  0.88000000000E+00 0. -1.
        -11    1    4    4    0    0 -0.59058664433E-01  0.20734951489E-01  0.57214138812E-01  0.84803200758E-01  0.51100000000E-03 0.  1.
         11    1    4    4    0    0 -0.42956911011E-01  0.73221393351E-02  0.21153052005E-01  0.48441951428E-01  0.51100000000E-03 0. -1.
</event>
<event>
 8    1  0.1208168E+005  0.1043930E+01  0.7957747E-01            NaN
         13   -1    0    0    0    0  0.00000000000E+00  0.00000000000E+00  0.74505805969E-08  0.10566000000E+00  0.10566000000E+00 0. -1.
     999900   -1    0    0    0    0 -0.00000000000E+00 -0.00000000000E+00 -0.74505805969E-08  0.93827000000E+00  0.93827000000E+00 0.  1.
     999902    2    1    2    0    0  0.11854050485E-01 -0.74588774457E-02  0.23449495736E-01  0.10166164097E+01  0.10162494242E+01 0.  0.
     999903    2    3    3    0    0 -0.52790882922E-01  0.46657788908E-01  0.10592073885E+00  0.12874869041E+00  0.19829164837E-01 0.  0.
         14    1    1    2    0    0 -0.11854050485E-01  0.74588774457E-02 -0.23449495736E-01  0.27313590316E-01  0.00000000000E+00 0.  1.
     999901    1    3    3    0    0  0.64644933406E-01 -0.54116666354E-01 -0.82471243112E-01  0.88786771928E+00  0.88000000000E+00 0. -1.
        -11    1    4    4    0    0 -0.83337477910E-02  0.15792091568E-01  0.37257349827E-01  0.41318431063E-01  0.51100000000E-03 0. -1.
         11    1    4    4    0    0 -0.44457135131E-01  0.30865697340E-01  0.68663389021E-01  0.87430259345E-01  0.51100000000E-03 0.  1.
</event>
<event>
 8    1  0.1208168E+005  0.1043930E+01  0.7957747E-01            NaN
         13   -1    0    0    0    0  0.00000000000E+00  0.00000000000E+00  0.74505805969E-08  0.10566000000E+00  0.10566000000E+00 0.  1.
     999900   -1    0    0    0    0 -0.00000000000E+00 -0.00000000000E+00 -0.74505805969E-08  0.93827000000E+00  0.93827000000E+00 0. -1.
     999902    2    1    2    0    0  0.89206240157E-02  0.91810788883E-02 -0.19153273201E-01  0.10208926908E+01  0.10206327295E+01 0.  0.
     999903    2    3    3    0    0  0.54330347704E-01 -0.43622650220E-01  0.10686800956E+00  0.12919114848E+00  0.20368089855E-01 0.  0.
         14    1    1    2    0    0 -0.89206240157E-02 -0.91810788883E-02  0.19153273201E-01  0.23037309233E-01  0.00000000000E+00 0.  1.
     999901    1    3    3    0    0 -0.45409723689E-01  0.52803729108E-01 -0.12602128276E+00  0.89170154229E+00  0.88000000000E+00 0. -1.
        -11    1    4    4    0    0  0.45823738639E-01 -0.29531875728E-01  0.69313381771E-01  0.88184764673E-01  0.51100000000E-03 0. -1.
         11    1    4    4    0    0  0.85066090651E-02 -0.14090774492E-01  0.37554627786E-01  0.41006383805E-01  0.51100000000E-03 0.  1.
</event>
<event>
 7    1  0.1208168E+005  0.1043930E+01  0.7957747E-01            NaN
         13   -1    0    0    0    0  0.00000000000E+00  0.00000000000E+00  0.74505805969E-08  0.10566000000E+00  0.10566000000E+00 0.  1.
     999900   -1    0    0    0    0 -0.00000000000E+00 -0.00000000000E+00 -0.74505805969E-08  0.93827000000E+00  0.93827000000E+00 0.  1.
     999903    2    1    2    0    0 -0.38185479336E-01 -0.83177331173E-01 -0.38447125904E-01  0.10127320735E+00  0.20037010331E-01 0.  0.
         14    1    1    2    0    0 -0.19446116251E-01 -0.36409054490E-01 -0.28540388136E-01  0.50182909850E-01  0.00000000000E+00 0. -1.
     999901    1    1    2    0    0  0.57631595587E-01  0.11958638566E+00  0.66987514039E-01  0.89247388280E+00  0.88000000000E+00 0. -1.
        -11    1    3    3    0    0 -0.13979703910E-01 -0.12109015095E-01 -0.95864841114E-02  0.20837998143E-01  0.51100000000E-03 0.  1.
         11    1    3    3    0    0 -0.24205775426E-01 -0.71068316078E-01 -0.28860641792E-01  0.80435209205E-01  0.51100000000E-03 0. -1.
</event>
<event>
 8    1  0.1208168E+005  0.1043930E+01  0.7957747E-01            NaN
         13   -1    0    0    0    0  0.00000000000E+00  0.00000000000E+00  0.74505805969E-08  0.10566000000E+00  0.10566000000E+00 0.  1.
     999900   -1    0    0    0    0 -0.00000000000E+00 -0.00000000000E+00 -0.74505805969E-08  0.93827000000E+00  0.93827000000E+00 0. -1.
     999902    2    1    2    0    0 -0.49437214906E-03 -0.15660017066E-01 -0.17260112265E-01  0.10206192297E+01  0.10203529879E+01 0.  0.
     999903    2    3    3    0    0 -0.44220582030E-01  0.26255703816E-01  0.11610791315E+00  0.12851164686E+00  0.19732562568E-01 0.  0.
         14    1    1    2    0    0  0.49437214906E-03  0.15660017066E-01  0.17260112265E-01  0.23310770338E-01  0.00000000000E+00 0.  1.
     999901    1    3    3    0    0  0.43726209881E-01 -0.41915720883E-01 -0.13336802541E+00  0.89210758280E+00  0.88000000000E+00 0. -1.
        -11    1    4    4    0    0 -0.52302430995E-02  0.98806752600E-02  0.38916409993E-01  0.40493595472E-01  0.51100000000E-03 0. -1.
         11    1    4    4    0    0 -0.38990338931E-01  0.16375028556E-01  0.77191503155E-01  0.88018051390E-01  0.51100000000E-03 0.  1.
</event>
<event>
 8    1  0.1208168E+005  0.1043930E+01  0.7957747E-01            NaN
         13   -1    0    0    0    0  0.00000000000E+00  0.00000000000E+00  0.74505805969E-08  0.10566000000E+00  0.10566000000E+00 0.  1.
     999900   -1    0    0    0    0 -0.00000000000E+00 -0.00000000000E+00 -0.74505805969E-08  0.93827000000E+00  0.93827000000E+00 0.  1.
     999902    2    1    2    0    0 -0.14337244281E-01 -0.37245080051E-03 -0.18797003705E-01  0.10202863404E+01  0.10200123498E+01 0.  0.
     999903    2    3    3    0    0  0.88450131834E-01  0.55466143754E-01  0.71145785568E-01  0.12800112885E+00  0.20558386556E-01 0.  0.
         14    1    1    2    0    0  0.14337244281E-01  0.37245080051E-03  0.18797003705E-01  0.23643659646E-01  0.00000000000E+00 0.  1.
     999901    1    3    3    0    0 -0.10278737611E+00 -0.55838594555E-01 -0.89942789273E-01  0.89228521151E+00  0.88000000000E+00 0.  1.
        -11    1    4    4    0    0  0.30983300768E-01  0.30855036771E-01  0.32764730814E-01  0.54642354698E-01  0.51100000000E-03 0. -1.
         11    1    4    4    0    0  0.57466831067E-01  0.24611106983E-01  0.38381054754E-01  0.73358774150E-01  0.51100000000E-03 0.  1.
</event>
<event>
 8    1  0.1208168E+005  0.1043930E+01  0.7957747E-01            NaN
         13   -1    0    0    0    0  0.00000000000E+00  0.00000000000E+00  0.74505805969E-08  0.10566000000E+00  0.10566000000E+00 0.  1.
     999900   -1    0    0    0    0 -0.00000000000E+00 -0.00000000000E+00 -0.74505805969E-08  0.93827000000E+00  0.93827000000E+00 0. -1.
     999902    2    1    2    0    0 -0.11256744589E-01  0.10765177549E-01 -0.17536640261E-01  0.10204749984E+01  0.10202054133E+01 0.  0.
     999903    2    3    3    0    0  0.44480163106E-01 -0.11368336962E+00 -0.39102676854E-01  0.12971176520E+00  0.19842612116E-01 0.  0.
         14    1    1    2    0    0  0.11256744589E-01 -0.10765177549E-01  0.17536640261E-01  0.23455001557E-01  0.00000000000E+00 0. -1.
     999901    1    3    3    0    0 -0.55736907695E-01  0.12444854717E+00  0.21566036593E-01  0.89076323325E+00  0.88000000000E+00 0.  1.
        -11    1    4    4    0    0  0.36425181830E-01 -0.70794931928E-01 -0.20118926198E-01  0.82120329824E-01  0.51100000000E-03 0.  1.
         11    1    4    4    0    0  0.80549812760E-02 -0.42888437689E-01 -0.18983750656E-01  0.47591435371E-01  0.51100000000E-03 0. -1.
</event>
<event>
 8    1  0.1208168E+005  0.1043930E+01  0.7957747E-01            NaN
         13   -1    0    0    0    0  0.00000000000E+00  0.00000000000E+00  0.74505805969E-08  0.10566000000E+00  0.10566000000E+00 0.  1.
     999900   -1    0    0    0    0 -0.00000000000E+00 -0.00000000000E+00 -0.74505805969E-08  0.93827000000E+00  0.93827000000E+00 0. -1.
     999902    2    1    2    0    0  0.10338604962E-01  0.19933042078E-01  0.78718451303E-02  0.10201354867E+01  0.10198579471E+01 0.  0.
     999903    2    3    3    0    0 -0.11879977195E+00  0.15904223750E-02  0.47528915188E-01  0.12963795422E+00  0.20762613916E-01 0.  0.
         14    1    1    2    0    0 -0.10338604962E-01 -0.19933042078E-01 -0.78718451303E-02  0.23794513334E-01  0.00000000000E+00 0. -1.
     999901    1    3    3    0    0  0.12913837691E+00  0.18342619703E-01 -0.39657070058E-01  0.89049753245E+00  0.88000000000E+00 0. -1.
        -11    1    4    4    0    0 -0.10033094126E+00  0.17982666759E-02  0.31497298170E-01  0.10517543653E+00  0.51100000000E-03 0. -1.
         11    1    4    4    0    0 -0.18468830692E-01 -0.20784430093E-03  0.16031617019E-01  0.24462517688E-01  0.51100000000E-03 0.  1.
</event>
<event>
 8    1  0.1208168E+005  0.1043930E+01  0.7957747E-01            NaN
         13   -1    0    0    0    0  0.00000000000E+00  0.00000000000E+00  0.74505805969E-08  0.10566000000E+00  0.10566000000E+00 0.  1.
     999900   -1    0    0    0    0 -0.00000000000E+00 -0.00000000000E+00 -0.74505805969E-08  0.93827000000E+00  0.93827000000E+00 0. -1.
     999902    2    1    2    0    0 -0.19583229767E-01 -0.65343563623E-02 -0.11832194230E-01  0.10201350106E+01  0.10198574598E+01 0.  0.
     999903    2    3    3    0    0 -0.52678132165E-01 -0.11933712416E+00 -0.79512616144E-02  0.13230912752E+00  0.20643348897E-01 0.  0.
         14    1    1    2    0    0  0.19583229767E-01  0.65343563623E-02  0.11832194230E-01  0.23794989419E-01  0.00000000000E+00 0.  1.
     999901    1    3    3    0    0  0.33094902398E-01  0.11280276780E+00 -0.38809326158E-02  0.88782588306E+00  0.88000000000E+00 0.  1.
        -11    1    4    4    0    0 -0.47821603209E-01 -0.11581496420E+00 -0.45269589530E-02  0.12538247942E+00  0.51100000000E-03 0. -1.
         11    1    4    4    0    0 -0.48565289560E-02 -0.35221599585E-02 -0.34243026614E-02  0.69266481064E-02  0.51100000000E-03 0.  1.
</event>
<event>
 8    1  0.1208168E+005  0.1043930E+01  0.7957747E-01            NaN
         13   -1    0    0    0    0  0.00000000000E+00  0.00000000000E+00  0.74505805969E-08  0.10566000000E+00  0.10566000000E+00 0.  1.
     999900   -1    0    0    0    0 -0.00000000000E+00 -0.00000000000E+00 -0.74505805969E-08  0.93827000000E+00  0.93827000000E+00 0.  1.
     999902    2    1    2    0    0 -0.54576250716E-02  0.15727205822E-01  0.16391484172E-01  0.10205673925E+01  0.10202999516E+01 0.  0.
     999903    2    3    3    0    0 -0.40228354651E-01 -0.74435248279E-01 -0.94399475915E-01  0.12837183740E+00  0.20227231132E-01 0.  0.
         14    1    1    2    0    0  0.54576250716E-02 -0.15727205822E-01 -0.16391484172E-01  0.23362607469E-01  0.00000000000E+00 0. -1.
     999901    1    3    3    0    0  0.34770729579E-01  0.90162454100E-01  0.11079096009E+00  0.89219555513E+00  0.88000000000E+00 0. -1.
        -11    1    4    4    0    0 -0.53794138635E-02 -0.24504379816E-01 -0.36889819422E-01  0.44615273412E-01  0.51100000000E-03 0.  1.
         11    1    4    4    0    0 -0.34848940787E-01 -0.49930868463E-01 -0.57509656493E-01  0.83756563984E-01  0.51100000000E-03 0. -1.
</event>
<event>
 8    1  0.1208168E+005  0.1043930E+01  0.7957747E-01            NaN
         13   -1    0    0    0    0  0.00000000000E+00  0.00000000000E+00  0.74505805969E-08  0.10566000000E+00  0.10566000000E+00 0.  1.
     999900   -1    0    0    0    0 -0.00000000000E+00 -0.00000000000E+00 -0.74505805969E-08  0.93827000000E+00  0.93827000000E+00 0. -1.
     999902    2    1    2    0    0 -0.70356956689E-02 -0.65725448290E-02  0.21093741693E-01  0.10207428204E+01  0.10204794266E+01 0.  0.
     999903    2    3    3    0    0 -0.35880379999E-01  0.12219408870E+00  0.22283995256E-01  0.13090335262E+00  0.20501568251E-01 0.  0.
         14    1    1    2    0    0  0.70356956689E-02  0.65725448290E-02 -0.21093741693E-01  0.23187179597E-01  0.00000000000E+00 0. -1.
     999901    1    3    3    0    0  0.28844684330E-01 -0.12876663353E+00 -0.11902535630E-02  0.88983946778E+00  0.88000000000E+00 0.  1.
        -11    1    4    4    0    0 -0.29793591972E-01  0.89797035412E-01  0.24894466285E-01  0.97832311963E-01  0.51100000000E-03 0.  1.
         11    1    4    4    0    0 -0.60867880268E-02  0.32397053285E-01 -0.26104710290E-02  0.33071040655E-01  0.51100000000E-03 0. -1.
</event>
<event>
 8    1  0.1208168E+005  0.1043930E+01  0.7957747E-01            NaN
         13   -1    0    0    0    0  0.00000000000E+00  0.00000000000E+00  0.74505805969E-08  0.10566000000E+00  0.10566000000E+00 0. -1.
     999900   -1    0    0    0    0 -0.00000000000E+00 -0.00000000000E+00 -0.74505805969E-08  0.93827000000E+00  0.93827000000E+00 0.  1.
     999902    2    1    2    0    0 -0.79766301526E-02  0.15722111277E-01  0.15731639689E-01  0.10203017140E+01  0.10200280838E+01 0.  0.
     999903    2    3    3    0    0 -0.61908127218E-01  0.11039675662E+00  0.37500932473E-01  0.13331479361E+00  0.18613279405E-01 0.  0.
         14    1    1    2    0    0  0.79766301526E-02 -0.15722111277E-01 -0.15731639689E-01  0.23628285992E-01  0.00000000000E+00 0.  1.
     999901    1    3    3    0    0  0.53931497066E-01 -0.94674645347E-01 -0.21769292783E-01  0.88698692040E+00  0.88000000000E+00 0. -1.
        -11    1    4    4    0    0 -0.24547195205E-01  0.62556391572E-01  0.18335898783E-01  0.69658690945E-01  0.51100000000E-03 0.  1.
         11    1    4    4    0    0 -0.37360932014E-01  0.47840365052E-01  0.19165033690E-01  0.63656102666E-01  0.51100000000E-03 0. -1.
</event>
<event>
 8    1  0.1208168E+005  0.1043930E+01  0.7957747E-01            NaN
         13   -1    0    0    0    0  0.00000000000E+00  0.00000000000E+00  0.74505805969E-08  0.10566000000E+00  0.10566000000E+00 0. -1.
     999900   -1    0    0    0    0 -0.00000000000E+00 -0.00000000000E+00 -0.74505805969E-08  0.93827000000E+00  0.93827000000E+00 0. -1.
     999902    2    1    2    0    0  0.14526268714E-01 -0.36444060609E-02  0.18334234024E-01  0.10202564216E+01  0.10199817290E+01 0.  0.
     999903    2    3    3    0    0  0.13452936129E-01  0.12101936618E+00 -0.39216419389E-01  0.12960818245E+00  0.20825103298E-01 0.  0.
         14    1    1    2    0    0 -0.14526268714E-01  0.36444060609E-02 -0.18334234024E-01  0.23673578427E-01  0.00000000000E+00 0.  1.
     999901    1    3    3    0    0  0.10733325856E-02 -0.12466377224E+00  0.57550653413E-01  0.89064823913E+00  0.88000000000E+00 0.  1.
        -11    1    4    4    0    0  0.28321209716E-02  0.59012557310E-01 -0.29197872115E-01  0.65903563535E-01  0.51100000000E-03 0.  1.
         11    1    4    4    0    0  0.10620815157E-01  0.62006808865E-01 -0.10018547274E-01  0.63704618912E-01  0.51100000000E-03 0. -1.
</event>
<event>
 8    1  0.1208168E+005  0.1043930E+01  0.7957747E-01            NaN
         13   -1    0    0    0    0  0.00000000000E+00  0.00000000000E+00  0.74505805969E-08  0.10566000000E+00  0.10566000000E+00 0.  1.
     999900   -1    0    0    0    0 -0.00000000000E+00 -0.00000000000E+00 -0.74505805969E-08  0.93827000000E+00  0.93827000000E+00 0. -1.
     999902    2    1    2    0    0  0.14834495289E-01 -0.10660015376E-01  0.15355937947E-01  0.10200657378E+01  0.10197865495E+01 0.  0.
     999903    2    3    3    0    0 -0.11791475396E+00 -0.38338284728E-01  0.32069408453E-01  0.12952220164E+00  0.19334954948E-01 0.  0.
         14    1    1    2    0    0 -0.14834495289E-01  0.10660015376E-01 -0.15355937947E-01  0.23864262162E-01  0.00000000000E+00 0. -1.
     999901    1    3    3    0    0  0.13274924924E+00  0.27678269352E-01 -0.16713470506E-01  0.89054353620E+00  0.88000000000E+00 0.  1.
        -11    1    4    4    0    0 -0.82553023019E-01 -0.20822332669E-01  0.28975767601E-01  0.89935684667E-01  0.51100000000E-03 0. -1.
         11    1    4    4    0    0 -0.35361730936E-01 -0.17515952058E-01  0.30936408511E-02  0.39586516973E-01  0.51100000000E-03 0.  1.
</event>
<event>
 8    1  0.1208168E+005  0.1043930E+01  0.7957747E-01            NaN
         13   -1    0    0    0    0  0.00000000000E+00  0.00000000000E+00  0.74505805969E-08  0.10566000000E+00  0.10566000000E+00 0. -1.
     999900   -1    0    0    0    0 -0.00000000000E+00 -0.00000000000E+00 -0.74505805969E-08  0.93827000000E+00  0.93827000000E+00 0.  1.
     999902    2    1    2    0    0  0.13799330022E-01 -0.19350390613E-01 -0.19480804472E-02  0.10200835298E+01  0.10198047625E+01 0.  0.
     999903    2    3    3    0    0  0.12937678959E+00 -0.18232806993E-01 -0.13690299382E-01  0.13244774979E+00  0.16858030494E-01 0.  0.
         14    1    1    2    0    0 -0.13799330022E-01  0.19350390613E-01  0.19480804472E-02  0.23846470249E-01  0.00000000000E+00 0. -1.
     999901    1    3    3    0    0 -0.11557745957E+00 -0.11175836202E-02  0.11742218934E-01  0.88763577996E+00  0.88000000000E+00 0.  1.
        -11    1    4    4    0    0  0.35994150390E-01  0.63288935577E-03 -0.87378282146E-02  0.37048484100E-01  0.51100000000E-03 0.  1.
         11    1    4    4    0    0  0.93382639203E-01 -0.18865696348E-01 -0.49524711670E-02  0.95399265693E-01  0.51100000000E-03 0. -1.
</event>
<event>
 8    1  0.1208168E+005  0.1043930E+01  0.7957747E-01            NaN
         13   -1    0    0    0    0  0.00000000000E+00  0.00000000000E+00  0.74505805969E-08  0.10566000000E+00  0.10566000000E+00 0. -1.
     999900   -1    0    0    0    0 -0.00000000000E+00 -0.00000000000E+00 -0.74505805969E-08  0.93827000000E+00  0.93827000000E+00 0.  1.
     999902    2    1    2    0    0  0.86281871755E-02  0.82140662827E-02 -0.18433447167E-01  0.10219821419E+01  0.10217464411E+01 0.  0.
     999903    2    3    3    0    0  0.38920384647E-01  0.12600929825E+00 -0.68064667465E-02  0.13354051720E+00  0.19839409231E-01 0.  0.
         14    1    1    2    0    0 -0.86281871755E-02 -0.82140662827E-02  0.18433447167E-01  0.21947858057E-01  0.00000000000E+00 0. -1.
     999901    1    3    3    0    0 -0.30292197472E-01 -0.11779523196E+00 -0.11626980421E-01  0.88844162474E+00  0.88000000000E+00 0.  1.
        -11    1    4    4    0    0  0.18159105299E-01  0.79452838894E-01  0.33001122452E-02  0.81569961232E-01  0.51100000000E-03 0. -1.
         11    1    4    4    0    0  0.20761279349E-01  0.46556459353E-01 -0.10106578992E-01  0.51970555968E-01  0.51100000000E-03 0.  1.
</event>
<event>
 8    1  0.1208168E+005  0.1043930E+01  0.7957747E-01            NaN
         13   -1    0    0    0    0  0.00000000000E+00  0.00000000000E+00  0.74505805969E-08  0.10566000000E+00  0.10566000000E+00 0.  1.
     999900   -1    0    0    0    0 -0.00000000000E+00 -0.00000000000E+00 -0.74505805969E-08  0.93827000000E+00  0.93827000000E+00 0. -1.
     999902    2    1    2    0    0 -0.59899374625E-02 -0.19854362057E-01  0.10467787437E-01  0.10206996402E+01  0.10204352531E+01 0.  0.
     999903    2    3    3    0    0 -0.17618462758E-01  0.12601715298E+00 -0.29127278166E-04  0.12855396445E+00  0.18313597534E-01 0.  0.
         14    1    1    2    0    0  0.59899374625E-02  0.19854362057E-01 -0.10467787437E-01  0.23230359819E-01  0.00000000000E+00 0.  1.
     999901    1    3    3    0    0  0.11628525296E-01 -0.14587151503E+00  0.10496914716E-01  0.89214567573E+00  0.88000000000E+00 0. -1.
        -11    1    4    4    0    0 -0.68389409321E-02  0.80984430176E-01  0.75731515499E-02  0.81626360873E-01  0.51100000000E-03 0.  1.
         11    1    4    4    0    0 -0.10779521826E-01  0.45032722799E-01 -0.76022788281E-02  0.46927603582E-01  0.51100000000E-03 0. -1.
</event>
<event>
 8    1  0.1208168E+005  0.1043930E+01  0.7957747E-01            NaN
         13   -1    0    0    0    0  0.00000000000E+00  0.00000000000E+00  0.74505805969E-08  0.10566000000E+00  0.10566000000E+00 0. -1.
     999900   -1    0    0    0    0 -0.00000000000E+00 -0.00000000000E+00 -0.74505805969E-08  0.93827000000E+00  0.93827000000E+00 0. -1.
     999902    2    1    2    0    0  0.29188627825E-02  0.21643427818E-01 -0.75603886270E-02  0.10208190242E+01  0.10205573785E+01 0.  0.
     999903    2    3    3    0    0  0.73630951993E-01 -0.56342176214E-01 -0.89905952552E-01  0.13072759859E+00  0.20264915897E-01 0.  0.
         14    1    1    2    0    0 -0.29188627825E-02 -0.21643427818E-01  0.75603886270E-02  0.23110975831E-01  0.00000000000E+00 0. -1.
     999901    1    3    3    0    0 -0.70712089210E-01  0.77985604032E-01  0.82345563925E-01  0.89009142558E+00  0.88000000000E+00 0.  1.
        -11    1    4    4    0    0  0.23013324843E-01 -0.26921518645E-01 -0.42974496413E-01  0.55690661241E-01  0.51100000000E-03 0.  1.
         11    1    4    4    0    0  0.50617627149E-01 -0.29420657569E-01 -0.46931456138E-01  0.75036937346E-01  0.51100000000E-03 0. -1.
</event>
<event>
 8    1  0.1208168E+005  0.1043930E+01  0.7957747E-01            NaN
         13   -1    0    0    0    0  0.00000000000E+00  0.00000000000E+00  0.74505805969E-08  0.10566000000E+00  0.10566000000E+00 0.  1.
     999900   -1    0    0    0    0 -0.00000000000E+00 -0.00000000000E+00 -0.74505805969E-08  0.93827000000E+00  0.93827000000E+00 0. -1.
     999902    2    1    2    0    0  0.20107253192E-01  0.73886589142E-02 -0.93267790246E-02  0.10205658668E+01  0.10202983906E+01 0.  0.
     999903    2    3    3    0    0 -0.75968637819E-03  0.37871169862E-01 -0.12502551140E+00  0.13222426063E+00  0.20422388911E-01 0.  0.
         14    1    1    2    0    0 -0.20107253192E-01 -0.73886589142E-02  0.93267790246E-02  0.23364133163E-01  0.00000000000E+00 0.  1.
     999901    1    3    3    0    0  0.20866939570E-01 -0.30482510947E-01  0.11569873238E+00  0.88834160620E+00  0.88000000000E+00 0.  1.
        -11    1    4    4    0    0 -0.80467070561E-02  0.30550756212E-01 -0.10548841937E+00  0.11011887187E+00  0.51100000000E-03 0. -1.
         11    1    4    4    0    0  0.72870206780E-02  0.73204136492E-02 -0.19537092027E-01  0.22105388760E-01  0.51100000000E-03 0.  1.
</event>
<event>
 8    1  0.1208168E+005  0.1043930E+01  0.7957747E-01            NaN
         13   -1    0    0    0    0  0.00000000000E+00  0.00000000000E+00  0.74505805969E-08  0.10566000000E+00  0.10566000000E+00 0. -1.
     999900   -1    0    0    0    0 -0.00000000000E+00 -0.00000000000E+00 -0.74505805969E-08  0.93827000000E+00  0.93827000000E+00 0.  1.
     999902    2    1    2    0    0  0.19742576634E-01 -0.11388678497E-01 -0.34736542971E-02  0.10208749007E+01  0.10206145331E+01 0.  0.
     999903    2    3    3    0    0 -0.35796101173E-01 -0.12445027231E+00 -0.15067284102E-01  0.13182941199E+00  0.19563733750E-01 0.  0.
         14    1    1    2    0    0 -0.19742576634E-01  0.11388678497E-01  0.34736542971E-02  0.23055099311E-01  0.00000000000E+00 0. -1.
     999901    1    3    3    0    0  0.55538677807E-01  0.11306159381E+00  0.11593629805E-01  0.88904548870E+00  0.88000000000E+00 0.  1.
        -11    1    4    4    0    0 -0.21491414080E-02 -0.37200156688E-01 -0.11368299746E-02  0.37283025223E-01  0.51100000000E-03 0.  1.
         11    1    4    4    0    0 -0.33646959765E-01 -0.87250115620E-01 -0.13930454128E-01  0.94546386765E-01  0.51100000000E-03 0. -1.
</event>
<event>
 8    1  0.1208168E+005  0.1043930E+01  0.7957747E-01            NaN
         13   -1    0    0    0    0  0.00000000000E+00  0.00000000000E+00  0.74505805969E-08  0.10566000000E+00  0.10566000000E+00 0. -1.
     999900   -1    0    0    0    0 -0.00000000000E+00 -0.00000000000E+00 -0.74505805969E-08  0.93827000000E+00  0.93827000000E+00 0. -1.
     999902    2    1    2    0    0  0.23636111323E-01  0.54854009847E-02  0.51015856464E-02  0.10191352111E+01  0.10188335472E+01 0.  0.
     999903    2    3    3    0    0  0.10478220754E+00 -0.48588099429E-01  0.60363317970E-01  0.13202614706E+00  0.21143768020E-01 0.  0.
         14    1    1    2    0    0 -0.23636111323E-01 -0.54854009847E-02 -0.51015856464E-02  0.24794788939E-01  0.00000000000E+00 0.  1.
     999901    1    3    3    0    0 -0.81146096222E-01  0.54073500414E-01 -0.55261732324E-01  0.88710906400E+00  0.88000000000E+00 0. -1.
        -11    1    4    4    0    0  0.50361306335E-01 -0.15055677007E-01  0.19039374897E-01  0.55907901977E-01  0.51100000000E-03 0.  1.
         11    1    4    4    0    0  0.54420901209E-01 -0.33532422422E-01  0.41323943073E-01  0.76118245080E-01  0.51100000000E-03 0. -1.
</event>
<event>
 8    1  0.1208168E+005  0.1043930E+01  0.7957747E-01            NaN
         13   -1    0    0    0    0  0.00000000000E+00  0.00000000000E+00  0.74505805969E-08  0.10566000000E+00  0.10566000000E+00 0.  1.
     999900   -1    0    0    0    0 -0.00000000000E+00 -0.00000000000E+00 -0.74505805969E-08  0.93827000000E+00  0.93827000000E+00 0.  1.
     999902    2    1    2    0    0  0.17003792847E-02  0.73429741511E-02 -0.22911268590E-01  0.10198107797E+01  0.10195255218E+01 0.  0.
     999903    2    3    3    0    0 -0.60927883274E-01  0.11293094795E-01 -0.11573457222E+00  0.13270646317E+00  0.19410646786E-01 0.  0.
         14    1    1    2    0    0 -0.17003792847E-02 -0.73429741511E-02  0.22911268590E-01  0.24119220292E-01  0.00000000000E+00 0.  1.
     999901    1    3    3    0    0  0.62628262559E-01 -0.39501206437E-02  0.92823303634E-01  0.88710431654E+00  0.88000000000E+00 0. -1.
        -11    1    4    4    0    0 -0.36763059277E-01  0.11572155122E-01 -0.87006295050E-01  0.95161934621E-01  0.51100000000E-03 0. -1.
         11    1    4    4    0    0 -0.24164823997E-01 -0.27906032753E-03 -0.28728277174E-01  0.37544528548E-01  0.51100000000E-03 0.  1.
</event>
<event>
 8    1  0.1208168E+005  0.1043930E+01  0.7957747E-01            NaN
         13   -1    0    0    0    0  0.00000000000E+00  0.00000000000E+00  0.74505805969E-08  0.10566000000E+00  0.10566000000E+00 0.  1.
     999900   -1    0    0    0    0 -0.00000000000E+00 -0.00000000000E+00 -0.74505805969E-08  0.93827000000E+00  0.93827000000E+00 0. -1.
     999902    2    1    2    0    0  0.54673512486E-02 -0.21164249036E-01 -0.74812218785E-02  0.10208261898E+01  0.10205647082E+01 0.  0.
     999903    2    3    3    0    0 -0.22777503216E-01  0.12448664858E+00  0.11712057740E-01  0.12820065922E+00  0.16807629213E-01 0.  0.
         14    1    1    2    0    0 -0.54673512486E-02  0.21164249036E-01  0.74812218785E-02  0.23103810243E-01  0.00000000000E+00 0.  1.
     999901    1    3    3    0    0  0.28244854465E-01 -0.14565089762E+00 -0.19193279618E-01  0.89262553054E+00  0.88000000000E+00 0. -1.
        -11    1    4    4    0    0 -0.17889844497E-01  0.52010501788E-01  0.61233193816E-02  0.55343427736E-01  0.51100000000E-03 0. -1.
         11    1    4    4    0    0 -0.48876587190E-02  0.72476146797E-01  0.55887383580E-02  0.72857231485E-01  0.51100000000E-03 0.  1.
</event>
<event>
 8    1  0.1208168E+005  0.1043930E+01  0.7957747E-01            NaN
         13   -1    0    0    0    0  0.00000000000E+00  0.00000000000E+00  0.74505805969E-08  0.10566000000E+00  0.10566000000E+00 0. -1.
     999900   -1    0    0    0    0 -0.00000000000E+00 -0.00000000000E+00 -0.74505805969E-08  0.93827000000E+00  0.93827000000E+00 0.  1.
     999902    2    1    2    0    0  0.80874575919E-02  0.22609016353E-01 -0.46983039891E-02  0.10194627024E+01  0.10191690502E+01 0.  0.
     999903    2    3    3    0    0 -0.83866017958E-01 -0.25426814299E-01  0.91071883963E-01  0.12820807460E+00  0.21521860789E-01 0.  0.
         14    1    1    2    0    0 -0.80874575919E-02 -0.22609016353E-01  0.46983039891E-02  0.24467297586E-01  0.00000000000E+00 0. -1.
     999901    1    3    3    0    0  0.91953475549E-01  0.48035830652E-01 -0.95770187952E-01  0.89125462781E+00  0.88000000000E+00 0.  1.
        -11    1    4    4    0    0 -0.45712411904E-01 -0.19794358090E-01  0.38272409754E-01  0.62821013074E-01  0.51100000000E-03 0.  1.
         11    1    4    4    0    0 -0.38153606054E-01 -0.56324562085E-02  0.52799474209E-01  0.65387061531E-01  0.51100000000E-03 0. -1.
</event>
<event>
 8    1  0.1208168E+005  0.1043930E+01  0.7957747E-01            NaN
         13   -1    0    0    0    0  0.00000000000E+00  0.00000000000E+00  0.74505805969E-08  0.10566000000E+00  0.10566000000E+00 0. -1.
     999900   -1    0    0    0    0 -0.00000000000E+00 -0.00000000000E+00 -0.74505805969E-08  0.93827000000E+00  0.93827000000E+00 0.  1.
     999902    2    1    2    0    0 -0.11608860039E-01  0.17397080353E-01 -0.10735173011E-01  0.10204211086E+01  0.10201502688E+01 0.  0.
     999903    2    3    3    0    0 -0.21937279210E-01  0.40278563163E-01 -0.12330915140E+00  0.13289469258E+00  0.18768207885E-01 0.  0.
         14    1    1    2    0    0  0.11608860039E-01 -0.17397080353E-01  0.10735173011E-01  0.23508891419E-01  0.00000000000E+00 0.  1.
     999901    1    3    3    0    0  0.10328419171E-01 -0.22881482810E-01  0.11257397838E+00  0.88752641601E+00  0.88000000000E+00 0. -1.
        -11    1    4    4    0    0 -0.20161576991E-01  0.30449156810E-01 -0.73297514983E-01  0.81892778442E-01  0.51100000000E-03 0. -1.
         11    1    4    4    0    0 -0.17757022181E-02  0.98294063521E-02 -0.50011636412E-01  0.51001914133E-01  0.51100000000E-03 0.  1.
</event>
<event>
 8    1  0.1208168E+005  0.1043930E+01  0.7957747E-01            NaN
         13   -1    0    0    0    0  0.00000000000E+00  0.00000000000E+00  0.74505805969E-08  0.10566000000E+00  0.10566000000E+00 0.  1.
     999900   -1    0    0    0    0 -0.00000000000E+00 -0.00000000000E+00 -0.74505805969E-08  0.93827000000E+00  0.93827000000E+00 0.  1.
     999902    2    1    2    0    0  0.10123703175E-01  0.13590370312E-01 -0.12739119872E-01  0.10227292286E+01  0.10225094632E+01 0.  0.
     999903    2    3    3    0    0 -0.97289914477E-01  0.70895979957E-01  0.49711910773E-01  0.13215539712E+00  0.22409986227E-01 0.  0.
         14    1    1    2    0    0 -0.10123703175E-01 -0.13590370312E-01  0.12739119872E-01  0.21200771361E-01  0.00000000000E+00 0.  1.
     999901    1    3    3    0    0  0.10741361765E+00 -0.57305609645E-01 -0.62451030645E-01  0.89057383152E+00  0.88000000000E+00 0. -1.
        -11    1    4    4    0    0 -0.57088616685E-01  0.34723654872E-01  0.16999718307E-01  0.68949937681E-01  0.51100000000E-03 0.  1.
         11    1    4    4    0    0 -0.40201297793E-01  0.36172325085E-01  0.32712192466E-01  0.63205459441E-01  0.51100000000E-03 0. -1.
</event>
<event>
 8    1  0.1208168E+005  0.1043930E+01  0.7957747E-01            NaN
         13   -1    0    0    0    0  0.00000000000E+00  0.00000000000E+00  0.74505805969E-08  0.10566000000E+00  0.10566000000E+00 0. -1.
     999900   -1    0    0    0    0 -0.00000000000E+00 -0.00000000000E+00 -0.74505805969E-08  0.93827000000E+00  0.93827000000E+00 0. -1.
     999902    2    1    2    0    0  0.14941527478E-01  0.10326074415E-01  0.11867674226E-01  0.10222339463E+01  0.10220036801E+01 0.  0.
     999903    2    3    3    0    0 -0.12111012670E+00  0.28343170371E-01  0.37051289658E-01  0.13124074604E+00  0.19502237307E-01 0.  0.
         14    1    1    2    0    0 -0.14941527478E-01 -0.10326074415E-01 -0.11867674226E-01  0.21696053736E-01  0.00000000000E+00 0.  1.
     999901    1    3    3    0    0  0.13605165418E+00 -0.18017095956E-01 -0.25183615432E-01  0.89099320022E+00  0.88000000000E+00 0. -1.
        -11    1    4    4    0    0 -0.62570707625E-01  0.84033803857E-02  0.26645843432E-01  0.68527165036E-01  0.51100000000E-03 0. -1.
         11    1    4    4    0    0 -0.58539419078E-01  0.19939789985E-01  0.10405446225E-01  0.62713581008E-01  0.51100000000E-03 0.  1.
</event>
<event>
 8    1  0.1208168E+005  0.1043930E+01  0.7957747E-01            NaN
         13   -1    0    0    0    0  0.00000000000E+00  0.00000000000E+00  0.74505805969E-08  0.10566000000E+00  0.10566000000E+00 0. -1.
     999900   -1    0    0    0    0 -0.00000000000E+00 -0.00000000000E+00 -0.74505805969E-08  0.93827000000E+00  0.93827000000E+00 0.  1.
     999902    2    1    2    0    0 -0.12165815759E-01  0.16392506932E-01  0.77998476187E-02  0.10220768771E+01  0.10218432286E+01 0.  0.
     999903    2    3    3    0    0 -0.10104615701E+00  0.86400450038E-01 -0.82468566608E-02  0.13468839180E+00  0.19939624612E-01 0.  0.
         14    1    1    2    0    0  0.12165815759E-01 -0.16392506932E-01 -0.77998476187E-02  0.21853122877E-01  0.00000000000E+00 0. -1.
     999901    1    3    3    0    0  0.88880341247E-01 -0.70007943106E-01  0.16046704280E-01  0.88738848532E+00  0.88000000000E+00 0. -1.
        -11    1    4    4    0    0 -0.25115300918E-01  0.11005866014E-01 -0.21438061407E-02  0.27509352096E-01  0.51100000000E-03 0.  1.
         11    1    4    4    0    0 -0.75930856087E-01  0.75394584024E-01 -0.61030505202E-02  0.10717903971E+00  0.51100000000E-03 0. -1.
</event>
<event>
 8    1  0.1208168E+005  0.1043930E+01  0.7957747E-01            NaN
         13   -1    0    0    0    0  0.00000000000E+00  0.00000000000E+00  0.74505805969E-08  0.10566000000E+00  0.10566000000E+00 0. -1.
     999900   -1    0    0    0    0 -0.00000000000E+00 -0.00000000000E+00 -0.74505805969E-08  0.93827000000E+00  0.93827000000E+00 0.  1.
     999902    2    1    2    0    0  0.74632719170E-02  0.22770246188E-01 -0.59737500800E-02  0.10192344492E+01  0.10189352247E+01 0.  0.
     999903    2    3    3    0    0  0.72808063692E-01  0.10707415082E+00  0.19689157166E-01  0.13242236372E+00  0.19548186369E-01 0.  0.
         14    1    1    2    0    0 -0.74632719170E-02 -0.22770246188E-01  0.59737500800E-02  0.24695550798E-01  0.00000000000E+00 0.  1.
     999901    1    3    3    0    0 -0.65344791775E-01 -0.84303904634E-01 -0.25662907246E-01  0.88681208548E+00  0.88000000000E+00 0.  1.
        -11    1    4    4    0    0  0.23747300585E-01  0.50611892931E-01  0.44550008142E-02  0.56085703565E-01  0.51100000000E-03 0.  1.
         11    1    4    4    0    0  0.49060763107E-01  0.56462257892E-01  0.15234156352E-01  0.76336660155E-01  0.51100000000E-03 0. -1.
</event>
<event>
 8    1  0.1208168E+005  0.1043930E+01  0.7957747E-01            NaN
         13   -1    0    0    0    0  0.00000000000E+00  0.00000000000E+00  0.74505805969E-08  0.10566000000E+00  0.10566000000E+00 0.  1.
     999900   -1    0    0    0    0 -0.00000000000E+00 -0.00000000000E+00 -0.74505805969E-08  0.93827000000E+00  0.93827000000E+00 0. -1.
     999902    2    1    2    0    0  0.23545971976E-01 -0.26644192067E-03  0.17822557608E-02  0.10203151694E+01  0.10200418544E+01 0.  0.
     999903    2    3    3    0    0 -0.61745414465E-02  0.12063713975E-01 -0.12789299454E+00  0.13023033515E+00  0.20485701935E-01 0.  0.
         14    1    1    2    0    0 -0.23545971976E-01  0.26644192067E-03 -0.17822557608E-02  0.23614830577E-01  0.00000000000E+00 0. -1.
     999901    1    3    3    0    0  0.29720513422E-01 -0.12330155895E-01  0.12967525030E+00  0.89008483427E+00  0.88000000000E+00 0.  1.
        -11    1    4    4    0    0 -0.69405270429E-02  0.11646929143E-01 -0.38309199968E-01  0.40640839033E-01  0.51100000000E-03 0. -1.
         11    1    4    4    0    0  0.76598559635E-03  0.41678483201E-03 -0.89583794572E-01  0.89589496117E-01  0.51100000000E-03 0.  1.
</event>
<event>
 8    1  0.1208168E+005  0.1043930E+01  0.7957747E-01            NaN
         13   -1    0    0    0    0  0.00000000000E+00  0.00000000000E+00  0.74505805969E-08  0.10566000000E+00  0.10566000000E+00 0. -1.
     999900   -1    0    0    0    0 -0.00000000000E+00 -0.00000000000E+00 -0.74505805969E-08  0.93827000000E+00  0.93827000000E+00 0. -1.
     999902    2    1    2    0    0 -0.33230395046E-03 -0.64276373364E-02  0.23313430249E-01  0.10197444469E+01  0.10194575989E+01 0.  0.
     999903    2    3    3    0    0  0.66446208216E-01 -0.34034721437E-01  0.10778979083E+00  0.13275077373E+00  0.20752543723E-01 0.  0.
         14    1    1    2    0    0  0.33230395046E-03  0.64276373364E-02 -0.23313430249E-01  0.24185553077E-01  0.00000000000E+00 0.  1.
     999901    1    3    3    0    0 -0.66778512167E-01  0.27607084101E-01 -0.84476360578E-01  0.88699367319E+00  0.88000000000E+00 0. -1.
        -11    1    4    4    0    0  0.51812288134E-01 -0.19100951062E-01  0.88395994915E-01  0.10422798363E+00  0.51100000000E-03 0. -1.
         11    1    4    4    0    0  0.14633920082E-01 -0.14933770375E-01  0.19393795913E-01  0.28522790107E-01  0.51100000000E-03 0.  1.
</event>
<event>
 8    1  0.1208168E+005  0.1043930E+01  0.7957747E-01            NaN
         13   -1    0    0    0    0  0.00000000000E+00  0.00000000000E+00  0.74505805969E-08  0.10566000000E+00  0.10566000000E+00 0.  1.
     999900   -1    0    0    0    0 -0.00000000000E+00 -0.00000000000E+00 -0.74505805969E-08  0.93827000000E+00  0.93827000000E+00 0.  1.
     999902    2    1    2    0    0 -0.15870339973E-01  0.15334879671E-01 -0.58997198535E-02  0.10210863374E+01  0.10208307771E+01 0.  0.
     999903    2    3    3    0    0  0.41306263966E-01  0.30037838608E-02  0.12156709143E+00  0.12998083978E+00  0.20030747156E-01 0.  0.
         14    1    1    2    0    0  0.15870339973E-01 -0.15334879671E-01  0.58997198535E-02  0.22843662573E-01  0.00000000000E+00 0.  1.
     999901    1    3    3    0    0 -0.57176603938E-01  0.12331095811E-01 -0.12746681128E+00  0.89110549765E+00  0.88000000000E+00 0.  1.
        -11    1    4    4    0    0  0.22014132380E-01  0.76567290461E-04  0.91655952144E-01  0.94264004643E-01  0.51100000000E-03 0.  1.
         11    1    4    4    0    0  0.19292131586E-01  0.29272165703E-02  0.29911139282E-01  0.35716835136E-01  0.51100000000E-03 0. -1.
</event>
<event>
 8    1  0.1208168E+005  0.1043930E+01  0.7957747E-01            NaN
         13   -1    0    0    0    0  0.00000000000E+00  0.00000000000E+00  0.74505805969E-08  0.10566000000E+00  0.10566000000E+00 0.  1.
     999900   -1    0    0    0    0 -0.00000000000E+00 -0.00000000000E+00 -0.74505805969E-08  0.93827000000E+00  0.93827000000E+00 0. -1.
     999902    2    1    2    0    0  0.22375044418E-01  0.79877598978E-02  0.10108866308E-02  0.10201504118E+01  0.10198732245E+01 0.  0.
     999903    2    3    3    0    0 -0.10367404750E-01 -0.10924119464E+00 -0.64030878124E-01  0.12939504312E+00  0.24535731927E-01 0.  0.
         14    1    1    2    0    0 -0.22375044418E-01 -0.79877598978E-02 -0.10108866308E-02  0.23779588152E-01  0.00000000000E+00 0.  1.
     999901    1    3    3    0    0  0.32742449169E-01  0.11722895454E+00  0.65041764755E-01  0.89075536873E+00  0.88000000000E+00 0.  1.
        -11    1    4    4    0    0 -0.71631207864E-03 -0.88393904375E-01 -0.57690445449E-01  0.10555777589E+00  0.51100000000E-03 0. -1.
         11    1    4    4    0    0 -0.96510926718E-02 -0.20847290270E-01 -0.63404326749E-02  0.23837267227E-01  0.51100000000E-03 0.  1.
</event>
<event>
 8    1  0.1208168E+005  0.1043930E+01  0.7957747E-01            NaN
         13   -1    0    0    0    0  0.00000000000E+00  0.00000000000E+00  0.74505805969E-08  0.10566000000E+00  0.10566000000E+00 0.  1.
     999900   -1    0    0    0    0 -0.00000000000E+00 -0.00000000000E+00 -0.74505805969E-08  0.93827000000E+00  0.93827000000E+00 0. -1.
     999902    2    1    2    0    0 -0.15140070431E-01  0.11748827951E-01  0.13080818991E-01  0.10207273166E+01  0.10204635664E+01 0.  0.
     999903    2    3    3    0    0  0.54400452694E-01  0.74566846581E-01  0.92500637153E-01  0.13219510260E+00  0.19988832265E-01 0.  0.
         14    1    1    2    0    0  0.15140070431E-01 -0.11748827951E-01 -0.13080818991E-01  0.23202683387E-01  0.00000000000E+00 0.  1.
     999901    1    3    3    0    0 -0.69540523126E-01 -0.62818018630E-01 -0.79419818162E-01  0.88853221401E+00  0.88000000000E+00 0.  1.
        -11    1    4    4    0    0  0.34301812273E-02  0.10847579829E-01  0.20123416187E-01  0.23122481083E-01  0.51100000000E-03 0. -1.
         11    1    4    4    0    0  0.50970271467E-01  0.63719266753E-01  0.72377220966E-01  0.10907262152E+00  0.51100000000E-03 0.  1.
</event>
<event>
 8    1  0.1208168E+005  0.1043930E+01  0.7957747E-01            NaN
         13   -1    0    0    0    0  0.00000000000E+00  0.00000000000E+00  0.74505805969E-08  0.10566000000E+00  0.10566000000E+00 0. -1.
     999900   -1    0    0    0    0 -0.00000000000E+00 -0.00000000000E+00 -0.74505805969E-08  0.93827000000E+00  0.93827000000E+00 0. -1.
     999902    2    1    2    0    0  0.44023115386E-02 -0.14893560412E-01 -0.18781721907E-01  0.10195588784E+01  0.10192675581E+01 0.  0.
     999903    2    3    3    0    0  0.97764216240E-01 -0.58122972160E-01  0.59867099117E-01  0.13008101792E+00  0.20021982853E-01 0.  0.
         14    1    1    2    0    0 -0.44023115386E-02  0.14893560412E-01  0.18781721907E-01  0.24371121566E-01  0.00000000000E+00 0. -1.
     999901    1    3    3    0    0 -0.93361904702E-01  0.43229411749E-01 -0.78648821024E-01  0.88947786051E+00  0.88000000000E+00 0. -1.
        -11    1    4    4    0    0  0.16699428066E-01 -0.11268051940E-01  0.25879862681E-02  0.20317447826E-01  0.51100000000E-03 0. -1.
         11    1    4    4    0    0  0.81064788175E-01 -0.46854920220E-01  0.57279112849E-01  0.10976357010E+00  0.51100000000E-03 0.  1.
</event>
<event>
 8    1  0.1208168E+005  0.1043930E+01  0.7957747E-01            NaN
         13   -1    0    0    0    0  0.00000000000E+00  0.00000000000E+00  0.74505805969E-08  0.10566000000E+00  0.10566000000E+00 0. -1.
     999900   -1    0    0    0    0 -0.00000000000E+00 -0.00000000000E+00 -0.74505805969E-08  0.93827000000E+00  0.93827000000E+00 0. -1.
     999902    2    1    2    0    0  0.31701882192E-02 -0.19597038529E-01  0.16320046414E-01  0.10182310131E+01  0.10179066549E+01 0.  0.
     999903    2    3    3    0    0  0.24573264443E-02  0.10964467385E+00  0.62120211888E-01  0.12761236096E+00  0.19949962111E-01 0.  0.
         14    1    1    2    0    0 -0.31701882192E-02  0.19597038529E-01 -0.16320046414E-01  0.25698986895E-01  0.00000000000E+00 0. -1.
     999901    1    3    3    0    0  0.71286177494E-03 -0.12924171238E+00 -0.45800165474E-01  0.89061865214E+00  0.88000000000E+00 0. -1.
        -11    1    4    4    0    0 -0.85736789930E-03  0.94588846168E-01  0.45603191179E-01  0.10501284239E+00  0.51100000000E-03 0.  1.
         11    1    4    4    0    0  0.33146943436E-02  0.15055827681E-01  0.16517020708E-01  0.22599518575E-01  0.51100000000E-03 0. -1.
</event>
<event>
 8    1  0.1208168E+005  0.1043930E+01  0.7957747E-01            NaN
         13   -1    0    0    0    0  0.00000000000E+00  0.00000000000E+00  0.74505805969E-08  0.10566000000E+00  0.10566000000E+00 0. -1.
     999900   -1    0    0    0    0 -0.00000000000E+00 -0.00000000000E+00 -0.74505805969E-08  0.93827000000E+00  0.93827000000E+00 0.  1.
     999902    2    1    2    0    0  0.11396391553E-02  0.18588774625E-01 -0.15166572762E-01  0.10199119599E+01  0.10196291187E+01 0.  0.
     999903    2    3    3    0    0 -0.27786998137E-01  0.74031357017E-01  0.10135013413E+00  0.13003175829E+00  0.19586969866E-01 0.  0.
         14    1    1    2    0    0 -0.11396391553E-02 -0.18588774625E-01  0.15166572762E-01  0.24018040070E-01  0.00000000000E+00 0.  1.
     999901    1    3    3    0    0  0.28926637293E-01 -0.55442582392E-01 -0.11651670689E+00  0.88988020164E+00  0.88000000000E+00 0.  1.
        -11    1    4    4    0    0 -0.94672736707E-02  0.71565097844E-02  0.11468389341E-01  0.16511510474E-01  0.51100000000E-03 0.  1.
         11    1    4    4    0    0 -0.18319724467E-01  0.66874847232E-01  0.89881744788E-01  0.11352024782E+00  0.51100000000E-03 0. -1.
</event>
<event>
 8    1  0.1208168E+005  0.1043930E+01  0.7957747E-01            NaN
         13   -1    0    0    0    0  0.00000000000E+00  0.00000000000E+00  0.74505805969E-08  0.10566000000E+00  0.10566000000E+00 0.  1.
     999900   -1    0    0    0    0 -0.00000000000E+00 -0.00000000000E+00 -0.74505805969E-08  0.93827000000E+00  0.93827000000E+00 0.  1.
     999902    2    1    2    0    0  0.19856997625E-01  0.10382137617E-01 -0.19228551951E-02  0.10214403022E+01  0.10211926872E+01 0.  0.
     999903    2    3    3    0    0  0.93768241775E-01 -0.71495541441E-01 -0.57592130905E-01  0.13280882929E+00  0.20426355134E-01 0.  0.
         14    1    1    2    0    0 -0.19856997625E-01 -0.10382137617E-01  0.19228551951E-02  0.22489697826E-01  0.00000000000E+00 0. -1.
     999901    1    3    3    0    0 -0.73911244150E-01  0.81877679059E-01  0.55669275709E-01  0.88863147288E+00  0.88000000000E+00 0. -1.
        -11    1    4    4    0    0  0.35150451652E-01 -0.29393492866E-01 -0.33346212628E-01  0.56672415616E-01  0.51100000000E-03 0.  1.
         11    1    4    4    0    0  0.58617790123E-01 -0.42102048576E-01 -0.24245918276E-01  0.76136413675E-01  0.51100000000E-03 0. -1.
</event>
<event>
 8    1  0.1208168E+005  0.1043930E+01  0.7957747E-01            NaN
         13   -1    0    0    0    0  0.00000000000E+00  0.00000000000E+00  0.74505805969E-08  0.10566000000E+00  0.10566000000E+00 0.  1.
     999900   -1    0    0    0    0 -0.00000000000E+00 -0.00000000000E+00 -0.74505805969E-08  0.93827000000E+00  0.93827000000E+00 0. -1.
     999902    2    1    2    0    0 -0.38949898584E-02  0.16306283710E-01  0.16101067820E-01  0.10206854260E+01  0.10204207116E+01 0.  0.
     999903    2    3    3    0    0 -0.38781125862E-01 -0.10590828842E+00  0.62142047561E-01  0.13036345283E+00  0.20308975385E-01 0.  0.
         14    1    1    2    0    0  0.38949898584E-02 -0.16306283710E-01 -0.16101067820E-01  0.23244573977E-01  0.00000000000E+00 0. -1.
     999901    1    3    3    0    0  0.34886136003E-01  0.12221457213E+00 -0.46040979741E-01  0.89032197319E+00  0.88000000000E+00 0.  1.
        -11    1    4    4    0    0 -0.11549479680E-01 -0.21386679643E-01  0.22462495116E-01  0.33099929832E-01  0.51100000000E-03 0.  1.
         11    1    4    4    0    0 -0.27231646182E-01 -0.84521608776E-01  0.39679552444E-01  0.97263523003E-01  0.51100000000E-03 0. -1.
</event>
<event>
 8    1  0.1208168E+005  0.1043930E+01  0.7957747E-01            NaN
         13   -1    0    0    0    0  0.00000000000E+00  0.00000000000E+00  0.74505805969E-08  0.10566000000E+00  0.10566000000E+00 0.  1.
     999900   -1    0    0    0    0 -0.00000000000E+00 -0.00000000000E+00 -0.74505805969E-08  0.93827000000E+00  0.93827000000E+00 0.  1.
     999902    2    1    2    0    0 -0.94982388650E-02  0.12971923317E-01 -0.18087664174E-01  0.10197297741E+01  0.10194425738E+01 0.  0.
     999903    2    3    3    0    0 -0.29062485536E-01  0.73880079481E-01 -0.10504252130E+00  0.13313307304E+00  0.19687296564E-01 0.  0.
         14    1    1    2    0    0  0.94982388650E-02 -0.12971923317E-01  0.18087664174E-01  0.24200225854E-01  0.00000000000E+00 0.  1.
     999901    1    3    3    0    0  0.19564246671E-01 -0.60908156164E-01  0.86954857128E-01  0.88659670111E+00  0.88000000000E+00 0. -1.
        -11    1    4    4    0    0  0.19204012446E-02  0.16049085293E-01 -0.21766769301E-01  0.27116682070E-01  0.51100000000E-03 0. -1.
         11    1    4    4    0    0 -0.30982886781E-01  0.57830994188E-01 -0.83275752001E-01  0.10601639097E+00  0.51100000000E-03 0.  1.
</event>
<event>
 8    1  0.1208168E+005  0.1043930E+01  0.7957747E-01            NaN
         13   -1    0    0    0    0  0.00000000000E+00  0.00000000000E+00  0.74505805969E-08  0.10566000000E+00  0.10566000000E+00 0.  1.
     999900   -1    0    0    0    0 -0.00000000000E+00 -0.00000000000E+00 -0.74505805969E-08  0.93827000000E+00  0.93827000000E+00 0.  1.
     999902    2    1    2    0    0  0.83271253301E-02  0.15373629150E-01 -0.15171684119E-01  0.10207811450E+01  0.10205186311E+01 0.  0.
     999903    2    3    3    0    0  0.10664845596E+00  0.32392867757E-01 -0.70560684645E-01  0.13341161659E+00  0.19916279348E-01 0.  0.
         14    1    1    2    0    0 -0.83271253301E-02 -0.15373629150E-01  0.15171684119E-01  0.23148855015E-01  0.00000000000E+00 0.  1.
     999901    1    3    3    0    0 -0.98321330635E-01 -0.17019238607E-01  0.55389000526E-01  0.88736952839E+00  0.88000000000E+00 0. -1.
        -11    1    4    4    0    0  0.70130881183E-01  0.23723159136E-01 -0.57235797565E-01  0.93580587831E-01  0.51100000000E-03 0.  1.
         11    1    4    4    0    0  0.36517574782E-01  0.86697086213E-02 -0.13324887080E-01  0.39831028762E-01  0.51100000000E-03 0. -1.
</event>
<event>
 8    1  0.1208168E+005  0.1043930E+01  0.7957747E-01            NaN
         13   -1    0    0    0    0  0.00000000000E+00  0.00000000000E+00  0.74505805969E-08  0.10566000000E+00  0.10566000000E+00 0. -1.
     999900   -1    0    0    0    0 -0.00000000000E+00 -0.00000000000E+00 -0.74505805969E-08  0.93827000000E+00  0.93827000000E+00 0.  1.
     999902    2    1    2    0    0  0.17129020900E-01  0.14979090346E-01 -0.13307130560E-01  0.10175698743E+01  0.10172283877E+01 0.  0.
     999903    2    3    3    0    0 -0.94935576668E-01  0.69579985822E-01  0.44918872217E-01  0.12687913153E+00  0.15048946521E-01 0.  0.
         14    1    1    2    0    0 -0.17129020900E-01 -0.14979090346E-01  0.13307130560E-01  0.26360125727E-01  0.00000000000E+00 0. -1.
     999901    1    3    3    0    0  0.11206459757E+00 -0.54600895476E-01 -0.58226002777E-01  0.89069074275E+00  0.88000000000E+00 0. -1.
        -11    1    4    4    0    0 -0.46996832104E-01  0.26109449462E-01  0.23882548261E-01  0.58830628175E-01  0.51100000000E-03 0. -1.
         11    1    4    4    0    0 -0.47938744563E-01  0.43470536360E-01  0.21036323957E-01  0.68048503352E-01  0.51100000000E-03 0.  1.
</event>
<event>
 8    1  0.1208168E+005  0.1043930E+01  0.7957747E-01            NaN
         13   -1    0    0    0    0  0.00000000000E+00  0.00000000000E+00  0.74505805969E-08  0.10566000000E+00  0.10566000000E+00 0.  1.
     999900   -1    0    0    0    0 -0.00000000000E+00 -0.00000000000E+00 -0.74505805969E-08  0.93827000000E+00  0.93827000000E+00 0.  1.
     999902    2    1    2    0    0 -0.11043600773E-01 -0.20158853327E-01  0.34339282150E-03  0.10209417768E+01  0.10206829348E+01 0.  0.
     999903    2    3    3    0    0  0.12683804708E+00 -0.15602184373E-01 -0.14328402590E-01  0.13007288995E+00  0.19553394478E-01 0.  0.
         14    1    1    2    0    0  0.11043600773E-01  0.20158853327E-01 -0.34339282150E-03  0.22988223161E-01  0.00000000000E+00 0.  1.
     999901    1    3    3    0    0 -0.13788164785E+00 -0.45566689540E-02  0.14671795412E-01  0.89086888689E+00  0.88000000000E+00 0. -1.
        -11    1    4    4    0    0  0.55135926297E-01 -0.16558558319E-01 -0.63753455028E-02  0.57922900251E-01  0.51100000000E-03 0.  1.
         11    1    4    4    0    0  0.71702120780E-01  0.95637394630E-03 -0.79530570875E-02  0.72149989699E-01  0.51100000000E-03 0. -1.
</event>
<event>
 8    1  0.1208168E+005  0.1043930E+01  0.7957747E-01            NaN
         13   -1    0    0    0    0  0.00000000000E+00  0.00000000000E+00  0.74505805969E-08  0.10566000000E+00  0.10566000000E+00 0.  1.
     999900   -1    0    0    0    0 -0.00000000000E+00 -0.00000000000E+00 -0.74505805969E-08  0.93827000000E+00  0.93827000000E+00 0.  1.
     999902    2    1    2    0    0  0.99825474377E-02 -0.15727032923E-01 -0.15861024210E-01  0.10194644547E+01  0.10191708451E+01 0.  0.
     999903    2    3    3    0    0 -0.66287928455E-01 -0.98118257648E-01 -0.53723402515E-01  0.13152354501E+00  0.19772631892E-01 0.  0.
         14    1    1    2    0    0 -0.99825474377E-02  0.15727032923E-01  0.15861024210E-01  0.24465545301E-01  0.00000000000E+00 0.  1.
     999901    1    3    3    0    0  0.76270475892E-01  0.82391224726E-01  0.37862378304E-01  0.88794090969E+00  0.88000000000E+00 0. -1.
        -11    1    4    4    0    0 -0.41501197704E-01 -0.44172260188E-01 -0.29368071642E-01  0.67351931925E-01  0.51100000000E-03 0. -1.
         11    1    4    4    0    0 -0.24786730750E-01 -0.53945997460E-01 -0.24355330873E-01  0.64171613087E-01  0.51100000000E-03 0.  1.
</event>
<event>
 8    1  0.1208168E+005  0.1043930E+01  0.7957747E-01            NaN
         13   -1    0    0    0    0  0.00000000000E+00  0.00000000000E+00  0.74505805969E-08  0.10566000000E+00  0.10566000000E+00 0. -1.
     999900   -1    0    0    0    0 -0.00000000000E+00 -0.00000000000E+00 -0.74505805969E-08  0.93827000000E+00  0.93827000000E+00 0. -1.
     999902    2    1    2    0    0  0.13520554266E-01 -0.95134133907E-02  0.17523662477E-01  0.10198387325E+01  0.10195541433E+01 0.  0.
     999903    2    3    3    0    0 -0.38181115249E-01 -0.70191626186E-01 -0.98709943095E-01  0.12862318104E+00  0.20386463336E-01 0.  0.
         14    1    1    2    0    0 -0.13520554266E-01  0.95134133907E-02 -0.17523662477E-01  0.24091267476E-01  0.00000000000E+00 0.  1.
     999901    1    3    3    0    0  0.51701669514E-01  0.60678212796E-01  0.11623360557E+00  0.89121555148E+00  0.88000000000E+00 0. -1.
        -11    1    4    4    0    0 -0.15871908282E-01 -0.46652225103E-01 -0.67801774610E-01  0.83819385233E-01  0.51100000000E-03 0. -1.
         11    1    4    4    0    0 -0.22309206967E-01 -0.23539401084E-01 -0.30908168485E-01  0.44803795810E-01  0.51100000000E-03 0.  1.
</event>
<event>
 8    1  0.1208168E+005  0.1043930E+01  0.7957747E-01            NaN
         13   -1    0    0    0    0  0.00000000000E+00  0.00000000000E+00  0.74505805969E-08  0.10566000000E+00  0.10566000000E+00 0.  1.
     999900   -1    0    0    0    0 -0.00000000000E+00 -0.00000000000E+00 -0.74505805969E-08  0.93827000000E+00  0.93827000000E+00 0. -1.
     999902    2    1    2    0    0 -0.18404636813E-01 -0.15792663776E-01 -0.27672699171E-02  0.10195210535E+01  0.10192288172E+01 0.  0.
     999903    2    3    3    0    0  0.12463482968E+00  0.20146830311E-01  0.10203884481E-01  0.12715331147E+00  0.11140458617E-01 0.  0.
         14    1    1    2    0    0  0.18404636813E-01  0.15792663776E-01  0.27672699171E-02  0.24408946478E-01  0.00000000000E+00 0. -1.
     999901    1    3    3    0    0 -0.14303946649E+00 -0.35939494087E-01 -0.12971154398E-01  0.89236774205E+00  0.88000000000E+00 0. -1.
        -11    1    4    4    0    0  0.54383210473E-01  0.13519633425E-01  0.15818581704E-02  0.56063156043E-01  0.51100000000E-03 0.  1.
         11    1    4    4    0    0  0.70251619207E-01  0.66271968859E-02  0.86220263107E-02  0.71090155426E-01  0.51100000000E-03 0. -1.
</event>
<event>
 8    1  0.1208168E+005  0.1043930E+01  0.7957747E-01            NaN
         13   -1    0    0    0    0  0.00000000000E+00  0.00000000000E+00  0.74505805969E-08  0.10566000000E+00  0.10566000000E+00 0. -1.
     999900   -1    0    0    0    0 -0.00000000000E+00 -0.00000000000E+00 -0.74505805969E-08  0.93827000000E+00  0.93827000000E+00 0.  1.
     999902    2    1    2    0    0  0.35606635599E-02  0.23785013250E-01 -0.11878356577E-01  0.10171064929E+01  0.10167527316E+01 0.  0.
     999903    2    3    3    0    0  0.12159498042E+00 -0.23355535001E-03 -0.36683990702E-01  0.12855468735E+00  0.19879603940E-01 0.  0.
         14    1    1    2    0    0 -0.35606635599E-02 -0.23785013250E-01  0.11878356577E-01  0.26823507140E-01  0.00000000000E+00 0. -1.
     999901    1    3    3    0    0 -0.11803431686E+00  0.24018568600E-01  0.24805634125E-01  0.88855180551E+00  0.88000000000E+00 0. -1.
        -11    1    4    4    0    0  0.35850596841E-01  0.87911739916E-02 -0.89688188170E-02  0.37990141695E-01  0.51100000000E-03 0.  1.
         11    1    4    4    0    0  0.85744383583E-01 -0.90247293417E-02 -0.27715171885E-01  0.90564545653E-01  0.51100000000E-03 0. -1.
</event>
<event>
 8    1  0.1208168E+005  0.1043930E+01  0.7957747E-01            NaN
         13   -1    0    0    0    0  0.00000000000E+00  0.00000000000E+00  0.74505805969E-08  0.10566000000E+00  0.10566000000E+00 0.  1.
     999900   -1    0    0    0    0 -0.00000000000E+00 -0.00000000000E+00 -0.74505805969E-08  0.93827000000E+00  0.93827000000E+00 0.  1.
     999902    2    1    2    0    0  0.22248993079E-01 -0.25646002451E-02 -0.68843417466E-02  0.10204994851E+01  0.10202304691E+01 0.  0.
     999903    2    3    3    0    0  0.59621770610E-01 -0.59376518601E-01 -0.10098866090E+00  0.13287347069E+00  0.19399048680E-01 0.  0.
         14    1    1    2    0    0 -0.22248993079E-01  0.25646002451E-02  0.68843417466E-02  0.23430514906E-01  0.00000000000E+00 0.  1.
     999901    1    3    3    0    0 -0.37372777531E-01  0.56811918356E-01  0.94104319156E-01  0.88762601441E+00  0.88000000000E+00 0. -1.
        -11    1    4    4    0    0  0.97427151232E-02 -0.13837998086E-01 -0.32709972876E-01  0.36832243151E-01  0.51100000000E-03 0. -1.
         11    1    4    4    0    0  0.49879055487E-01 -0.45538520516E-01 -0.68278688027E-01  0.96041227536E-01  0.51100000000E-03 0.  1.
</event>
<event>
 8    1  0.1208168E+005  0.1043930E+01  0.7957747E-01            NaN
         13   -1    0    0    0    0  0.00000000000E+00  0.00000000000E+00  0.74505805969E-08  0.10566000000E+00  0.10566000000E+00 0. -1.
     999900   -1    0    0    0    0 -0.00000000000E+00 -0.00000000000E+00 -0.74505805969E-08  0.93827000000E+00  0.93827000000E+00 0. -1.
     999902    2    1    2    0    0 -0.17819104318E-01  0.74104295062E-02  0.13569196390E-01  0.10203385177E+01  0.10200657492E+01 0.  0.
     999903    2    3    3    0    0 -0.67041657951E-01  0.25415444316E-02 -0.11035059039E+00  0.13028083457E+00  0.17169732336E-01 0.  0.
         14    1    1    2    0    0  0.17819104318E-01 -0.74104295062E-02 -0.13569196390E-01  0.23591482252E-01  0.00000000000E+00 0.  1.
     999901    1    3    3    0    0  0.49222553633E-01  0.48688850746E-02  0.12391978678E+00  0.89005768318E+00  0.88000000000E+00 0.  1.
        -11    1    4    4    0    0 -0.46722799543E-01 -0.61813124756E-02 -0.74724780743E-01  0.88347510430E-01  0.51100000000E-03 0.  1.
         11    1    4    4    0    0 -0.20318858408E-01  0.87228569072E-02 -0.35625809645E-01  0.41933324141E-01  0.51100000000E-03 0. -1.
</event>
<event>
 7    1  0.1208168E+005  0.1043930E+01  0.7957747E-01            NaN
         13   -1    0    0    0    0  0.00000000000E+00  0.00000000000E+00  0.74505805969E-08  0.10566000000E+00  0.10566000000E+00 0. -1.
     999900   -1    0    0    0    0 -0.00000000000E+00 -0.00000000000E+00 -0.74505805969E-08  0.93827000000E+00  0.93827000000E+00 0. -1.
     999903    2    1    2    0    0  0.30945061943E-01  0.11117276211E+00  0.10999025598E-01  0.11770560915E+00  0.20412054439E-01 0.  0.
         14    1    1    2    0    0 -0.78252815284E-02 -0.54704762512E-02  0.37085088313E-01  0.38294450206E-01  0.00000000000E+00 0. -1.
     999901    1    1    2    0    0 -0.23119780415E-01 -0.10570228586E+00 -0.48084113911E-01  0.88792994064E+00  0.88000000000E+00 0.  1.
        -11    1    3    3    0    0  0.10219477221E-01  0.57990711027E-01 -0.28991493542E-02  0.58957836358E-01  0.51100000000E-03 0. -1.
         11    1    3    3    0    0  0.20725584722E-01  0.53182051087E-01  0.13898174952E-01  0.58747772791E-01  0.51100000000E-03 0.  1.
</event>
<event>
 8    1  0.1208168E+005  0.1043930E+01  0.7957747E-01            NaN
         13   -1    0    0    0    0  0.00000000000E+00  0.00000000000E+00  0.74505805969E-08  0.10566000000E+00  0.10566000000E+00 0. -1.
     999900   -1    0    0    0    0 -0.00000000000E+00 -0.00000000000E+00 -0.74505805969E-08  0.93827000000E+00  0.93827000000E+00 0.  1.
     999902    2    1    2    0    0  0.97655550611E-02 -0.19586378066E-01 -0.90621319441E-02  0.10202421443E+01  0.10199671164E+01 0.  0.
     999903    2    3    3    0    0  0.88899622031E-01 -0.64179412009E-01  0.70677654541E-01  0.13198026133E+00  0.20032942993E-01 0.  0.
         14    1    1    2    0    0 -0.97655550611E-02  0.19586378066E-01  0.90621319441E-02  0.23687855681E-01  0.00000000000E+00 0. -1.
     999901    1    3    3    0    0 -0.79134066970E-01  0.44593033943E-01 -0.79739786485E-01  0.88826188299E+00  0.88000000000E+00 0.  1.
        -11    1    4    4    0    0  0.25326072525E-01 -0.90245768513E-02  0.12430916270E-01  0.29625018771E-01  0.51100000000E-03 0.  1.
         11    1    4    4    0    0  0.63573549506E-01 -0.55154835158E-01  0.58246738271E-01  0.10235524255E+00  0.51100000000E-03 0. -1.
</event>
<event>
 8    1  0.1208168E+005  0.1043930E+01  0.7957747E-01            NaN
         13   -1    0    0    0    0  0.00000000000E+00  0.00000000000E+00  0.74505805969E-08  0.10566000000E+00  0.10566000000E+00 0. -1.
     999900   -1    0    0    0    0 -0.00000000000E+00 -0.00000000000E+00 -0.74505805969E-08  0.93827000000E+00  0.93827000000E+00 0.  1.
     999902    2    1    2    0    0 -0.22976963231E-01  0.21367689997E-02  0.54181493840E-03  0.10208475351E+01  0.10205865420E+01 0.  0.
     999903    2    3    3    0    0  0.18868462000E-01  0.66617616224E-01  0.10916222040E+00  0.13084348359E+00  0.20241076673E-01 0.  0.
         14    1    1    2    0    0  0.22976963231E-01 -0.21367689997E-02 -0.54181493840E-03  0.23082464871E-01  0.00000000000E+00 0.  1.
     999901    1    3    3    0    0 -0.41845425232E-01 -0.64480847225E-01 -0.10862040547E+00  0.89000405154E+00  0.88000000000E+00 0.  1.
        -11    1    4    4    0    0  0.45526437018E-02  0.43012035939E-01  0.78134625402E-01  0.89308692791E-01  0.51100000000E-03 0.  1.
         11    1    4    4    0    0  0.14315818299E-01  0.23605580285E-01  0.31027595002E-01  0.41534790799E-01  0.51100000000E-03 0. -1.
</event>
<event>
 8    1  0.1208168E+005  0.1043930E+01  0.7957747E-01            NaN
         13   -1    0    0    0    0  0.00000000000E+00  0.00000000000E+00  0.74505805969E-08  0.10566000000E+00  0.10566000000E+00 0. -1.
     999900   -1    0    0    0    0 -0.00000000000E+00 -0.00000000000E+00 -0.74505805969E-08  0.93827000000E+00  0.93827000000E+00 0.  1.
     999902    2    1    2    0    0  0.85795333893E-02  0.39730637432E-02 -0.21388971478E-01  0.10205444974E+01  0.10202765260E+01 0.  0.
     999903    2    3    3    0    0 -0.97657991560E-02  0.10756821120E+00 -0.74511983322E-01  0.13268721151E+00  0.19686786081E-01 0.  0.
         14    1    1    2    0    0 -0.85795333893E-02 -0.39730637432E-02  0.21388971478E-01  0.23385502551E-01  0.00000000000E+00 0. -1.
     999901    1    3    3    0    0  0.18345332545E-01 -0.10359514746E+00  0.53123011844E-01  0.88785728594E+00  0.88000000000E+00 0. -1.
        -11    1    4    4    0    0  0.81959952758E-03  0.83776234875E-02 -0.12986902672E-01  0.15484737024E-01  0.51100000000E-03 0.  1.
         11    1    4    4    0    0 -0.10585398684E-01  0.99190587714E-01 -0.61525080650E-01  0.11720247449E+00  0.51100000000E-03 0. -1.
</event>
<event>
 8    1  0.1208168E+005  0.1043930E+01  0.7957747E-01            NaN
         13   -1    0    0    0    0  0.00000000000E+00  0.00000000000E+00  0.74505805969E-08  0.10566000000E+00  0.10566000000E+00 0. -1.
     999900   -1    0    0    0    0 -0.00000000000E+00 -0.00000000000E+00 -0.74505805969E-08  0.93827000000E+00  0.93827000000E+00 0.  1.
     999902    2    1    2    0    0 -0.95223937907E-02  0.14288125974E-01  0.17422806207E-01  0.10194681787E+01  0.10191746595E+01 0.  0.
     999903    2    3    3    0    0  0.73031255986E-01  0.48140278150E-01  0.96209157314E-01  0.13145446118E+00  0.19313795140E-01 0.  0.
         14    1    1    2    0    0  0.95223937907E-02 -0.14288125974E-01 -0.17422806207E-01  0.24461821344E-01  0.00000000000E+00 0. -1.
     999901    1    3    3    0    0 -0.82553649777E-01 -0.33852152176E-01 -0.78786351107E-01  0.88801371747E+00  0.88000000000E+00 0.  1.
        -11    1    4    4    0    0  0.39222807773E-01  0.36053461211E-01  0.63413934974E-01  0.82824326045E-01  0.51100000000E-03 0.  1.
         11    1    4    4    0    0  0.33808448213E-01  0.12086816939E-01  0.32795222340E-01  0.48630135139E-01  0.51100000000E-03 0. -1.
</event>
<event>
 8    1  0.1208168E+005  0.1043930E+01  0.7957747E-01            NaN
         13   -1    0    0    0    0  0.00000000000E+00  0.00000000000E+00  0.74505805969E-08  0.10566000000E+00  0.10566000000E+00 0.  1.
     999900   -1    0    0    0    0 -0.00000000000E+00 -0.00000000000E+00 -0.74505805969E-08  0.93827000000E+00  0.93827000000E+00 0. -1.
     999902    2    1    2    0    0  0.51274280543E-02  0.16615293000E-01  0.15763875094E-01  0.10204596306E+01  0.10201896880E+01 0.  0.
     999903    2    3    3    0    0  0.58865397405E-01  0.97941411554E-01  0.66322744592E-01  0.13363501089E+00  0.20048804866E-01 0.  0.
         14    1    1    2    0    0 -0.51274280543E-02 -0.16615293000E-01 -0.15763875094E-01  0.23470369361E-01  0.00000000000E+00 0. -1.
     999901    1    3    3    0    0 -0.53737969351E-01 -0.81326118553E-01 -0.50558869497E-01  0.88682461975E+00  0.88000000000E+00 0.  1.
        -11    1    4    4    0    0  0.28663064477E-01  0.65976809466E-01  0.38448374921E-01  0.81566226513E-01  0.51100000000E-03 0.  1.
         11    1    4    4    0    0  0.30202332928E-01  0.31964602088E-01  0.27874369671E-01  0.52068784377E-01  0.51100000000E-03 0. -1.
</event>
<event>
 8    1  0.1208168E+005  0.1043930E+01  0.7957747E-01            NaN
         13   -1    0    0    0    0  0.00000000000E+00  0.00000000000E+00  0.74505805969E-08  0.10566000000E+00  0.10566000000E+00 0. -1.
     999900   -1    0    0    0    0 -0.00000000000E+00 -0.00000000000E+00 -0.74505805969E-08  0.93827000000E+00  0.93827000000E+00 0.  1.
     999902    2    1    2    0    0 -0.54619643952E-02  0.11277846200E-01  0.19306380761E-01  0.10209135014E+01  0.10206540149E+01 0.  0.
     999903    2    3    3    0    0  0.22184227013E-01  0.11572906425E-01  0.12971307068E+00  0.13358377906E+00  0.19826074504E-01 0.  0.
         14    1    1    2    0    0  0.54619643952E-02 -0.11277846200E-01 -0.19306380761E-01  0.23016498606E-01  0.00000000000E+00 0.  1.
     999901    1    3    3    0    0 -0.27646191408E-01 -0.29506022466E-03 -0.11040668992E+00  0.88732972234E+00  0.88000000000E+00 0.  1.
        -11    1    4    4    0    0  0.91956344148E-03 -0.27072101224E-02  0.44698299196E-01  0.44792562503E-01  0.51100000000E-03 0. -1.
         11    1    4    4    0    0  0.21264663571E-01  0.14280116547E-01  0.85014771487E-01  0.88791216555E-01  0.51100000000E-03 0.  1.
</event>
<event>
 8    1  0.1208168E+005  0.1043930E+01  0.7957747E-01            NaN
         13   -1    0    0    0    0  0.00000000000E+00  0.00000000000E+00  0.74505805969E-08  0.10566000000E+00  0.10566000000E+00 0. -1.
     999900   -1    0    0    0    0 -0.00000000000E+00 -0.00000000000E+00 -0.74505805969E-08  0.93827000000E+00  0.93827000000E+00 0. -1.
     999902    2    1    2    0    0  0.87365513956E-02 -0.23149285709E-01  0.23220109375E-02  0.10190782698E+01  0.10187752016E+01 0.  0.
     999903    2    3    3    0    0 -0.11658471021E+00  0.18757222381E-02  0.50490684487E-01  0.12854366028E+00  0.19458941141E-01 0.  0.
         14    1    1    2    0    0 -0.87365513956E-02  0.23149285709E-01 -0.23220109375E-02  0.24851730199E-01  0.00000000000E+00 0. -1.
     999901    1    3    3    0    0  0.12532126161E+00 -0.25025007947E-01 -0.48168673549E-01  0.89053460952E+00  0.88000000000E+00 0. -1.
        -11    1    4    4    0    0 -0.59870689700E-01 -0.34224885029E-02  0.16456609551E-01  0.62187571360E-01  0.51100000000E-03 0. -1.
         11    1    4    4    0    0 -0.56714020512E-01  0.52982107410E-02  0.34034074936E-01  0.66356088925E-01  0.51100000000E-03 0.  1.
</event>
<event>
 8    1  0.1208168E+005  0.1043930E+01  0.7957747E-01            NaN
         13   -1    0    0    0    0  0.00000000000E+00  0.00000000000E+00  0.74505805969E-08  0.10566000000E+00  0.10566000000E+00 0.  1.
     999900   -1    0    0    0    0 -0.00000000000E+00 -0.00000000000E+00 -0.74505805969E-08  0.93827000000E+00  0.93827000000E+00 0.  1.
     999902    2    1    2    0    0  0.21119000219E-01 -0.64378287570E-02 -0.99458197251E-02  0.10197147746E+01  0.10194272139E+01 0.  0.
     999903    2    3    3    0    0 -0.54583596641E-01 -0.10775956974E+00  0.41214007254E-01  0.12920126757E+00  0.20071852314E-01 0.  0.
         14    1    1    2    0    0 -0.21119000219E-01  0.64378287570E-02  0.99458197251E-02  0.24215225363E-01  0.00000000000E+00 0. -1.
     999901    1    3    3    0    0  0.75702596860E-01  0.10132174098E+00 -0.51159826979E-01  0.89051350706E+00  0.88000000000E+00 0.  1.
        -11    1    4    4    0    0 -0.15942068149E-01 -0.28785752978E-01  0.20828491375E-01  0.38946839222E-01  0.51100000000E-03 0.  1.
         11    1    4    4    0    0 -0.38641528492E-01 -0.78973816763E-01  0.20385515879E-01  0.90254428351E-01  0.51100000000E-03 0. -1.
</event>
<event>
 8    1  0.1208168E+005  0.1043930E+01  0.7957747E-01            NaN
         13   -1    0    0    0    0  0.00000000000E+00  0.00000000000E+00  0.74505805969E-08  0.10566000000E+00  0.10566000000E+00 0. -1.
     999900   -1    0    0    0    0 -0.00000000000E+00 -0.00000000000E+00 -0.74505805969E-08  0.93827000000E+00  0.93827000000E+00 0.  1.
     999902    2    1    2    0    0  0.11665037997E-01  0.77859546943E-02 -0.20033966806E-01  0.10194748568E+01  0.10191814999E+01 0.  0.
     999903    2    3    3    0    0  0.92700265398E-01 -0.52394926587E-01 -0.75225437909E-01  0.13198708505E+00  0.20570769931E-01 0.  0.
         14    1    1    2    0    0 -0.11665037997E-01 -0.77859546943E-02  0.20033966806E-01  0.24455143180E-01  0.00000000000E+00 0. -1.
     999901    1    3    3    0    0 -0.81035227401E-01  0.60180881281E-01  0.55191471103E-01  0.88748777177E+00  0.88000000000E+00 0. -1.
        -11    1    4    4    0    0  0.60203006894E-01 -0.28061139420E-01 -0.56812514324E-01  0.87405677673E-01  0.51100000000E-03 0. -1.
         11    1    4    4    0    0  0.32497258503E-01 -0.24333787166E-01 -0.18412923585E-01  0.44581407381E-01  0.51100000000E-03 0.  1.
</event>
<event>
 8    1  0.1208168E+005  0.1043930E+01  0.7957747E-01            NaN
         13   -1    0    0    0    0  0.00000000000E+00  0.00000000000E+00  0.74505805969E-08  0.10566000000E+00  0.10566000000E+00 0.  1.
     999900   -1    0    0    0    0 -0.00000000000E+00 -0.00000000000E+00 -0.74505805969E-08  0.93827000000E+00  0.93827000000E+00 0. -1.
     999902    2    1    2    0    0 -0.88153699728E-02  0.22510799118E-01  0.12955584805E-02  0.10197199753E+01  0.10194325396E+01 0.  0.
     999903    2    3    3    0    0  0.11165626568E+00 -0.41312857743E-01  0.43053997867E-01  0.12824331186E+00  0.20465249235E-01 0.  0.
         14    1    1    2    0    0  0.88153699728E-02 -0.22510799118E-01 -0.12955584805E-02  0.24210024711E-01  0.00000000000E+00 0. -1.
     999901    1    3    3    0    0 -0.12047163565E+00  0.63823656861E-01 -0.41758439387E-01  0.89147666342E+00  0.88000000000E+00 0. -1.
        -11    1    4    4    0    0  0.53232074445E-01 -0.16695391641E-01  0.97813564778E-02  0.56642086007E-01  0.51100000000E-03 0. -1.
         11    1    4    4    0    0  0.58424191231E-01 -0.24617466102E-01  0.33272641390E-01  0.71601225857E-01  0.51100000000E-03 0.  1.
</event>
<event>
 8    1  0.1208168E+005  0.1043930E+01  0.7957747E-01            NaN
         13   -1    0    0    0    0  0.00000000000E+00  0.00000000000E+00  0.74505805969E-08  0.10566000000E+00  0.10566000000E+00 0. -1.
     999900   -1    0    0    0    0 -0.00000000000E+00 -0.00000000000E+00 -0.74505805969E-08  0.93827000000E+00  0.93827000000E+00 0. -1.
     999902    2    1    2    0    0  0.39330851258E-02  0.22755818525E-01  0.47001320181E-02  0.10203633355E+01  0.10200911473E+01 0.  0.
     999903    2    3    3    0    0 -0.11440393351E+00  0.47587211622E-01 -0.34270626197E-01  0.13124075223E+00  0.26398039960E-01 0.  0.
         14    1    1    2    0    0 -0.39330851258E-02 -0.22755818525E-01 -0.47001320181E-02  0.23566664514E-01  0.00000000000E+00 0.  1.
     999901    1    3    3    0    0  0.11833701863E+00 -0.24831393097E-01  0.38970758215E-01  0.88912258326E+00  0.88000000000E+00 0. -1.
        -11    1    4    4    0    0 -0.57552774852E-01  0.10581339997E-01 -0.20609029516E-01  0.62042564968E-01  0.51100000000E-03 0. -1.
         11    1    4    4    0    0 -0.56851158655E-01  0.37005871626E-01 -0.13661596681E-01  0.69198187260E-01  0.51100000000E-03 0.  1.
</event>
<event>
 8    1  0.1208168E+005  0.1043930E+01  0.7957747E-01            NaN
         13   -1    0    0    0    0  0.00000000000E+00  0.00000000000E+00  0.74505805969E-08  0.10566000000E+00  0.10566000000E+00 0.  1.
     999900   -1    0    0    0    0 -0.00000000000E+00 -0.00000000000E+00 -0.74505805969E-08  0.93827000000E+00  0.93827000000E+00 0.  1.
     999902    2    1    2    0    0  0.13058978971E-02 -0.13021149344E-01 -0.18746109837E-01  0.10210679718E+01  0.10208119958E+01 0.  0.
     999903    2    3    3    0    0 -0.15366197283E-01  0.11364606365E+00 -0.60150132872E-01  0.13087875892E+00  0.18964789738E-01 0.  0.
         14    1    1    2    0    0 -0.13058978971E-02  0.13021149344E-01  0.18746109837E-01  0.22862028204E-01  0.00000000000E+00 0.  1.
     999901    1    3    3    0    0  0.16672095180E-01 -0.12666721299E+00  0.41404023035E-01  0.89018921288E+00  0.88000000000E+00 0. -1.
        -11    1    4    4    0    0 -0.13972744861E-01  0.40292657577E-01 -0.26019789060E-01  0.49960248170E-01  0.51100000000E-03 0. -1.
         11    1    4    4    0    0 -0.13934524226E-02  0.73353406069E-01 -0.34130343813E-01  0.80918510746E-01  0.51100000000E-03 0.  1.
</event>
<event>
 8    1  0.1208168E+005  0.1043930E+01  0.7957747E-01            NaN
         13   -1    0    0    0    0  0.00000000000E+00  0.00000000000E+00  0.74505805969E-08  0.10566000000E+00  0.10566000000E+00 0. -1.
     999900   -1    0    0    0    0 -0.00000000000E+00 -0.00000000000E+00 -0.74505805969E-08  0.93827000000E+00  0.93827000000E+00 0. -1.
     999902    2    1    2    0    0 -0.20172701168E-01 -0.10336458171E-01  0.30428212300E-02  0.10210599541E+01  0.10208037964E+01 0.  0.
     999903    2    3    3    0    0  0.80888783175E-01  0.98064121466E-01  0.50402110464E-02  0.12866536710E+00  0.19230335432E-01 0.  0.
         14    1    1    2    0    0  0.20172701168E-01  0.10336458171E-01 -0.30428212300E-02  0.22870045933E-01  0.00000000000E+00 0. -1.
     999901    1    3    3    0    0 -0.10106148434E+00 -0.10840057964E+00 -0.19973898164E-02  0.89239458697E+00  0.88000000000E+00 0. -1.
        -11    1    4    4    0    0  0.53595459423E-01  0.56723435395E-01 -0.46801567363E-02  0.78180473149E-01  0.51100000000E-03 0.  1.
         11    1    4    4    0    0  0.27293323752E-01  0.41340686071E-01  0.97203677827E-02  0.50484893950E-01  0.51100000000E-03 0. -1.
</event>
<event>
 8    1  0.1208168E+005  0.1043930E+01  0.7957747E-01            NaN
         13   -1    0    0    0    0  0.00000000000E+00  0.00000000000E+00  0.74505805969E-08  0.10566000000E+00  0.10566000000E+00 0.  1.
     999900   -1    0    0    0    0 -0.00000000000E+00 -0.00000000000E+00 -0.74505805969E-08  0.93827000000E+00  0.93827000000E+00 0.  1.
     999902    2    1    2    0    0 -0.19442962832E-01  0.12012631681E-01  0.88803086652E-02  0.10194107829E+01  0.10191158680E+01 0.  0.
     999903    2    3    3    0    0  0.83300751155E-01 -0.85823594915E-01  0.39498615592E-01  0.12752195650E+00  0.19924963454E-01 0.  0.
         14    1    1    2    0    0  0.19442962832E-01 -0.12012631681E-01 -0.88803086652E-02  0.24519217067E-01  0.00000000000E+00 0. -1.
     999901    1    3    3    0    0 -0.10274371399E+00  0.97836226596E-01 -0.30618306927E-01  0.89188882643E+00  0.88000000000E+00 0.  1.
        -11    1    4    4    0    0  0.31171274043E-01 -0.43309487425E-01  0.11109123104E-01  0.54507190018E-01  0.51100000000E-03 0. -1.
         11    1    4    4    0    0  0.52129477112E-01 -0.42514107490E-01  0.28389492488E-01  0.73014766482E-01  0.51100000000E-03 0.  1.
</event>
<event>
 8    1  0.1208168E+005  0.1043930E+01  0.7957747E-01            NaN
         13   -1    0    0    0    0  0.00000000000E+00  0.00000000000E+00  0.74505805969E-08  0.10566000000E+00  0.10566000000E+00 0.  1.
     999900   -1    0    0    0    0 -0.00000000000E+00 -0.00000000000E+00 -0.74505805969E-08  0.93827000000E+00  0.93827000000E+00 0. -1.
     999902    2    1    2    0    0 -0.14657340035E-01  0.15087689956E-01 -0.79825120587E-02  0.10214311888E+01  0.10211833709E+01 0.  0.
     999903    2    3    3    0    0 -0.11509375585E+00  0.44002247963E-01 -0.48982767442E-01  0.13429842187E+00  0.21306903756E-01 0.  0.
         14    1    1    2    0    0  0.14657340035E-01 -0.15087689956E-01  0.79825120587E-02  0.22498811166E-01  0.00000000000E+00 0.  1.
     999901    1    3    3    0    0  0.10043641582E+00 -0.28914558007E-01  0.41000255383E-01  0.88713276697E+00  0.88000000000E+00 0.  1.
        -11    1    4    4    0    0 -0.32918907629E-01  0.30520283002E-02 -0.99234836514E-02  0.34521095073E-01  0.51100000000E-03 0.  1.
         11    1    4    4    0    0 -0.82174848222E-01  0.40950219663E-01 -0.39059283790E-01  0.99777326793E-01  0.51100000000E-03 0. -1.
</event>
<event>
 8    1  0.1208168E+005  0.1043930E+01  0.7957747E-01            NaN
         13   -1    0    0    0    0  0.00000000000E+00  0.00000000000E+00  0.74505805969E-08  0.10566000000E+00  0.10566000000E+00 0. -1.
     999900   -1    0    0    0    0 -0.00000000000E+00 -0.00000000000E+00 -0.74505805969E-08  0.93827000000E+00  0.93827000000E+00 0.  1.
     999902    2    1    2    0    0  0.12560313102E-01  0.19736750582E-01  0.28218137439E-02  0.10203659719E+01  0.10200938453E+01 0.  0.
     999903    2    3    3    0    0  0.28280353548E-01 -0.11552903502E+00  0.45320039339E-01  0.12887842199E+00  0.20223880881E-01 0.  0.
         14    1    1    2    0    0 -0.12560313102E-01 -0.19736750582E-01 -0.28218137439E-02  0.23564028127E-01  0.00000000000E+00 0. -1.
     999901    1    3    3    0    0 -0.15720040446E-01  0.13526578560E+00 -0.42498225595E-01  0.89148754989E+00  0.88000000000E+00 0. -1.
        -11    1    4    4    0    0  0.22434662062E-01 -0.71907221524E-01  0.19349208139E-01  0.77772845812E-01  0.51100000000E-03 0.  1.
         11    1    4    4    0    0  0.58456914865E-02 -0.43621813498E-01  0.25970831200E-01  0.51105576173E-01  0.51100000000E-03 0. -1.
</event>
<event>
 8    1  0.1208168E+005  0.1043930E+01  0.7957747E-01            NaN
         13   -1    0    0    0    0  0.00000000000E+00  0.00000000000E+00  0.74505805969E-08  0.10566000000E+00  0.10566000000E+00 0. -1.
     999900   -1    0    0    0    0 -0.00000000000E+00 -0.00000000000E+00 -0.74505805969E-08  0.93827000000E+00  0.93827000000E+00 0.  1.
     999902    2    1    2    0    0  0.21490828044E-01 -0.72336341479E-02 -0.54576011927E-02  0.10206069092E+01  0.10203403827E+01 0.  0.
     999903    2    3    3    0    0  0.81785854316E-01 -0.85992135828E-03 -0.10316362202E+00  0.13312587792E+00  0.19750975463E-01 0.  0.
         14    1    1    2    0    0 -0.21490828044E-01  0.72336341479E-02  0.54576011927E-02  0.23323090786E-01  0.00000000000E+00 0.  1.
     999901    1    3    3    0    0 -0.60295026272E-01 -0.63737127896E-02  0.97706020827E-01  0.88748103130E+00  0.88000000000E+00 0. -1.
        -11    1    4    4    0    0  0.44176714418E-01  0.30505082955E-02 -0.40922433518E-01  0.60297548737E-01  0.51100000000E-03 0.  1.
         11    1    4    4    0    0  0.37609139898E-01 -0.39104296538E-02 -0.62241188502E-01  0.72828329180E-01  0.51100000000E-03 0. -1.
</event>
<event>
 8    1  0.1208168E+005  0.1043930E+01  0.7957747E-01            NaN
         13   -1    0    0    0    0  0.00000000000E+00  0.00000000000E+00  0.74505805969E-08  0.10566000000E+00  0.10566000000E+00 0.  1.
     999900   -1    0    0    0    0 -0.00000000000E+00 -0.00000000000E+00 -0.74505805969E-08  0.93827000000E+00  0.93827000000E+00 0. -1.
     999902    2    1    2    0    0 -0.17273986228E-01 -0.10496016847E-01 -0.11333671454E-01  0.10207565437E+01  0.10204934651E+01 0.  0.
     999903    2    3    3    0    0 -0.25673283002E-01 -0.12580558751E+00 -0.26578346760E-01  0.13306332785E+00  0.22655626100E-01 0.  0.
         14    1    1    2    0    0  0.17273986228E-01  0.10496016847E-01  0.11333671454E-01  0.23173456335E-01  0.00000000000E+00 0.  1.
     999901    1    3    3    0    0  0.83992967733E-02  0.11530957066E+00  0.15244675306E-01  0.88769321581E+00  0.88000000000E+00 0. -1.
        -11    1    4    4    0    0 -0.12692524108E-01 -0.55133711244E-01 -0.37692334494E-03  0.56579408587E-01  0.51100000000E-03 0.  1.
         11    1    4    4    0    0 -0.12980758894E-01 -0.70671876266E-01 -0.26201423415E-01  0.76483919267E-01  0.51100000000E-03 0. -1.
</event>
<event>
 8    1  0.1208168E+005  0.1043930E+01  0.7957747E-01            NaN
         13   -1    0    0    0    0  0.00000000000E+00  0.00000000000E+00  0.74505805969E-08  0.10566000000E+00  0.10566000000E+00 0.  1.
     999900   -1    0    0    0    0 -0.00000000000E+00 -0.00000000000E+00 -0.74505805969E-08  0.93827000000E+00  0.93827000000E+00 0.  1.
     999902    2    1    2    0    0 -0.21848952204E-01 -0.77927535243E-02  0.61324527980E-02  0.10199360279E+01  0.10196537600E+01 0.  0.
     999903    2    3    3    0    0  0.86624758764E-02  0.21154864108E-01 -0.12555337424E+00  0.12914420662E+00  0.19799231223E-01 0.  0.
         14    1    1    2    0    0  0.21848952204E-01  0.77927535243E-02 -0.61324527980E-02  0.23993972102E-01  0.00000000000E+00 0. -1.
     999901    1    3    3    0    0 -0.30511428081E-01 -0.28947617632E-01  0.13168582704E+00  0.89079182128E+00  0.88000000000E+00 0. -1.
        -11    1    4    4    0    0 -0.30459080442E-02  0.34847660859E-02 -0.61428737378E-01  0.61604967716E-01  0.51100000000E-03 0.  1.
         11    1    4    4    0    0  0.11708383921E-01  0.17670098022E-01 -0.64124636863E-01  0.67539238905E-01  0.51100000000E-03 0. -1.
</event>
<event>
 8    1  0.1208168E+005  0.1043930E+01  0.7957747E-01            NaN
         13   -1    0    0    0    0  0.00000000000E+00  0.00000000000E+00  0.74505805969E-08  0.10566000000E+00  0.10566000000E+00 0. -1.
     999900   -1    0    0    0    0 -0.00000000000E+00 -0.00000000000E+00 -0.74505805969E-08  0.93827000000E+00  0.93827000000E+00 0.  1.
     999902    2    1    2    0    0  0.20342299976E-01 -0.49458165060E-02 -0.25534470873E-02  0.10228399464E+01  0.10226224942E+01 0.  0.
     999903    2    3    3    0    0  0.71649188657E-01 -0.66436432288E-01  0.90000253002E-01  0.13436953042E+00  0.20192062658E-01 0.  0.
         14    1    1    2    0    0 -0.20342299976E-01  0.49458165060E-02  0.25534470873E-02  0.21090053610E-01  0.00000000000E+00 0.  1.
     999901    1    3    3    0    0 -0.51306888680E-01  0.61490615782E-01 -0.92553700089E-01  0.88847041597E+00  0.88000000000E+00 0.  1.
        -11    1    4    4    0    0  0.30355671112E-01 -0.17723056408E-01  0.40069733943E-01  0.53304954707E-01  0.51100000000E-03 0. -1.
         11    1    4    4    0    0  0.41293517545E-01 -0.48713375881E-01  0.49930519059E-01  0.81064575712E-01  0.51100000000E-03 0.  1.
</event>
<event>
 8    1  0.1208168E+005  0.1043930E+01  0.7957747E-01            NaN
         13   -1    0    0    0    0  0.00000000000E+00  0.00000000000E+00  0.74505805969E-08  0.10566000000E+00  0.10566000000E+00 0.  1.
     999900   -1    0    0    0    0 -0.00000000000E+00 -0.00000000000E+00 -0.74505805969E-08  0.93827000000E+00  0.93827000000E+00 0. -1.
     999902    2    1    2    0    0  0.21339977727E-01  0.87147552577E-02  0.48711426659E-02  0.10203700841E+01  0.10200980535E+01 0.  0.
     999903    2    3    3    0    0  0.53190313705E-01 -0.15247316454E-01 -0.11768576107E+00  0.13098331811E+00  0.15652512067E-01 0.  0.
         14    1    1    2    0    0 -0.21339977727E-01 -0.87147552577E-02 -0.48711426659E-02  0.23559915948E-01  0.00000000000E+00 0. -1.
     999901    1    3    3    0    0 -0.31850335977E-01  0.23962071712E-01  0.12255690373E+00  0.88938676594E+00  0.88000000000E+00 0.  1.
        -11    1    4    4    0    0  0.29756225797E-02  0.27732323835E-02 -0.99186540419E-02  0.10732472529E-01  0.51100000000E-03 0.  1.
         11    1    4    4    0    0  0.50214691125E-01 -0.18020548838E-01 -0.10776710702E+00  0.12025084558E+00  0.51100000000E-03 0. -1.
</event>
<event>
 8    1  0.1208168E+005  0.1043930E+01  0.7957747E-01            NaN
         13   -1    0    0    0    0  0.00000000000E+00  0.00000000000E+00  0.74505805969E-08  0.10566000000E+00  0.10566000000E+00 0.  1.
     999900   -1    0    0    0    0 -0.00000000000E+00 -0.00000000000E+00 -0.74505805969E-08  0.93827000000E+00  0.93827000000E+00 0.  1.
     999902    2    1    2    0    0  0.51137246381E-02 -0.16993779996E-01 -0.88211677590E-02  0.10241120349E+01  0.10239202647E+01 0.  0.
     999903    2    3    3    0    0 -0.77121001380E-01  0.97593586099E-01  0.37967381978E-01  0.13165364207E+00  0.20469549927E-01 0.  0.
         14    1    1    2    0    0 -0.51137246381E-02  0.16993779996E-01  0.88211677590E-02  0.19817965054E-01  0.00000000000E+00 0. -1.
     999901    1    3    3    0    0  0.82234726018E-01 -0.11458736609E+00 -0.46788549737E-01  0.89245839288E+00  0.88000000000E+00 0.  1.
        -11    1    4    4    0    0 -0.43825157911E-01  0.41540177731E-01  0.12554748263E-01  0.61677497167E-01  0.51100000000E-03 0.  1.
         11    1    4    4    0    0 -0.33295843469E-01  0.56053408368E-01  0.25412633715E-01  0.69976144902E-01  0.51100000000E-03 0. -1.
</event>
<event>
 8    1  0.1208168E+005  0.1043930E+01  0.7957747E-01            NaN
         13   -1    0    0    0    0  0.00000000000E+00  0.00000000000E+00  0.74505805969E-08  0.10566000000E+00  0.10566000000E+00 0.  1.
     999900   -1    0    0    0    0 -0.00000000000E+00 -0.00000000000E+00 -0.74505805969E-08  0.93827000000E+00  0.93827000000E+00 0. -1.
     999902    2    1    2    0    0 -0.18982321750E-01  0.21801555728E-03  0.12872902640E-01  0.10209933984E+01  0.10207357307E+01 0.  0.
     999903    2    3    3    0    0  0.48388321085E-01 -0.81240874773E-01 -0.85674174857E-01  0.12920537382E+00  0.20308989033E-01 0.  0.
         14    1    1    2    0    0  0.18982321750E-01 -0.21801555728E-03 -0.12872902640E-01  0.22936601583E-01  0.00000000000E+00 0.  1.
     999901    1    3    3    0    0 -0.67370642835E-01  0.81458890330E-01  0.98547077497E-01  0.89178802460E+00  0.88000000000E+00 0. -1.
        -11    1    4    4    0    0  0.46261236382E-01 -0.62461195642E-01 -0.66777586198E-01  0.10247443629E+00  0.51100000000E-03 0.  1.
         11    1    4    4    0    0  0.21270847039E-02 -0.18779679131E-01 -0.18896588659E-01  0.26730937536E-01  0.51100000000E-03 0. -1.
</event>
<event>
 8    1  0.1208168E+005  0.1043930E+01  0.7957747E-01            NaN
         13   -1    0    0    0    0  0.00000000000E+00  0.00000000000E+00  0.74505805969E-08  0.10566000000E+00  0.10566000000E+00 0.  1.
     999900   -1    0    0    0    0 -0.00000000000E+00 -0.00000000000E+00 -0.74505805969E-08  0.93827000000E+00  0.93827000000E+00 0.  1.
     999902    2    1    2    0    0  0.96091762558E-02 -0.37416329075E-02  0.20687507229E-01  0.10208148742E+01  0.10205531335E+01 0.  0.
     999903    2    3    3    0    0  0.13007495168E-01 -0.52166043190E-01 -0.11598287778E+00  0.12894309742E+00  0.16846466771E-01 0.  0.
         14    1    1    2    0    0 -0.96091762558E-02  0.37416329075E-02 -0.20687507229E-01  0.23115125794E-01  0.00000000000E+00 0. -1.
     999901    1    3    3    0    0 -0.33983189127E-02  0.48424410283E-01  0.13667038501E+00  0.89187177678E+00  0.88000000000E+00 0. -1.
        -11    1    4    4    0    0  0.17019031437E-01 -0.44280086044E-01 -0.95956369814E-01  0.10704325985E+00  0.51100000000E-03 0. -1.
         11    1    4    4    0    0 -0.40115362688E-02 -0.78859571467E-02 -0.20026507964E-01  0.21899837570E-01  0.51100000000E-03 0.  1.
</event>
<event>
 8    1  0.1208168E+005  0.1043930E+01  0.7957747E-01            NaN
         13   -1    0    0    0    0  0.00000000000E+00  0.00000000000E+00  0.74505805969E-08  0.10566000000E+00  0.10566000000E+00 0. -1.
     999900   -1    0    0    0    0 -0.00000000000E+00 -0.00000000000E+00 -0.74505805969E-08  0.93827000000E+00  0.93827000000E+00 0.  1.
     999902    2    1    2    0    0  0.12208208007E-01  0.50348135371E-02 -0.19903539671E-01  0.10200440087E+01  0.10197643056E+01 0.  0.
     999903    2    3    3    0    0  0.22822936064E-01 -0.11746197118E+00 -0.49534830790E-01  0.13100174414E+00  0.19737183770E-01 0.  0.
         14    1    1    2    0    0 -0.12208208007E-01 -0.50348135371E-02  0.19903539671E-01  0.23885991324E-01  0.00000000000E+00 0. -1.
     999901    1    3    3    0    0 -0.10614728057E-01  0.12249678471E+00  0.29631291118E-01  0.88904226454E+00  0.88000000000E+00 0. -1.
        -11    1    4    4    0    0  0.15343328696E-01 -0.98900817031E-01 -0.47784833874E-01  0.11090735239E+00  0.51100000000E-03 0. -1.
         11    1    4    4    0    0  0.74796073680E-02 -0.18561154146E-01 -0.17499969157E-02  0.20094391750E-01  0.51100000000E-03 0.  1.
</event>
<event>
 8    1  0.1208168E+005  0.1043930E+01  0.7957747E-01            NaN
         13   -1    0    0    0    0  0.00000000000E+00  0.00000000000E+00  0.74505805969E-08  0.10566000000E+00  0.10566000000E+00 0. -1.
     999900   -1    0    0    0    0 -0.00000000000E+00 -0.00000000000E+00 -0.74505805969E-08  0.93827000000E+00  0.93827000000E+00 0. -1.
     999902    2    1    2    0    0 -0.10565098613E-01 -0.20109852971E-01  0.65526023962E-02  0.10202875785E+01  0.10200136170E+01 0.  0.
     999903    2    3    3    0    0  0.14266031360E-01 -0.99881976677E-01  0.84064449006E-01  0.13293856990E+00  0.20637414199E-01 0.  0.
         14    1    1    2    0    0  0.10565098613E-01  0.20109852971E-01 -0.65526023962E-02  0.23642421478E-01  0.00000000000E+00 0.  1.
     999901    1    3    3    0    0 -0.24831129973E-01  0.79772123706E-01 -0.77511846610E-01  0.88734900862E+00  0.88000000000E+00 0.  1.
        -11    1    4    4    0    0 -0.22299784928E-02 -0.90389720650E-02  0.22876986459E-02  0.96005471805E-02  0.51100000000E-03 0.  1.
         11    1    4    4    0    0  0.16496009853E-01 -0.90843004612E-01  0.81776750360E-01  0.12333802272E+00  0.51100000000E-03 0. -1.
</event>
<event>
 8    1  0.1208168E+005  0.1043930E+01  0.7957747E-01            NaN
         13   -1    0    0    0    0  0.00000000000E+00  0.00000000000E+00  0.74505805969E-08  0.10566000000E+00  0.10566000000E+00 0.  1.
     999900   -1    0    0    0    0 -0.00000000000E+00 -0.00000000000E+00 -0.74505805969E-08  0.93827000000E+00  0.93827000000E+00 0. -1.
     999902    2    1    2    0    0  0.18267140174E-01  0.14109753563E-01 -0.53919847957E-02  0.10202266868E+01  0.10199512956E+01 0.  0.
     999903    2    3    3    0    0 -0.84332582860E-01  0.69998440750E-01 -0.67264841368E-01  0.13035113434E+00  0.21332911181E-01 0.  0.
         14    1    1    2    0    0 -0.18267140174E-01 -0.14109753563E-01  0.53919847957E-02  0.23703313182E-01  0.00000000000E+00 0. -1.
     999901    1    3    3    0    0  0.10259972303E+00 -0.55888687187E-01  0.61872856573E-01  0.88987555248E+00  0.88000000000E+00 0. -1.
        -11    1    4    4    0    0 -0.52586380129E-02  0.13385685995E-01 -0.93275758989E-02  0.17149188216E-01  0.51100000000E-03 0.  1.
         11    1    4    4    0    0 -0.79073944847E-01  0.56612754755E-01 -0.57937265469E-01  0.11320194612E+00  0.51100000000E-03 0. -1.
</event>
<event>
 8    1  0.1208168E+005  0.1043930E+01  0.7957747E-01            NaN
         13   -1    0    0    0    0  0.00000000000E+00  0.00000000000E+00  0.74505805969E-08  0.10566000000E+00  0.10566000000E+00 0. -1.
     999900   -1    0    0    0    0 -0.00000000000E+00 -0.00000000000E+00 -0.74505805969E-08  0.93827000000E+00  0.93827000000E+00 0.  1.
     999902    2    1    2    0    0 -0.20581745046E-01  0.36454228059E-03 -0.10945397309E-01  0.10206159947E+01  0.10203496782E+01 0.  0.
     999903    2    3    3    0    0  0.77504176299E-01  0.71698182209E-01  0.70830251916E-01  0.12854167440E+00  0.18934381322E-01 0.  0.
         14    1    1    2    0    0  0.20581745046E-01 -0.36454228059E-03  0.10945397309E-01  0.23314005286E-01  0.00000000000E+00 0.  1.
     999901    1    3    3    0    0 -0.98085921345E-01 -0.71333639929E-01 -0.81775649225E-01  0.89207432031E+00  0.88000000000E+00 0.  1.
        -11    1    4    4    0    0  0.50097193563E-01  0.37705543029E-01  0.33494411332E-01  0.71088490556E-01  0.51100000000E-03 0. -1.
         11    1    4    4    0    0  0.27406982736E-01  0.33992639180E-01  0.37335840584E-01  0.57453183848E-01  0.51100000000E-03 0.  1.
</event>
<event>
 8    1  0.1208168E+005  0.1043930E+01  0.7957747E-01            NaN
         13   -1    0    0    0    0  0.00000000000E+00  0.00000000000E+00  0.74505805969E-08  0.10566000000E+00  0.10566000000E+00 0. -1.
     999900   -1    0    0    0    0 -0.00000000000E+00 -0.00000000000E+00 -0.74505805969E-08  0.93827000000E+00  0.93827000000E+00 0. -1.
     999902    2    1    2    0    0  0.11872163808E-01 -0.17266060368E-01  0.12450276127E-01  0.10195563567E+01  0.10192649753E+01 0.  0.
     999903    2    3    3    0    0  0.78102631670E-01 -0.59964439519E-01 -0.83815104190E-01  0.13080630749E+00  0.19737358164E-01 0.  0.
         14    1    1    2    0    0 -0.11872163808E-01  0.17266060368E-01 -0.12450276127E-01  0.24373643342E-01  0.00000000000E+00 0. -1.
     999901    1    3    3    0    0 -0.66230467862E-01  0.42698379151E-01  0.96265380317E-01  0.88875004917E+00  0.88000000000E+00 0.  1.
        -11    1    4    4    0    0  0.31351694964E-01 -0.28671520149E-01 -0.48049390422E-01  0.64140391998E-01  0.51100000000E-03 0.  1.
         11    1    4    4    0    0  0.46750936705E-01 -0.31292919370E-01 -0.35765713769E-01  0.66665915488E-01  0.51100000000E-03 0. -1.
</event>
<event>
 8    1  0.1208168E+005  0.1043930E+01  0.7957747E-01            NaN
         13   -1    0    0    0    0  0.00000000000E+00  0.00000000000E+00  0.74505805969E-08  0.10566000000E+00  0.10566000000E+00 0. -1.
     999900   -1    0    0    0    0 -0.00000000000E+00 -0.00000000000E+00 -0.74505805969E-08  0.93827000000E+00  0.93827000000E+00 0. -1.
     999902    2    1    2    0    0  0.20499594364E-01  0.71268832611E-02 -0.10380923922E-01  0.10198719574E+01  0.10195881620E+01 0.  0.
     999903    2    3    3    0    0  0.83355781055E-01  0.35227230987E-01 -0.96453605779E-01  0.13299595909E+00  0.13981524534E-01 0.  0.
         14    1    1    2    0    0 -0.20499594364E-01 -0.71268832611E-02  0.10380923922E-01  0.24058042638E-01  0.00000000000E+00 0.  1.
     999901    1    3    3    0    0 -0.62856186691E-01 -0.28100347726E-01  0.86072681856E-01  0.88687599827E+00  0.88000000000E+00 0.  1.
        -11    1    4    4    0    0  0.66103753182E-01  0.32588639697E-01 -0.72784120587E-01  0.10358337199E+00  0.51100000000E-03 0.  1.
         11    1    4    4    0    0  0.17252027873E-01  0.26385912904E-02 -0.23669485192E-01  0.29412587101E-01  0.51100000000E-03 0. -1.
</event>
<event>
 8    1  0.1208168E+005  0.1043930E+01  0.7957747E-01            NaN
         13   -1    0    0    0    0  0.00000000000E+00  0.00000000000E+00  0.74505805969E-08  0.10566000000E+00  0.10566000000E+00 0.  1.
     999900   -1    0    0    0    0 -0.00000000000E+00 -0.00000000000E+00 -0.74505805969E-08  0.93827000000E+00  0.93827000000E+00 0. -1.
     999902    2    1    2    0    0 -0.16853628437E-01 -0.76383650514E-02  0.14365579983E-01  0.10205043879E+01  0.10202354858E+01 0.  0.
     999903    2    3    3    0    0  0.94579508309E-01  0.44815774919E-01 -0.70917275528E-01  0.12784434839E+00  0.19004746074E-01 0.  0.
         14    1    1    2    0    0  0.16853628437E-01  0.76383650514E-02 -0.14365579983E-01  0.23425612060E-01  0.00000000000E+00 0. -1.
     999901    1    3    3    0    0 -0.11143313675E+00 -0.52454139970E-01  0.85282855511E-01  0.89266003955E+00  0.88000000000E+00 0.  1.
        -11    1    4    4    0    0  0.19944238345E-01  0.60561061409E-02 -0.62837805905E-02  0.21776043816E-01  0.51100000000E-03 0. -1.
         11    1    4    4    0    0  0.74635269964E-01  0.38759668778E-01 -0.64633494938E-01  0.10606830457E+00  0.51100000000E-03 0.  1.
</event>
<event>
 8    1  0.1208168E+005  0.1043930E+01  0.7957747E-01            NaN
         13   -1    0    0    0    0  0.00000000000E+00  0.00000000000E+00  0.74505805969E-08  0.10566000000E+00  0.10566000000E+00 0.  1.
     999900   -1    0    0    0    0 -0.00000000000E+00 -0.00000000000E+00 -0.74505805969E-08  0.93827000000E+00  0.93827000000E+00 0. -1.
     999902    2    1    2    0    0  0.11628377724E-01  0.15196864640E-01 -0.12249134498E-01  0.10212098512E+01  0.10209570780E+01 0.  0.
     999903    2    3    3    0    0 -0.24324286732E-01 -0.10659879766E-01 -0.12882408133E+00  0.13241804011E+00  0.15283633529E-01 0.  0.
         14    1    1    2    0    0 -0.11628377724E-01 -0.15196864640E-01  0.12249134498E-01  0.22720148752E-01  0.00000000000E+00 0. -1.
     999901    1    3    3    0    0  0.35952664456E-01  0.25856744405E-01  0.11657494684E+00  0.88879181114E+00  0.88000000000E+00 0.  1.
        -11    1    4    4    0    0 -0.23598440541E-01 -0.12603955775E-01 -0.10010610250E+00  0.10362064937E+00  0.51100000000E-03 0.  1.
         11    1    4    4    0    0 -0.72584619100E-03  0.19440760094E-02 -0.28717978830E-01  0.28797390738E-01  0.51100000000E-03 0. -1.
</event>
<event>
 8    1  0.1208168E+005  0.1043930E+01  0.7957747E-01            NaN
         13   -1    0    0    0    0  0.00000000000E+00  0.00000000000E+00  0.74505805969E-08  0.10566000000E+00  0.10566000000E+00 0. -1.
     999900   -1    0    0    0    0 -0.00000000000E+00 -0.00000000000E+00 -0.74505805969E-08  0.93827000000E+00  0.93827000000E+00 0. -1.
     999902    2    1    2    0    0  0.16380802853E-01  0.88899888282E-02 -0.14927323420E-01  0.10200513990E+01  0.10197718710E+01 0.  0.
     999903    2    3    3    0    0 -0.78516206359E-01 -0.95531059770E-01 -0.28326490724E-01  0.12871042299E+00  0.21748675075E-01 0.  0.
         14    1    1    2    0    0 -0.16380802853E-01 -0.88899888282E-02  0.14927323420E-01  0.23878601047E-01  0.00000000000E+00 0. -1.
     999901    1    3    3    0    0  0.94897009212E-01  0.10442104860E+00  0.13399167304E-01  0.89134097596E+00  0.88000000000E+00 0.  1.
        -11    1    4    4    0    0 -0.31923833188E-01 -0.45765910215E-01 -0.22907996868E-01  0.60321531021E-01  0.51100000000E-03 0.  1.
         11    1    4    4    0    0 -0.46592373171E-01 -0.49765149555E-01 -0.54184938560E-02  0.68388891968E-01  0.51100000000E-03 0. -1.
</event>
<event>
 8    1  0.1208168E+005  0.1043930E+01  0.7957747E-01            NaN
         13   -1    0    0    0    0  0.00000000000E+00  0.00000000000E+00  0.74505805969E-08  0.10566000000E+00  0.10566000000E+00 0.  1.
     999900   -1    0    0    0    0 -0.00000000000E+00 -0.00000000000E+00 -0.74505805969E-08  0.93827000000E+00  0.93827000000E+00 0.  1.
     999902    2    1    2    0    0  0.21038243196E-01  0.50241067488E-02  0.60673880093E-02  0.10214653050E+01  0.10212182464E+01 0.  0.
     999903    2    3    3    0    0  0.10740596388E+00  0.76637243029E-01  0.13493511359E-01  0.13431088111E+00  0.21166715391E-01 0.  0.
         14    1    1    2    0    0 -0.21038243196E-01 -0.50241067488E-02 -0.60673880093E-02  0.22464695027E-01  0.00000000000E+00 0.  1.
     999901    1    3    3    0    0 -0.86367720686E-01 -0.71613136280E-01 -0.74261233498E-02  0.88715442386E+00  0.88000000000E+00 0. -1.
        -11    1    4    4    0    0  0.24440886135E-01  0.15953480732E-01  0.11855393708E-01  0.31506855500E-01  0.51100000000E-03 0.  1.
         11    1    4    4    0    0  0.82965077747E-01  0.60683762297E-01  0.16381176511E-02  0.10280402561E+00  0.51100000000E-03 0. -1.
</event>
<event>
 8    1  0.1208168E+005  0.1043930E+01  0.7957747E-01            NaN
         13   -1    0    0    0    0  0.00000000000E+00  0.00000000000E+00  0.74505805969E-08  0.10566000000E+00  0.10566000000E+00 0. -1.
     999900   -1    0    0    0    0 -0.00000000000E+00 -0.00000000000E+00 -0.74505805969E-08  0.93827000000E+00  0.93827000000E+00 0.  1.
     999902    2    1    2    0    0  0.13826982940E-01  0.14599151439E-01 -0.18895498723E-01  0.10163372373E+01  0.10159626073E+01 0.  0.
     999903    2    3    3    0    0 -0.89565739517E-01  0.80836623232E-01  0.33237351109E-01  0.12628370424E+00  0.16919547785E-01 0.  0.
         14    1    1    2    0    0 -0.13826982940E-01 -0.14599151439E-01  0.18895498723E-01  0.27592762673E-01  0.00000000000E+00 0.  1.
     999901    1    3    3    0    0  0.10339272246E+00 -0.66237471793E-01 -0.52132849832E-01  0.89005353309E+00  0.88000000000E+00 0.  1.
        -11    1    4    4    0    0 -0.41749168913E-01  0.38203661493E-01  0.68822307334E-02  0.57009991030E-01  0.51100000000E-03 0. -1.
         11    1    4    4    0    0 -0.47816570605E-01  0.42632961739E-01  0.26355120375E-01  0.69273713211E-01  0.51100000000E-03 0.  1.
</event>
<event>
 8    1  0.1208168E+005  0.1043930E+01  0.7957747E-01            NaN
         13   -1    0    0    0    0  0.00000000000E+00  0.00000000000E+00  0.74505805969E-08  0.10566000000E+00  0.10566000000E+00 0. -1.
     999900   -1    0    0    0    0 -0.00000000000E+00 -0.00000000000E+00 -0.74505805969E-08  0.93827000000E+00  0.93827000000E+00 0. -1.
     999902    2    1    2    0    0  0.19840148041E-02  0.21836196324E-01 -0.86394856112E-02  0.10203631484E+01  0.10200909558E+01 0.  0.
     999903    2    3    3    0    0 -0.13302427808E-02 -0.37153560348E-01 -0.12416644839E+00  0.13084796871E+00  0.17936761595E-01 0.  0.
         14    1    1    2    0    0 -0.19840148041E-02 -0.21836196324E-01  0.86394856112E-02  0.23566851641E-01  0.00000000000E+00 0. -1.
     999901    1    3    3    0    0  0.33142575848E-02  0.58989756672E-01  0.11552696278E+00  0.88951517965E+00  0.88000000000E+00 0.  1.
        -11    1    4    4    0    0  0.69103244857E-02 -0.27909373008E-01 -0.81909156457E-01  0.86810464338E-01  0.51100000000E-03 0.  1.
         11    1    4    4    0    0 -0.82405672664E-02 -0.92441873398E-02 -0.42257291937E-01  0.44037504372E-01  0.51100000000E-03 0. -1.
</event>
<event>
 8    1  0.1208168E+005  0.1043930E+01  0.7957747E-01            NaN
         13   -1    0    0    0    0  0.00000000000E+00  0.00000000000E+00  0.74505805969E-08  0.10566000000E+00  0.10566000000E+00 0. -1.
     999900   -1    0    0    0    0 -0.00000000000E+00 -0.00000000000E+00 -0.74505805969E-08  0.93827000000E+00  0.93827000000E+00 0.  1.
     999902    2    1    2    0    0  0.11466907287E-01  0.15609189701E-01 -0.15908435099E-01  0.10188657810E+01  0.10185574430E+01 0.  0.
     999903    2    3    3    0    0 -0.78838684388E-01 -0.95164188165E-01 -0.23206630841E-01  0.12730585326E+00  0.19911596946E-01 0.  0.
         14    1    1    2    0    0 -0.11466907287E-01 -0.15609189701E-01  0.15908435099E-01  0.25064218981E-01  0.00000000000E+00 0. -1.
     999901    1    3    3    0    0  0.90305591675E-01  0.11077337787E+00  0.72981957423E-02  0.89155992776E+00  0.88000000000E+00 0. -1.
        -11    1    4    4    0    0 -0.11888584605E-01 -0.14998047716E-01 -0.11175175064E-01  0.22168119855E-01  0.51100000000E-03 0.  1.
         11    1    4    4    0    0 -0.66950099783E-01 -0.80166140450E-01 -0.12031455778E-01  0.10513773340E+00  0.51100000000E-03 0. -1.
</event>
<event>
 8    1  0.1208168E+005  0.1043930E+01  0.7957747E-01            NaN
         13   -1    0    0    0    0  0.00000000000E+00  0.00000000000E+00  0.74505805969E-08  0.10566000000E+00  0.10566000000E+00 0. -1.
     999900   -1    0    0    0    0 -0.00000000000E+00 -0.00000000000E+00 -0.74505805969E-08  0.93827000000E+00  0.93827000000E+00 0. -1.
     999902    2    1    2    0    0  0.30820951677E-01  0.17509373431E-01 -0.94038074945E-02  0.10072565653E+01  0.10065887181E+01 0.  0.
     999903    2    3    3    0    0  0.95857173527E-01  0.39474166248E-01 -0.62598032367E-01  0.12298184107E+00  0.21429233772E-01 0.  0.
         14    1    1    2    0    0 -0.30820951677E-01 -0.17509373431E-01  0.94038074945E-02  0.36673434740E-01  0.00000000000E+00 0. -1.
     999901    1    3    3    0    0 -0.65036221850E-01 -0.21964792817E-01  0.53194224873E-01  0.88427472419E+00  0.88000000000E+00 0.  1.
        -11    1    4    4    0    0  0.40923531694E-01  0.61398210967E-02 -0.28377476306E-01  0.50179429370E-01  0.51100000000E-03 0.  1.
         11    1    4    4    0    0  0.54933641833E-01  0.33334345152E-01 -0.34220556062E-01  0.72802411704E-01  0.51100000000E-03 0. -1.
</event>
<event>
 8    1  0.1208168E+005  0.1043930E+01  0.7957747E-01            NaN
         13   -1    0    0    0    0  0.00000000000E+00  0.00000000000E+00  0.74505805969E-08  0.10566000000E+00  0.10566000000E+00 0.  1.
     999900   -1    0    0    0    0 -0.00000000000E+00 -0.00000000000E+00 -0.74505805969E-08  0.93827000000E+00  0.93827000000E+00 0.  1.
     999902    2    1    2    0    0 -0.27495115110E-02  0.57635136492E-02  0.22998284729E-01  0.10200616317E+01  0.10197823462E+01 0.  0.
     999903    2    3    3    0    0 -0.11338031981E+00 -0.68924944156E-02 -0.58533281663E-01  0.12930535384E+00  0.19776907523E-01 0.  0.
         14    1    1    2    0    0  0.27495115110E-02 -0.57635136492E-02 -0.22998284729E-01  0.23868368265E-01  0.00000000000E+00 0. -1.
     999901    1    3    3    0    0  0.11063080830E+00  0.12656008065E-01  0.81531566392E-01  0.89075627789E+00  0.88000000000E+00 0. -1.
        -11    1    4    4    0    0 -0.91308382590E-01 -0.63911565461E-02 -0.37856002224E-01  0.99052539789E-01  0.51100000000E-03 0.  1.
         11    1    4    4    0    0 -0.22071937219E-01 -0.50133786955E-03 -0.20677279439E-01  0.30252814055E-01  0.51100000000E-03 0. -1.
</event>
<event>
 8    1  0.1208168E+005  0.1043930E+01  0.7957747E-01            NaN
         13   -1    0    0    0    0  0.00000000000E+00  0.00000000000E+00  0.74505805969E-08  0.10566000000E+00  0.10566000000E+00 0.  1.
     999900   -1    0    0    0    0 -0.00000000000E+00 -0.00000000000E+00 -0.74505805969E-08  0.93827000000E+00  0.93827000000E+00 0. -1.
     999902    2    1    2    0    0 -0.75637271554E-02 -0.15990837762E-01 -0.16138613813E-01  0.10199848185E+01  0.10197037110E+01 0.  0.
     999903    2    3    3    0    0  0.17486953580E-01  0.11279783853E+00 -0.56647290325E-01  0.12933617139E+00  0.22131059757E-01 0.  0.
         14    1    1    2    0    0  0.75637271554E-02  0.15990837762E-01  0.16138613813E-01  0.23945181491E-01  0.00000000000E+00 0. -1.
     999901    1    3    3    0    0 -0.25050680736E-01 -0.12878867629E+00  0.40508676511E-01  0.89064864712E+00  0.88000000000E+00 0.  1.
        -11    1    4    4    0    0  0.20124556934E-01  0.10997604657E+00 -0.52096098013E-01  0.12334501676E+00  0.51100000000E-03 0.  1.
         11    1    4    4    0    0 -0.26376033533E-02  0.28217919612E-02 -0.45511923112E-02  0.59911546279E-02  0.51100000000E-03 0. -1.
</event>
<event>
 8    1  0.1208168E+005  0.1043930E+01  0.7957747E-01            NaN
         13   -1    0    0    0    0  0.00000000000E+00  0.00000000000E+00  0.74505805969E-08  0.10566000000E+00  0.10566000000E+00 0.  1.
     999900   -1    0    0    0    0 -0.00000000000E+00 -0.00000000000E+00 -0.74505805969E-08  0.93827000000E+00  0.93827000000E+00 0.  1.
     999902    2    1    2    0    0 -0.10277845549E-01  0.21777422436E-04  0.11922772813E-01  0.10281887454E+01  0.10280682415E+01 0.  0.
     999903    2    3    3    0    0  0.11041738961E+00 -0.21848579026E-01  0.76151322750E-01  0.13736274734E+00  0.20003501338E-01 0.  0.
         14    1    1    2    0    0  0.10277845549E-01 -0.21777422436E-04 -0.11922772813E-01  0.15741254554E-01  0.00000000000E+00 0. -1.
     999901    1    3    3    0    0 -0.12069523516E+00  0.21870356448E-01 -0.64228549936E-01  0.89082599811E+00  0.88000000000E+00 0.  1.
        -11    1    4    4    0    0  0.97647276258E-01 -0.22523599065E-01  0.73540211757E-01  0.12430095310E+00  0.51100000000E-03 0.  1.
         11    1    4    4    0    0  0.12770113351E-01  0.67502003851E-03  0.26111109926E-02  0.13061794236E-01  0.51100000000E-03 0. -1.
</event>
<event>
 8    1  0.1208168E+005  0.1043930E+01  0.7957747E-01            NaN
         13   -1    0    0    0    0  0.00000000000E+00  0.00000000000E+00  0.74505805969E-08  0.10566000000E+00  0.10566000000E+00 0. -1.
     999900   -1    0    0    0    0 -0.00000000000E+00 -0.00000000000E+00 -0.74505805969E-08  0.93827000000E+00  0.93827000000E+00 0.  1.
     999902    2    1    2    0    0  0.20350870036E-01  0.63928476057E-02 -0.77743925424E-02  0.10212260886E+01  0.10209736806E+01 0.  0.
     999903    2    3    3    0    0  0.75574850938E-01 -0.10349344876E+00  0.24457859042E-01  0.13208965128E+00  0.20664875419E-01 0.  0.
         14    1    1    2    0    0 -0.20350870036E-01 -0.63928476057E-02  0.77743925424E-02  0.22703911362E-01  0.00000000000E+00 0.  1.
     999901    1    3    3    0    0 -0.55223980902E-01  0.10988629636E+00 -0.32232251584E-01  0.88913643736E+00  0.88000000000E+00 0.  1.
        -11    1    4    4    0    0  0.69106706762E-01 -0.81424068807E-01  0.20513984156E-01  0.10875063479E+00  0.51100000000E-03 0. -1.
         11    1    4    4    0    0  0.64681441755E-02 -0.22069379952E-01  0.39438748857E-02  0.23339016488E-01  0.51100000000E-03 0.  1.
</event>
<event>
 8    1  0.1208168E+005  0.1043930E+01  0.7957747E-01            NaN
         13   -1    0    0    0    0  0.00000000000E+00  0.00000000000E+00  0.74505805969E-08  0.10566000000E+00  0.10566000000E+00 0. -1.
     999900   -1    0    0    0    0 -0.00000000000E+00 -0.00000000000E+00 -0.74505805969E-08  0.93827000000E+00  0.93827000000E+00 0. -1.
     999902    2    1    2    0    0  0.19255131708E-01  0.18236555502E-02 -0.13048453610E-01  0.10205987343E+01  0.10203320188E+01 0.  0.
     999903    2    3    3    0    0  0.50625717772E-01  0.10066421792E+00 -0.66618938779E-01  0.13289193175E+00  0.22933260803E-01 0.  0.
         14    1    1    2    0    0 -0.19255131708E-01 -0.18236555502E-02  0.13048453610E-01  0.23331265681E-01  0.00000000000E+00 0. -1.
     999901    1    3    3    0    0 -0.31370586064E-01 -0.98840562373E-01  0.53570485169E-01  0.88770680257E+00  0.88000000000E+00 0.  1.
        -11    1    4    4    0    0  0.19893804908E-01  0.63662810286E-01 -0.34970859798E-01  0.75312276842E-01  0.51100000000E-03 0.  1.
         11    1    4    4    0    0  0.30731912865E-01  0.37001407637E-01 -0.31648078981E-01  0.57579654911E-01  0.51100000000E-03 0. -1.
</event>
<event>
 8    1  0.1208168E+005  0.1043930E+01  0.7957747E-01            NaN
         13   -1    0    0    0    0  0.00000000000E+00  0.00000000000E+00  0.74505805969E-08  0.10566000000E+00  0.10566000000E+00 0.  1.
     999900   -1    0    0    0    0 -0.00000000000E+00 -0.00000000000E+00 -0.74505805969E-08  0.93827000000E+00  0.93827000000E+00 0. -1.
     999902    2    1    2    0    0  0.19055686842E-01 -0.95432244171E-02 -0.11697241339E-01  0.10196191426E+01  0.10193292786E+01 0.  0.
     999903    2    3    3    0    0 -0.51903932398E-01 -0.45480894587E-01  0.10616695267E+00  0.12820523652E+00  0.20065663721E-01 0.  0.
         14    1    1    2    0    0 -0.19055686842E-01  0.95432244171E-02  0.11697241339E-01  0.24310857415E-01  0.00000000000E+00 0.  1.
     999901    1    3    3    0    0  0.70959619240E-01  0.35937670170E-01 -0.11786419401E+00  0.89141390607E+00  0.88000000000E+00 0. -1.
        -11    1    4    4    0    0 -0.36740160817E-01 -0.39621418463E-01  0.69044593267E-01  0.87676183757E-01  0.51100000000E-03 0.  1.
         11    1    4    4    0    0 -0.15163771581E-01 -0.58594761244E-02  0.37122359404E-01  0.40529052761E-01  0.51100000000E-03 0. -1.
</event>
<event>
 8    1  0.1208168E+005  0.1043930E+01  0.7957747E-01            NaN
         13   -1    0    0    0    0  0.00000000000E+00  0.00000000000E+00  0.74505805969E-08  0.10566000000E+00  0.10566000000E+00 0. -1.
     999900   -1    0    0    0    0 -0.00000000000E+00 -0.00000000000E+00 -0.74505805969E-08  0.93827000000E+00  0.93827000000E+00 0. -1.
     999902    2    1    2    0    0 -0.46721248740E-02 -0.24091184127E-01  0.11752303737E-02  0.10193618281E+01  0.10190657199E+01 0.  0.
     999903    2    3    3    0    0 -0.12441948292E+00  0.10431191725E-01  0.29947221166E-01  0.13011548899E+00  0.21075742628E-01 0.  0.
         14    1    1    2    0    0  0.46721248740E-02  0.24091184127E-01 -0.11752303737E-02  0.24568171887E-01  0.00000000000E+00 0.  1.
     999901    1    3    3    0    0  0.11974735805E+00 -0.34522375851E-01 -0.28771990792E-01  0.88924633913E+00  0.88000000000E+00 0. -1.
        -11    1    4    4    0    0 -0.89506248886E-01  0.16730306356E-01  0.19414831763E-01  0.93104610809E-01  0.51100000000E-03 0.  1.
         11    1    4    4    0    0 -0.34913234036E-01 -0.62991146315E-02  0.10532389403E-01  0.37010878178E-01  0.51100000000E-03 0. -1.
</event>
<event>
 8    1  0.1208168E+005  0.1043930E+01  0.7957747E-01            NaN
         13   -1    0    0    0    0  0.00000000000E+00  0.00000000000E+00  0.74505805969E-08  0.10566000000E+00  0.10566000000E+00 0.  1.
     999900   -1    0    0    0    0 -0.00000000000E+00 -0.00000000000E+00 -0.74505805969E-08  0.93827000000E+00  0.93827000000E+00 0.  1.
     999902    2    1    2    0    0  0.49834206795E-02  0.86425213014E-02 -0.20957917696E-01  0.10207187534E+01  0.10204548062E+01 0.  0.
     999903    2    3    3    0    0  0.83762878284E-01  0.98452574911E-01 -0.21401703758E-01  0.13264654593E+00  0.20686805915E-01 0.  0.
         14    1    1    2    0    0 -0.49834206795E-02 -0.86425213014E-02  0.20957917696E-01  0.23211246634E-01  0.00000000000E+00 0.  1.
     999901    1    3    3    0    0 -0.78779457605E-01 -0.89810053610E-01  0.44378606130E-03  0.88807220743E+00  0.88000000000E+00 0.  1.
        -11    1    4    4    0    0  0.48847596229E-01  0.42872667638E-01 -0.63575213879E-02  0.65305684951E-01  0.51100000000E-03 0. -1.
         11    1    4    4    0    0  0.34915282055E-01  0.55579907274E-01 -0.15044182370E-01  0.67340860982E-01  0.51100000000E-03 0.  1.
</event>
<event>
 8    1  0.1208168E+005  0.1043930E+01  0.7957747E-01            NaN
         13   -1    0    0    0    0  0.00000000000E+00  0.00000000000E+00  0.74505805969E-08  0.10566000000E+00  0.10566000000E+00 0.  1.
     999900   -1    0    0    0    0 -0.00000000000E+00 -0.00000000000E+00 -0.74505805969E-08  0.93827000000E+00  0.93827000000E+00 0.  1.
     999902    2    1    2    0    0 -0.11240178663E-01  0.11189466666E-01 -0.18532516689E-01  0.10195373791E+01  0.10192455383E+01 0.  0.
     999903    2    3    3    0    0 -0.32613544404E-01 -0.67629718997E-01  0.10150518063E+00  0.12764145826E+00  0.18751479988E-01 0.  0.
         14    1    1    2    0    0  0.11240178663E-01 -0.11189466666E-01  0.18532516689E-01  0.24392620923E-01  0.00000000000E+00 0. -1.
     999901    1    3    3    0    0  0.21373365741E-01  0.78819185663E-01 -0.12003769732E+00  0.89189592082E+00  0.88000000000E+00 0.  1.
        -11    1    4    4    0    0 -0.12864041793E-01 -0.38951442129E-01  0.67367030296E-01  0.78875067715E-01  0.51100000000E-03 0.  1.
         11    1    4    4    0    0 -0.19749502612E-01 -0.28678276869E-01  0.34138150335E-01  0.48766390545E-01  0.51100000000E-03 0. -1.
</event>
<event>
 8    1  0.1208168E+005  0.1043930E+01  0.7957747E-01            NaN
         13   -1    0    0    0    0  0.00000000000E+00  0.00000000000E+00  0.74505805969E-08  0.10566000000E+00  0.10566000000E+00 0.  1.
     999900   -1    0    0    0    0 -0.00000000000E+00 -0.00000000000E+00 -0.74505805969E-08  0.93827000000E+00  0.93827000000E+00 0. -1.
     999902    2    1    2    0    0 -0.92907118023E-02  0.10489963835E-01  0.19248901199E-01  0.10201208239E+01  0.10198429382E+01 0.  0.
     999903    2    3    3    0    0  0.12126688354E+00  0.36709406965E-01  0.21790205484E-01  0.13009879999E+00  0.19941090739E-01 0.  0.
         14    1    1    2    0    0  0.92907118023E-02 -0.10489963835E-01 -0.19248901199E-01  0.23809176055E-01  0.00000000000E+00 0. -1.
     999901    1    3    3    0    0 -0.13055759534E+00 -0.26219443129E-01 -0.25413042856E-02  0.89002202396E+00  0.88000000000E+00 0. -1.
        -11    1    4    4    0    0  0.10315278955E+00  0.33659760554E-01  0.11703051145E-01  0.10913615349E+00  0.51100000000E-03 0.  1.
         11    1    4    4    0    0  0.18114093992E-01  0.30496464106E-02  0.10087154339E-01  0.20962646494E-01  0.51100000000E-03 0. -1.
</event>
<event>
 8    1  0.1208168E+005  0.1043930E+01  0.7957747E-01            NaN
         13   -1    0    0    0    0  0.00000000000E+00  0.00000000000E+00  0.74505805969E-08  0.10566000000E+00  0.10566000000E+00 0.  1.
     999900   -1    0    0    0    0 -0.00000000000E+00 -0.00000000000E+00 -0.74505805969E-08  0.93827000000E+00  0.93827000000E+00 0. -1.
     999902    2    1    2    0    0  0.10276234333E-01  0.14337085320E-01  0.12247633818E-01  0.10224554210E+01  0.10222298814E+01 0.  0.
     999903    2    3    3    0    0  0.40887351835E-01 -0.44573982090E-01 -0.11468504630E+00  0.13087286195E+00  0.17788500012E-01 0.  0.
         14    1    1    2    0    0 -0.10276234333E-01 -0.14337085320E-01 -0.12247633818E-01  0.21474578964E-01  0.00000000000E+00 0. -1.
     999901    1    3    3    0    0 -0.30611117502E-01  0.58911067410E-01  0.12693268011E+00  0.89158255908E+00  0.88000000000E+00 0.  1.
        -11    1    4    4    0    0  0.86596027997E-02 -0.10676680071E-01 -0.12918778685E-01  0.18871570727E-01  0.51100000000E-03 0.  1.
         11    1    4    4    0    0  0.32227749035E-01 -0.33897302019E-01 -0.10176626761E+00  0.11200129123E+00  0.51100000000E-03 0. -1.
</event>
<event>
 8    1  0.1208168E+005  0.1043930E+01  0.7957747E-01            NaN
         13   -1    0    0    0    0  0.00000000000E+00  0.00000000000E+00  0.74505805969E-08  0.10566000000E+00  0.10566000000E+00 0. -1.
     999900   -1    0    0    0    0 -0.00000000000E+00 -0.00000000000E+00 -0.74505805969E-08  0.93827000000E+00  0.93827000000E+00 0.  1.
     999902    2    1    2    0    0 -0.87408077398E-02  0.31567821071E-02  0.21708003899E-01  0.10203163508E+01  0.10200430635E+01 0.  0.
     999903    2    3    3    0    0  0.42811543508E-01 -0.10390066163E+00  0.65016728412E-01  0.13127496441E+00  0.19436192054E-01 0.  0.
         14    1    1    2    0    0  0.87408077398E-02 -0.31567821071E-02 -0.21708003899E-01  0.23613649156E-01  0.00000000000E+00 0.  1.
     999901    1    3    3    0    0 -0.51552351248E-01  0.10705744374E+00 -0.43308724513E-01  0.88904138644E+00  0.88000000000E+00 0.  1.
        -11    1    4    4    0    0  0.14470643556E-01 -0.60077191312E-01  0.37266896317E-01  0.72164749864E-01  0.51100000000E-03 0.  1.
         11    1    4    4    0    0  0.28340899952E-01 -0.43823470319E-01  0.27749832096E-01  0.59110214542E-01  0.51100000000E-03 0. -1.
</event>
<event>
 8    1  0.1208168E+005  0.1043930E+01  0.7957747E-01            NaN
         13   -1    0    0    0    0  0.00000000000E+00  0.00000000000E+00  0.74505805969E-08  0.10566000000E+00  0.10566000000E+00 0.  1.
     999900   -1    0    0    0    0 -0.00000000000E+00 -0.00000000000E+00 -0.74505805969E-08  0.93827000000E+00  0.93827000000E+00 0.  1.
     999902    2    1    2    0    0  0.13553823245E-01 -0.16899134949E-01  0.11171903701E-01  0.10195558678E+01  0.10192644747E+01 0.  0.
     999903    2    3    3    0    0  0.79213624129E-01 -0.84405890706E-01 -0.55014780489E-01  0.13205992492E+00  0.31844074238E-01 0.  0.
         14    1    1    2    0    0 -0.13553823245E-01  0.16899134949E-01 -0.11171903701E-01  0.24374132167E-01  0.00000000000E+00 0. -1.
     999901    1    3    3    0    0 -0.65659800884E-01  0.67506755756E-01  0.66186684190E-01  0.88749594291E+00  0.88000000000E+00 0. -1.
        -11    1    4    4    0    0  0.38918580720E-01 -0.19224254788E-01 -0.19021642789E-01  0.47395273106E-01  0.51100000000E-03 0.  1.
         11    1    4    4    0    0  0.40295043409E-01 -0.65181635917E-01 -0.35993137699E-01  0.84664651813E-01  0.51100000000E-03 0. -1.
</event>
<event>
 8    1  0.1208168E+005  0.1043930E+01  0.7957747E-01            NaN
         13   -1    0    0    0    0  0.00000000000E+00  0.00000000000E+00  0.74505805969E-08  0.10566000000E+00  0.10566000000E+00 0.  1.
     999900   -1    0    0    0    0 -0.00000000000E+00 -0.00000000000E+00 -0.74505805969E-08  0.93827000000E+00  0.93827000000E+00 0. -1.
     999902    2    1    2    0    0 -0.67824246902E-02  0.20785005562E-01  0.91236690543E-02  0.10202390929E+01  0.10199639933E+01 0.  0.
     999903    2    3    3    0    0 -0.58532197069E-01  0.48568686064E-01 -0.10470317317E+00  0.13096606295E+00  0.20110191760E-01 0.  0.
         14    1    1    2    0    0  0.67824246902E-02 -0.20785005562E-01 -0.91236690543E-02  0.23690907072E-01  0.00000000000E+00 0. -1.
     999901    1    3    3    0    0  0.51749772379E-01 -0.27783680502E-01  0.11382684222E+00  0.88927302998E+00  0.88000000000E+00 0.  1.
        -11    1    4    4    0    0 -0.98774128265E-02 -0.44927697007E-04 -0.12983227222E-01  0.16321477040E-01  0.51100000000E-03 0. -1.
         11    1    4    4    0    0 -0.48654784242E-01  0.48613613761E-01 -0.91719945944E-01  0.11464458591E+00  0.51100000000E-03 0.  1.
</event>
<event>
 8    1  0.1208168E+005  0.1043930E+01  0.7957747E-01            NaN
         13   -1    0    0    0    0  0.00000000000E+00  0.00000000000E+00  0.74505805969E-08  0.10566000000E+00  0.10566000000E+00 0. -1.
     999900   -1    0    0    0    0 -0.00000000000E+00 -0.00000000000E+00 -0.74505805969E-08  0.93827000000E+00  0.93827000000E+00 0.  1.
     999902    2    1    2    0    0 -0.17815635110E-01  0.25324764636E-02  0.14897931468E-01  0.10205685220E+01  0.10203011073E+01 0.  0.
     999903    2    3    3    0    0 -0.82798033431E-01 -0.46992645902E-01 -0.87579881626E-01  0.13086230533E+00  0.19770791137E-01 0.  0.
         14    1    1    2    0    0  0.17815635110E-01 -0.25324764636E-02 -0.14897931468E-01  0.23361477980E-01  0.00000000000E+00 0.  1.
     999901    1    3    3    0    0  0.64982398321E-01  0.49525122365E-01  0.10247781309E+00  0.88970621669E+00  0.88000000000E+00 0. -1.
        -11    1    4    4    0    0 -0.19856892583E-01 -0.19984485358E-01 -0.32151097005E-01  0.42750789440E-01  0.51100000000E-03 0. -1.
         11    1    4    4    0    0 -0.62941140848E-01 -0.27008160544E-01 -0.55428784621E-01  0.88111515892E-01  0.51100000000E-03 0.  1.
</event>
<event>
 8    1  0.1208168E+005  0.1043930E+01  0.7957747E-01            NaN
         13   -1    0    0    0    0  0.00000000000E+00  0.00000000000E+00  0.74505805969E-08  0.10566000000E+00  0.10566000000E+00 0.  1.
     999900   -1    0    0    0    0 -0.00000000000E+00 -0.00000000000E+00 -0.74505805969E-08  0.93827000000E+00  0.93827000000E+00 0. -1.
     999902    2    1    2    0    0  0.52800877712E-02  0.20695635345E-01 -0.11039162378E-01  0.10198872931E+01  0.10196038637E+01 0.  0.
     999903    2    3    3    0    0 -0.50161977476E-01  0.73208329796E-01 -0.96541012699E-01  0.13245167736E+00  0.18643931073E-01 0.  0.
         14    1    1    2    0    0 -0.52800877712E-02 -0.20695635345E-01  0.11039162378E-01  0.24042706903E-01  0.00000000000E+00 0.  1.
     999901    1    3    3    0    0  0.55442065247E-01 -0.52512694450E-01  0.85501850321E-01  0.88743561574E+00  0.88000000000E+00 0.  1.
        -11    1    4    4    0    0 -0.71742372241E-02  0.25344115215E-01 -0.28306596019E-01  0.38669346451E-01  0.51100000000E-03 0. -1.
         11    1    4    4    0    0 -0.42987740252E-01  0.47864214581E-01 -0.68234416679E-01  0.93782330905E-01  0.51100000000E-03 0.  1.
</event>
<event>
 8    1  0.1208168E+005  0.1043930E+01  0.7957747E-01            NaN
         13   -1    0    0    0    0  0.00000000000E+00  0.00000000000E+00  0.74505805969E-08  0.10566000000E+00  0.10566000000E+00 0.  1.
     999900   -1    0    0    0    0 -0.00000000000E+00 -0.00000000000E+00 -0.74505805969E-08  0.93827000000E+00  0.93827000000E+00 0.  1.
     999902    2    1    2    0    0  0.10894501376E-01 -0.16188550059E-01 -0.30692043759E-01  0.10075602205E+01  0.10069035887E+01 0.  0.
     999903    2    3    3    0    0  0.15037911699E-02 -0.36182747027E-01  0.10866688988E+00  0.11632014858E+00  0.20259107568E-01 0.  0.
         14    1    1    2    0    0 -0.10894501376E-01  0.16188550059E-01  0.30692043759E-01  0.36369779533E-01  0.00000000000E+00 0.  1.
     999901    1    3    3    0    0  0.93907102063E-02  0.19994196969E-01 -0.13935893364E+00  0.89124007189E+00  0.88000000000E+00 0.  1.
        -11    1    4    4    0    0 -0.30954133224E-02 -0.14066659701E-01  0.18985495556E-01  0.23836162889E-01  0.51100000000E-03 0.  1.
         11    1    4    4    0    0  0.45992044923E-02 -0.22116087327E-01  0.89681394324E-01  0.92483985692E-01  0.51100000000E-03 0. -1.
</event>
<event>
 8    1  0.1208168E+005  0.1043930E+01  0.7957747E-01            NaN
         13   -1    0    0    0    0  0.00000000000E+00  0.00000000000E+00  0.74505805969E-08  0.10566000000E+00  0.10566000000E+00 0. -1.
     999900   -1    0    0    0    0 -0.00000000000E+00 -0.00000000000E+00 -0.74505805969E-08  0.93827000000E+00  0.93827000000E+00 0.  1.
     999902    2    1    2    0    0 -0.18069677352E-01  0.32502738398E-02 -0.14401469925E-01  0.10205959079E+01  0.10203291269E+01 0.  0.
     999903    2    3    3    0    0  0.23153637480E-02  0.52316979057E-01 -0.12024900056E+00  0.13266190627E+00  0.19923153168E-01 0.  0.
         14    1    1    2    0    0  0.18069677352E-01 -0.32502738398E-02  0.14401469925E-01  0.23334092132E-01  0.00000000000E+00 0. -1.
     999901    1    3    3    0    0 -0.20385041100E-01 -0.49066705217E-01  0.10584753063E+00  0.88793400160E+00  0.88000000000E+00 0.  1.
        -11    1    4    4    0    0 -0.75573242160E-02  0.98866289342E-02 -0.25783957300E-01  0.28634457495E-01  0.51100000000E-03 0. -1.
         11    1    4    4    0    0  0.98726879640E-02  0.42430350123E-01 -0.94465043257E-01  0.10402744877E+00  0.51100000000E-03 0.  1.
</event>
<event>
 8    1  0.1208168E+005  0.1043930E+01  0.7957747E-01            NaN
         13   -1    0    0    0    0  0.00000000000E+00  0.00000000000E+00  0.74505805969E-08  0.10566000000E+00  0.10566000000E+00 0.  1.
     999900   -1    0    0    0    0 -0.00000000000E+00 -0.00000000000E+00 -0.74505805969E-08  0.93827000000E+00  0.93827000000E+00 0.  1.
     999902    2    1    2    0    0 -0.61174313744E-02 -0.84283726490E-02  0.20897877600E-01  0.10205808732E+01  0.10203137444E+01 0.  0.
     999903    2    3    3    0    0 -0.92499261967E-01  0.81114159452E-01 -0.37006358622E-01  0.12994481610E+00  0.19508057939E-01 0.  0.
         14    1    1    2    0    0  0.61174313744E-02  0.84283726490E-02 -0.20897877600E-01  0.23349126757E-01  0.00000000000E+00 0. -1.
     999901    1    3    3    0    0  0.86381830593E-01 -0.89542532101E-01  0.57904236222E-01  0.89063605714E+00  0.88000000000E+00 0. -1.
        -11    1    4    4    0    0 -0.19623754012E-01  0.11264720412E-01 -0.13304944198E-01  0.26253919871E-01  0.51100000000E-03 0. -1.
         11    1    4    4    0    0 -0.72875507955E-01  0.69849439040E-01 -0.23701414423E-01  0.10369089623E+00  0.51100000000E-03 0.  1.
</event>
<event>
 8    1  0.1208168E+005  0.1043930E+01  0.7957747E-01            NaN
         13   -1    0    0    0    0  0.00000000000E+00  0.00000000000E+00  0.74505805969E-08  0.10566000000E+00  0.10566000000E+00 0. -1.
     999900   -1    0    0    0    0 -0.00000000000E+00 -0.00000000000E+00 -0.74505805969E-08  0.93827000000E+00  0.93827000000E+00 0.  1.
     999902    2    1    2    0    0  0.65240256566E-02  0.11625300144E-01  0.20659242128E-01  0.10193431173E+01  0.10190465524E+01 0.  0.
     999903    2    3    3    0    0  0.15735735387E-01  0.30789313516E-01 -0.12197264709E+00  0.12760550411E+00  0.14499753337E-01 0.  0.
         14    1    1    2    0    0 -0.65240256566E-02 -0.11625300144E-01 -0.20659242128E-01  0.24586882671E-01  0.00000000000E+00 0.  1.
     999901    1    3    3    0    0 -0.92117097302E-02 -0.19164013373E-01  0.14263188922E+00  0.89173761322E+00  0.88000000000E+00 0. -1.
        -11    1    4    4    0    0 -0.19644528908E-03 -0.11072142510E-02 -0.10406603256E-01  0.10479648204E-01  0.51100000000E-03 0.  1.
         11    1    4    4    0    0  0.15932180676E-01  0.31896527767E-01 -0.11156604383E+00  0.11712585591E+00  0.51100000000E-03 0. -1.
</event>
<event>
 8    1  0.1395669E+005  0.1043930E+01  0.7957747E-01            NaN
         13   -1    0    0    0    0  0.00000000000E+00  0.00000000000E+00  0.74505805969E-08  0.10566000000E+00  0.10566000000E+00 0. -1.
     999900   -1    0    0    0    0 -0.00000000000E+00 -0.00000000000E+00 -0.74505805969E-08  0.93827000000E+00  0.93827000000E+00 0.  1.
     999902    2    1    2    0    0  0.11149776802E-01 -0.17541046473E-01  0.13486879474E-01  0.10191529592E+01  0.10188517323E+01 0.  0.
     999903    2    3    3    0    0  0.94717777685E-02  0.55910966937E-01 -0.11212175790E+00  0.12720254366E+00  0.19835516663E-01 0.  0.
         14    1    1    2    0    0 -0.11149776802E-01  0.17541046473E-01 -0.13486879474E-01  0.24777040825E-01  0.00000000000E+00 0.  1.
     999901    1    3    3    0    0  0.16779990332E-02 -0.73452013410E-01  0.12560863737E+00  0.89195041552E+00  0.88000000000E+00 0. -1.
        -11    1    4    4    0    0  0.41773767975E-02  0.38738334245E-01 -0.55632396429E-01  0.67921525825E-01  0.51100000000E-03 0. -1.
         11    1    4    4    0    0  0.52944009711E-02  0.17172632691E-01 -0.56489361471E-01  0.59281017835E-01  0.51100000000E-03 0.  1.
</event>
<event>
 8    1  0.1208168E+005  0.1043930E+01  0.7957747E-01            NaN
         13   -1    0    0    0    0  0.00000000000E+00  0.00000000000E+00  0.74505805969E-08  0.10566000000E+00  0.10566000000E+00 0.  1.
     999900   -1    0    0    0    0 -0.00000000000E+00 -0.00000000000E+00 -0.74505805969E-08  0.93827000000E+00  0.93827000000E+00 0. -1.
     999902    2    1    2    0    0  0.92316111731E-02 -0.51530638935E-02 -0.22332000413E-01  0.10192218039E+01  0.10189222692E+01 0.  0.
     999903    2    3    3    0    0 -0.49929742851E-01  0.92056094499E-01  0.69453006791E-01  0.12716004940E+00  0.19459040457E-01 0.  0.
         14    1    1    2    0    0 -0.92316111731E-02  0.51530638935E-02  0.22332000413E-01  0.24708196105E-01  0.00000000000E+00 0.  1.
     999901    1    3    3    0    0  0.59161354024E-01 -0.97209158392E-01 -0.91785007204E-01  0.89206175450E+00  0.88000000000E+00 0. -1.
        -11    1    4    4    0    0 -0.19660599802E-01  0.21791010095E-01  0.13138140237E-01  0.32159899804E-01  0.51100000000E-03 0. -1.
         11    1    4    4    0    0 -0.30269143050E-01  0.70265084403E-01  0.56314866554E-01  0.95000149596E-01  0.51100000000E-03 0.  1.
</event>
<event>
 8    1  0.1208168E+005  0.1043930E+01  0.7957747E-01            NaN
         13   -1    0    0    0    0  0.00000000000E+00  0.00000000000E+00  0.74505805969E-08  0.10566000000E+00  0.10566000000E+00 0. -1.
     999900   -1    0    0    0    0 -0.00000000000E+00 -0.00000000000E+00 -0.74505805969E-08  0.93827000000E+00  0.93827000000E+00 0.  1.
     999902    2    1    2    0    0  0.16954542743E-02 -0.18764882596E-01  0.13729167167E-01  0.10206172264E+01  0.10203509383E+01 0.  0.
     999903    2    3    3    0    0  0.12906371283E+00 -0.20322100126E-02 -0.10164831668E-01  0.13096921798E+00  0.19698741272E-01 0.  0.
         14    1    1    2    0    0 -0.16954542743E-02  0.18764882596E-01 -0.13729167167E-01  0.23312773647E-01  0.00000000000E+00 0.  1.
     999901    1    3    3    0    0 -0.12736825856E+00 -0.16732672583E-01  0.23893998835E-01  0.88964800837E+00  0.88000000000E+00 0.  1.
        -11    1    4    4    0    0  0.72043195573E-01 -0.51340136321E-02 -0.14605808054E-01  0.73689693134E-01  0.51100000000E-03 0. -1.
         11    1    4    4    0    0  0.57020517261E-01  0.31018036195E-02  0.44409763853E-02  0.57279524846E-01  0.51100000000E-03 0.  1.
</event>
<event>
 8    1  0.1208168E+005  0.1043930E+01  0.7957747E-01            NaN
         13   -1    0    0    0    0  0.00000000000E+00  0.00000000000E+00  0.74505805969E-08  0.10566000000E+00  0.10566000000E+00 0.  1.
     999900   -1    0    0    0    0 -0.00000000000E+00 -0.00000000000E+00 -0.74505805969E-08  0.93827000000E+00  0.93827000000E+00 0. -1.
     999902    2    1    2    0    0  0.48873759620E-02 -0.19232277325E-01  0.12176515715E-01  0.10206483663E+01  0.10203827973E+01 0.  0.
     999903    2    3    3    0    0  0.84411341852E-01 -0.35447868419E-01 -0.91403562909E-01  0.13086421308E+00  0.19723208286E-01 0.  0.
         14    1    1    2    0    0 -0.48873759620E-02  0.19232277325E-01 -0.12176515715E-01  0.23281633745E-01  0.00000000000E+00 0.  1.
     999901    1    3    3    0    0 -0.79523965890E-01  0.16215591094E-01  0.10358007862E+00  0.88978415317E+00  0.88000000000E+00 0.  1.
        -11    1    4    4    0    0  0.52555141776E-01 -0.11705231995E-01 -0.50022012828E-01  0.73495022087E-01  0.51100000000E-03 0. -1.
         11    1    4    4    0    0  0.31856200076E-01 -0.23742636424E-01 -0.41381550081E-01  0.57369190998E-01  0.51100000000E-03 0.  1.
</event>
<event>
 8    1  0.1208168E+005  0.1043930E+01  0.7957747E-01            NaN
         13   -1    0    0    0    0  0.00000000000E+00  0.00000000000E+00  0.74505805969E-08  0.10566000000E+00  0.10566000000E+00 0.  1.
     999900   -1    0    0    0    0 -0.00000000000E+00 -0.00000000000E+00 -0.74505805969E-08  0.93827000000E+00  0.93827000000E+00 0.  1.
     999902    2    1    2    0    0  0.23504340253E-01 -0.12801799134E-02  0.47986412044E-02  0.10199066816E+01  0.10196237145E+01 0.  0.
     999903    2    3    3    0    0  0.42248801803E-01  0.11259831109E+00  0.48891370274E-01  0.13127636793E+00  0.19487887933E-01 0.  0.
         14    1    1    2    0    0 -0.23504340253E-01  0.12801799134E-02 -0.47986412044E-02  0.24023318437E-01  0.00000000000E+00 0. -1.
     999901    1    3    3    0    0 -0.18744461550E-01 -0.11387849100E+00 -0.44092729070E-01  0.88863031363E+00  0.88000000000E+00 0. -1.
        -11    1    4    4    0    0  0.30038833466E-02  0.22704399440E-01  0.15504468483E-01  0.27661575028E-01  0.51100000000E-03 0.  1.
         11    1    4    4    0    0  0.39244918456E-01  0.89893911647E-01  0.33386901791E-01  0.10361479290E+00  0.51100000000E-03 0. -1.
</event>
<event>
 8    1  0.1208168E+005  0.1043930E+01  0.7957747E-01            NaN
         13   -1    0    0    0    0  0.00000000000E+00  0.00000000000E+00  0.74505805969E-08  0.10566000000E+00  0.10566000000E+00 0. -1.
     999900   -1    0    0    0    0 -0.00000000000E+00 -0.00000000000E+00 -0.74505805969E-08  0.93827000000E+00  0.93827000000E+00 0. -1.
     999902    2    1    2    0    0 -0.10026711317E-01  0.14316467745E-01 -0.14571740538E-01  0.10211740819E+01  0.10209205031E+01 0.  0.
     999903    2    3    3    0    0 -0.24678646139E-01  0.67635669023E-01  0.10737137216E+00  0.13104614770E+00  0.21467695923E-01 0.  0.
         14    1    1    2    0    0  0.10026711317E-01 -0.14316467745E-01  0.14571740538E-01  0.22755918150E-01  0.00000000000E+00 0. -1.
     999901    1    3    3    0    0  0.14651934822E-01 -0.53319201279E-01 -0.12194311270E+00  0.89012793415E+00  0.88000000000E+00 0. -1.
        -11    1    4    4    0    0 -0.25143958266E-01  0.38579863264E-01  0.64651647346E-01  0.79377081783E-01  0.51100000000E-03 0. -1.
         11    1    4    4    0    0  0.46531212688E-03  0.29055805759E-01  0.42719724814E-01  0.51669065918E-01  0.51100000000E-03 0.  1.
</event>
<event>
 8    1  0.1208168E+005  0.1043930E+01  0.7957747E-01            NaN
         13   -1    0    0    0    0  0.00000000000E+00  0.00000000000E+00  0.74505805969E-08  0.10566000000E+00  0.10566000000E+00 0. -1.
     999900   -1    0    0    0    0 -0.00000000000E+00 -0.00000000000E+00 -0.74505805969E-08  0.93827000000E+00  0.93827000000E+00 0.  1.
     999902    2    1    2    0    0 -0.66827663118E-02 -0.14187554497E-01 -0.17718016929E-01  0.10202683392E+01  0.10199939263E+01 0.  0.
     999903    2    3    3    0    0 -0.96396978906E-01 -0.52910401385E-01  0.68041452799E-01  0.13071632528E+00  0.19110998894E-01 0.  0.
         14    1    1    2    0    0  0.66827663118E-02  0.14187554497E-01  0.17718016929E-01  0.23661660806E-01  0.00000000000E+00 0. -1.
     999901    1    3    3    0    0  0.89714212594E-01  0.38722846888E-01 -0.85759469728E-01  0.88955201392E+00  0.88000000000E+00 0. -1.
        -11    1    4    4    0    0 -0.53110982620E-01 -0.19474388438E-01  0.39702046662E-01  0.69112530775E-01  0.51100000000E-03 0. -1.
         11    1    4    4    0    0 -0.43285996286E-01 -0.33436012946E-01  0.28339406137E-01  0.61603794505E-01  0.51100000000E-03 0.  1.
</event>
<event>
 8    1  0.1208168E+005  0.1043930E+01  0.7957747E-01            NaN
         13   -1    0    0    0    0  0.00000000000E+00  0.00000000000E+00  0.74505805969E-08  0.10566000000E+00  0.10566000000E+00 0.  1.
     999900   -1    0    0    0    0 -0.00000000000E+00 -0.00000000000E+00 -0.74505805969E-08  0.93827000000E+00  0.93827000000E+00 0. -1.
     999902    2    1    2    0    0  0.11148928370E-01 -0.85533333822E-02  0.18571235039E-01  0.10206416148E+01  0.10203758900E+01 0.  0.
     999903    2    3    3    0    0  0.74706865291E-01  0.10169387163E+00  0.31278752742E-01  0.13139725096E+00  0.19081874575E-01 0.  0.
         14    1    1    2    0    0 -0.11148928370E-01  0.85533333822E-02 -0.18571235039E-01  0.23288385230E-01  0.00000000000E+00 0. -1.
     999901    1    3    3    0    0 -0.63557936921E-01 -0.11024720502E+00 -0.12707517704E-01  0.88924436381E+00  0.88000000000E+00 0. -1.
        -11    1    4    4    0    0  0.33844323143E-01  0.61689881739E-01  0.15128362375E-01  0.71973663149E-01  0.51100000000E-03 0.  1.
         11    1    4    4    0    0  0.40862542148E-01  0.40003989896E-01  0.16150390368E-01  0.59423587812E-01  0.51100000000E-03 0. -1.
</event>
<event>
 8    1  0.1208168E+005  0.1043930E+01  0.7957747E-01            NaN
         13   -1    0    0    0    0  0.00000000000E+00  0.00000000000E+00  0.74505805969E-08  0.10566000000E+00  0.10566000000E+00 0.  1.
     999900   -1    0    0    0    0 -0.00000000000E+00 -0.00000000000E+00 -0.74505805969E-08  0.93827000000E+00  0.93827000000E+00 0. -1.
     999902    2    1    2    0    0  0.15229459326E-01  0.16076152558E-01 -0.74771774025E-02  0.10205572104E+01  0.10202895336E+01 0.  0.
     999903    2    3    3    0    0  0.11574959358E+00  0.48562816176E-01 -0.33659763971E-01  0.13385251967E+00  0.32049988805E-01 0.  0.
         14    1    1    2    0    0 -0.15229459326E-01 -0.16076152558E-01  0.74771774025E-02  0.23372789614E-01  0.00000000000E+00 0.  1.
     999901    1    3    3    0    0 -0.10052013425E+00 -0.32486663618E-01  0.26182586568E-01  0.88670469072E+00  0.88000000000E+00 0.  1.
        -11    1    4    4    0    0  0.33175779108E-01  0.23929644961E-01  0.11278239357E-02  0.40924238970E-01  0.51100000000E-03 0.  1.
         11    1    4    4    0    0  0.82573814469E-01  0.24633171215E-01 -0.34787587906E-01  0.92928280698E-01  0.51100000000E-03 0. -1.
</event>
<event>
 8    1  0.1208168E+005  0.1043930E+01  0.7957747E-01            NaN
         13   -1    0    0    0    0  0.00000000000E+00  0.00000000000E+00  0.74505805969E-08  0.10566000000E+00  0.10566000000E+00 0.  1.
     999900   -1    0    0    0    0 -0.00000000000E+00 -0.00000000000E+00 -0.74505805969E-08  0.93827000000E+00  0.93827000000E+00 0. -1.
     999902    2    1    2    0    0  0.12782008837E-01  0.73561626584E-03 -0.19798520962E-01  0.10203524193E+01  0.10200799759E+01 0.  0.
     999903    2    3    3    0    0  0.90857913904E-01 -0.16020305922E-01  0.89548507208E-01  0.12999665865E+00  0.19193368567E-01 0.  0.
         14    1    1    2    0    0 -0.12782008837E-01 -0.73561626584E-03  0.19798520962E-01  0.23577580738E-01  0.00000000000E+00 0.  1.
     999901    1    3    3    0    0 -0.78075905067E-01  0.16755922188E-01 -0.10934702817E+00  0.89035576061E+00  0.88000000000E+00 0. -1.
        -11    1    4    4    0    0  0.41422416913E-01  0.16442062446E-02  0.34594245407E-01  0.53995768107E-01  0.51100000000E-03 0. -1.
         11    1    4    4    0    0  0.49435496990E-01 -0.17664512166E-01  0.54954261800E-01  0.76000890546E-01  0.51100000000E-03 0.  1.
</event>
<event>
 8    1  0.1208168E+005  0.1043930E+01  0.7957747E-01            NaN
         13   -1    0    0    0    0  0.00000000000E+00  0.00000000000E+00  0.74505805969E-08  0.10566000000E+00  0.10566000000E+00 0.  1.
     999900   -1    0    0    0    0 -0.00000000000E+00 -0.00000000000E+00 -0.74505805969E-08  0.93827000000E+00  0.93827000000E+00 0.  1.
     999902    2    1    2    0    0 -0.10899957382E-01  0.29642109482E-01 -0.12355275137E-01  0.10100166317E+01  0.10094471159E+01 0.  0.
     999903    2    3    3    0    0  0.96061495740E-01  0.38621148949E-01  0.58666776641E-01  0.12065421545E+00  0.19905901509E-01 0.  0.
         14    1    1    2    0    0  0.10899957382E-01 -0.29642109482E-01  0.12355275137E-01  0.33913368296E-01  0.00000000000E+00 0. -1.
     999901    1    3    3    0    0 -0.10696145312E+00 -0.89790394674E-02 -0.71022051778E-01  0.88936241625E+00  0.88000000000E+00 0. -1.
        -11    1    4    4    0    0  0.40475177682E-01  0.22602090446E-01  0.35265892878E-01  0.58249796758E-01  0.51100000000E-03 0.  1.
         11    1    4    4    0    0  0.55586318058E-01  0.16019058504E-01  0.23400883763E-01  0.62404418693E-01  0.51100000000E-03 0. -1.
</event>
<event>
 8    1  0.1208168E+005  0.1043930E+01  0.7957747E-01            NaN
         13   -1    0    0    0    0  0.00000000000E+00  0.00000000000E+00  0.74505805969E-08  0.10566000000E+00  0.10566000000E+00 0. -1.
     999900   -1    0    0    0    0 -0.00000000000E+00 -0.00000000000E+00 -0.74505805969E-08  0.93827000000E+00  0.93827000000E+00 0. -1.
     999902    2    1    2    0    0  0.23766057666E-02 -0.13510910749E-01  0.19191925747E-01  0.10203392608E+01  0.10200665096E+01 0.  0.
     999903    2    3    3    0    0  0.90728699183E-01 -0.81507298079E-01 -0.43790979796E-01  0.13107189517E+00  0.19673720973E-01 0.  0.
         14    1    1    2    0    0 -0.23766057666E-02  0.13510910749E-01 -0.19191925747E-01  0.23590739245E-01  0.00000000000E+00 0.  1.
     999901    1    3    3    0    0 -0.88352093416E-01  0.67996387331E-01  0.62982905543E-01  0.88926736558E+00  0.88000000000E+00 0.  1.
        -11    1    4    4    0    0  0.49210177291E-01 -0.49734933344E-01 -0.15650318651E-01  0.71696574106E-01  0.51100000000E-03 0.  1.
         11    1    4    4    0    0  0.41518521892E-01 -0.31772364735E-01 -0.28140661145E-01  0.59375321065E-01  0.51100000000E-03 0. -1.
</event>
<event>
 8    1  0.1208168E+005  0.1043930E+01  0.7957747E-01            NaN
         13   -1    0    0    0    0  0.00000000000E+00  0.00000000000E+00  0.74505805969E-08  0.10566000000E+00  0.10566000000E+00 0. -1.
     999900   -1    0    0    0    0 -0.00000000000E+00 -0.00000000000E+00 -0.74505805969E-08  0.93827000000E+00  0.93827000000E+00 0.  1.
     999902    2    1    2    0    0 -0.15560671931E-01 -0.48285587654E-02 -0.16885510337E-01  0.10204657730E+01  0.10201959733E+01 0.  0.
     999903    2    3    3    0    0  0.99744430256E-01 -0.51836170155E-01 -0.63531627474E-01  0.13047653575E+00  0.18759498648E-01 0.  0.
         14    1    1    2    0    0  0.15560671931E-01  0.48285587654E-02  0.16885510337E-01  0.23464227028E-01  0.00000000000E+00 0. -1.
     999901    1    3    3    0    0 -0.11530510219E+00  0.47007611390E-01  0.46646117137E-01  0.88998923722E+00  0.88000000000E+00 0. -1.
        -11    1    4    4    0    0  0.11994839759E-01 -0.13755478938E-01 -0.88009671449E-02  0.20268387340E-01  0.51100000000E-03 0. -1.
         11    1    4    4    0    0  0.87749590497E-01 -0.38080691217E-01 -0.54730660329E-01  0.11020814841E+00  0.51100000000E-03 0.  1.
</event>
<event>
 8    1  0.1208168E+005  0.1043930E+01  0.7957747E-01            NaN
         13   -1    0    0    0    0  0.00000000000E+00  0.00000000000E+00  0.74505805969E-08  0.10566000000E+00  0.10566000000E+00 0. -1.
     999900   -1    0    0    0    0 -0.00000000000E+00 -0.00000000000E+00 -0.74505805969E-08  0.93827000000E+00  0.93827000000E+00 0. -1.
     999902    2    1    2    0    0  0.12586349992E-01 -0.12110505545E-01  0.12888976157E-01  0.10222227142E+01  0.10219922070E+01 0.  0.
     999903    2    3    3    0    0  0.81388224185E-02  0.14162104158E-01  0.13137919535E+00  0.13388158458E+00  0.19924359294E-01 0.  0.
         14    1    1    2    0    0 -0.12586349992E-01  0.12110505545E-01 -0.12888976157E-01  0.21707285806E-01  0.00000000000E+00 0.  1.
     999901    1    3    3    0    0  0.44475275737E-02 -0.26272609703E-01 -0.11849021919E+00  0.88834112962E+00  0.88000000000E+00 0. -1.
        -11    1    4    4    0    0 -0.29148632567E-02  0.81212210185E-03  0.70883759218E-01  0.70950154418E-01  0.51100000000E-03 0. -1.
         11    1    4    4    0    0  0.11053685675E-01  0.13349982056E-01  0.60495436134E-01  0.62931430160E-01  0.51100000000E-03 0.  1.
</event>
<event>
 8    1  0.1208168E+005  0.1043930E+01  0.7957747E-01            NaN
         13   -1    0    0    0    0  0.00000000000E+00  0.00000000000E+00  0.74505805969E-08  0.10566000000E+00  0.10566000000E+00 0. -1.
     999900   -1    0    0    0    0 -0.00000000000E+00 -0.00000000000E+00 -0.74505805969E-08  0.93827000000E+00  0.93827000000E+00 0.  1.
     999902    2    1    2    0    0 -0.20089517888E-01 -0.12811820302E-01 -0.80353619005E-02  0.10187844535E+01  0.10184740862E+01 0.  0.
     999903    2    3    3    0    0  0.72877739980E-01 -0.54968478252E-02 -0.10382896173E+00  0.12868736124E+00  0.20942858637E-01 0.  0.
         14    1    1    2    0    0  0.20089517888E-01  0.12811820302E-01  0.80353619005E-02  0.25145546511E-01  0.00000000000E+00 0. -1.
     999901    1    3    3    0    0 -0.92967257868E-01 -0.73149724772E-02  0.95793599834E-01  0.89009709225E+00  0.88000000000E+00 0. -1.
        -11    1    4    4    0    0  0.38839173953E-01 -0.13367100025E-01 -0.57014659608E-01  0.70271568416E-01  0.51100000000E-03 0. -1.
         11    1    4    4    0    0  0.34038566027E-01  0.78702521998E-02 -0.46814302127E-01  0.58415792826E-01  0.51100000000E-03 0.  1.
</event>
<event>
 8    1  0.1208168E+005  0.1043930E+01  0.7957747E-01            NaN
         13   -1    0    0    0    0  0.00000000000E+00  0.00000000000E+00  0.74505805969E-08  0.10566000000E+00  0.10566000000E+00 0. -1.
     999900   -1    0    0    0    0 -0.00000000000E+00 -0.00000000000E+00 -0.74505805969E-08  0.93827000000E+00  0.93827000000E+00 0.  1.
     999902    2    1    2    0    0 -0.17350357731E-01 -0.95263697879E-02  0.26546727048E-01  0.10108163268E+01  0.10102737902E+01 0.  0.
     999903    2    3    3    0    0  0.71039084101E-01  0.72937134308E-01 -0.57102886096E-01  0.11862230043E+00  0.21074475763E-01 0.  0.
         14    1    1    2    0    0  0.17350357731E-01  0.95263697879E-02 -0.26546727048E-01  0.33113673183E-01  0.00000000000E+00 0. -1.
     999901    1    3    3    0    0 -0.88389441832E-01 -0.82463504096E-01  0.83649613144E-01  0.89219402638E+00  0.88000000000E+00 0. -1.
        -11    1    4    4    0    0  0.48245416545E-01  0.55776174483E-01 -0.31177942691E-01  0.80068265181E-01  0.51100000000E-03 0. -1.
         11    1    4    4    0    0  0.22793667556E-01  0.17160959826E-01 -0.25924943405E-01  0.38554035253E-01  0.51100000000E-03 0.  1.
</event>
<event>
 8    1  0.1208168E+005  0.1043930E+01  0.7957747E-01            NaN
         13   -1    0    0    0    0  0.00000000000E+00  0.00000000000E+00  0.74505805969E-08  0.10566000000E+00  0.10566000000E+00 0.  1.
     999900   -1    0    0    0    0 -0.00000000000E+00 -0.00000000000E+00 -0.74505805969E-08  0.93827000000E+00  0.93827000000E+00 0. -1.
     999902    2    1    2    0    0 -0.33690034950E-02  0.20989294193E-01  0.10496574693E-01  0.10202218002E+01  0.10199462942E+01 0.  0.
     999903    2    3    3    0    0 -0.23438371592E-01  0.50402537038E-01  0.11865764399E+00  0.13288492211E+00  0.22113187128E-01 0.  0.
         14    1    1    2    0    0  0.33690034950E-02 -0.20989294193E-01 -0.10496574693E-01  0.23708199753E-01  0.00000000000E+00 0. -1.
     999901    1    3    3    0    0  0.20069368097E-01 -0.29413242846E-01 -0.10816106929E+00  0.88733687814E+00  0.88000000000E+00 0. -1.
        -11    1    4    4    0    0 -0.15333430779E-01  0.36797863157E-01  0.59350540818E-01  0.71497864645E-01  0.51100000000E-03 0.  1.
         11    1    4    4    0    0 -0.81049408129E-02  0.13604673881E-01  0.59307103169E-01  0.61387057465E-01  0.51100000000E-03 0. -1.
</event>
<event>
 8    1  0.1208168E+005  0.1043930E+01  0.7957747E-01            NaN
         13   -1    0    0    0    0  0.00000000000E+00  0.00000000000E+00  0.74505805969E-08  0.10566000000E+00  0.10566000000E+00 0. -1.
     999900   -1    0    0    0    0 -0.00000000000E+00 -0.00000000000E+00 -0.74505805969E-08  0.93827000000E+00  0.93827000000E+00 0.  1.
     999902    2    1    2    0    0 -0.46876142728E-02  0.22290903427E-01  0.30558196649E-02  0.10209474819E+01  0.10206887698E+01 0.  0.
     999903    2    3    3    0    0  0.49764041751E-01  0.14299704925E-01 -0.11868799043E+00  0.13086299302E+00  0.18903503825E-01 0.  0.
         14    1    1    2    0    0  0.46876142728E-02 -0.22290903427E-01 -0.30558196649E-02  0.22982518073E-01  0.00000000000E+00 0. -1.
     999901    1    3    3    0    0 -0.54451656024E-01  0.79911985021E-02  0.12174381010E+00  0.89008448891E+00  0.88000000000E+00 0. -1.
        -11    1    4    4    0    0  0.36059984514E-02  0.48137112632E-02 -0.28202704739E-01  0.28841440958E-01  0.51100000000E-03 0.  1.
         11    1    4    4    0    0  0.46158043300E-01  0.94859936615E-02 -0.90485285693E-01  0.10202155206E+00  0.51100000000E-03 0. -1.
</event>
<event>
 8    1  0.1208168E+005  0.1043930E+01  0.7957747E-01            NaN
         13   -1    0    0    0    0  0.00000000000E+00  0.00000000000E+00  0.74505805969E-08  0.10566000000E+00  0.10566000000E+00 0.  1.
     999900   -1    0    0    0    0 -0.00000000000E+00 -0.00000000000E+00 -0.74505805969E-08  0.93827000000E+00  0.93827000000E+00 0.  1.
     999902    2    1    2    0    0  0.21489828701E-02 -0.10865549273E-01 -0.26423361547E-01  0.10152791305E+01  0.10148747905E+01 0.  0.
     999903    2    3    3    0    0 -0.74453126533E-01 -0.97954372299E-01 -0.28049140350E-01  0.12766717168E+00  0.19334563541E-01 0.  0.
         14    1    1    2    0    0 -0.21489828701E-02  0.10865549273E-01  0.26423361547E-01  0.28650869513E-01  0.00000000000E+00 0.  1.
     999901    1    3    3    0    0  0.76602109403E-01  0.87088823025E-01  0.16257788027E-02  0.88761195881E+00  0.88000000000E+00 0. -1.
        -11    1    4    4    0    0 -0.31344944014E-01 -0.30579690162E-01 -0.16742737326E-01  0.46885001224E-01  0.51100000000E-03 0. -1.
         11    1    4    4    0    0 -0.43108182520E-01 -0.67374682137E-01 -0.11306403023E-01  0.80782170455E-01  0.51100000000E-03 0.  1.
</event>
<event>
 8    1  0.1208168E+005  0.1043930E+01  0.7957747E-01            NaN
         13   -1    0    0    0    0  0.00000000000E+00  0.00000000000E+00  0.74505805969E-08  0.10566000000E+00  0.10566000000E+00 0. -1.
     999900   -1    0    0    0    0 -0.00000000000E+00 -0.00000000000E+00 -0.74505805969E-08  0.93827000000E+00  0.93827000000E+00 0. -1.
     999902    2    1    2    0    0  0.11645469103E-01 -0.58270667742E-02  0.19462377411E-01  0.10205130021E+01  0.10202443000E+01 0.  0.
     999903    2    3    3    0    0  0.11291586111E-01 -0.11906722996E+00  0.53730698248E-01  0.13259533831E+00  0.19749193386E-01 0.  0.
         14    1    1    2    0    0 -0.11645469103E-01  0.58270667742E-02 -0.19462377411E-01  0.23416997936E-01  0.00000000000E+00 0.  1.
     999901    1    3    3    0    0  0.35388299298E-03  0.11324016319E+00 -0.34268320837E-01  0.88791766375E+00  0.88000000000E+00 0. -1.
        -11    1    4    4    0    0  0.70629575428E-02 -0.44986081673E-01  0.10563399675E-01  0.46749111727E-01  0.51100000000E-03 0.  1.
         11    1    4    4    0    0  0.42286285677E-02 -0.74081148290E-01  0.43167298573E-01  0.85846226584E-01  0.51100000000E-03 0. -1.
</event>
<event>
 8    1  0.1208168E+005  0.1043930E+01  0.7957747E-01            NaN
         13   -1    0    0    0    0  0.00000000000E+00  0.00000000000E+00  0.74505805969E-08  0.10566000000E+00  0.10566000000E+00 0. -1.
     999900   -1    0    0    0    0 -0.00000000000E+00 -0.00000000000E+00 -0.74505805969E-08  0.93827000000E+00  0.93827000000E+00 0.  1.
     999902    2    1    2    0    0  0.25971716919E-02  0.40519791419E-02  0.15373575722E-01  0.10278206652E+01  0.10276944143E+01 0.  0.
     999903    2    3    3    0    0 -0.19801409062E-01  0.13363789784E+00  0.19841046434E-01  0.13803745286E+00  0.20235803166E-01 0.  0.
         14    1    1    2    0    0 -0.25971716919E-02 -0.40519791419E-02 -0.15373575722E-01  0.16109334754E-01  0.00000000000E+00 0.  1.
     999901    1    3    3    0    0  0.22398580754E-01 -0.12958591870E+00 -0.44674707128E-02  0.88978321238E+00  0.88000000000E+00 0. -1.
        -11    1    4    4    0    0 -0.63050490634E-02  0.74789636972E-01  0.19935866279E-01  0.77659148382E-01  0.51100000000E-03 0. -1.
         11    1    4    4    0    0 -0.13496359998E-01  0.58848260866E-01 -0.94819844743E-04  0.60378304480E-01  0.51100000000E-03 0.  1.
</event>
<event>
 8    1  0.1208168E+005  0.1043930E+01  0.7957747E-01            NaN
         13   -1    0    0    0    0  0.00000000000E+00  0.00000000000E+00  0.74505805969E-08  0.10566000000E+00  0.10566000000E+00 0.  1.
     999900   -1    0    0    0    0 -0.00000000000E+00 -0.00000000000E+00 -0.74505805969E-08  0.93827000000E+00  0.93827000000E+00 0.  1.
     999902    2    1    2    0    0 -0.21048724438E-01  0.11264908346E-01 -0.11036854696E-02  0.10200309397E+01  0.10197509269E+01 0.  0.
     999903    2    3    3    0    0 -0.89304408618E-01 -0.22199247054E-01 -0.92865736372E-01  0.13199999313E+00  0.18217278231E-01 0.  0.
         14    1    1    2    0    0  0.21048724438E-01 -0.11264908346E-01  0.11036854696E-02  0.23899060277E-01  0.00000000000E+00 0.  1.
     999901    1    3    3    0    0  0.68255684180E-01  0.33464155400E-01  0.91762050902E-01  0.88803094659E+00  0.88000000000E+00 0. -1.
        -11    1    4    4    0    0 -0.65541582202E-01 -0.80545796438E-02 -0.62454807828E-01  0.90892460593E-01  0.51100000000E-03 0.  1.
         11    1    4    4    0    0 -0.23762826416E-01 -0.14144667410E-01 -0.30410928544E-01  0.41107532537E-01  0.51100000000E-03 0. -1.
</event>
<event>
 8    1  0.1208168E+005  0.1043930E+01  0.7957747E-01            NaN
         13   -1    0    0    0    0  0.00000000000E+00  0.00000000000E+00  0.74505805969E-08  0.10566000000E+00  0.10566000000E+00 0.  1.
     999900   -1    0    0    0    0 -0.00000000000E+00 -0.00000000000E+00 -0.74505805969E-08  0.93827000000E+00  0.93827000000E+00 0. -1.
     999902    2    1    2    0    0 -0.90416881131E-02  0.21378919786E-01 -0.90288537564E-03  0.10207001585E+01  0.10204357834E+01 0.  0.
     999903    2    3    3    0    0 -0.10125710195E-01 -0.12418987273E+00  0.24653302935E-01  0.12837478776E+00  0.18618439563E-01 0.  0.
         14    1    1    2    0    0  0.90416881131E-02 -0.21378919786E-01  0.90288537564E-03  0.23229841522E-01  0.00000000000E+00 0. -1.
     999901    1    3    3    0    0  0.10840220816E-02  0.14556879252E+00 -0.25556188311E-01  0.89232537071E+00  0.88000000000E+00 0. -1.
        -11    1    4    4    0    0  0.50808068043E-02 -0.25908533171E-01  0.75276301493E-02  0.27458933438E-01  0.51100000000E-03 0.  1.
         11    1    4    4    0    0 -0.15206516999E-01 -0.98281339560E-01  0.17125672786E-01  0.10091585433E+00  0.51100000000E-03 0. -1.
</event>
<event>
 8    1  0.1208168E+005  0.1043930E+01  0.7957747E-01            NaN
         13   -1    0    0    0    0  0.00000000000E+00  0.00000000000E+00  0.74505805969E-08  0.10566000000E+00  0.10566000000E+00 0.  1.
     999900   -1    0    0    0    0 -0.00000000000E+00 -0.00000000000E+00 -0.74505805969E-08  0.93827000000E+00  0.93827000000E+00 0.  1.
     999902    2    1    2    0    0 -0.58283990799E-03  0.21565241813E-01 -0.83898027785E-02  0.10207829020E+01  0.10205204284E+01 0.  0.
     999903    2    3    3    0    0  0.10636117788E+00 -0.67483464132E-01  0.22074512449E-01  0.12932635817E+00  0.19269268942E-01 0.  0.
         14    1    1    2    0    0  0.58283990799E-03 -0.21565241813E-01  0.83898027785E-02  0.23147098035E-01  0.00000000000E+00 0.  1.
     999901    1    3    3    0    0 -0.10694401779E+00  0.89048705945E-01 -0.30464315227E-01  0.89145654379E+00  0.88000000000E+00 0.  1.
        -11    1    4    4    0    0  0.72688288255E-01 -0.54240718985E-01  0.10339589259E-01  0.91284232332E-01  0.51100000000E-03 0. -1.
         11    1    4    4    0    0  0.33672889629E-01 -0.13242745147E-01  0.11734923190E-01  0.38042125838E-01  0.51100000000E-03 0.  1.
</event>
<event>
 8    1  0.1208168E+005  0.1043930E+01  0.7957747E-01            NaN
         13   -1    0    0    0    0  0.00000000000E+00  0.00000000000E+00  0.74505805969E-08  0.10566000000E+00  0.10566000000E+00 0.  1.
     999900   -1    0    0    0    0 -0.00000000000E+00 -0.00000000000E+00 -0.74505805969E-08  0.93827000000E+00  0.93827000000E+00 0.  1.
     999902    2    1    2    0    0 -0.19572605828E-01  0.10269584002E-02 -0.15363759934E-01  0.10190264528E+01  0.10187221039E+01 0.  0.
     999903    2    3    3    0    0 -0.75556179628E-01 -0.66756484986E-01 -0.82726632461E-01  0.13208422679E+00  0.20913696012E-01 0.  0.
         14    1    1    2    0    0  0.19572605828E-01 -0.10269584002E-02  0.15363759934E-01  0.24903547172E-01  0.00000000000E+00 0.  1.
     999901    1    3    3    0    0  0.55983573800E-01  0.67783443386E-01  0.67362872527E-01  0.88694222604E+00  0.88000000000E+00 0. -1.
        -11    1    4    4    0    0 -0.45143858125E-01 -0.49943236579E-01 -0.62554251320E-01  0.91899892740E-01  0.51100000000E-03 0. -1.
         11    1    4    4    0    0 -0.30412321503E-01 -0.16813248407E-01 -0.20172381141E-01  0.40184334051E-01  0.51100000000E-03 0.  1.
</event>
<event>
 8    1  0.1208168E+005  0.1043930E+01  0.7957747E-01            NaN
         13   -1    0    0    0    0  0.00000000000E+00  0.00000000000E+00  0.74505805969E-08  0.10566000000E+00  0.10566000000E+00 0. -1.
     999900   -1    0    0    0    0 -0.00000000000E+00 -0.00000000000E+00 -0.74505805969E-08  0.93827000000E+00  0.93827000000E+00 0.  1.
     999902    2    1    2    0    0 -0.74444791670E-02  0.19697242152E-01  0.10477100498E-01  0.10204104070E+01  0.10201393177E+01 0.  0.
     999903    2    3    3    0    0  0.57298050811E-02 -0.99941410679E-01 -0.77094020294E-01  0.12791073184E+00  0.19913591359E-01 0.  0.
         14    1    1    2    0    0  0.74444791670E-02 -0.19697242152E-01 -0.10477100498E-01  0.23519592966E-01  0.00000000000E+00 0.  1.
     999901    1    3    3    0    0 -0.13174284248E-01  0.11963865283E+00  0.87571120793E-01  0.89249967519E+00  0.88000000000E+00 0. -1.
        -11    1    4    4    0    0  0.58362036414E-02 -0.60702555017E-01 -0.58421955099E-01  0.84452634164E-01  0.51100000000E-03 0. -1.
         11    1    4    4    0    0 -0.10639856032E-03 -0.39238855662E-01 -0.18672065195E-01  0.43458097680E-01  0.51100000000E-03 0.  1.
</event>
<event>
 8    1  0.1208168E+005  0.1043930E+01  0.7957747E-01            NaN
         13   -1    0    0    0    0  0.00000000000E+00  0.00000000000E+00  0.74505805969E-08  0.10566000000E+00  0.10566000000E+00 0.  1.
     999900   -1    0    0    0    0 -0.00000000000E+00 -0.00000000000E+00 -0.74505805969E-08  0.93827000000E+00  0.93827000000E+00 0.  1.
     999902    2    1    2    0    0 -0.12802686970E-01  0.18921235855E-01 -0.41493218354E-02  0.10207106367E+01  0.10204465028E+01 0.  0.
     999903    2    3    3    0    0  0.11912467994E+00  0.36281211301E-01 -0.32493624675E-01  0.13025592231E+00  0.20093630577E-01 0.  0.
         14    1    1    2    0    0  0.12802686970E-01 -0.18921235855E-01  0.41493218354E-02  0.23219363291E-01  0.00000000000E+00 0. -1.
     999901    1    3    3    0    0 -0.13192736691E+00 -0.17359975446E-01  0.28344302839E-01  0.89045471440E+00  0.88000000000E+00 0.  1.
        -11    1    4    4    0    0  0.34407331649E-01  0.16819732365E-01 -0.28213262974E-02  0.38405583854E-01  0.51100000000E-03 0. -1.
         11    1    4    4    0    0  0.84717348287E-01  0.19461478936E-01 -0.29672298377E-01  0.91850338460E-01  0.51100000000E-03 0.  1.
</event>
<event>
 8    1  0.1208168E+005  0.1043930E+01  0.7957747E-01            NaN
         13   -1    0    0    0    0  0.00000000000E+00  0.00000000000E+00  0.74505805969E-08  0.10566000000E+00  0.10566000000E+00 0. -1.
     999900   -1    0    0    0    0 -0.00000000000E+00 -0.00000000000E+00 -0.74505805969E-08  0.93827000000E+00  0.93827000000E+00 0. -1.
     999902    2    1    2    0    0  0.10602712629E-02 -0.15619686940E-01  0.17360599422E-01  0.10205528914E+01  0.10202851145E+01 0.  0.
     999903    2    3    3    0    0  0.10826049021E+00 -0.54546330918E-01 -0.45629607039E-01  0.13096032359E+00  0.19310861138E-01 0.  0.
         14    1    1    2    0    0 -0.10602712629E-02  0.15619686940E-01 -0.17360599422E-01  0.23377108623E-01  0.00000000000E+00 0.  1.
     999901    1    3    3    0    0 -0.10720021895E+00  0.38926643978E-01  0.62990206461E-01  0.88959256779E+00  0.88000000000E+00 0. -1.
        -11    1    4    4    0    0  0.23985899375E-01 -0.96131498651E-02 -0.18141113513E-01  0.31576844992E-01  0.51100000000E-03 0.  1.
         11    1    4    4    0    0  0.84274590840E-01 -0.44933181052E-01 -0.27488493526E-01  0.99383478597E-01  0.51100000000E-03 0. -1.
</event>
<event>
 8    1  0.1208168E+005  0.1043930E+01  0.7957747E-01            NaN
         13   -1    0    0    0    0  0.00000000000E+00  0.00000000000E+00  0.74505805969E-08  0.10566000000E+00  0.10566000000E+00 0.  1.
     999900   -1    0    0    0    0 -0.00000000000E+00 -0.00000000000E+00 -0.74505805969E-08  0.93827000000E+00  0.93827000000E+00 0.  1.
     999902    2    1    2    0    0  0.22026797746E-01 -0.80032850636E-02 -0.82257500617E-02  0.10190926218E+01  0.10187899079E+01 0.  0.
     999903    2    3    3    0    0 -0.11103551946E+00 -0.50462579468E-01  0.29471373383E-01  0.12728017233E+00  0.21361692610E-01 0.  0.
         14    1    1    2    0    0 -0.22026797746E-01  0.80032850636E-02  0.82257500617E-02  0.24837378179E-01  0.00000000000E+00 0.  1.
     999901    1    3    3    0    0  0.13306231721E+00  0.42459294404E-01 -0.37697123445E-01  0.89181244949E+00  0.88000000000E+00 0.  1.
        -11    1    4    4    0    0 -0.62347477701E-01 -0.18826396808E-01  0.91938406287E-02  0.65775595922E-01  0.51100000000E-03 0. -1.
         11    1    4    4    0    0 -0.48688041764E-01 -0.31636182660E-01  0.20277532754E-01  0.61504576412E-01  0.51100000000E-03 0.  1.
</event>
<event>
 8    1  0.1208168E+005  0.1043930E+01  0.7957747E-01            NaN
         13   -1    0    0    0    0  0.00000000000E+00  0.00000000000E+00  0.74505805969E-08  0.10566000000E+00  0.10566000000E+00 0. -1.
     999900   -1    0    0    0    0 -0.00000000000E+00 -0.00000000000E+00 -0.74505805969E-08  0.93827000000E+00  0.93827000000E+00 0.  1.
     999902    2    1    2    0    0 -0.12692790737E-01  0.80282991959E-02 -0.19098305258E-01  0.10196337907E+01  0.10193442800E+01 0.  0.
     999903    2    3    3    0    0  0.75070706786E-01 -0.78925104897E-01  0.62874990489E-01  0.12723088434E+00  0.19226291939E-01 0.  0.
         14    1    1    2    0    0  0.12692790737E-01 -0.80282991959E-02  0.19098305258E-01  0.24296209342E-01  0.00000000000E+00 0. -1.
     999901    1    3    3    0    0 -0.87763497524E-01  0.86953404093E-01 -0.81973295747E-01  0.89240290631E+00  0.88000000000E+00 0.  1.
        -11    1    4    4    0    0  0.22561447590E-01 -0.37215997438E-01  0.23427048230E-01  0.49428100231E-01  0.51100000000E-03 0. -1.
         11    1    4    4    0    0  0.52509259196E-01 -0.41709107459E-01  0.39447942259E-01  0.77802784113E-01  0.51100000000E-03 0.  1.
</event>
<event>
 8    1  0.1208168E+005  0.1043930E+01  0.7957747E-01            NaN
         13   -1    0    0    0    0  0.00000000000E+00  0.00000000000E+00  0.74505805969E-08  0.10566000000E+00  0.10566000000E+00 0.  1.
     999900   -1    0    0    0    0 -0.00000000000E+00 -0.00000000000E+00 -0.74505805969E-08  0.93827000000E+00  0.93827000000E+00 0.  1.
     999902    2    1    2    0    0 -0.13107677400E-01 -0.19944309363E-01  0.33379494305E-02  0.10198316891E+01  0.10195469315E+01 0.  0.
     999903    2    3    3    0    0  0.17980841024E-01  0.12189506558E+00 -0.24360152661E-01  0.12750210360E+00  0.21946565283E-01 0.  0.
         14    1    1    2    0    0  0.13107677400E-01  0.19944309363E-01 -0.33379494305E-02  0.24098310920E-01  0.00000000000E+00 0. -1.
     999901    1    3    3    0    0 -0.31088518424E-01 -0.14183937495E+00  0.27698102092E-01  0.89232958548E+00  0.88000000000E+00 0.  1.
        -11    1    4    4    0    0  0.20768541253E-01  0.66880104855E-01 -0.12179923780E-01  0.71083699928E-01  0.51100000000E-03 0. -1.
         11    1    4    4    0    0 -0.27877002287E-02  0.55014960727E-01 -0.12180228881E-01  0.56418403673E-01  0.51100000000E-03 0.  1.
</event>
<event>
 8    1  0.1208168E+005  0.1043930E+01  0.7957747E-01            NaN
         13   -1    0    0    0    0  0.00000000000E+00  0.00000000000E+00  0.74505805969E-08  0.10566000000E+00  0.10566000000E+00 0. -1.
     999900   -1    0    0    0    0 -0.00000000000E+00 -0.00000000000E+00 -0.74505805969E-08  0.93827000000E+00  0.93827000000E+00 0. -1.
     999902    2    1    2    0    0 -0.10973100934E-01 -0.21636512786E-01  0.10560200298E-02  0.10196470264E+01  0.10193578349E+01 0.  0.
     999903    2    3    3    0    0 -0.31238480303E-01 -0.50389909716E-01 -0.11544298418E+00  0.13127240865E+00  0.19757961003E-01 0.  0.
         14    1    1    2    0    0  0.10973100934E-01  0.21636512786E-01 -0.10560200298E-02  0.24282973622E-01  0.00000000000E+00 0.  1.
     999901    1    3    3    0    0  0.20265379369E-01  0.28753396931E-01  0.11649900421E+00  0.88837461773E+00  0.88000000000E+00 0.  1.
        -11    1    4    4    0    0 -0.24684486687E-01 -0.28025391021E-01 -0.85683080692E-01  0.93469769780E-01  0.51100000000E-03 0.  1.
         11    1    4    4    0    0 -0.65539936158E-02 -0.22364518695E-01 -0.29759903493E-01  0.37802638872E-01  0.51100000000E-03 0. -1.
</event>
<event>
 8    1  0.1208168E+005  0.1043930E+01  0.7957747E-01            NaN
         13   -1    0    0    0    0  0.00000000000E+00  0.00000000000E+00  0.74505805969E-08  0.10566000000E+00  0.10566000000E+00 0. -1.
     999900   -1    0    0    0    0 -0.00000000000E+00 -0.00000000000E+00 -0.74505805969E-08  0.93827000000E+00  0.93827000000E+00 0.  1.
     999902    2    1    2    0    0  0.60146023827E-02  0.22086215376E-01 -0.41201025859E-02  0.10206716338E+01  0.10204066016E+01 0.  0.
     999903    2    3    3    0    0 -0.54556777483E-01 -0.57751958766E-01  0.99103397830E-01  0.12898888916E+00  0.22470410647E-01 0.  0.
         14    1    1    2    0    0 -0.60146023827E-02 -0.22086215376E-01  0.41201025859E-02  0.23258366167E-01  0.00000000000E+00 0.  1.
     999901    1    3    3    0    0  0.60571379866E-01  0.79838174142E-01 -0.10322350042E+00  0.89168274467E+00  0.88000000000E+00 0.  1.
        -11    1    4    4    0    0 -0.30799022562E-01 -0.47654944796E-01  0.68077261070E-01  0.88624760367E-01  0.51100000000E-03 0. -1.
         11    1    4    4    0    0 -0.23757754921E-01 -0.10097013970E-01  0.31026136760E-01  0.40364128793E-01  0.51100000000E-03 0.  1.
</event>
<event>
 8    1  0.1208168E+005  0.1043930E+01  0.7957747E-01            NaN
         13   -1    0    0    0    0  0.00000000000E+00  0.00000000000E+00  0.74505805969E-08  0.10566000000E+00  0.10566000000E+00 0. -1.
     999900   -1    0    0    0    0 -0.00000000000E+00 -0.00000000000E+00 -0.74505805969E-08  0.93827000000E+00  0.93827000000E+00 0. -1.
     999902    2    1    2    0    0  0.20828892828E-01 -0.15944452439E-01  0.23281445395E-02  0.10175958283E+01  0.10172550227E+01 0.  0.
     999903    2    3    3    0    0 -0.24153177524E-01  0.93082493876E-01  0.79453291425E-01  0.12638398486E+00  0.20306635868E-01 0.  0.
         14    1    1    2    0    0 -0.20828892828E-01  0.15944452439E-01 -0.23281445395E-02  0.26334171660E-01  0.00000000000E+00 0.  1.
     999901    1    3    3    0    0  0.44982070352E-01 -0.10902694632E+00 -0.77125146886E-01  0.89121184348E+00  0.88000000000E+00 0. -1.
        -11    1    4    4    0    0 -0.11901972322E-02  0.75426656190E-02  0.15017212912E-01  0.16854856236E-01  0.51100000000E-03 0.  1.
         11    1    4    4    0    0 -0.22962980292E-01  0.85539828257E-01  0.64436078513E-01  0.10952912862E+00  0.51100000000E-03 0. -1.
</event>
<event>
 8    1  0.1208168E+005  0.1043930E+01  0.7957747E-01            NaN
         13   -1    0    0    0    0  0.00000000000E+00  0.00000000000E+00  0.74505805969E-08  0.10566000000E+00  0.10566000000E+00 0.  1.
     999900   -1    0    0    0    0 -0.00000000000E+00 -0.00000000000E+00 -0.74505805969E-08  0.93827000000E+00  0.93827000000E+00 0. -1.
     999902    2    1    2    0    0 -0.15933514949E-01 -0.12001966596E-01 -0.15127934741E-01  0.10188944551E+01  0.10185868309E+01 0.  0.
     999903    2    3    3    0    0 -0.13986050116E-01 -0.86137384788E-01  0.93131272386E-01  0.12916421011E+00  0.19867073817E-01 0.  0.
         14    1    1    2    0    0  0.15933514949E-01  0.12001966596E-01  0.15127934741E-01  0.25035544937E-01  0.00000000000E+00 0. -1.
     999901    1    3    3    0    0 -0.19474648326E-02  0.74135418192E-01 -0.10825920713E+00  0.88973024495E+00  0.88000000000E+00 0. -1.
        -11    1    4    4    0    0 -0.18175477979E-01 -0.61611061054E-01  0.72248112443E-01  0.96676376207E-01  0.51100000000E-03 0. -1.
         11    1    4    4    0    0  0.41894278631E-02 -0.24526323733E-01  0.20883159943E-01  0.32487833906E-01  0.51100000000E-03 0.  1.
</event>
<event>
 7    1  0.1208168E+005  0.1043930E+01  0.7957747E-01            NaN
         13   -1    0    0    0    0  0.00000000000E+00  0.00000000000E+00  0.74505805969E-08  0.10566000000E+00  0.10566000000E+00 0.  1.
     999900   -1    0    0    0    0 -0.00000000000E+00 -0.00000000000E+00 -0.74505805969E-08  0.93827000000E+00  0.93827000000E+00 0. -1.
     999903    2    1    2    0    0  0.11274224962E+00 -0.22348183334E-02  0.23796880733E-01  0.11701460664E+00  0.20256292149E-01 0.  0.
         14    1    1    2    0    0  0.86809313171E-02  0.26285013343E-01 -0.26394912870E-01  0.38248554488E-01  0.00000000000E+00 0. -1.
     999901    1    1    2    0    0 -0.12142318093E+00 -0.24050195010E-01  0.25980321364E-02  0.88866683888E+00  0.88000000000E+00 0.  1.
        -11    1    3    3    0    0  0.83254477252E-01 -0.13491254015E-02  0.26508621056E-01  0.87384759730E-01  0.51100000000E-03 0.  1.
         11    1    3    3    0    0  0.29487772366E-01 -0.88569293187E-03 -0.27117403222E-02  0.29629846906E-01  0.51100000000E-03 0. -1.
</event>
<event>
 8    1  0.1208168E+005  0.1043930E+01  0.7957747E-01            NaN
         13   -1    0    0    0    0  0.00000000000E+00  0.00000000000E+00  0.74505805969E-08  0.10566000000E+00  0.10566000000E+00 0.  1.
     999900   -1    0    0    0    0 -0.00000000000E+00 -0.00000000000E+00 -0.74505805969E-08  0.93827000000E+00  0.93827000000E+00 0.  1.
     999902    2    1    2    0    0 -0.11511182547E-01  0.49347622584E-02 -0.19385614933E-01  0.10208505444E+01  0.10205896202E+01 0.  0.
     999903    2    3    3    0    0 -0.62222773536E-01  0.75695974049E-01 -0.88809319010E-01  0.13383393511E+00  0.20563876348E-01 0.  0.
         14    1    1    2    0    0  0.11511182547E-01 -0.49347622584E-02  0.19385614933E-01  0.23079455550E-01  0.00000000000E+00 0.  1.
     999901    1    3    3    0    0  0.50711590989E-01 -0.70761211791E-01  0.69423704077E-01  0.88701660934E+00  0.88000000000E+00 0. -1.
        -11    1    4    4    0    0 -0.33264819128E-01  0.41867196379E-01 -0.34666837885E-01  0.63729593551E-01  0.51100000000E-03 0.  1.
         11    1    4    4    0    0 -0.28957954409E-01  0.33828777670E-01 -0.54142481125E-01  0.70104341560E-01  0.51100000000E-03 0. -1.
</event>
<event>
 8    1  0.1208168E+005  0.1043930E+01  0.7957747E-01            NaN
         13   -1    0    0    0    0  0.00000000000E+00  0.00000000000E+00  0.74505805969E-08  0.10566000000E+00  0.10566000000E+00 0.  1.
     999900   -1    0    0    0    0 -0.00000000000E+00 -0.00000000000E+00 -0.74505805969E-08  0.93827000000E+00  0.93827000000E+00 0. -1.
     999902    2    1    2    0    0  0.21247309907E-01  0.10393519885E-01 -0.21195923243E-02  0.10201820294E+01  0.10199055873E+01 0.  0.
     999903    2    3    3    0    0 -0.12215057362E+00 -0.24934879017E-02 -0.32421414855E-01  0.12796724117E+00  0.19937064833E-01 0.  0.
         14    1    1    2    0    0 -0.21247309907E-01 -0.10393519885E-01  0.21195923243E-02  0.23747970556E-01  0.00000000000E+00 0. -1.
     999901    1    3    3    0    0  0.14339788352E+00  0.12887007787E-01  0.30301822531E-01  0.89221478828E+00  0.88000000000E+00 0. -1.
        -11    1    4    4    0    0 -0.79256021972E-01 -0.88158279435E-02 -0.14526201176E-01  0.81058666920E-01  0.51100000000E-03 0. -1.
         11    1    4    4    0    0 -0.42894551645E-01  0.63223400418E-02 -0.17895213680E-01  0.46908574249E-01  0.51100000000E-03 0.  1.
</event>
<event>
 8    1  0.1208168E+005  0.1043930E+01  0.7957747E-01            NaN
         13   -1    0    0    0    0  0.00000000000E+00  0.00000000000E+00  0.74505805969E-08  0.10566000000E+00  0.10566000000E+00 0. -1.
     999900   -1    0    0    0    0 -0.00000000000E+00 -0.00000000000E+00 -0.74505805969E-08  0.93827000000E+00  0.93827000000E+00 0. -1.
     999902    2    1    2    0    0 -0.15492190280E-01  0.34434967112E-03  0.13545816043E-01  0.10233480742E+01  0.10231410779E+01 0.  0.
     999903    2    3    3    0    0  0.75244624212E-01 -0.28651525853E-01 -0.10048269641E+00  0.13089279134E+00  0.23526307401E-01 0.  0.
         14    1    1    2    0    0  0.15492190280E-01 -0.34434967112E-03 -0.13545816043E-01  0.20581925776E-01  0.00000000000E+00 0.  1.
     999901    1    3    3    0    0 -0.90736814492E-01  0.28995875524E-01  0.11402851245E+00  0.89245528289E+00  0.88000000000E+00 0.  1.
        -11    1    4    4    0    0  0.30191057918E-01 -0.12913395939E-01 -0.23750420843E-01  0.40528994363E-01  0.51100000000E-03 0.  1.
         11    1    4    4    0    0  0.45053566294E-01 -0.15738129914E-01 -0.76732275566E-01  0.90363796974E-01  0.51100000000E-03 0. -1.
</event>
<event>
 8    1  0.1208168E+005  0.1043930E+01  0.7957747E-01            NaN
         13   -1    0    0    0    0  0.00000000000E+00  0.00000000000E+00  0.74505805969E-08  0.10566000000E+00  0.10566000000E+00 0.  1.
     999900   -1    0    0    0    0 -0.00000000000E+00 -0.00000000000E+00 -0.74505805969E-08  0.93827000000E+00  0.93827000000E+00 0.  1.
     999902    2    1    2    0    0  0.17270799889E-01 -0.16781770207E-01 -0.29252477748E-02  0.10196716939E+01  0.10193830967E+01 0.  0.
     999903    2    3    3    0    0 -0.90430209648E-02 -0.90287523021E-01  0.92687222280E-01  0.13105633432E+00  0.18741092528E-01 0.  0.
         14    1    1    2    0    0 -0.17270799889E-01  0.16781770207E-01  0.29252477748E-02  0.24258306096E-01  0.00000000000E+00 0. -1.
     999901    1    3    3    0    0  0.26313820854E-01  0.73505752814E-01 -0.95612470055E-01  0.88861535959E+00  0.88000000000E+00 0.  1.
        -11    1    4    4    0    0 -0.43866677713E-02 -0.67239884825E-02  0.14183111905E-01  0.16305724748E-01  0.51100000000E-03 0.  1.
         11    1    4    4    0    0 -0.46563531935E-02 -0.83563534538E-01  0.78504110375E-01  0.11475060957E+00  0.51100000000E-03 0. -1.
</event>
<event>
 8    1  0.1275339E+005  0.1043930E+01  0.7957747E-01            NaN
         13   -1    0    0    0    0  0.00000000000E+00  0.00000000000E+00  0.74505805969E-08  0.10566000000E+00  0.10566000000E+00 0.  1.
     999900   -1    0    0    0    0 -0.00000000000E+00 -0.00000000000E+00 -0.74505805969E-08  0.93827000000E+00  0.93827000000E+00 0. -1.
     999902    2    1    2    0    0 -0.16964790198E-02  0.13669351078E-01 -0.18675824880E-01  0.10207240604E+01  0.10204602353E+01 0.  0.
     999903    2    3    3    0    0  0.12755417620E+00  0.88412911343E-02 -0.22272233069E-01  0.13126243881E+00  0.19635151688E-01 0.  0.
         14    1    1    2    0    0  0.16964790198E-02 -0.13669351078E-01  0.18675824880E-01  0.23205939647E-01  0.00000000000E+00 0.  1.
     999901    1    3    3    0    0 -0.12925065522E+00  0.48280599434E-02  0.35964081886E-02  0.88946162154E+00  0.88000000000E+00 0. -1.
        -11    1    4    4    0    0  0.60450761270E-01  0.44716040025E-02 -0.64067367542E-03  0.60621459602E-01  0.51100000000E-03 0. -1.
         11    1    4    4    0    0  0.67103414933E-01  0.43696871318E-02 -0.21631559393E-01  0.70640979212E-01  0.51100000000E-03 0.  1.
</event>
<event>
 8    1  0.1208168E+005  0.1043930E+01  0.7957747E-01            NaN
         13   -1    0    0    0    0  0.00000000000E+00  0.00000000000E+00  0.74505805969E-08  0.10566000000E+00  0.10566000000E+00 0.  1.
     999900   -1    0    0    0    0 -0.00000000000E+00 -0.00000000000E+00 -0.74505805969E-08  0.93827000000E+00  0.93827000000E+00 0. -1.
     999902    2    1    2    0    0  0.20372403259E-02  0.94531774560E-02 -0.21665248531E-01  0.10202045726E+01  0.10199286612E+01 0.  0.
     999903    2    3    3    0    0 -0.71287971133E-01  0.78833834195E-01  0.71232428482E-01  0.12957544631E+00  0.20469225146E-01 0.  0.
         14    1    1    2    0    0 -0.20372403259E-02 -0.94531774560E-02  0.21665248531E-01  0.23725427416E-01  0.00000000000E+00 0.  1.
     999901    1    3    3    0    0  0.73325211459E-01 -0.69380656739E-01 -0.92897677012E-01  0.89062912627E+00  0.88000000000E+00 0.  1.
        -11    1    4    4    0    0 -0.46720200509E-01  0.40449896420E-01  0.48986802583E-01  0.78860251105E-01  0.51100000000E-03 0.  1.
         11    1    4    4    0    0 -0.24567770625E-01  0.38383937775E-01  0.22245625899E-01  0.50715195210E-01  0.51100000000E-03 0. -1.
</event>
<event>
 8    1  0.1208168E+005  0.1043930E+01  0.7957747E-01            NaN
         13   -1    0    0    0    0  0.00000000000E+00  0.00000000000E+00  0.74505805969E-08  0.10566000000E+00  0.10566000000E+00 0. -1.
     999900   -1    0    0    0    0 -0.00000000000E+00 -0.00000000000E+00 -0.74505805969E-08  0.93827000000E+00  0.93827000000E+00 0.  1.
     999902    2    1    2    0    0  0.68331562623E-02 -0.61339214464E-02  0.21100820691E-01  0.10209177934E+01  0.10206584048E+01 0.  0.
     999903    2    3    3    0    0  0.74621168340E-01 -0.34279632964E-01  0.10290075795E+00  0.13408149209E+00  0.25413943710E-01 0.  0.
         14    1    1    2    0    0 -0.68331562623E-02  0.61339214464E-02 -0.21100820691E-01  0.23012206557E-01  0.00000000000E+00 0.  1.
     999901    1    3    3    0    0 -0.67788012078E-01  0.28145711518E-01 -0.81799937257E-01  0.88683630135E+00  0.88000000000E+00 0.  1.
        -11    1    4    4    0    0  0.21139534510E-01  0.16450515461E-02  0.30690686849E-01  0.37306373372E-01  0.51100000000E-03 0.  1.
         11    1    4    4    0    0  0.53481633830E-01 -0.35924684510E-01  0.72210071099E-01  0.96775118721E-01  0.51100000000E-03 0. -1.
</event>
<event>
 8    1  0.1208168E+005  0.1043930E+01  0.7957747E-01            NaN
         13   -1    0    0    0    0  0.00000000000E+00  0.00000000000E+00  0.74505805969E-08  0.10566000000E+00  0.10566000000E+00 0. -1.
     999900   -1    0    0    0    0 -0.00000000000E+00 -0.00000000000E+00 -0.74505805969E-08  0.93827000000E+00  0.93827000000E+00 0.  1.
     999902    2    1    2    0    0  0.14384555922E-01 -0.17947348264E-01 -0.42909238941E-02  0.10205326757E+01  0.10202644301E+01 0.  0.
     999903    2    3    3    0    0  0.16359873003E-01 -0.24958979007E-01 -0.12684449002E+00  0.13201005838E+00  0.21131369732E-01 0.  0.
         14    1    1    2    0    0 -0.14384555922E-01  0.17947348264E-01  0.42909238941E-02  0.23397324348E-01  0.00000000000E+00 0.  1.
     999901    1    3    3    0    0 -0.19753170807E-02  0.70116307433E-02  0.12255356612E+00  0.88852261728E+00  0.88000000000E+00 0. -1.
        -11    1    4    4    0    0  0.56258030598E-02 -0.17360092586E-01 -0.37570677780E-01  0.41771275112E-01  0.51100000000E-03 0. -1.
         11    1    4    4    0    0  0.10734069943E-01 -0.75988864210E-02 -0.89273812237E-01  0.90238783263E-01  0.51100000000E-03 0.  1.
</event>
<event>
 8    1  0.1208168E+005  0.1043930E+01  0.7957747E-01            NaN
         13   -1    0    0    0    0  0.00000000000E+00  0.00000000000E+00  0.74505805969E-08  0.10566000000E+00  0.10566000000E+00 0.  1.
     999900   -1    0    0    0    0 -0.00000000000E+00 -0.00000000000E+00 -0.74505805969E-08  0.93827000000E+00  0.93827000000E+00 0. -1.
     999902    2    1    2    0    0  0.16630287937E-01  0.12309914848E-01 -0.12055448246E-02  0.10232043198E+01  0.10229943921E+01 0.  0.
     999903    2    3    3    0    0 -0.13667459116E-01 -0.67296450136E-01 -0.11042428091E+00  0.13237108115E+00  0.24758224269E-01 0.  0.
         14    1    1    2    0    0 -0.16630287937E-01 -0.12309914848E-01  0.12055448246E-02  0.20725680176E-01  0.00000000000E+00 0. -1.
     999901    1    3    3    0    0  0.30297747053E-01  0.79606364983E-01  0.10921873609E+00  0.89083323868E+00  0.88000000000E+00 0.  1.
        -11    1    4    4    0    0 -0.43475471610E-02 -0.10991201472E-01 -0.40058042455E-01  0.41768595409E-01  0.51100000000E-03 0.  1.
         11    1    4    4    0    0 -0.93199119552E-02 -0.56305248664E-01 -0.70366238458E-01  0.90602485736E-01  0.51100000000E-03 0. -1.
</event>
<event>
 8    1  0.1208168E+005  0.1043930E+01  0.7957747E-01            NaN
         13   -1    0    0    0    0  0.00000000000E+00  0.00000000000E+00  0.74505805969E-08  0.10566000000E+00  0.10566000000E+00 0. -1.
     999900   -1    0    0    0    0 -0.00000000000E+00 -0.00000000000E+00 -0.74505805969E-08  0.93827000000E+00  0.93827000000E+00 0.  1.
     999902    2    1    2    0    0 -0.20924020405E-01  0.11951324466E-02  0.12337986124E-01  0.10196098669E+01  0.10193197790E+01 0.  0.
     999903    2    3    3    0    0  0.10549617420E+00 -0.26599569907E-01 -0.62165346975E-01  0.12702633709E+00  0.20836987795E-01 0.  0.
         14    1    1    2    0    0  0.20924020405E-01 -0.11951324466E-02 -0.12337986124E-01  0.24320133081E-01  0.00000000000E+00 0.  1.
     999901    1    3    3    0    0 -0.12642019460E+00  0.27794702353E-01  0.74503333099E-01  0.89258352983E+00  0.88000000000E+00 0. -1.
        -11    1    4    4    0    0  0.14680107532E-01 -0.11378130430E-01 -0.12602213235E-01  0.22450931131E-01  0.51100000000E-03 0.  1.
         11    1    4    4    0    0  0.90816066663E-01 -0.15221439477E-01 -0.49563133740E-01  0.10457540596E+00  0.51100000000E-03 0. -1.
</event>
<event>
 8    1  0.1208168E+005  0.1043930E+01  0.7957747E-01            NaN
         13   -1    0    0    0    0  0.00000000000E+00  0.00000000000E+00  0.74505805969E-08  0.10566000000E+00  0.10566000000E+00 0.  1.
     999900   -1    0    0    0    0 -0.00000000000E+00 -0.00000000000E+00 -0.74505805969E-08  0.93827000000E+00  0.93827000000E+00 0. -1.
     999902    2    1    2    0    0  0.17178258818E-01 -0.20445138348E-02 -0.16209276534E-01  0.10202231812E+01  0.10199477076E+01 0.  0.
     999903    2    3    3    0    0 -0.77600739943E-01 -0.10147805996E+00 -0.53200879947E-02  0.12949950735E+00  0.20546230170E-01 0.  0.
         14    1    1    2    0    0 -0.17178258818E-01  0.20445138348E-02  0.16209276534E-01  0.23706818821E-01  0.00000000000E+00 0. -1.
     999901    1    3    3    0    0  0.94778998761E-01  0.99433546122E-01 -0.10889188539E-01  0.89072367383E+00  0.88000000000E+00 0.  1.
        -11    1    4    4    0    0 -0.31382164598E-01 -0.37869582519E-01  0.77492512198E-02  0.49792143462E-01  0.51100000000E-03 0. -1.
         11    1    4    4    0    0 -0.46218575345E-01 -0.63608477437E-01 -0.13069339214E-01  0.79707363884E-01  0.51100000000E-03 0.  1.
</event>
<event>
 8    1  0.1208168E+005  0.1043930E+01  0.7957747E-01            NaN
         13   -1    0    0    0    0  0.00000000000E+00  0.00000000000E+00  0.74505805969E-08  0.10566000000E+00  0.10566000000E+00 0.  1.
     999900   -1    0    0    0    0 -0.00000000000E+00 -0.00000000000E+00 -0.74505805969E-08  0.93827000000E+00  0.93827000000E+00 0. -1.
     999902    2    1    2    0    0 -0.30075853033E-02 -0.19851889775E-01 -0.11674025948E-01  0.10207044542E+01  0.10204401780E+01 0.  0.
     999903    2    3    3    0    0 -0.12836030376E+00 -0.20942228483E-01  0.19376842220E-02  0.13171639379E+00  0.20748717010E-01 0.  0.
         14    1    1    2    0    0  0.30075853033E-02  0.19851889775E-01  0.11674025948E-01  0.23225545824E-01  0.00000000000E+00 0.  1.
     999901    1    3    3    0    0  0.12535271845E+00  0.10903387075E-02 -0.13611710170E-01  0.88898806039E+00  0.88000000000E+00 0. -1.
        -11    1    4    4    0    0 -0.74897129494E-01 -0.11755309305E-01  0.11337886725E-01  0.76658829235E-01  0.51100000000E-03 0. -1.
         11    1    4    4    0    0 -0.53463174262E-01 -0.91869191783E-02 -0.94002025026E-02  0.55057564551E-01  0.51100000000E-03 0.  1.
</event>
<event>
 8    1  0.1208168E+005  0.1043930E+01  0.7957747E-01            NaN
         13   -1    0    0    0    0  0.00000000000E+00  0.00000000000E+00  0.74505805969E-08  0.10566000000E+00  0.10566000000E+00 0. -1.
     999900   -1    0    0    0    0 -0.00000000000E+00 -0.00000000000E+00 -0.74505805969E-08  0.93827000000E+00  0.93827000000E+00 0.  1.
     999902    2    1    2    0    0  0.17987112317E-01  0.13047100291E-01  0.76574677210E-02  0.10204268120E+01  0.10201561051E+01 0.  0.
     999903    2    3    3    0    0 -0.20666978643E-01 -0.12006785377E+00 -0.36385693863E-01  0.12848873687E+00  0.18493871082E-01 0.  0.
         14    1    1    2    0    0 -0.17987112317E-01 -0.13047100291E-01 -0.76574677210E-02  0.23503188027E-01  0.00000000000E+00 0.  1.
     999901    1    3    3    0    0  0.38654090960E-01  0.13311495406E+00  0.44043161584E-01  0.89193807511E+00  0.88000000000E+00 0. -1.
        -11    1    4    4    0    0 -0.12612471751E-02 -0.43448747619E-01 -0.63368468878E-02  0.43929502201E-01  0.51100000000E-03 0.  1.
         11    1    4    4    0    0 -0.19405731468E-01 -0.76619106154E-01 -0.30048846976E-01  0.84559234665E-01  0.51100000000E-03 0. -1.
</event>
<event>
 8    1  0.1208168E+005  0.1043930E+01  0.7957747E-01            NaN
         13   -1    0    0    0    0  0.00000000000E+00  0.00000000000E+00  0.74505805969E-08  0.10566000000E+00  0.10566000000E+00 0.  1.
     999900   -1    0    0    0    0 -0.00000000000E+00 -0.00000000000E+00 -0.74505805969E-08  0.93827000000E+00  0.93827000000E+00 0.  1.
     999902    2    1    2    0    0  0.73148753189E-02 -0.58111524167E-03 -0.22475480261E-01  0.10202869818E+01  0.10200130063E+01 0.  0.
     999903    2    3    3    0    0  0.25642992932E-01  0.83660506599E-01 -0.97904653768E-01  0.13286254505E+00  0.20260582374E-01 0.  0.
         14    1    1    2    0    0 -0.73148753189E-02  0.58111524167E-03  0.22475480261E-01  0.23643018184E-01  0.00000000000E+00 0.  1.
     999901    1    3    3    0    0 -0.18328117613E-01 -0.84241621840E-01  0.75429173507E-01  0.88742443676E+00  0.88000000000E+00 0. -1.
        -11    1    4    4    0    0  0.42070381982E-02  0.45636304548E-01 -0.55835353414E-01  0.72237242992E-01  0.51100000000E-03 0.  1.
         11    1    4    4    0    0  0.21435954734E-01  0.38024202051E-01 -0.42069300354E-01  0.60625302063E-01  0.51100000000E-03 0. -1.
</event>
<event>
 8    1  0.1208168E+005  0.1043930E+01  0.7957747E-01            NaN
         13   -1    0    0    0    0  0.00000000000E+00  0.00000000000E+00  0.74505805969E-08  0.10566000000E+00  0.10566000000E+00 0.  1.
     999900   -1    0    0    0    0 -0.00000000000E+00 -0.00000000000E+00 -0.74505805969E-08  0.93827000000E+00  0.93827000000E+00 0.  1.
     999902    2    1    2    0    0 -0.18793341156E-02 -0.22573523696E-01  0.80536856170E-02  0.10198892487E+01  0.10196058660E+01 0.  0.
     999903    2    3    3    0    0 -0.90565521991E-02 -0.20840386323E-01  0.12818037594E+00  0.13169729992E+00  0.19940591529E-01 0.  0.
         14    1    1    2    0    0  0.18793341156E-02  0.22573523696E-01 -0.80536856170E-02  0.24040751253E-01  0.00000000000E+00 0. -1.
     999901    1    3    3    0    0  0.71772180836E-02 -0.17331373736E-02 -0.12012669033E+00  0.88819194882E+00  0.88000000000E+00 0.  1.
        -11    1    4    4    0    0 -0.36346184557E-02 -0.22105861994E-01  0.11774649992E+00  0.11985983043E+00  0.51100000000E-03 0.  1.
         11    1    4    4    0    0 -0.54219337434E-02  0.12654756716E-02  0.10433876020E-01  0.11837469493E-01  0.51100000000E-03 0. -1.
</event>
<event>
 8    1  0.1208168E+005  0.1043930E+01  0.7957747E-01            NaN
         13   -1    0    0    0    0  0.00000000000E+00  0.00000000000E+00  0.74505805969E-08  0.10566000000E+00  0.10566000000E+00 0.  1.
     999900   -1    0    0    0    0 -0.00000000000E+00 -0.00000000000E+00 -0.74505805969E-08  0.93827000000E+00  0.93827000000E+00 0.  1.
     999902    2    1    2    0    0 -0.13703341142E-01 -0.91010177775E-02  0.18842282785E-01  0.10189171692E+01  0.10186101099E+01 0.  0.
     999903    2    3    3    0    0  0.88644933271E-01 -0.31974082484E-01  0.87291710328E-01  0.13005066040E+00  0.20324011275E-01 0.  0.
         14    1    1    2    0    0  0.13703341142E-01  0.91010177775E-02 -0.18842282785E-01  0.25012830779E-01  0.00000000000E+00 0. -1.
     999901    1    3    3    0    0 -0.10234827441E+00  0.22873064707E-01 -0.68449427543E-01  0.88886650882E+00  0.88000000000E+00 0.  1.
        -11    1    4    4    0    0  0.40132226737E-01 -0.41071739736E-02  0.39621155491E-01  0.56546985634E-01  0.51100000000E-03 0. -1.
         11    1    4    4    0    0  0.48512706534E-01 -0.27866908511E-01  0.47670554838E-01  0.73503674770E-01  0.51100000000E-03 0.  1.
</event>
<event>
 8    1  0.1208168E+005  0.1043930E+01  0.7957747E-01            NaN
         13   -1    0    0    0    0  0.00000000000E+00  0.00000000000E+00  0.74505805969E-08  0.10566000000E+00  0.10566000000E+00 0.  1.
     999900   -1    0    0    0    0 -0.00000000000E+00 -0.00000000000E+00 -0.74505805969E-08  0.93827000000E+00  0.93827000000E+00 0. -1.
     999902    2    1    2    0    0  0.16889385220E-01 -0.29615896491E-02 -0.15765268904E-01  0.10206369528E+01  0.10203711204E+01 0.  0.
     999903    2    3    3    0    0  0.10880545369E+00  0.55498688417E-01 -0.50215549881E-01  0.13325147304E+00  0.17765766153E-01 0.  0.
         14    1    1    2    0    0 -0.16889385220E-01  0.29615896491E-02  0.15765268904E-01  0.23293047245E-01  0.00000000000E+00 0.  1.
     999901    1    3    3    0    0 -0.91916068474E-01 -0.58460278066E-01  0.34450280978E-01  0.88738547972E+00  0.88000000000E+00 0.  1.
        -11    1    4    4    0    0  0.48908883432E-01  0.34537265053E-01 -0.26932467077E-01  0.65654553991E-01  0.51100000000E-03 0. -1.
         11    1    4    4    0    0  0.59896570262E-01  0.20961423364E-01 -0.23283082804E-01  0.67596919045E-01  0.51100000000E-03 0.  1.
</event>
<event>
 7    1  0.1208168E+005  0.1043930E+01  0.7957747E-01            NaN
         13   -1    0    0    0    0  0.00000000000E+00  0.00000000000E+00  0.74505805969E-08  0.10566000000E+00  0.10566000000E+00 0.  1.
     999900   -1    0    0    0    0 -0.00000000000E+00 -0.00000000000E+00 -0.74505805969E-08  0.93827000000E+00  0.93827000000E+00 0. -1.
     999903    2    1    2    0    0  0.43013420215E-01 -0.12115685562E+00 -0.60309258172E-01  0.14320082100E+00  0.18442628118E-01 0.  0.
         14    1    1    2    0    0  0.69736169551E-02 -0.46121590720E-02  0.67254061306E-03  0.83878278248E-02  0.00000000000E+00 0.  1.
     999901    1    1    2    0    0 -0.49987037170E-01  0.12576901469E+00  0.59636717559E-01  0.89234135118E+00  0.88000000000E+00 0.  1.
        -11    1    3    3    0    0  0.65729086425E-02 -0.43080777918E-01 -0.23379894280E-01  0.49457427466E-01  0.51100000000E-03 0.  1.
         11    1    3    3    0    0  0.36440511572E-01 -0.78076077698E-01 -0.36929363893E-01  0.93743393532E-01  0.51100000000E-03 0. -1.
</event>
<event>
 8    1  0.1208168E+005  0.1043930E+01  0.7957747E-01            NaN
         13   -1    0    0    0    0  0.00000000000E+00  0.00000000000E+00  0.74505805969E-08  0.10566000000E+00  0.10566000000E+00 0. -1.
     999900   -1    0    0    0    0 -0.00000000000E+00 -0.00000000000E+00 -0.74505805969E-08  0.93827000000E+00  0.93827000000E+00 0. -1.
     999902    2    1    2    0    0  0.54143487788E-03 -0.20765067474E-01  0.43432480164E-02  0.10227086668E+01  0.10224884704E+01 0.  0.
     999903    2    3    3    0    0 -0.81539871380E-01 -0.98597200777E-01 -0.36325059584E-01  0.13453689680E+00  0.20260997502E-01 0.  0.
         14    1    1    2    0    0 -0.54143487788E-03  0.20765067474E-01 -0.43432480164E-02  0.21221333188E-01  0.00000000000E+00 0.  1.
     999901    1    3    3    0    0  0.82081306258E-01  0.77832133303E-01  0.40668307600E-01  0.88817177002E+00  0.88000000000E+00 0.  1.
        -11    1    4    4    0    0 -0.18711059667E-01 -0.34025001501E-01 -0.16999131077E-01  0.42391462105E-01  0.51100000000E-03 0.  1.
         11    1    4    4    0    0 -0.62828811713E-01 -0.64572199276E-01 -0.19325928507E-01  0.92145434691E-01  0.51100000000E-03 0. -1.
</event>
<event>
 8    1  0.1208168E+005  0.1043930E+01  0.7957747E-01            NaN
         13   -1    0    0    0    0  0.00000000000E+00  0.00000000000E+00  0.74505805969E-08  0.10566000000E+00  0.10566000000E+00 0. -1.
     999900   -1    0    0    0    0 -0.00000000000E+00 -0.00000000000E+00 -0.74505805969E-08  0.93827000000E+00  0.93827000000E+00 0. -1.
     999902    2    1    2    0    0  0.22779782136E-01 -0.46176530121E-02  0.51930901969E-02  0.10201138421E+01  0.10198357914E+01 0.  0.
     999903    2    3    3    0    0  0.17420167266E-01  0.11945860549E+00  0.45339930767E-01  0.13048728433E+00  0.19934929069E-01 0.  0.
         14    1    1    2    0    0 -0.22779782136E-01  0.46176530121E-02 -0.51930901969E-02  0.23816157946E-01  0.00000000000E+00 0. -1.
     999901    1    3    3    0    0  0.53596148702E-02 -0.12407625850E+00 -0.40146840570E-01  0.88962655772E+00  0.88000000000E+00 0. -1.
        -11    1    4    4    0    0  0.86074180184E-02  0.45852592614E-01  0.27787323609E-01  0.54304183713E-01  0.51100000000E-03 0. -1.
         11    1    4    4    0    0  0.88127492477E-02  0.73606012877E-01  0.17552607158E-01  0.76183100619E-01  0.51100000000E-03 0.  1.
</event>
<event>
 8    1  0.1208168E+005  0.1043930E+01  0.7957747E-01            NaN
         13   -1    0    0    0    0  0.00000000000E+00  0.00000000000E+00  0.74505805969E-08  0.10566000000E+00  0.10566000000E+00 0. -1.
     999900   -1    0    0    0    0 -0.00000000000E+00 -0.00000000000E+00 -0.74505805969E-08  0.93827000000E+00  0.93827000000E+00 0.  1.
     999902    2    1    2    0    0 -0.17187123668E-01 -0.15457834725E-01  0.87980680939E-02  0.10191964625E+01  0.10188963055E+01 0.  0.
     999903    2    3    3    0    0 -0.82886922495E-01 -0.84830768181E-01  0.56414890767E-01  0.13274486809E+00  0.19288829723E-01 0.  0.
         14    1    1    2    0    0  0.17187123668E-01  0.15457834725E-01 -0.87980680939E-02  0.24733537486E-01  0.00000000000E+00 0. -1.
     999901    1    3    3    0    0  0.65699798827E-01  0.69372933456E-01 -0.47616822673E-01  0.88645159443E+00  0.88000000000E+00 0. -1.
        -11    1    4    4    0    0 -0.99913156051E-02 -0.14309075403E-01  0.15602011073E-01  0.23414950287E-01  0.51100000000E-03 0. -1.
         11    1    4    4    0    0 -0.72895606890E-01 -0.70521692777E-01  0.40812879694E-01  0.10932991780E+00  0.51100000000E-03 0.  1.
</event>
<event>
 8    1  0.1208168E+005  0.1043930E+01  0.7957747E-01            NaN
         13   -1    0    0    0    0  0.00000000000E+00  0.00000000000E+00  0.74505805969E-08  0.10566000000E+00  0.10566000000E+00 0.  1.
     999900   -1    0    0    0    0 -0.00000000000E+00 -0.00000000000E+00 -0.74505805969E-08  0.93827000000E+00  0.93827000000E+00 0. -1.
     999902    2    1    2    0    0 -0.15208693702E-01 -0.18187888635E-01  0.49354893412E-02  0.10197130078E+01  0.10194254046E+01 0.  0.
     999903    2    3    3    0    0  0.71216374503E-01  0.97588509179E-01 -0.34176787021E-01  0.12707465051E+00  0.19611856376E-01 0.  0.
         14    1    1    2    0    0  0.15208693702E-01  0.18187888635E-01 -0.49354893412E-02  0.24216992219E-01  0.00000000000E+00 0. -1.
     999901    1    3    3    0    0 -0.86425068205E-01 -0.11577639781E+00  0.39112276362E-01  0.89263835727E+00  0.88000000000E+00 0.  1.
        -11    1    4    4    0    0  0.39014418836E-01  0.48006167112E-01 -0.27066945934E-01  0.67524792788E-01  0.51100000000E-03 0. -1.
         11    1    4    4    0    0  0.32201955667E-01  0.49582342068E-01 -0.71098410870E-02  0.59549857724E-01  0.51100000000E-03 0.  1.
</event>
<event>
 8    1  0.1208168E+005  0.1043930E+01  0.7957747E-01            NaN
         13   -1    0    0    0    0  0.00000000000E+00  0.00000000000E+00  0.74505805969E-08  0.10566000000E+00  0.10566000000E+00 0.  1.
     999900   -1    0    0    0    0 -0.00000000000E+00 -0.00000000000E+00 -0.74505805969E-08  0.93827000000E+00  0.93827000000E+00 0.  1.
     999902    2    1    2    0    0 -0.14536893360E-01 -0.16776647456E-01  0.87731500120E-02  0.10200606613E+01  0.10197813528E+01 0.  0.
     999903    2    3    3    0    0  0.43804628626E-01  0.11758794616E+00 -0.11851050969E-01  0.12771379216E+00  0.20605696495E-01 0.  0.
         14    1    1    2    0    0  0.14536893360E-01  0.16776647456E-01 -0.87731500120E-02  0.23869338691E-01  0.00000000000E+00 0.  1.
     999901    1    3    3    0    0 -0.58341521986E-01 -0.13436459362E+00  0.20624200981E-01  0.89234686914E+00  0.88000000000E+00 0.  1.
        -11    1    4    4    0    0  0.32592113884E-01  0.91274803698E-01 -0.17677338728E-01  0.98519465605E-01  0.51100000000E-03 0. -1.
         11    1    4    4    0    0  0.11212514742E-01  0.26313142465E-01  0.58262877590E-02  0.29194326560E-01  0.51100000000E-03 0.  1.
</event>
<event>
 8    1  0.1208168E+005  0.1043930E+01  0.7957747E-01            NaN
         13   -1    0    0    0    0  0.00000000000E+00  0.00000000000E+00  0.74505805969E-08  0.10566000000E+00  0.10566000000E+00 0. -1.
     999900   -1    0    0    0    0 -0.00000000000E+00 -0.00000000000E+00 -0.74505805969E-08  0.93827000000E+00  0.93827000000E+00 0.  1.
     999902    2    1    2    0    0  0.17198525148E-01  0.14578011831E-01  0.74461288056E-02  0.10201865266E+01  0.10199101904E+01 0.  0.
     999903    2    3    3    0    0  0.12180823856E+00 -0.14816498024E-01  0.46439915603E-01  0.13264624875E+00  0.19534225096E-01 0.  0.
         14    1    1    2    0    0 -0.17198525148E-01 -0.14578011831E-01 -0.74461288056E-02  0.23743473427E-01  0.00000000000E+00 0.  1.
     999901    1    3    3    0    0 -0.10460971342E+00  0.29394509855E-01 -0.38993786797E-01  0.88754027782E+00  0.88000000000E+00 0. -1.
        -11    1    4    4    0    0  0.80552380049E-01 -0.51517345485E-02  0.21730384551E-01  0.83592446035E-01  0.51100000000E-03 0.  1.
         11    1    4    4    0    0  0.41255858516E-01 -0.96647634754E-02  0.24709531052E-01  0.49053802714E-01  0.51100000000E-03 0. -1.
</event>
<event>
 8    1  0.1208168E+005  0.1043930E+01  0.7957747E-01            NaN
         13   -1    0    0    0    0  0.00000000000E+00  0.00000000000E+00  0.74505805969E-08  0.10566000000E+00  0.10566000000E+00 0.  1.
     999900   -1    0    0    0    0 -0.00000000000E+00 -0.00000000000E+00 -0.74505805969E-08  0.93827000000E+00  0.93827000000E+00 0. -1.
     999902    2    1    2    0    0 -0.13397526815E-01  0.20267588248E-01  0.81661592781E-02  0.10182988663E+01  0.10179762404E+01 0.  0.
     999903    2    3    3    0    0  0.12091380998E+00  0.34711279921E-01  0.11086823310E-01  0.12798617644E+00  0.20797146706E-01 0.  0.
         14    1    1    2    0    0  0.13397526815E-01 -0.20267588248E-01 -0.81661592781E-02  0.25631133715E-01  0.00000000000E+00 0. -1.
     999901    1    3    3    0    0 -0.13431133679E+00 -0.14443691674E-01 -0.29206640317E-02  0.89031268985E+00  0.88000000000E+00 0.  1.
        -11    1    4    4    0    0  0.91639413899E-01  0.28465923037E-01  0.17043063295E-01  0.97461880146E-01  0.51100000000E-03 0.  1.
         11    1    4    4    0    0  0.29274396080E-01  0.62453568840E-02 -0.59562399854E-02  0.30524296294E-01  0.51100000000E-03 0. -1.
</event>
<event>
 8    1  0.1208168E+005  0.1043930E+01  0.7957747E-01            NaN
         13   -1    0    0    0    0  0.00000000000E+00  0.00000000000E+00  0.74505805969E-08  0.10566000000E+00  0.10566000000E+00 0.  1.
     999900   -1    0    0    0    0 -0.00000000000E+00 -0.00000000000E+00 -0.74505805969E-08  0.93827000000E+00  0.93827000000E+00 0.  1.
     999902    2    1    2    0    0  0.15037154861E-01 -0.16634385229E-01 -0.76063327134E-02  0.10202514212E+01  0.10199766112E+01 0.  0.
     999903    2    3    3    0    0 -0.29590832824E-01  0.85886921351E-01  0.88008597585E-01  0.12803816724E+00  0.19901717885E-01 0.  0.
         14    1    1    2    0    0 -0.15037154861E-01  0.16634385229E-01  0.76063327134E-02  0.23678578834E-01  0.00000000000E+00 0.  1.
     999901    1    3    3    0    0  0.44627987685E-01 -0.10252130658E+00 -0.95614930298E-01  0.89221325393E+00  0.88000000000E+00 0.  1.
        -11    1    4    4    0    0 -0.16037815685E-01  0.32926893745E-01  0.47571364617E-01  0.60039051593E-01  0.51100000000E-03 0.  1.
         11    1    4    4    0    0 -0.13553017139E-01  0.52960027606E-01  0.40437232968E-01  0.67999115646E-01  0.51100000000E-03 0. -1.
</event>
<event>
 8    1  0.1208168E+005  0.1043930E+01  0.7957747E-01            NaN
         13   -1    0    0    0    0  0.00000000000E+00  0.00000000000E+00  0.74505805969E-08  0.10566000000E+00  0.10566000000E+00 0.  1.
     999900   -1    0    0    0    0 -0.00000000000E+00 -0.00000000000E+00 -0.74505805969E-08  0.93827000000E+00  0.93827000000E+00 0.  1.
     999902    2    1    2    0    0 -0.13123488736E-01 -0.14820571756E-01  0.10601005267E-01  0.10214743411E+01  0.10212274834E+01 0.  0.
     999903    2    3    3    0    0 -0.12944464618E+00 -0.25536947310E-01  0.76659661067E-02  0.13375024724E+00  0.20550170222E-01 0.  0.
         14    1    1    2    0    0  0.13123488736E-01  0.14820571756E-01 -0.10601005267E-01  0.22455658896E-01  0.00000000000E+00 0.  1.
     999901    1    3    3    0    0  0.11632115745E+00  0.10716375554E-01  0.29350391602E-02  0.88772409387E+00  0.88000000000E+00 0. -1.
        -11    1    4    4    0    0 -0.72631361007E-01 -0.20596695654E-01 -0.37451993161E-02  0.75589854561E-01  0.51100000000E-03 0.  1.
         11    1    4    4    0    0 -0.56813285178E-01 -0.49402516561E-02  0.11411165423E-01  0.58160392678E-01  0.51100000000E-03 0. -1.
</event>
<event>
 8    1  0.1208168E+005  0.1043930E+01  0.7957747E-01            NaN
         13   -1    0    0    0    0  0.00000000000E+00  0.00000000000E+00  0.74505805969E-08  0.10566000000E+00  0.10566000000E+00 0.  1.
     999900   -1    0    0    0    0 -0.00000000000E+00 -0.00000000000E+00 -0.74505805969E-08  0.93827000000E+00  0.93827000000E+00 0. -1.
     999902    2    1    2    0    0 -0.12044349914E-01  0.10458423951E-02 -0.19859086557E-01  0.10206804092E+01  0.10204155792E+01 0.  0.
     999903    2    3    3    0    0  0.74067065331E-01  0.88391624133E-01 -0.59313886818E-01  0.13129795907E+00  0.20542821205E-01 0.  0.
         14    1    1    2    0    0  0.12044349914E-01 -0.10458423951E-02  0.19859086557E-01  0.23249590750E-01  0.00000000000E+00 0.  1.
     999901    1    3    3    0    0 -0.86111415245E-01 -0.87345781738E-01  0.39454800261E-01  0.88938245018E+00  0.88000000000E+00 0. -1.
        -11    1    4    4    0    0  0.19513330750E-01  0.36297725595E-01 -0.15291755046E-01  0.43959001964E-01  0.51100000000E-03 0. -1.
         11    1    4    4    0    0  0.54553734581E-01  0.52093898538E-01 -0.44022131772E-01  0.87338957106E-01  0.51100000000E-03 0.  1.
</event>
<event>
 8    1  0.1208168E+005  0.1043930E+01  0.7957747E-01            NaN
         13   -1    0    0    0    0  0.00000000000E+00  0.00000000000E+00  0.74505805969E-08  0.10566000000E+00  0.10566000000E+00 0. -1.
     999900   -1    0    0    0    0 -0.00000000000E+00 -0.00000000000E+00 -0.74505805969E-08  0.93827000000E+00  0.93827000000E+00 0. -1.
     999902    2    1    2    0    0 -0.49563389624E-02  0.10240063890E-01 -0.19747177585E-01  0.10211401947E+01  0.10208858516E+01 0.  0.
     999903    2    3    3    0    0 -0.12226015675E+00  0.46518899439E-01  0.11658971972E-02  0.13236930390E+00  0.20216809035E-01 0.  0.
         14    1    1    2    0    0  0.49563389624E-02 -0.10240063890E-01  0.19747177585E-01  0.22789805330E-01  0.00000000000E+00 0. -1.
     999901    1    3    3    0    0  0.11730381778E+00 -0.36278835549E-01 -0.20913074782E-01  0.88877089077E+00  0.88000000000E+00 0.  1.
        -11    1    4    4    0    0 -0.47940093374E-01  0.27262243012E-01  0.57845169862E-02  0.55454523752E-01  0.51100000000E-03 0.  1.
         11    1    4    4    0    0 -0.74320063371E-01  0.19256656427E-01 -0.46186197890E-02  0.76914780153E-01  0.51100000000E-03 0. -1.
</event>
<event>
 8    1  0.1208168E+005  0.1043930E+01  0.7957747E-01            NaN
         13   -1    0    0    0    0  0.00000000000E+00  0.00000000000E+00  0.74505805969E-08  0.10566000000E+00  0.10566000000E+00 0. -1.
     999900   -1    0    0    0    0 -0.00000000000E+00 -0.00000000000E+00 -0.74505805969E-08  0.93827000000E+00  0.93827000000E+00 0. -1.
     999902    2    1    2    0    0  0.14938590017E-01  0.44777275469E-02 -0.17415532649E-01  0.10205523976E+01  0.10202846093E+01 0.  0.
     999903    2    3    3    0    0  0.10483177186E+00  0.49222793729E-01 -0.63590255967E-01  0.13363920561E+00  0.20078167438E-01 0.  0.
         14    1    1    2    0    0 -0.14938590017E-01 -0.44777275469E-02  0.17415532649E-01  0.23377602382E-01  0.00000000000E+00 0. -1.
     999901    1    3    3    0    0 -0.89893181843E-01 -0.44745066182E-01  0.46174723318E-01  0.88691319201E+00  0.88000000000E+00 0.  1.
        -11    1    4    4    0    0  0.82851424435E-01  0.47293895481E-01 -0.53404022915E-01  0.10933124835E+00  0.51100000000E-03 0.  1.
         11    1    4    4    0    0  0.21980347425E-01  0.19288982480E-02 -0.10186233052E-01  0.24307957260E-01  0.51100000000E-03 0. -1.
</event>
<event>
 8    1  0.1208168E+005  0.1043930E+01  0.7957747E-01            NaN
         13   -1    0    0    0    0  0.00000000000E+00  0.00000000000E+00  0.74505805969E-08  0.10566000000E+00  0.10566000000E+00 0.  1.
     999900   -1    0    0    0    0 -0.00000000000E+00 -0.00000000000E+00 -0.74505805969E-08  0.93827000000E+00  0.93827000000E+00 0.  1.
     999902    2    1    2    0    0 -0.78803705608E-02  0.18650862186E-02  0.25184615931E-01  0.10174754415E+01  0.10171314715E+01 0.  0.
     999903    2    3    3    0    0 -0.11863240389E+00  0.35757117932E-01  0.33598860902E-01  0.12984630597E+00  0.19466920230E-01 0.  0.
         14    1    1    2    0    0  0.78803705608E-02 -0.18650862186E-02 -0.25184615931E-01  0.26454558517E-01  0.00000000000E+00 0. -1.
     999901    1    3    3    0    0  0.11075203333E+00 -0.33892031713E-01 -0.84142449714E-02  0.88762913552E+00  0.88000000000E+00 0. -1.
        -11    1    4    4    0    0 -0.11119748877E+00  0.28127495514E-01  0.31827627591E-01  0.11903485419E+00  0.51100000000E-03 0. -1.
         11    1    4    4    0    0 -0.74349151224E-02  0.76296224174E-02  0.17712333110E-02  0.10811451778E-01  0.51100000000E-03 0.  1.
</event>
<event>
 8    1  0.1208168E+005  0.1043930E+01  0.7957747E-01            NaN
         13   -1    0    0    0    0  0.00000000000E+00  0.00000000000E+00  0.74505805969E-08  0.10566000000E+00  0.10566000000E+00 0.  1.
     999900   -1    0    0    0    0 -0.00000000000E+00 -0.00000000000E+00 -0.74505805969E-08  0.93827000000E+00  0.93827000000E+00 0. -1.
     999902    2    1    2    0    0  0.16244806428E-01  0.80141408849E-02  0.15002157193E-01  0.10204101167E+01  0.10201390206E+01 0.  0.
     999903    2    3    3    0    0 -0.19313281092E-01  0.11758430057E+00  0.53333919045E-01  0.13207497642E+00  0.20005546989E-01 0.  0.
         14    1    1    2    0    0 -0.16244806428E-01 -0.80141408849E-02 -0.15002157193E-01  0.23519883300E-01  0.00000000000E+00 0. -1.
     999901    1    3    3    0    0  0.35558087520E-01 -0.10957015968E+00 -0.38331761852E-01  0.88833514028E+00  0.88000000000E+00 0.  1.
        -11    1    4    4    0    0 -0.14087611223E-01  0.58989732134E-01  0.17230761618E-01  0.63050848957E-01  0.51100000000E-03 0. -1.
         11    1    4    4    0    0 -0.52256698690E-02  0.58594568434E-01  0.36103157427E-01  0.69024127468E-01  0.51100000000E-03 0.  1.
</event>
<event>
 8    1  0.1208168E+005  0.1043930E+01  0.7957747E-01            NaN
         13   -1    0    0    0    0  0.00000000000E+00  0.00000000000E+00  0.74505805969E-08  0.10566000000E+00  0.10566000000E+00 0.  1.
     999900   -1    0    0    0    0 -0.00000000000E+00 -0.00000000000E+00 -0.74505805969E-08  0.93827000000E+00  0.93827000000E+00 0.  1.
     999902    2    1    2    0    0 -0.10105621613E-01 -0.91463761661E-02  0.22445055200E-01  0.10176705200E+01  0.10173316701E+01 0.  0.
     999903    2    3    3    0    0  0.41512355707E-01 -0.42992938264E-01  0.11451844000E+00  0.13071645497E+00  0.20016245454E-01 0.  0.
         14    1    1    2    0    0  0.10105621613E-01  0.91463761661E-02 -0.22445055200E-01  0.26259479966E-01  0.00000000000E+00 0. -1.
     999901    1    3    3    0    0 -0.51617977321E-01  0.33846562098E-01 -0.92073384801E-01  0.88695406507E+00  0.88000000000E+00 0.  1.
        -11    1    4    4    0    0  0.15110326589E-01 -0.13132857664E-01  0.20804122287E-01  0.28876747483E-01  0.51100000000E-03 0. -1.
         11    1    4    4    0    0  0.26402029118E-01 -0.29860080601E-01  0.93714317714E-01  0.10183970748E+00  0.51100000000E-03 0.  1.
</event>
<event>
 8    1  0.1208168E+005  0.1043930E+01  0.7957747E-01            NaN
         13   -1    0    0    0    0  0.00000000000E+00  0.00000000000E+00  0.74505805969E-08  0.10566000000E+00  0.10566000000E+00 0.  1.
     999900   -1    0    0    0    0 -0.00000000000E+00 -0.00000000000E+00 -0.74505805969E-08  0.93827000000E+00  0.93827000000E+00 0. -1.
     999902    2    1    2    0    0 -0.18586936229E-01 -0.41556481873E-02  0.98288564448E-02  0.10224975473E+01  0.10222729010E+01 0.  0.
     999903    2    3    3    0    0 -0.55175130866E-01 -0.37145282701E-01  0.11532595136E+00  0.13482832454E+00  0.21319825269E-01 0.  0.
         14    1    1    2    0    0  0.18586936229E-01  0.41556481873E-02 -0.98288564448E-02  0.21432452712E-01  0.00000000000E+00 0. -1.
     999901    1    3    3    0    0  0.36588194637E-01  0.32989634514E-01 -0.10549709491E+00  0.88766922274E+00  0.88000000000E+00 0.  1.
        -11    1    4    4    0    0 -0.18302979374E-01 -0.51623488025E-02  0.48300147618E-01  0.51911600631E-01  0.51100000000E-03 0. -1.
         11    1    4    4    0    0 -0.36872151492E-01 -0.31982933899E-01  0.67025803741E-01  0.82916723913E-01  0.51100000000E-03 0.  1.
</event>
<event>
 8    1  0.1208168E+005  0.1043930E+01  0.7957747E-01            NaN
         13   -1    0    0    0    0  0.00000000000E+00  0.00000000000E+00  0.74505805969E-08  0.10566000000E+00  0.10566000000E+00 0.  1.
     999900   -1    0    0    0    0 -0.00000000000E+00 -0.00000000000E+00 -0.74505805969E-08  0.93827000000E+00  0.93827000000E+00 0.  1.
     999902    2    1    2    0    0 -0.69482288114E-02  0.10094728268E-01 -0.23391293666E-01  0.10175229168E+01  0.10171801965E+01 0.  0.
     999903    2    3    3    0    0  0.11165814613E+00 -0.35036868525E-01  0.43164651689E-01  0.12593218837E+00  0.17337968703E-01 0.  0.
         14    1    1    2    0    0  0.69482288114E-02 -0.10094728268E-01  0.23391293666E-01  0.26407083175E-01  0.00000000000E+00 0.  1.
     999901    1    3    3    0    0 -0.11860637494E+00  0.45131596793E-01 -0.66555945355E-01  0.89159072846E+00  0.88000000000E+00 0.  1.
        -11    1    4    4    0    0  0.30718115458E-01 -0.17541914938E-02  0.10387828368E-01  0.32478422134E-01  0.51100000000E-03 0. -1.
         11    1    4    4    0    0  0.80940030672E-01 -0.33282677031E-01  0.32776823321E-01  0.93453766236E-01  0.51100000000E-03 0.  1.
</event>
<event>
 8    1  0.1208168E+005  0.1043930E+01  0.7957747E-01            NaN
         13   -1    0    0    0    0  0.00000000000E+00  0.00000000000E+00  0.74505805969E-08  0.10566000000E+00  0.10566000000E+00 0. -1.
     999900   -1    0    0    0    0 -0.00000000000E+00 -0.00000000000E+00 -0.74505805969E-08  0.93827000000E+00  0.93827000000E+00 0.  1.
     999902    2    1    2    0    0 -0.19289557292E-01 -0.91302040566E-02  0.99274508406E-02  0.10203927545E+01  0.10201212533E+01 0.  0.
     999903    2    3    3    0    0  0.61892192038E-02  0.84067727958E-02 -0.12706528442E+00  0.12925655662E+00  0.21276528465E-01 0.  0.
         14    1    1    2    0    0  0.19289557292E-01  0.91302040566E-02 -0.99274508406E-02  0.23537245523E-01  0.00000000000E+00 0.  1.
     999901    1    3    3    0    0 -0.25478776495E-01 -0.17536976852E-01  0.13699273526E+00  0.89113619785E+00  0.88000000000E+00 0. -1.
        -11    1    4    4    0    0 -0.34826436027E-02 -0.54047273113E-02 -0.25687628718E-01  0.26485000923E-01  0.51100000000E-03 0.  1.
         11    1    4    4    0    0  0.96718628065E-02  0.13811500107E-01 -0.10137765570E+00  0.10277155570E+00  0.51100000000E-03 0. -1.
</event>
<event>
 8    1  0.1208168E+005  0.1043930E+01  0.7957747E-01            NaN
         13   -1    0    0    0    0  0.00000000000E+00  0.00000000000E+00  0.74505805969E-08  0.10566000000E+00  0.10566000000E+00 0.  1.
     999900   -1    0    0    0    0 -0.00000000000E+00 -0.00000000000E+00 -0.74505805969E-08  0.93827000000E+00  0.93827000000E+00 0. -1.
     999902    2    1    2    0    0 -0.16231292832E-01 -0.13144849079E-01  0.11298809457E-01  0.10201833156E+01  0.10199069038E+01 0.  0.
     999903    2    3    3    0    0 -0.11500336517E+00  0.60584773342E-01  0.14530420508E-01  0.13158755667E+00  0.14417461255E-01 0.  0.
         14    1    1    2    0    0  0.16231292832E-01  0.13144849079E-01 -0.11298809457E-01  0.23746684389E-01  0.00000000000E+00 0. -1.
     999901    1    3    3    0    0  0.98772072339E-01 -0.73729622421E-01 -0.32316110514E-02  0.88859575894E+00  0.88000000000E+00 0. -1.
        -11    1    4    4    0    0 -0.18749083333E-01  0.15908727707E-01  0.10524354222E-02  0.24616752109E-01  0.51100000000E-03 0.  1.
         11    1    4    4    0    0 -0.96254281838E-01  0.44676045635E-01  0.13477985086E-01  0.10697080456E+00  0.51100000000E-03 0. -1.
</event>
<event>
 8    1  0.1208168E+005  0.1043930E+01  0.7957747E-01            NaN
         13   -1    0    0    0    0  0.00000000000E+00  0.00000000000E+00  0.74505805969E-08  0.10566000000E+00  0.10566000000E+00 0. -1.
     999900   -1    0    0    0    0 -0.00000000000E+00 -0.00000000000E+00 -0.74505805969E-08  0.93827000000E+00  0.93827000000E+00 0.  1.
     999902    2    1    2    0    0 -0.16487875267E-01  0.37647124404E-02  0.14906152455E-01  0.10213863430E+01  0.10211375251E+01 0.  0.
     999903    2    3    3    0    0  0.11496083270E+00  0.17039085444E-01  0.56177647895E-01  0.13056744549E+00  0.19636858443E-01 0.  0.
         14    1    1    2    0    0  0.16487875267E-01 -0.37647124404E-02 -0.14906152455E-01  0.22543657014E-01  0.00000000000E+00 0.  1.
     999901    1    3    3    0    0 -0.13144870797E+00 -0.13274373004E-01 -0.41271495440E-01  0.89081889750E+00  0.88000000000E+00 0. -1.
        -11    1    4    4    0    0  0.58921302502E-01  0.16961685770E-01  0.35376463341E-01  0.70789645798E-01  0.51100000000E-03 0. -1.
         11    1    4    4    0    0  0.56039530200E-01  0.77399674252E-04  0.20801184555E-01  0.59777799689E-01  0.51100000000E-03 0.  1.
</event>
<event>
 8    1  0.1208168E+005  0.1043930E+01  0.7957747E-01            NaN
         13   -1    0    0    0    0  0.00000000000E+00  0.00000000000E+00  0.74505805969E-08  0.10566000000E+00  0.10566000000E+00 0. -1.
     999900   -1    0    0    0    0 -0.00000000000E+00 -0.00000000000E+00 -0.74505805969E-08  0.93827000000E+00  0.93827000000E+00 0. -1.
     999902    2    1    2    0    0 -0.12593248002E-01  0.12725224017E-01 -0.13986727462E-01  0.10212110703E+01  0.10209583245E+01 0.  0.
     999903    2    3    3    0    0 -0.70776473419E-01  0.46793381166E-01 -0.10198665574E+00  0.13425565179E+00  0.20600300427E-01 0.  0.
         14    1    1    2    0    0  0.12593248002E-01 -0.12725224017E-01  0.13986727462E-01  0.22718929698E-01  0.00000000000E+00 0. -1.
     999901    1    3    3    0    0  0.58183225418E-01 -0.34068157148E-01  0.87999928278E-01  0.88695541851E+00  0.88000000000E+00 0.  1.
        -11    1    4    4    0    0 -0.32348634909E-01  0.21134504056E-01 -0.30943400755E-01  0.49506127030E-01  0.51100000000E-03 0.  1.
         11    1    4    4    0    0 -0.38427838510E-01  0.25658877109E-01 -0.71043254985E-01  0.84749524760E-01  0.51100000000E-03 0. -1.
</event>
<event>
 8    1  0.1208168E+005  0.1043930E+01  0.7957747E-01            NaN
         13   -1    0    0    0    0  0.00000000000E+00  0.00000000000E+00  0.74505805969E-08  0.10566000000E+00  0.10566000000E+00 0.  1.
     999900   -1    0    0    0    0 -0.00000000000E+00 -0.00000000000E+00 -0.74505805969E-08  0.93827000000E+00  0.93827000000E+00 0. -1.
     999902    2    1    2    0    0 -0.10413247964E-01  0.16821170074E-01  0.16100160146E-01  0.10184230862E+01  0.10181036194E+01 0.  0.
     999903    2    3    3    0    0 -0.56710360317E-01  0.80759947759E-01 -0.81590232282E-01  0.12950520320E+00  0.19400967081E-01 0.  0.
         14    1    1    2    0    0  0.10413247964E-01 -0.16821170074E-01 -0.16100160146E-01  0.25506913819E-01  0.00000000000E+00 0.  1.
     999901    1    3    3    0    0  0.46297112353E-01 -0.63938777685E-01  0.97690392429E-01  0.88891788298E+00  0.88000000000E+00 0.  1.
        -11    1    4    4    0    0 -0.32190603674E-01  0.60533270273E-01 -0.51699467110E-01  0.85869714075E-01  0.51100000000E-03 0. -1.
         11    1    4    4    0    0 -0.24519756643E-01  0.20226677486E-01 -0.29890765172E-01  0.43635489129E-01  0.51100000000E-03 0.  1.
</event>
<event>
 8    1  0.1208168E+005  0.1043930E+01  0.7957747E-01            NaN
         13   -1    0    0    0    0  0.00000000000E+00  0.00000000000E+00  0.74505805969E-08  0.10566000000E+00  0.10566000000E+00 0.  1.
     999900   -1    0    0    0    0 -0.00000000000E+00 -0.00000000000E+00 -0.74505805969E-08  0.93827000000E+00  0.93827000000E+00 0.  1.
     999902    2    1    2    0    0 -0.14733374525E-01  0.13752587201E-01  0.12174770217E-01  0.10203836413E+01  0.10201119274E+01 0.  0.
     999903    2    3    3    0    0 -0.10594955677E+00 -0.49459586014E-01 -0.55229495943E-01  0.13085595432E+00  0.20035576652E-01 0.  0.
         14    1    1    2    0    0  0.14733374525E-01 -0.13752587201E-01 -0.12174770217E-01  0.23546358731E-01  0.00000000000E+00 0. -1.
     999901    1    3    3    0    0  0.91216182244E-01  0.63212173215E-01  0.67404266159E-01  0.88952768695E+00  0.88000000000E+00 0. -1.
        -11    1    4    4    0    0 -0.32792973037E-01 -0.25470551016E-01 -0.16644869989E-01  0.44737466040E-01  0.51100000000E-03 0.  1.
         11    1    4    4    0    0 -0.73156583732E-01 -0.23989034998E-01 -0.38584625953E-01  0.86118488285E-01  0.51100000000E-03 0. -1.
</event>
<event>
 8    1  0.1208168E+005  0.1043930E+01  0.7957747E-01            NaN
         13   -1    0    0    0    0  0.00000000000E+00  0.00000000000E+00  0.74505805969E-08  0.10566000000E+00  0.10566000000E+00 0. -1.
     999900   -1    0    0    0    0 -0.00000000000E+00 -0.00000000000E+00 -0.74505805969E-08  0.93827000000E+00  0.93827000000E+00 0. -1.
     999902    2    1    2    0    0 -0.10301297686E-01  0.12231297211E-01  0.17065167669E-01  0.10205432235E+01  0.10202752226E+01 0.  0.
     999903    2    3    3    0    0 -0.70006709221E-01 -0.12082137900E-01 -0.10616510541E+00  0.12962146520E+00  0.21994936716E-01 0.  0.
         14    1    1    2    0    0  0.10301297686E-01 -0.12231297211E-01 -0.17065167669E-01  0.23386776457E-01  0.00000000000E+00 0.  1.
     999901    1    3    3    0    0  0.59705411534E-01  0.24313435110E-01  0.12323027308E+00  0.89092175835E+00  0.88000000000E+00 0.  1.
        -11    1    4    4    0    0 -0.62869928799E-02  0.45583705110E-02 -0.63860225686E-02  0.10067145893E-01  0.51100000000E-03 0. -1.
         11    1    4    4    0    0 -0.63719716341E-01 -0.16640508411E-01 -0.99779082840E-01  0.11955431930E+00  0.51100000000E-03 0.  1.
</event>
<event>
 8    1  0.1208168E+005  0.1043930E+01  0.7957747E-01            NaN
         13   -1    0    0    0    0  0.00000000000E+00  0.00000000000E+00  0.74505805969E-08  0.10566000000E+00  0.10566000000E+00 0.  1.
     999900   -1    0    0    0    0 -0.00000000000E+00 -0.00000000000E+00 -0.74505805969E-08  0.93827000000E+00  0.93827000000E+00 0. -1.
     999902    2    1    2    0    0  0.13241002544E-01  0.54569604776E-02  0.15665880798E-01  0.10227044874E+01  0.10224842033E+01 0.  0.
     999903    2    3    3    0    0  0.60211736370E-01  0.80695661783E-02  0.11930012797E+00  0.13537527408E+00  0.20084153003E-01 0.  0.
         14    1    1    2    0    0 -0.13241002544E-01 -0.54569604776E-02 -0.15665880798E-01  0.21225512649E-01  0.00000000000E+00 0. -1.
     999901    1    3    3    0    0 -0.46970733826E-01 -0.26126057007E-02 -0.10363424717E+00  0.88732921328E+00  0.88000000000E+00 0. -1.
        -11    1    4    4    0    0  0.37321253200E-01  0.96334890149E-02  0.55504331654E-01  0.67577155935E-01  0.51100000000E-03 0. -1.
         11    1    4    4    0    0  0.22890483170E-01 -0.15639228366E-02  0.63795796319E-01  0.67798118140E-01  0.51100000000E-03 0.  1.
</event>
<event>
 8    1  0.1208168E+005  0.1043930E+01  0.7957747E-01            NaN
         13   -1    0    0    0    0  0.00000000000E+00  0.00000000000E+00  0.74505805969E-08  0.10566000000E+00  0.10566000000E+00 0. -1.
     999900   -1    0    0    0    0 -0.00000000000E+00 -0.00000000000E+00 -0.74505805969E-08  0.93827000000E+00  0.93827000000E+00 0.  1.
     999902    2    1    2    0    0 -0.22750271924E-01 -0.29092984620E-02 -0.52327112441E-02  0.10204051162E+01  0.10201339035E+01 0.  0.
     999903    2    3    3    0    0 -0.10106487495E+00  0.96455641455E-02 -0.84701026179E-01  0.13327152160E+00  0.16729876784E-01 0.  0.
         14    1    1    2    0    0  0.22750271924E-01  0.29092984620E-02  0.52327112441E-02  0.23524883785E-01  0.00000000000E+00 0. -1.
     999901    1    3    3    0    0  0.78314603023E-01 -0.12554862607E-01  0.79468314935E-01  0.88713359462E+00  0.88000000000E+00 0. -1.
        -11    1    4    4    0    0 -0.59496056893E-01  0.13905993180E-01 -0.50697949606E-01  0.79395847797E-01  0.51100000000E-03 0. -1.
         11    1    4    4    0    0 -0.41568818054E-01 -0.42604290345E-02 -0.34003076573E-01  0.53875673799E-01  0.51100000000E-03 0.  1.
</event>
<event>
 8    1  0.1208168E+005  0.1043930E+01  0.7957747E-01            NaN
         13   -1    0    0    0    0  0.00000000000E+00  0.00000000000E+00  0.74505805969E-08  0.10566000000E+00  0.10566000000E+00 0. -1.
     999900   -1    0    0    0    0 -0.00000000000E+00 -0.00000000000E+00 -0.74505805969E-08  0.93827000000E+00  0.93827000000E+00 0.  1.
     999902    2    1    2    0    0 -0.57646846205E-02 -0.10613379010E-01  0.20570327618E-01  0.10200759903E+01  0.10197970446E+01 0.  0.
     999903    2    3    3    0    0  0.63921553928E-01 -0.10962317583E+00  0.29078681405E-01  0.13174525016E+00  0.20199888399E-01 0.  0.
         14    1    1    2    0    0  0.57646846205E-02  0.10613379010E-01 -0.20570327618E-01  0.23854009749E-01  0.00000000000E+00 0.  1.
     999901    1    3    3    0    0 -0.69686238549E-01  0.99009796820E-01 -0.85083537867E-02  0.88833074009E+00  0.88000000000E+00 0.  1.
        -11    1    4    4    0    0  0.38372390499E-01 -0.45865842183E-01  0.12930246702E-01  0.61184705872E-01  0.51100000000E-03 0. -1.
         11    1    4    4    0    0  0.25549163429E-01 -0.63757333647E-01  0.16148434703E-01  0.70560544287E-01  0.51100000000E-03 0.  1.
</event>
<event>
 8    1  0.1208168E+005  0.1043930E+01  0.7957747E-01            NaN
         13   -1    0    0    0    0  0.00000000000E+00  0.00000000000E+00  0.74505805969E-08  0.10566000000E+00  0.10566000000E+00 0. -1.
     999900   -1    0    0    0    0 -0.00000000000E+00 -0.00000000000E+00 -0.74505805969E-08  0.93827000000E+00  0.93827000000E+00 0.  1.
     999902    2    1    2    0    0 -0.31788248266E-02 -0.23022002434E-01 -0.89863068152E-02  0.10190127122E+01  0.10187080231E+01 0.  0.
     999903    2    3    3    0    0 -0.83656724980E-01 -0.68115472992E-01  0.71248329096E-01  0.13056028782E+00  0.18207115707E-01 0.  0.
         14    1    1    2    0    0  0.31788248266E-02  0.23022002434E-01  0.89863068152E-02  0.24917287845E-01  0.00000000000E+00 0. -1.
     999901    1    3    3    0    0  0.80477900154E-01  0.45093470558E-01 -0.80234635911E-01  0.88845242433E+00  0.88000000000E+00 0.  1.
        -11    1    4    4    0    0 -0.20306588595E-01 -0.27203107955E-01  0.20469244231E-01  0.39643633829E-01  0.51100000000E-03 0. -1.
         11    1    4    4    0    0 -0.63350136385E-01 -0.40912365037E-01  0.50779084865E-01  0.90916653995E-01  0.51100000000E-03 0.  1.
</event>
<event>
 8    1  0.1208168E+005  0.1043930E+01  0.7957747E-01            NaN
         13   -1    0    0    0    0  0.00000000000E+00  0.00000000000E+00  0.74505805969E-08  0.10566000000E+00  0.10566000000E+00 0.  1.
     999900   -1    0    0    0    0 -0.00000000000E+00 -0.00000000000E+00 -0.74505805969E-08  0.93827000000E+00  0.93827000000E+00 0.  1.
     999902    2    1    2    0    0 -0.25079822283E-01  0.33165493684E-03  0.31227237612E-02  0.10186543421E+01  0.10183407140E+01 0.  0.
     999903    2    3    3    0    0 -0.28544029239E-01  0.49812694652E-01  0.11504106252E+00  0.13018031961E+00  0.20405964663E-01 0.  0.
         14    1    1    2    0    0  0.25079822283E-01 -0.33165493684E-03 -0.31227237612E-02  0.25275657943E-01  0.00000000000E+00 0.  1.
     999901    1    3    3    0    0  0.34642069565E-02 -0.49481039715E-01 -0.11191833876E+00  0.88847402245E+00  0.88000000000E+00 0. -1.
        -11    1    4    4    0    0 -0.20863492365E-01  0.40769708029E-01  0.70405211932E-01  0.83991722179E-01  0.51100000000E-03 0. -1.
         11    1    4    4    0    0 -0.76805368740E-02  0.90429866228E-02  0.44635850586E-01  0.46188597427E-01  0.51100000000E-03 0.  1.
</event>
<event>
 8    1  0.1208168E+005  0.1043930E+01  0.7957747E-01            NaN
         13   -1    0    0    0    0  0.00000000000E+00  0.00000000000E+00  0.74505805969E-08  0.10566000000E+00  0.10566000000E+00 0.  1.
     999900   -1    0    0    0    0 -0.00000000000E+00 -0.00000000000E+00 -0.74505805969E-08  0.93827000000E+00  0.93827000000E+00 0.  1.
     999902    2    1    2    0    0 -0.22498088938E-01 -0.36805751923E-02 -0.20664118503E-02  0.10210393753E+01  0.10207827513E+01 0.  0.
     999903    2    3    3    0    0 -0.24757160662E-01 -0.10886252345E+00 -0.68810757869E-01  0.13226316426E+00  0.17165611140E-01 0.  0.
         14    1    1    2    0    0  0.22498088938E-01  0.36805751923E-02  0.20664118503E-02  0.22890624664E-01  0.00000000000E+00 0. -1.
     999901    1    3    3    0    0  0.22590717240E-02  0.10518194826E+00  0.66744346019E-01  0.88877621107E+00  0.88000000000E+00 0.  1.
        -11    1    4    4    0    0 -0.23553900373E-01 -0.66702174287E-01 -0.44646365131E-01  0.83651212291E-01  0.51100000000E-03 0. -1.
         11    1    4    4    0    0 -0.12032602884E-02 -0.42160349165E-01 -0.24164392739E-01  0.48611951971E-01  0.51100000000E-03 0.  1.
</event>
<event>
 8    1  0.1208168E+005  0.1043930E+01  0.7957747E-01            NaN
         13   -1    0    0    0    0  0.00000000000E+00  0.00000000000E+00  0.74505805969E-08  0.10566000000E+00  0.10566000000E+00 0. -1.
     999900   -1    0    0    0    0 -0.00000000000E+00 -0.00000000000E+00 -0.74505805969E-08  0.93827000000E+00  0.93827000000E+00 0.  1.
     999902    2    1    2    0    0  0.17515315099E-01 -0.13367487494E-02  0.15606914813E-01  0.10204321501E+01  0.10201615676E+01 0.  0.
     999903    2    3    3    0    0 -0.57788804557E-01  0.49204100944E-01 -0.10147048623E+00  0.12805767390E+00  0.18491046139E-01 0.  0.
         14    1    1    2    0    0 -0.17515315099E-01  0.13367487494E-02 -0.15606914813E-01  0.23497849906E-01  0.00000000000E+00 0. -1.
     999901    1    3    3    0    0  0.75304119656E-01 -0.50540849693E-01  0.11707740104E+00  0.89237447619E+00  0.88000000000E+00 0. -1.
        -11    1    4    4    0    0 -0.45450587101E-01  0.27730538958E-01 -0.72260664883E-01  0.89758584375E-01  0.51100000000E-03 0. -1.
         11    1    4    4    0    0 -0.12338217456E-01  0.21473561986E-01 -0.29209821348E-01  0.38299089526E-01  0.51100000000E-03 0.  1.
</event>
<event>
 8    1  0.1208168E+005  0.1043930E+01  0.7957747E-01            NaN
         13   -1    0    0    0    0  0.00000000000E+00  0.00000000000E+00  0.74505805969E-08  0.10566000000E+00  0.10566000000E+00 0.  1.
     999900   -1    0    0    0    0 -0.00000000000E+00 -0.00000000000E+00 -0.74505805969E-08  0.93827000000E+00  0.93827000000E+00 0.  1.
     999902    2    1    2    0    0  0.16609241876E-01  0.12655326842E-01  0.12211500711E-01  0.10197402302E+01  0.10194532810E+01 0.  0.
     999903    2    3    3    0    0 -0.11813020890E+00  0.41571706854E-01  0.23019121982E-01  0.12894974905E+00  0.20376573280E-01 0.  0.
         14    1    1    2    0    0 -0.16609241876E-01 -0.12655326842E-01 -0.12211500711E-01  0.24189769797E-01  0.00000000000E+00 0. -1.
     999901    1    3    3    0    0  0.13473945078E+00 -0.28916380012E-01 -0.10807621271E-01  0.89079048115E+00  0.88000000000E+00 0.  1.
        -11    1    4    4    0    0 -0.77739329564E-01  0.32123225632E-01  0.23934288312E-01  0.87455224339E-01  0.51100000000E-03 0. -1.
         11    1    4    4    0    0 -0.40390879336E-01  0.94484812218E-02 -0.91516632945E-03  0.41494524715E-01  0.51100000000E-03 0.  1.
</event>
<event>
 8    1  0.1208168E+005  0.1043930E+01  0.7957747E-01            NaN
         13   -1    0    0    0    0  0.00000000000E+00  0.00000000000E+00  0.74505805969E-08  0.10566000000E+00  0.10566000000E+00 0.  1.
     999900   -1    0    0    0    0 -0.00000000000E+00 -0.00000000000E+00 -0.74505805969E-08  0.93827000000E+00  0.93827000000E+00 0. -1.
     999902    2    1    2    0    0  0.23541780847E-01 -0.41886704335E-02  0.37499057099E-02  0.10197262359E+01  0.10194389506E+01 0.  0.
     999903    2    3    3    0    0  0.93844126736E-01 -0.89792151814E-01  0.17199557032E-01  0.13267986223E+00  0.20946847702E-01 0.  0.
         14    1    1    2    0    0 -0.23541780847E-01  0.41886704335E-02 -0.37499057099E-02  0.24203764135E-01  0.00000000000E+00 0. -1.
     999901    1    3    3    0    0 -0.70302345889E-01  0.85603481380E-01 -0.13449651322E-01  0.88704637364E+00  0.88000000000E+00 0. -1.
        -11    1    4    4    0    0  0.58202804390E-01 -0.56431306746E-01  0.20894042518E-01  0.83719059680E-01  0.51100000000E-03 0.  1.
         11    1    4    4    0    0  0.35641322346E-01 -0.33360845067E-01 -0.36944854859E-02  0.48960802548E-01  0.51100000000E-03 0. -1.
</event>
<event>
 8    1  0.1208168E+005  0.1043930E+01  0.7957747E-01            NaN
         13   -1    0    0    0    0  0.00000000000E+00  0.00000000000E+00  0.74505805969E-08  0.10566000000E+00  0.10566000000E+00 0. -1.
     999900   -1    0    0    0    0 -0.00000000000E+00 -0.00000000000E+00 -0.74505805969E-08  0.93827000000E+00  0.93827000000E+00 0.  1.
     999902    2    1    2    0    0 -0.20416697262E-01 -0.23350217159E-02  0.35913452831E-02  0.10230687533E+01  0.10228560418E+01 0.  0.
     999903    2    3    3    0    0  0.56700394980E-01 -0.89897393689E-01  0.76309382951E-01  0.13239365657E+00  0.20210942378E-01 0.  0.
         14    1    1    2    0    0  0.20416697262E-01  0.23350217159E-02 -0.35913452831E-02  0.20861246713E-01  0.00000000000E+00 0. -1.
     999901    1    3    3    0    0 -0.77117092242E-01  0.87562371973E-01 -0.72718037668E-01  0.89067509671E+00  0.88000000000E+00 0. -1.
        -11    1    4    4    0    0  0.13185358666E-01 -0.24589458403E-01  0.99740054485E-02  0.29635064592E-01  0.51100000000E-03 0.  1.
         11    1    4    4    0    0  0.43515036314E-01 -0.65307935286E-01  0.66335377503E-01  0.10275859198E+00  0.51100000000E-03 0. -1.
</event>
<event>
 8    1  0.1208168E+005  0.1043930E+01  0.7957747E-01            NaN
         13   -1    0    0    0    0  0.00000000000E+00  0.00000000000E+00  0.74505805969E-08  0.10566000000E+00  0.10566000000E+00 0.  1.
     999900   -1    0    0    0    0 -0.00000000000E+00 -0.00000000000E+00 -0.74505805969E-08  0.93827000000E+00  0.93827000000E+00 0.  1.
     999902    2    1    2    0    0 -0.15457037049E-01 -0.17884139070E-01  0.42012642500E-02  0.10199213964E+01  0.10196387801E+01 0.  0.
     999903    2    3    3    0    0  0.12011167273E+00 -0.18681092716E-01  0.37683656533E-01  0.12891040838E+00  0.20543569992E-01 0.  0.
         14    1    1    2    0    0  0.15457037049E-01  0.17884139070E-01 -0.42012642500E-02  0.24008603580E-01  0.00000000000E+00 0. -1.
     999901    1    3    3    0    0 -0.13556870978E+00  0.79695364611E-03 -0.33482392283E-01  0.89101098804E+00  0.88000000000E+00 0.  1.
        -11    1    4    4    0    0  0.20062521789E-01 -0.10431005462E-01  0.10298827694E-01  0.24852316358E-01  0.51100000000E-03 0.  1.
         11    1    4    4    0    0  0.10004915095E+00 -0.82500872535E-02  0.27384828839E-01  0.10405809203E+00  0.51100000000E-03 0. -1.
</event>
<event>
 8    1  0.1208168E+005  0.1043930E+01  0.7957747E-01            NaN
         13   -1    0    0    0    0  0.00000000000E+00  0.00000000000E+00  0.74505805969E-08  0.10566000000E+00  0.10566000000E+00 0.  1.
     999900   -1    0    0    0    0 -0.00000000000E+00 -0.00000000000E+00 -0.74505805969E-08  0.93827000000E+00  0.93827000000E+00 0. -1.
     999902    2    1    2    0    0  0.10909915459E-01  0.19368314257E-01  0.13942059421E-01  0.10176899757E+01  0.10173516343E+01 0.  0.
     999903    2    3    3    0    0  0.63806293497E-01 -0.45256507555E-01  0.10140329703E+00  0.12941982399E+00  0.18640483562E-01 0.  0.
         14    1    1    2    0    0 -0.10909915459E-01 -0.19368314257E-01 -0.13942059421E-01  0.26240024264E-01  0.00000000000E+00 0.  1.
     999901    1    3    3    0    0 -0.52896378037E-01  0.64624821812E-01 -0.87461237606E-01  0.88827015175E+00  0.88000000000E+00 0. -1.
        -11    1    4    4    0    0  0.50654861846E-01 -0.25733903612E-01  0.73805213872E-01  0.93143005854E-01  0.51100000000E-03 0.  1.
         11    1    4    4    0    0  0.13151431651E-01 -0.19522603943E-01  0.27598083154E-01  0.36276818134E-01  0.51100000000E-03 0. -1.
</event>
<event>
 8    1  0.1208168E+005  0.1043930E+01  0.7957747E-01            NaN
         13   -1    0    0    0    0  0.00000000000E+00  0.00000000000E+00  0.74505805969E-08  0.10566000000E+00  0.10566000000E+00 0.  1.
     999900   -1    0    0    0    0 -0.00000000000E+00 -0.00000000000E+00 -0.74505805969E-08  0.93827000000E+00  0.93827000000E+00 0.  1.
     999902    2    1    2    0    0  0.23056675652E-01  0.51151998673E-02  0.92521494312E-03  0.10202946116E+01  0.10200208149E+01 0.  0.
     999903    2    3    3    0    0  0.63523318166E-01  0.70306855517E-01  0.90324568559E-01  0.13244341599E+00  0.20111312029E-01 0.  0.
         14    1    1    2    0    0 -0.23056675652E-01 -0.51151998673E-02 -0.92521494312E-03  0.23635388393E-01  0.00000000000E+00 0.  1.
     999901    1    3    3    0    0 -0.40466642514E-01 -0.65191655649E-01 -0.89399353616E-01  0.88785119561E+00  0.88000000000E+00 0.  1.
        -11    1    4    4    0    0  0.11150045873E-01  0.12234119112E-01  0.27627219756E-01  0.32210581893E-01  0.51100000000E-03 0.  1.
         11    1    4    4    0    0  0.52373272293E-01  0.58072736404E-01  0.62697348803E-01  0.10023283410E+00  0.51100000000E-03 0. -1.
</event>
<event>
 8    1  0.1208168E+005  0.1043930E+01  0.7957747E-01            NaN
         13   -1    0    0    0    0  0.00000000000E+00  0.00000000000E+00  0.74505805969E-08  0.10566000000E+00  0.10566000000E+00 0.  1.
     999900   -1    0    0    0    0 -0.00000000000E+00 -0.00000000000E+00 -0.74505805969E-08  0.93827000000E+00  0.93827000000E+00 0.  1.
     999902    2    1    2    0    0  0.74785046078E-02  0.54388562900E-02  0.22048911838E-01  0.10200205102E+01  0.10197402500E+01 0.  0.
     999903    2    3    3    0    0 -0.55618212432E-01 -0.10562510149E+00  0.48702868104E-01  0.13039877497E+00  0.19540305392E-01 0.  0.
         14    1    1    2    0    0 -0.74785046078E-02 -0.54388562900E-02 -0.22048911838E-01  0.23909489793E-01  0.00000000000E+00 0.  1.
     999901    1    3    3    0    0  0.63096717040E-01  0.11106395778E+00 -0.26653956266E-01  0.88962173524E+00  0.88000000000E+00 0. -1.
        -11    1    4    4    0    0 -0.17336454618E-01 -0.20436744285E-01  0.49304915583E-02  0.27254064718E-01  0.51100000000E-03 0.  1.
         11    1    4    4    0    0 -0.38281757814E-01 -0.85188357201E-01  0.43772376545E-01  0.10314471025E+00  0.51100000000E-03 0. -1.
</event>
<event>
 8    1  0.1208168E+005  0.1043930E+01  0.7957747E-01            NaN
         13   -1    0    0    0    0  0.00000000000E+00  0.00000000000E+00  0.74505805969E-08  0.10566000000E+00  0.10566000000E+00 0. -1.
     999900   -1    0    0    0    0 -0.00000000000E+00 -0.00000000000E+00 -0.74505805969E-08  0.93827000000E+00  0.93827000000E+00 0. -1.
     999902    2    1    2    0    0 -0.12915082789E-01 -0.16361562766E-02  0.18520069498E-01  0.10212922142E+01  0.10210412908E+01 0.  0.
     999903    2    3    3    0    0  0.89854359826E-01 -0.84004568142E-01  0.41125273057E-01  0.13120395521E+00  0.19814548422E-01 0.  0.
         14    1    1    2    0    0  0.12915082789E-01  0.16361562766E-02 -0.18520069498E-01  0.22637785779E-01  0.00000000000E+00 0.  1.
     999901    1    3    3    0    0 -0.10276944261E+00  0.82368411865E-01 -0.22605203559E-01  0.89008825902E+00  0.88000000000E+00 0.  1.
        -11    1    4    4    0    0  0.41948177412E-01 -0.26279380616E-01  0.14156586417E-01  0.51487139110E-01  0.51100000000E-03 0. -1.
         11    1    4    4    0    0  0.47906182414E-01 -0.57725187526E-01  0.26968686639E-01  0.79716816095E-01  0.51100000000E-03 0.  1.
</event>
<event>
 8    1  0.1208168E+005  0.1043930E+01  0.7957747E-01            NaN
         13   -1    0    0    0    0  0.00000000000E+00  0.00000000000E+00  0.74505805969E-08  0.10566000000E+00  0.10566000000E+00 0. -1.
     999900   -1    0    0    0    0 -0.00000000000E+00 -0.00000000000E+00 -0.74505805969E-08  0.93827000000E+00  0.93827000000E+00 0. -1.
     999902    2    1    2    0    0 -0.16772137541E-01  0.65454247204E-02 -0.15059689834E-01  0.10204578582E+01  0.10201878743E+01 0.  0.
     999903    2    3    3    0    0 -0.10666580448E+00  0.76662634643E-01  0.31626800229E-02  0.13291667649E+00  0.20052105820E-01 0.  0.
         14    1    1    2    0    0  0.16772137541E-01 -0.65454247204E-02  0.15059689834E-01  0.23472141793E-01  0.00000000000E+00 0. -1.
     999901    1    3    3    0    0  0.89893666940E-01 -0.70117209923E-01 -0.18222369857E-01  0.88754118172E+00  0.88000000000E+00 0. -1.
        -11    1    4    4    0    0 -0.97144675324E-01  0.66739269487E-01  0.84720857052E-02  0.11816621934E+00  0.51100000000E-03 0.  1.
         11    1    4    4    0    0 -0.95211291568E-02  0.99233651561E-02 -0.53094056823E-02  0.14750457150E-01  0.51100000000E-03 0. -1.
</event>
<event>
 8    1  0.1208168E+005  0.1043930E+01  0.7957747E-01            NaN
         13   -1    0    0    0    0  0.00000000000E+00  0.00000000000E+00  0.74505805969E-08  0.10566000000E+00  0.10566000000E+00 0.  1.
     999900   -1    0    0    0    0 -0.00000000000E+00 -0.00000000000E+00 -0.74505805969E-08  0.93827000000E+00  0.93827000000E+00 0.  1.
     999902    2    1    2    0    0 -0.27782293632E-02  0.24197697830E-01 -0.61556530557E-03  0.10195655575E+01  0.10192743987E+01 0.  0.
     999903    2    3    3    0    0  0.42283577958E-01 -0.88456901843E-01  0.78017442010E-01  0.12776693944E+00  0.25002901956E-01 0.  0.
         14    1    1    2    0    0  0.27782293632E-02 -0.24197697830E-01  0.61556530557E-03  0.24364442520E-01  0.00000000000E+00 0.  1.
     999901    1    3    3    0    0 -0.45061807321E-01  0.11265459967E+00 -0.78633007316E-01  0.89179861804E+00  0.88000000000E+00 0.  1.
        -11    1    4    4    0    0  0.81941520040E-02 -0.41155810051E-01  0.24341337622E-01  0.48515014854E-01  0.51100000000E-03 0. -1.
         11    1    4    4    0    0  0.34089425954E-01 -0.47301091792E-01  0.53676104388E-01  0.79251924582E-01  0.51100000000E-03 0.  1.
</event>
<event>
 8    1  0.1208168E+005  0.1043930E+01  0.7957747E-01            NaN
         13   -1    0    0    0    0  0.00000000000E+00  0.00000000000E+00  0.74505805969E-08  0.10566000000E+00  0.10566000000E+00 0. -1.
     999900   -1    0    0    0    0 -0.00000000000E+00 -0.00000000000E+00 -0.74505805969E-08  0.93827000000E+00  0.93827000000E+00 0. -1.
     999902    2    1    2    0    0  0.69050897227E-02  0.10025916398E-01 -0.20099284385E-01  0.10204314788E+01  0.10201608807E+01 0.  0.
     999903    2    3    3    0    0 -0.10962286909E+00  0.60791977469E-01  0.27863508521E-01  0.13000664336E+00  0.20310447022E-01 0.  0.
         14    1    1    2    0    0 -0.69050897227E-02 -0.10025916398E-01  0.20099284385E-01  0.23498521155E-01  0.00000000000E+00 0. -1.
     999901    1    3    3    0    0  0.11652795882E+00 -0.50766061071E-01 -0.47962792906E-01  0.89042483548E+00  0.88000000000E+00 0.  1.
        -11    1    4    4    0    0 -0.39890551112E-01  0.19335121536E-01  0.19561525627E-01  0.48456345289E-01  0.51100000000E-03 0. -1.
         11    1    4    4    0    0 -0.69732317981E-01  0.41456855933E-01  0.83019828934E-02  0.81550298073E-01  0.51100000000E-03 0.  1.
</event>
<event>
 8    1  0.1208168E+005  0.1043930E+01  0.7957747E-01            NaN
         13   -1    0    0    0    0  0.00000000000E+00  0.00000000000E+00  0.74505805969E-08  0.10566000000E+00  0.10566000000E+00 0.  1.
     999900   -1    0    0    0    0 -0.00000000000E+00 -0.00000000000E+00 -0.74505805969E-08  0.93827000000E+00  0.93827000000E+00 0.  1.
     999902    2    1    2    0    0 -0.30194809277E-02  0.20927741107E-01  0.30352785699E-02  0.10225688079E+01  0.10223456687E+01 0.  0.
     999903    2    3    3    0    0 -0.11570709359E+00  0.26024489986E-01 -0.56962888826E-01  0.13334203422E+00  0.21677679753E-01 0.  0.
         14    1    1    2    0    0  0.30194809277E-02 -0.20927741107E-01 -0.30352785699E-02  0.21361192123E-01  0.00000000000E+00 0.  1.
     999901    1    3    3    0    0  0.11268761267E+00 -0.50967488793E-02  0.59998167396E-01  0.88922677366E+00  0.88000000000E+00 0. -1.
        -11    1    4    4    0    0 -0.15053605478E-01  0.34009288441E-02  0.10938420058E-03  0.15441840589E-01  0.51100000000E-03 0.  1.
         11    1    4    4    0    0 -0.10065348812E+00  0.22623561142E-01 -0.57072273026E-01  0.11790019363E+00  0.51100000000E-03 0. -1.
</event>
<event>
 8    1  0.1208168E+005  0.1043930E+01  0.7957747E-01            NaN
         13   -1    0    0    0    0  0.00000000000E+00  0.00000000000E+00  0.74505805969E-08  0.10566000000E+00  0.10566000000E+00 0. -1.
     999900   -1    0    0    0    0 -0.00000000000E+00 -0.00000000000E+00 -0.74505805969E-08  0.93827000000E+00  0.93827000000E+00 0.  1.
     999902    2    1    2    0    0  0.10027541158E-01  0.16921811523E-01 -0.14318411651E-01  0.10196006720E+01  0.10193103621E+01 0.  0.
     999903    2    3    3    0    0  0.24247094137E-01 -0.12108918899E+00  0.27217395204E-01  0.12776298770E+00  0.18223094146E-01 0.  0.
         14    1    1    2    0    0 -0.10027541158E-01 -0.16921811523E-01  0.14318411651E-01  0.24329327962E-01  0.00000000000E+00 0. -1.
     999901    1    3    3    0    0 -0.14219552980E-01  0.13801100051E+00 -0.41535806855E-01  0.89183768434E+00  0.88000000000E+00 0.  1.
        -11    1    4    4    0    0  0.28982776319E-03 -0.45336945575E-01  0.83839684492E-02  0.46109377377E-01  0.51100000000E-03 0. -1.
         11    1    4    4    0    0  0.23957266374E-01 -0.75752243417E-01  0.18833426755E-01  0.81653610325E-01  0.51100000000E-03 0.  1.
</event>
<event>
 8    1  0.1208168E+005  0.1043930E+01  0.7957747E-01            NaN
         13   -1    0    0    0    0  0.00000000000E+00  0.00000000000E+00  0.74505805969E-08  0.10566000000E+00  0.10566000000E+00 0.  1.
     999900   -1    0    0    0    0 -0.00000000000E+00 -0.00000000000E+00 -0.74505805969E-08  0.93827000000E+00  0.93827000000E+00 0. -1.
     999902    2    1    2    0    0  0.10930416036E-01  0.58742135654E-02 -0.19868267014E-01  0.10205050472E+01  0.10202361604E+01 0.  0.
     999903    2    3    3    0    0 -0.58053043813E-01 -0.10139240271E+00 -0.54372893900E-01  0.13064246568E+00  0.21458495409E-01 0.  0.
         14    1    1    2    0    0 -0.10930416036E-01 -0.58742135654E-02  0.19868267014E-01  0.23424952804E-01  0.00000000000E+00 0.  1.
     999901    1    3    3    0    0  0.68983459849E-01  0.10726661628E+00  0.34504626887E-01  0.88986258151E+00  0.88000000000E+00 0.  1.
        -11    1    4    4    0    0 -0.46917469589E-01 -0.61604119104E-01 -0.34005610691E-01  0.84575168475E-01  0.51100000000E-03 0. -1.
         11    1    4    4    0    0 -0.11135574224E-01 -0.39788283607E-01 -0.20367283210E-01  0.46067297208E-01  0.51100000000E-03 0.  1.
</event>
<event>
 8    1  0.1208168E+005  0.1043930E+01  0.7957747E-01            NaN
         13   -1    0    0    0    0  0.00000000000E+00  0.00000000000E+00  0.74505805969E-08  0.10566000000E+00  0.10566000000E+00 0. -1.
     999900   -1    0    0    0    0 -0.00000000000E+00 -0.00000000000E+00 -0.74505805969E-08  0.93827000000E+00  0.93827000000E+00 0.  1.
     999902    2    1    2    0    0  0.73907027301E-02  0.18367420320E-02  0.20091258388E-01  0.10224438470E+01  0.10222180616E+01 0.  0.
     999903    2    3    3    0    0  0.10378392585E-01 -0.93134909975E-01  0.94167053326E-01  0.13423454486E+00  0.19226456046E-01 0.  0.
         14    1    1    2    0    0 -0.73907027301E-02 -0.18367420320E-02 -0.20091258388E-01  0.21486153024E-01  0.00000000000E+00 0.  1.
     999901    1    3    3    0    0 -0.29876898551E-02  0.94971652007E-01 -0.74075794938E-01  0.88820930212E+00  0.88000000000E+00 0. -1.
        -11    1    4    4    0    0 -0.29234553676E-02 -0.56751678370E-01  0.58869621167E-01  0.81824159064E-01  0.51100000000E-03 0. -1.
         11    1    4    4    0    0  0.13301847953E-01 -0.36383231606E-01  0.35297432159E-01  0.52410385793E-01  0.51100000000E-03 0.  1.
</event>
<event>
 8    1  0.1208168E+005  0.1043930E+01  0.7957747E-01            NaN
         13   -1    0    0    0    0  0.00000000000E+00  0.00000000000E+00  0.74505805969E-08  0.10566000000E+00  0.10566000000E+00 0.  1.
     999900   -1    0    0    0    0 -0.00000000000E+00 -0.00000000000E+00 -0.74505805969E-08  0.93827000000E+00  0.93827000000E+00 0.  1.
     999902    2    1    2    0    0  0.37785552714E-02  0.21901992323E-01  0.75886837980E-02  0.10204446243E+01  0.10201743324E+01 0.  0.
     999903    2    3    3    0    0 -0.27072055677E-02 -0.39254787608E-01 -0.12115416499E+00  0.12895321220E+00  0.20058213537E-01 0.  0.
         14    1    1    2    0    0 -0.37785552714E-02 -0.21901992323E-01 -0.75886837980E-02  0.23485375650E-01  0.00000000000E+00 0. -1.
     999901    1    3    3    0    0  0.64857608392E-02  0.61156779930E-01  0.12874284879E+00  0.89149141215E+00  0.88000000000E+00 0. -1.
        -11    1    4    4    0    0  0.29573621624E-02 -0.24642521124E-01 -0.97225392389E-01  0.10034459569E+00  0.51100000000E-03 0. -1.
         11    1    4    4    0    0 -0.56645677301E-02 -0.14612266483E-01 -0.23928772599E-01  0.28608616507E-01  0.51100000000E-03 0.  1.
</event>
<event>
 8    1  0.1208168E+005  0.1043930E+01  0.7957747E-01            NaN
         13   -1    0    0    0    0  0.00000000000E+00  0.00000000000E+00  0.74505805969E-08  0.10566000000E+00  0.10566000000E+00 0. -1.
     999900   -1    0    0    0    0 -0.00000000000E+00 -0.00000000000E+00 -0.74505805969E-08  0.93827000000E+00  0.93827000000E+00 0. -1.
     999902    2    1    2    0    0  0.14371005495E-01 -0.12331447277E-01 -0.14691438133E-01  0.10199627568E+01  0.10196811249E+01 0.  0.
     999903    2    3    3    0    0 -0.41076629672E-01 -0.95096203661E-01  0.75291361244E-01  0.12978224180E+00  0.21072820255E-01 0.  0.
         14    1    1    2    0    0 -0.14371005495E-01  0.12331447277E-01  0.14691438133E-01  0.23967243173E-01  0.00000000000E+00 0. -1.
     999901    1    3    3    0    0  0.55447635168E-01  0.82764756384E-01 -0.89982799376E-01  0.89018051502E+00  0.88000000000E+00 0. -1.
        -11    1    4    4    0    0 -0.14892903333E-01 -0.53043737233E-01  0.30396947751E-01  0.62925926158E-01  0.51100000000E-03 0.  1.
         11    1    4    4    0    0 -0.26183726340E-01 -0.42052466428E-01  0.44894413492E-01  0.66856315644E-01  0.51100000000E-03 0. -1.
</event>
<event>
 8    1  0.1208168E+005  0.1043930E+01  0.7957747E-01            NaN
         13   -1    0    0    0    0  0.00000000000E+00  0.00000000000E+00  0.74505805969E-08  0.10566000000E+00  0.10566000000E+00 0. -1.
     999900   -1    0    0    0    0 -0.00000000000E+00 -0.00000000000E+00 -0.74505805969E-08  0.93827000000E+00  0.93827000000E+00 0.  1.
     999902    2    1    2    0    0  0.17547655479E-01  0.13216919564E-01  0.99414055297E-02  0.10198169596E+01  0.10195318496E+01 0.  0.
     999903    2    3    3    0    0 -0.59554158596E-01 -0.72211343275E-01  0.85293669459E-01  0.12913146989E+00  0.25273515029E-01 0.  0.
         14    1    1    2    0    0 -0.17547655479E-01 -0.13216919564E-01 -0.99414055297E-02  0.24113040444E-01  0.00000000000E+00 0.  1.
     999901    1    3    3    0    0  0.77101814075E-01  0.85428262839E-01 -0.75352263929E-01  0.89068548967E+00  0.88000000000E+00 0. -1.
        -11    1    4    4    0    0 -0.47213011089E-01 -0.46721423558E-01  0.71611474238E-01  0.97675095080E-01  0.51100000000E-03 0.  1.
         11    1    4    4    0    0 -0.12341147507E-01 -0.25489919717E-01  0.13682195221E-01  0.31456374808E-01  0.51100000000E-03 0. -1.
</event>
<event>
 8    1  0.1208168E+005  0.1043930E+01  0.7957747E-01            NaN
         13   -1    0    0    0    0  0.00000000000E+00  0.00000000000E+00  0.74505805969E-08  0.10566000000E+00  0.10566000000E+00 0.  1.
     999900   -1    0    0    0    0 -0.00000000000E+00 -0.00000000000E+00 -0.74505805969E-08  0.93827000000E+00  0.93827000000E+00 0.  1.
     999902    2    1    2    0    0 -0.13759555134E-01 -0.16560692566E-01  0.86384601967E-02  0.10207307567E+01  0.10204670856E+01 0.  0.
     999903    2    3    3    0    0 -0.51828016110E-01 -0.11835013411E+00  0.28802305725E-01  0.13381651123E+00  0.19605824777E-01 0.  0.
         14    1    1    2    0    0  0.13759555134E-01  0.16560692566E-01 -0.86384601967E-02  0.23199243314E-01  0.00000000000E+00 0.  1.
     999901    1    3    3    0    0  0.38068460976E-01  0.10178944154E+00 -0.20163845529E-01  0.88691424546E+00  0.88000000000E+00 0.  1.
        -11    1    4    4    0    0 -0.31391777187E-01 -0.61436855066E-01  0.62570360274E-02  0.69277286727E-01  0.51100000000E-03 0.  1.
         11    1    4    4    0    0 -0.20436238922E-01 -0.56913279041E-01  0.22545269698E-01  0.64539224501E-01  0.51100000000E-03 0. -1.
</event>
<event>
 8    1  0.1208168E+005  0.1043930E+01  0.7957747E-01            NaN
         13   -1    0    0    0    0  0.00000000000E+00  0.00000000000E+00  0.74505805969E-08  0.10566000000E+00  0.10566000000E+00 0. -1.
     999900   -1    0    0    0    0 -0.00000000000E+00 -0.00000000000E+00 -0.74505805969E-08  0.93827000000E+00  0.93827000000E+00 0.  1.
     999902    2    1    2    0    0 -0.63436856334E-02  0.79013314853E-02 -0.23412854955E-01  0.10184185288E+01  0.10180989464E+01 0.  0.
     999903    2    3    3    0    0 -0.66651504346E-02 -0.12306464329E+00  0.25542329969E-01  0.12738048244E+00  0.19597092345E-01 0.  0.
         14    1    1    2    0    0  0.63436856334E-02 -0.79013314853E-02  0.23412854955E-01  0.25511471220E-01  0.00000000000E+00 0.  1.
     999901    1    3    3    0    0  0.32146480115E-03  0.13096597478E+00 -0.48955184924E-01  0.89103804634E+00  0.88000000000E+00 0.  1.
        -11    1    4    4    0    0  0.23504596534E-03 -0.43042707733E-01  0.18164152491E-01  0.46721809600E-01  0.51100000000E-03 0.  1.
         11    1    4    4    0    0 -0.69001963999E-02 -0.80021935559E-01  0.73781774781E-02  0.80658672843E-01  0.51100000000E-03 0. -1.
</event>
<event>
 8    1  0.1208168E+005  0.1043930E+01  0.7957747E-01            NaN
         13   -1    0    0    0    0  0.00000000000E+00  0.00000000000E+00  0.74505805969E-08  0.10566000000E+00  0.10566000000E+00 0. -1.
     999900   -1    0    0    0    0 -0.00000000000E+00 -0.00000000000E+00 -0.74505805969E-08  0.93827000000E+00  0.93827000000E+00 0.  1.
     999902    2    1    2    0    0 -0.10798665888E-01 -0.14547898883E-02 -0.19084764899E-01  0.10219537435E+01  0.10217174257E+01 0.  0.
     999903    2    3    3    0    0  0.16015291860E-01  0.67700431219E-01 -0.11271577206E+00  0.13388381470E+00  0.19498528337E-01 0.  0.
         14    1    1    2    0    0  0.10798665888E-01  0.14547898883E-02  0.19084764899E-01  0.21976256502E-01  0.00000000000E+00 0. -1.
     999901    1    3    3    0    0 -0.26813957747E-01 -0.69155221107E-01  0.93631007158E-01  0.88806992880E+00  0.88000000000E+00 0. -1.
        -11    1    4    4    0    0  0.16798840846E-01  0.28862834195E-01 -0.52528113471E-01  0.62247313817E-01  0.51100000000E-03 0. -1.
         11    1    4    4    0    0 -0.78354898619E-03  0.38837597024E-01 -0.60187658585E-01  0.71636500882E-01  0.51100000000E-03 0.  1.
</event>
<event>
 8    1  0.1208168E+005  0.1043930E+01  0.7957747E-01            NaN
         13   -1    0    0    0    0  0.00000000000E+00  0.00000000000E+00  0.74505805969E-08  0.10566000000E+00  0.10566000000E+00 0.  1.
     999900   -1    0    0    0    0 -0.00000000000E+00 -0.00000000000E+00 -0.74505805969E-08  0.93827000000E+00  0.93827000000E+00 0.  1.
     999902    2    1    2    0    0  0.58358803380E-02  0.50907550904E-02 -0.22453196917E-01  0.10201788034E+01  0.10199022853E+01 0.  0.
     999903    2    3    3    0    0 -0.46260505951E-01  0.11269644251E+00 -0.46201721661E-01  0.13177742463E+00  0.19752670529E-01 0.  0.
         14    1    1    2    0    0 -0.58358803380E-02 -0.50907550904E-02  0.22453196917E-01  0.23751196570E-01  0.00000000000E+00 0.  1.
     999901    1    3    3    0    0  0.52096386289E-01 -0.10760568742E+00  0.23748524743E-01  0.88840137880E+00  0.88000000000E+00 0.  1.
        -11    1    4    4    0    0 -0.23486649799E-01  0.39583438496E-01 -0.10146956714E-01  0.47134840336E-01  0.51100000000E-03 0. -1.
         11    1    4    4    0    0 -0.22773856152E-01  0.73113004010E-01 -0.36054764947E-01  0.84642584293E-01  0.51100000000E-03 0.  1.
</event>
<event>
 8    1  0.1208168E+005  0.1043930E+01  0.7957747E-01            NaN
         13   -1    0    0    0    0  0.00000000000E+00  0.00000000000E+00  0.74505805969E-08  0.10566000000E+00  0.10566000000E+00 0.  1.
     999900   -1    0    0    0    0 -0.00000000000E+00 -0.00000000000E+00 -0.74505805969E-08  0.93827000000E+00  0.93827000000E+00 0. -1.
     999902    2    1    2    0    0  0.28297224950E-02  0.22419173720E-01  0.70758468534E-02  0.10202510159E+01  0.10199761964E+01 0.  0.
     999903    2    3    3    0    0 -0.65389265869E-01 -0.98096092990E-01 -0.45297321570E-01  0.12788298158E+00  0.20090049445E-01 0.  0.
         14    1    1    2    0    0 -0.28297224950E-02 -0.22419173720E-01 -0.70758468534E-02  0.23678984108E-01  0.00000000000E+00 0. -1.
     999901    1    3    3    0    0  0.68218988364E-01  0.12051526671E+00  0.52373168423E-01  0.89236803431E+00  0.88000000000E+00 0. -1.
        -11    1    4    4    0    0 -0.60707765691E-01 -0.81808917622E-01 -0.33550462684E-01  0.10725682489E+00  0.51100000000E-03 0. -1.
         11    1    4    4    0    0 -0.46815001775E-02 -0.16287175368E-01 -0.11746858886E-01  0.20626156697E-01  0.51100000000E-03 0.  1.
</event>
<event>
 8    1  0.1208168E+005  0.1043930E+01  0.7957747E-01            NaN
         13   -1    0    0    0    0  0.00000000000E+00  0.00000000000E+00  0.74505805969E-08  0.10566000000E+00  0.10566000000E+00 0.  1.
     999900   -1    0    0    0    0 -0.00000000000E+00 -0.00000000000E+00 -0.74505805969E-08  0.93827000000E+00  0.93827000000E+00 0.  1.
     999902    2    1    2    0    0 -0.17025553253E-01  0.13235995086E-01  0.99135230469E-02  0.10201952371E+01  0.10199191061E+01 0.  0.
     999903    2    3    3    0    0  0.42969433740E-01  0.48058386424E-01  0.11268302569E+00  0.13150318243E+00  0.20967641013E-01 0.  0.
         14    1    1    2    0    0  0.17025553253E-01 -0.13235995086E-01 -0.99135230469E-02  0.23734762874E-01  0.00000000000E+00 0.  1.
     999901    1    3    3    0    0 -0.59994986993E-01 -0.34822391338E-01 -0.10276950264E+00  0.88869205469E+00  0.88000000000E+00 0.  1.
        -11    1    4    4    0    0  0.30273060486E-01  0.45429201720E-01  0.95005289873E-01  0.10957434364E+00  0.51100000000E-03 0.  1.
         11    1    4    4    0    0  0.12696373254E-01  0.26291847039E-02  0.17677735816E-01  0.21928838788E-01  0.51100000000E-03 0. -1.
</event>
<event>
 8    1  0.1208168E+005  0.1043930E+01  0.7957747E-01            NaN
         13   -1    0    0    0    0  0.00000000000E+00  0.00000000000E+00  0.74505805969E-08  0.10566000000E+00  0.10566000000E+00 0.  1.
     999900   -1    0    0    0    0 -0.00000000000E+00 -0.00000000000E+00 -0.74505805969E-08  0.93827000000E+00  0.93827000000E+00 0. -1.
     999902    2    1    2    0    0 -0.19420330133E-01 -0.71476669953E-02 -0.11437356679E-01  0.10202857302E+01  0.10200117253E+01 0.  0.
     999903    2    3    3    0    0  0.45188045145E-01 -0.72446000786E-01 -0.97729689560E-01  0.13130626967E+00  0.19996544189E-01 0.  0.
         14    1    1    2    0    0  0.19420330133E-01  0.71476669953E-02  0.11437356679E-01  0.23644269787E-01  0.00000000000E+00 0.  1.
     999901    1    3    3    0    0 -0.64608375278E-01  0.65298333790E-01  0.86292332881E-01  0.88897946054E+00  0.88000000000E+00 0.  1.
        -11    1    4    4    0    0  0.20580246938E-02 -0.17767261631E-01 -0.16908795709E-01  0.24618682841E-01  0.51100000000E-03 0. -1.
         11    1    4    4    0    0  0.43130020451E-01 -0.54678739155E-01 -0.80820893851E-01  0.10668758683E+00  0.51100000000E-03 0.  1.
</event>
<event>
 8    1  0.1208168E+005  0.1043930E+01  0.7957747E-01            NaN
         13   -1    0    0    0    0  0.00000000000E+00  0.00000000000E+00  0.74505805969E-08  0.10566000000E+00  0.10566000000E+00 0.  1.
     999900   -1    0    0    0    0 -0.00000000000E+00 -0.00000000000E+00 -0.74505805969E-08  0.93827000000E+00  0.93827000000E+00 0.  1.
     999902    2    1    2    0    0  0.23057587774E-01 -0.56589798879E-04 -0.19229857344E-03  0.10208715409E+01  0.10206110966E+01 0.  0.
     999903    2    3    3    0    0  0.58614821988E-01  0.86943610337E-01  0.78202225459E-01  0.13240147776E+00  0.20485958901E-01 0.  0.
         14    1    1    2    0    0 -0.23057587774E-01  0.56589798879E-04  0.19229857344E-03  0.23058459079E-01  0.00000000000E+00 0. -1.
     999901    1    3    3    0    0 -0.35557234214E-01 -0.87000200136E-01 -0.78394524033E-01  0.88847006316E+00  0.88000000000E+00 0.  1.
        -11    1    4    4    0    0  0.54897144464E-01  0.67793176719E-01  0.65962684909E-01  0.10936611999E+00  0.51100000000E-03 0. -1.
         11    1    4    4    0    0  0.37176775235E-02  0.19150433618E-01  0.12239540550E-01  0.23035357775E-01  0.51100000000E-03 0.  1.
</event>
<event>
 8    1  0.1208168E+005  0.1043930E+01  0.7957747E-01            NaN
         13   -1    0    0    0    0  0.00000000000E+00  0.00000000000E+00  0.74505805969E-08  0.10566000000E+00  0.10566000000E+00 0. -1.
     999900   -1    0    0    0    0 -0.00000000000E+00 -0.00000000000E+00 -0.74505805969E-08  0.93827000000E+00  0.93827000000E+00 0.  1.
     999902    2    1    2    0    0 -0.62033404254E-02  0.21797338419E-01 -0.71484796219E-02  0.10201664532E+01  0.10198896441E+01 0.  0.
     999903    2    3    3    0    0  0.74533477377E-02  0.11416416347E+00  0.63534913153E-01  0.13240844705E+00  0.20156960268E-01 0.  0.
         14    1    1    2    0    0  0.62033404254E-02 -0.21797338419E-01  0.71484796219E-02  0.23763546779E-01  0.00000000000E+00 0.  1.
     999901    1    3    3    0    0 -0.13656688163E-01 -0.92366825055E-01 -0.70683392775E-01  0.88775800617E+00  0.88000000000E+00 0.  1.
        -11    1    4    4    0    0 -0.85851117523E-03  0.96694348427E-01  0.50683545072E-01  0.10917699813E+00  0.51100000000E-03 0. -1.
         11    1    4    4    0    0  0.83118589129E-02  0.17469815048E-01  0.12851368081E-01  0.23231448921E-01  0.51100000000E-03 0.  1.
</event>
<event>
 8    1  0.1208168E+005  0.1043930E+01  0.7957747E-01            NaN
         13   -1    0    0    0    0  0.00000000000E+00  0.00000000000E+00  0.74505805969E-08  0.10566000000E+00  0.10566000000E+00 0.  1.
     999900   -1    0    0    0    0 -0.00000000000E+00 -0.00000000000E+00 -0.74505805969E-08  0.93827000000E+00  0.93827000000E+00 0.  1.
     999902    2    1    2    0    0  0.13082055101E-01  0.62152585250E-02 -0.17208682190E-01  0.10214375936E+01  0.10211899183E+01 0.  0.
     999903    2    3    3    0    0 -0.40953823075E-02  0.59195670823E-02  0.12772398185E+00  0.12941706192E+00  0.19584354565E-01 0.  0.
         14    1    1    2    0    0 -0.13082055101E-01 -0.62152585250E-02  0.17208682190E-01  0.22492406427E-01  0.00000000000E+00 0.  1.
     999901    1    3    3    0    0  0.17177437408E-01  0.29569144263E-03 -0.14493266404E+00  0.89202053166E+00  0.88000000000E+00 0.  1.
        -11    1    4    4    0    0  0.52332095147E-04  0.33181659021E-02  0.27334863775E-02  0.43296688531E-02  0.51100000000E-03 0.  1.
         11    1    4    4    0    0 -0.41477144026E-02  0.26014011803E-02  0.12499049548E+00  0.12508739306E+00  0.51100000000E-03 0. -1.
</event>
<event>
 8    1  0.1208168E+005  0.1043930E+01  0.7957747E-01            NaN
         13   -1    0    0    0    0  0.00000000000E+00  0.00000000000E+00  0.74505805969E-08  0.10566000000E+00  0.10566000000E+00 0. -1.
     999900   -1    0    0    0    0 -0.00000000000E+00 -0.00000000000E+00 -0.74505805969E-08  0.93827000000E+00  0.93827000000E+00 0.  1.
     999902    2    1    2    0    0 -0.12869042523E-01 -0.19770674299E-01 -0.21402966309E-02  0.10202430271E+01  0.10199680199E+01 0.  0.
     999903    2    3    3    0    0  0.57646879755E-01  0.11192957673E+00  0.89976552221E-04  0.12764993637E+00  0.21050065710E-01 0.  0.
         14    1    1    2    0    0  0.12869042523E-01  0.19770674299E-01  0.21402966309E-02  0.23686972946E-01  0.00000000000E+00 0.  1.
     999901    1    3    3    0    0 -0.70515922278E-01 -0.13170025103E+00 -0.22302731831E-02  0.89259309068E+00  0.88000000000E+00 0.  1.
        -11    1    4    4    0    0  0.32875309428E-01  0.70750558538E-01  0.97694209775E-02  0.78626523583E-01  0.51100000000E-03 0. -1.
         11    1    4    4    0    0  0.24771570327E-01  0.41179018195E-01 -0.96794444253E-02  0.49023412788E-01  0.51100000000E-03 0.  1.
</event>
<event>
 8    1  0.1208168E+005  0.1043930E+01  0.7957747E-01            NaN
         13   -1    0    0    0    0  0.00000000000E+00  0.00000000000E+00  0.74505805969E-08  0.10566000000E+00  0.10566000000E+00 0.  1.
     999900   -1    0    0    0    0 -0.00000000000E+00 -0.00000000000E+00 -0.74505805969E-08  0.93827000000E+00  0.93827000000E+00 0.  1.
     999902    2    1    2    0    0 -0.36195993704E-02 -0.13892660402E-01  0.18527200159E-01  0.10204914706E+01  0.10202222684E+01 0.  0.
     999903    2    3    3    0    0  0.62645353362E-01 -0.34968187133E-01  0.11045524972E+00  0.13297471695E+00  0.18294773816E-01 0.  0.
         14    1    1    2    0    0  0.36195993704E-02  0.13892660402E-01 -0.18527200159E-01  0.23438529356E-01  0.00000000000E+00 0. -1.
     999901    1    3    3    0    0 -0.66264952732E-01  0.21075526731E-01 -0.91928049559E-01  0.88751675369E+00  0.88000000000E+00 0.  1.
        -11    1    4    4    0    0  0.46452257871E-01 -0.22533690640E-01  0.91750950032E-01  0.10528094523E+00  0.51100000000E-03 0.  1.
         11    1    4    4    0    0  0.16193095490E-01 -0.12434496492E-01  0.18704299686E-01  0.27693771725E-01  0.51100000000E-03 0. -1.
</event>
<event>
 8    1  0.1208168E+005  0.1043930E+01  0.7957747E-01            NaN
         13   -1    0    0    0    0  0.00000000000E+00  0.00000000000E+00  0.74505805969E-08  0.10566000000E+00  0.10566000000E+00 0. -1.
     999900   -1    0    0    0    0 -0.00000000000E+00 -0.00000000000E+00 -0.74505805969E-08  0.93827000000E+00  0.93827000000E+00 0.  1.
     999902    2    1    2    0    0 -0.84135142785E-03 -0.16722380421E-01  0.17084014163E-01  0.10200091008E+01  0.10197285699E+01 0.  0.
     999903    2    3    3    0    0  0.72505411834E-01  0.97154738493E-01  0.42860090973E-01  0.12927224176E+00  0.13350922634E-01 0.  0.
         14    1    1    2    0    0  0.84135142785E-03  0.16722380421E-01 -0.17084014163E-01  0.23920899211E-01  0.00000000000E+00 0.  1.
     999901    1    3    3    0    0 -0.73346763262E-01 -0.11387711891E+00 -0.25776076810E-01  0.89073685903E+00  0.88000000000E+00 0. -1.
        -11    1    4    4    0    0  0.24063842553E-01  0.39941274470E-01  0.21287214913E-01  0.51261882178E-01  0.51100000000E-03 0.  1.
         11    1    4    4    0    0  0.48441569281E-01  0.57213464022E-01  0.21572876060E-01  0.78010359584E-01  0.51100000000E-03 0. -1.
</event>
<event>
 8    1  0.1208168E+005  0.1043930E+01  0.7957747E-01            NaN
         13   -1    0    0    0    0  0.00000000000E+00  0.00000000000E+00  0.74505805969E-08  0.10566000000E+00  0.10566000000E+00 0.  1.
     999900   -1    0    0    0    0 -0.00000000000E+00 -0.00000000000E+00 -0.74505805969E-08  0.93827000000E+00  0.93827000000E+00 0.  1.
     999902    2    1    2    0    0  0.11973864504E-01 -0.20166885975E-01  0.32788772893E-02  0.10202481978E+01  0.10199733120E+01 0.  0.
     999903    2    3    3    0    0  0.21732592795E-01 -0.12873128820E+00 -0.17480505684E-01  0.13328009563E+00  0.20346146097E-01 0.  0.
         14    1    1    2    0    0 -0.11973864504E-01  0.20166885975E-01 -0.32788772893E-02  0.23681802241E-01  0.00000000000E+00 0. -1.
     999901    1    3    3    0    0 -0.97587282909E-02  0.10856440223E+00  0.20759382973E-01  0.88696810213E+00  0.88000000000E+00 0. -1.
        -11    1    4    4    0    0  0.31362366143E-02 -0.57029269975E-01 -0.15474725255E-01  0.59176869270E-01  0.51100000000E-03 0.  1.
         11    1    4    4    0    0  0.18596356181E-01 -0.71702018228E-01 -0.20057804291E-02  0.74103226362E-01  0.51100000000E-03 0. -1.
</event>
<event>
 8    1  0.1208168E+005  0.1043930E+01  0.7957747E-01            NaN
         13   -1    0    0    0    0  0.00000000000E+00  0.00000000000E+00  0.74505805969E-08  0.10566000000E+00  0.10566000000E+00 0.  1.
     999900   -1    0    0    0    0 -0.00000000000E+00 -0.00000000000E+00 -0.74505805969E-08  0.93827000000E+00  0.93827000000E+00 0. -1.
     999902    2    1    2    0    0 -0.99458691755E-02 -0.21215292283E-01  0.85767343550E-02  0.10189786611E+01  0.10186731284E+01 0.  0.
     999903    2    3    3    0    0  0.79931503895E-01  0.53301007915E-01 -0.80306982775E-01  0.12682904565E+00  0.20158188889E-01 0.  0.
         14    1    1    2    0    0  0.99458691755E-02  0.21215292283E-01 -0.85767343550E-02  0.24951338892E-01  0.00000000000E+00 0. -1.
     999901    1    3    3    0    0 -0.89877373071E-01 -0.74516300198E-01  0.88883717130E-01  0.89214961545E+00  0.88000000000E+00 0.  1.
        -11    1    4    4    0    0  0.30000776333E-01  0.30929372213E-01 -0.30050132668E-01  0.52535171461E-01  0.51100000000E-03 0.  1.
         11    1    4    4    0    0  0.49930727563E-01  0.22371635702E-01 -0.50256850107E-01  0.74293874193E-01  0.51100000000E-03 0. -1.
</event>
<event>
 8    1  0.1208168E+005  0.1043930E+01  0.7957747E-01            NaN
         13   -1    0    0    0    0  0.00000000000E+00  0.00000000000E+00  0.74505805969E-08  0.10566000000E+00  0.10566000000E+00 0. -1.
     999900   -1    0    0    0    0 -0.00000000000E+00 -0.00000000000E+00 -0.74505805969E-08  0.93827000000E+00  0.93827000000E+00 0. -1.
     999902    2    1    2    0    0 -0.10621500777E-01  0.16710961679E-01  0.57330145204E-02  0.10233159278E+01  0.10231082778E+01 0.  0.
     999903    2    3    3    0    0 -0.62752794285E-01 -0.70330037972E-01 -0.88737394384E-01  0.13246326567E+00  0.28070699293E-01 0.  0.
         14    1    1    2    0    0  0.10621500777E-01 -0.16710961679E-01 -0.57330145204E-02  0.20614072244E-01  0.00000000000E+00 0.  1.
     999901    1    3    3    0    0  0.52131293508E-01  0.87040999651E-01  0.94470408904E-01  0.89085266208E+00  0.88000000000E+00 0.  1.
        -11    1    4    4    0    0 -0.37869823047E-01 -0.47787518502E-01 -0.73744886997E-01  0.95688765806E-01  0.51100000000E-03 0.  1.
         11    1    4    4    0    0 -0.24882971238E-01 -0.22542519470E-01 -0.14992507387E-01  0.36774499867E-01  0.51100000000E-03 0. -1.
</event>
<event>
 8    1  0.1208168E+005  0.1043930E+01  0.7957747E-01            NaN
         13   -1    0    0    0    0  0.00000000000E+00  0.00000000000E+00  0.74505805969E-08  0.10566000000E+00  0.10566000000E+00 0. -1.
     999900   -1    0    0    0    0 -0.00000000000E+00 -0.00000000000E+00 -0.74505805969E-08  0.93827000000E+00  0.93827000000E+00 0. -1.
     999902    2    1    2    0    0 -0.10534929010E-01  0.19528705760E-01 -0.10139752450E-01  0.10195339008E+01  0.10192419758E+01 0.  0.
     999903    2    3    3    0    0  0.73236877372E-01 -0.42576057770E-01  0.93128117182E-01  0.12737978286E+00  0.19401081674E-01 0.  0.
         14    1    1    2    0    0  0.10534929010E-01 -0.19528705760E-01  0.10139752450E-01  0.24396099230E-01  0.00000000000E+00 0. -1.
     999901    1    3    3    0    0 -0.83771806382E-01  0.62104763530E-01 -0.10326786963E+00  0.89215411791E+00  0.88000000000E+00 0. -1.
        -11    1    4    4    0    0  0.95532742130E-02 -0.53885551108E-03  0.50089708626E-02  0.10812322764E-01  0.51100000000E-03 0.  1.
         11    1    4    4    0    0  0.63683603159E-01 -0.42037202259E-01  0.88119146320E-01  0.11656746010E+00  0.51100000000E-03 0. -1.
</event>
<event>
 8    1  0.1208168E+005  0.1043930E+01  0.7957747E-01            NaN
         13   -1    0    0    0    0  0.00000000000E+00  0.00000000000E+00  0.74505805969E-08  0.10566000000E+00  0.10566000000E+00 0. -1.
     999900   -1    0    0    0    0 -0.00000000000E+00 -0.00000000000E+00 -0.74505805969E-08  0.93827000000E+00  0.93827000000E+00 0. -1.
     999902    2    1    2    0    0 -0.20205612023E-02  0.23316382791E-01 -0.16358355801E-02  0.10204691319E+01  0.10201994103E+01 0.  0.
     999903    2    3    3    0    0 -0.39618560497E-01 -0.42981379470E-01 -0.11321351281E+00  0.13015537772E+00  0.26572420835E-01 0.  0.
         14    1    1    2    0    0  0.20205612023E-02 -0.23316382791E-01  0.16358355801E-02  0.23460868102E-01  0.00000000000E+00 0.  1.
     999901    1    3    3    0    0  0.37597999295E-01  0.66297762262E-01  0.11157767723E+00  0.89031375418E+00  0.88000000000E+00 0.  1.
        -11    1    4    4    0    0 -0.22905222561E-01 -0.65136984143E-02 -0.36487550084E-01  0.43573844446E-01  0.51100000000E-03 0. -1.
         11    1    4    4    0    0 -0.16713337935E-01 -0.36467681056E-01 -0.76725962723E-01  0.86581533270E-01  0.51100000000E-03 0.  1.
</event>
<event>
 8    1  0.1208168E+005  0.1043930E+01  0.7957747E-01            NaN
         13   -1    0    0    0    0  0.00000000000E+00  0.00000000000E+00  0.74505805969E-08  0.10566000000E+00  0.10566000000E+00 0.  1.
     999900   -1    0    0    0    0 -0.00000000000E+00 -0.00000000000E+00 -0.74505805969E-08  0.93827000000E+00  0.93827000000E+00 0. -1.
     999902    2    1    2    0    0  0.21309523042E-01 -0.69826787223E-02  0.85631100542E-02  0.10199262414E+01  0.10196437404E+01 0.  0.
     999903    2    3    3    0    0 -0.87307843841E-01 -0.42517073397E-02 -0.90790352184E-01  0.12769516085E+00  0.20553088414E-01 0.  0.
         14    1    1    2    0    0 -0.21309523042E-01  0.69826787223E-02 -0.85631100542E-02  0.24003758627E-01  0.00000000000E+00 0. -1.
     999901    1    3    3    0    0  0.10861736688E+00 -0.27309713826E-02  0.99353462238E-01  0.89223108052E+00  0.88000000000E+00 0.  1.
        -11    1    4    4    0    0 -0.77937166885E-01 -0.10165719382E-01 -0.81503971387E-01  0.11322854015E+00  0.51100000000E-03 0. -1.
         11    1    4    4    0    0 -0.93706769562E-02  0.59140120423E-02 -0.92863807970E-02  0.14466620696E-01  0.51100000000E-03 0.  1.
</event>
<event>
 8    1  0.1208168E+005  0.1043930E+01  0.7957747E-01            NaN
         13   -1    0    0    0    0  0.00000000000E+00  0.00000000000E+00  0.74505805969E-08  0.10566000000E+00  0.10566000000E+00 0. -1.
     999900   -1    0    0    0    0 -0.00000000000E+00 -0.00000000000E+00 -0.74505805969E-08  0.93827000000E+00  0.93827000000E+00 0.  1.
     999902    2    1    2    0    0  0.19045678252E-01 -0.58969893611E-02  0.15582399186E-01  0.10186253856E+01  0.10183110295E+01 0.  0.
     999903    2    3    3    0    0 -0.43501808346E-01  0.37214073741E-01  0.11473826788E+00  0.12980445984E+00  0.20175060429E-01 0.  0.
         14    1    1    2    0    0 -0.19045678252E-01  0.58969893611E-02 -0.15582399186E-01  0.25304614362E-01  0.00000000000E+00 0.  1.
     999901    1    3    3    0    0  0.62547486598E-01 -0.43111063102E-01 -0.99155868697E-01  0.88882092580E+00  0.88000000000E+00 0.  1.
        -11    1    4    4    0    0 -0.24337493381E-01  0.32366541241E-01  0.69611915114E-01  0.80535622074E-01  0.51100000000E-03 0.  1.
         11    1    4    4    0    0 -0.19164314965E-01  0.48475324999E-02  0.45126352769E-01  0.49268837765E-01  0.51100000000E-03 0. -1.
</event>
<event>
 8    1  0.1208168E+005  0.1043930E+01  0.7957747E-01            NaN
         13   -1    0    0    0    0  0.00000000000E+00  0.00000000000E+00  0.74505805969E-08  0.10566000000E+00  0.10566000000E+00 0. -1.
     999900   -1    0    0    0    0 -0.00000000000E+00 -0.00000000000E+00 -0.74505805969E-08  0.93827000000E+00  0.93827000000E+00 0. -1.
     999902    2    1    2    0    0  0.95702230014E-02 -0.20225830692E-01  0.99313871933E-02  0.10194492760E+01  0.10191552975E+01 0.  0.
     999903    2    3    3    0    0  0.81746813038E-01  0.94772628863E-01 -0.20864925129E-01  0.12850454220E+00  0.20339116063E-01 0.  0.
         14    1    1    2    0    0 -0.95702230014E-02  0.20225830692E-01 -0.99313871933E-02  0.24480723990E-01  0.00000000000E+00 0. -1.
     999901    1    3    3    0    0 -0.72176590037E-01 -0.11499845955E+00  0.30796312323E-01  0.89094473381E+00  0.88000000000E+00 0.  1.
        -11    1    4    4    0    0  0.54336922546E-01  0.51098290380E-01 -0.18671674561E-01  0.76892320705E-01  0.51100000000E-03 0.  1.
         11    1    4    4    0    0  0.27409890492E-01  0.43674338482E-01 -0.21932505686E-02  0.51612221496E-01  0.51100000000E-03 0. -1.
</event>
<event>
 8    1  0.1208168E+005  0.1043930E+01  0.7957747E-01            NaN
         13   -1    0    0    0    0  0.00000000000E+00  0.00000000000E+00  0.74505805969E-08  0.10566000000E+00  0.10566000000E+00 0.  1.
     999900   -1    0    0    0    0 -0.00000000000E+00 -0.00000000000E+00 -0.74505805969E-08  0.93827000000E+00  0.93827000000E+00 0.  1.
     999902    2    1    2    0    0  0.67345172527E-02  0.40872010835E-02  0.21929711058E-01  0.10206282584E+01  0.10203622252E+01 0.  0.
     999903    2    3    3    0    0 -0.40990877780E-01 -0.11693331857E-01 -0.11856078462E+00  0.12806771818E+00  0.22971606801E-01 0.  0.
         14    1    1    2    0    0 -0.67345172527E-02 -0.40872010835E-02 -0.21929711058E-01  0.23301741618E-01  0.00000000000E+00 0. -1.
     999901    1    3    3    0    0  0.47725395032E-01  0.15780532941E-01  0.14049049568E+00  0.89256054020E+00  0.88000000000E+00 0.  1.
        -11    1    4    4    0    0 -0.28209469291E-01  0.11447272918E-02 -0.89213686476E-01  0.93575784976E-01  0.51100000000E-03 0.  1.
         11    1    4    4    0    0 -0.12781408489E-01 -0.12838059149E-01 -0.29347098144E-01  0.34491933204E-01  0.51100000000E-03 0. -1.
</event>
<event>
 8    1  0.1208168E+005  0.1043930E+01  0.7957747E-01            NaN
         13   -1    0    0    0    0  0.00000000000E+00  0.00000000000E+00  0.74505805969E-08  0.10566000000E+00  0.10566000000E+00 0. -1.
     999900   -1    0    0    0    0 -0.00000000000E+00 -0.00000000000E+00 -0.74505805969E-08  0.93827000000E+00  0.93827000000E+00 0. -1.
     999902    2    1    2    0    0 -0.22134310332E-01  0.91599286518E-02  0.18602863623E-02  0.10199030848E+01  0.10196200321E+01 0.  0.
     999903    2    3    3    0    0  0.10443133144E+00  0.13946693460E-01  0.70293279770E-01  0.12820535053E+00  0.19875952238E-01 0.  0.
         14    1    1    2    0    0  0.22134310332E-01 -0.91599286518E-02 -0.18602863623E-02  0.24026915160E-01  0.00000000000E+00 0.  1.
     999901    1    3    3    0    0 -0.12656564177E+00 -0.47867648080E-02 -0.68432993407E-01  0.89169773431E+00  0.88000000000E+00 0. -1.
        -11    1    4    4    0    0  0.92515236383E-01  0.14243803495E-01  0.54179845890E-01  0.10815577526E+00  0.51100000000E-03 0. -1.
         11    1    4    4    0    0  0.11916095059E-01 -0.29711003516E-03  0.16113433880E-01  0.20049575263E-01  0.51100000000E-03 0.  1.
</event>
<event>
 8    1  0.1208168E+005  0.1043930E+01  0.7957747E-01            NaN
         13   -1    0    0    0    0  0.00000000000E+00  0.00000000000E+00  0.74505805969E-08  0.10566000000E+00  0.10566000000E+00 0. -1.
     999900   -1    0    0    0    0 -0.00000000000E+00 -0.00000000000E+00 -0.74505805969E-08  0.93827000000E+00  0.93827000000E+00 0.  1.
     999902    2    1    2    0    0  0.21009686909E-01  0.85384843227E-02 -0.71937911339E-02  0.10201379154E+01  0.10198604332E+01 0.  0.
     999903    2    3    3    0    0 -0.10043683162E+00  0.52721151429E-01  0.56987864763E-01  0.12838646467E+00  0.19193504759E-01 0.  0.
         14    1    1    2    0    0 -0.21009686909E-01 -0.85384843227E-02  0.71937911339E-02  0.23792084596E-01  0.00000000000E+00 0.  1.
     999901    1    3    3    0    0  0.12144651853E+00 -0.44182667106E-01 -0.64181655897E-01  0.89175145074E+00  0.88000000000E+00 0.  1.
        -11    1    4    4    0    0 -0.19458777332E-01  0.14548725381E-01  0.48356503441E-02  0.24778096390E-01  0.51100000000E-03 0. -1.
         11    1    4    4    0    0 -0.80978054292E-01  0.38172426048E-01  0.52152214419E-01  0.10360836828E+00  0.51100000000E-03 0.  1.
</event>
<event>
 8    1  0.1208168E+005  0.1043930E+01  0.7957747E-01            NaN
         13   -1    0    0    0    0  0.00000000000E+00  0.00000000000E+00  0.74505805969E-08  0.10566000000E+00  0.10566000000E+00 0.  1.
     999900   -1    0    0    0    0 -0.00000000000E+00 -0.00000000000E+00 -0.74505805969E-08  0.93827000000E+00  0.93827000000E+00 0. -1.
     999902    2    1    2    0    0  0.67178462840E-02 -0.28379312642E-02 -0.21977330152E-01  0.10207743019E+01  0.10205116311E+01 0.  0.
     999903    2    3    3    0    0  0.83141599236E-01 -0.37176427503E-01 -0.93818985872E-01  0.13388031399E+00  0.28763241812E-01 0.  0.
         14    1    1    2    0    0 -0.67178462840E-02  0.28379312642E-02  0.21977330152E-01  0.23155698072E-01  0.00000000000E+00 0.  1.
     999901    1    3    3    0    0 -0.76423752952E-01  0.34338496238E-01  0.71841655719E-01  0.88689398794E+00  0.88000000000E+00 0.  1.
        -11    1    4    4    0    0  0.67873869765E-01 -0.16600565502E-01 -0.69291628067E-01  0.98407478441E-01  0.51100000000E-03 0.  1.
         11    1    4    4    0    0  0.15267729471E-01 -0.20575862000E-01 -0.24527357804E-01  0.35472835553E-01  0.51100000000E-03 0. -1.
</event>
<event>
 8    1  0.1208168E+005  0.1043930E+01  0.7957747E-01            NaN
         13   -1    0    0    0    0  0.00000000000E+00  0.00000000000E+00  0.74505805969E-08  0.10566000000E+00  0.10566000000E+00 0.  1.
     999900   -1    0    0    0    0 -0.00000000000E+00 -0.00000000000E+00 -0.74505805969E-08  0.93827000000E+00  0.93827000000E+00 0. -1.
     999902    2    1    2    0    0  0.56705491171E-02  0.16781780717E-02  0.14252182754E-01  0.10284996364E+01  0.10283838806E+01 0.  0.
     999903    2    3    3    0    0  0.94986579122E-01 -0.46078479515E-01 -0.85069405291E-01  0.13713953549E+00  0.20609997347E-01 0.  0.
         14    1    1    2    0    0 -0.56705491171E-02 -0.16781780717E-02 -0.14252182754E-01  0.15430363644E-01  0.00000000000E+00 0. -1.
     999901    1    3    3    0    0 -0.89316030005E-01  0.47756657587E-01  0.99321588046E-01  0.89136010086E+00  0.88000000000E+00 0.  1.
        -11    1    4    4    0    0  0.90863078352E-01 -0.43819246185E-01 -0.74023831376E-01  0.12512399481E+00  0.51100000000E-03 0. -1.
         11    1    4    4    0    0  0.41235007698E-02 -0.22592333303E-02 -0.11045573915E-01  0.12015540685E-01  0.51100000000E-03 0.  1.
</event>
<event>
 8    1  0.1208168E+005  0.1043930E+01  0.7957747E-01            NaN
         13   -1    0    0    0    0  0.00000000000E+00  0.00000000000E+00  0.74505805969E-08  0.10566000000E+00  0.10566000000E+00 0.  1.
     999900   -1    0    0    0    0 -0.00000000000E+00 -0.00000000000E+00 -0.74505805969E-08  0.93827000000E+00  0.93827000000E+00 0. -1.
     999902    2    1    2    0    0 -0.72300914493E-02  0.24911824890E-02 -0.23427904355E-01  0.10192855906E+01  0.10189876193E+01 0.  0.
     999903    2    3    3    0    0  0.85038638705E-01 -0.95126840490E-01  0.50857584672E-02  0.12863648688E+00  0.15517569509E-01 0.  0.
         14    1    1    2    0    0  0.72300914493E-02 -0.24911824890E-02  0.23427904355E-01  0.24644409407E-01  0.00000000000E+00 0.  1.
     999901    1    3    3    0    0 -0.92268730155E-01  0.97618022979E-01 -0.28513662822E-01  0.89064910371E+00  0.88000000000E+00 0. -1.
        -11    1    4    4    0    0  0.62677953149E-01 -0.59261739638E-01  0.27228390518E-02  0.86302691554E-01  0.51100000000E-03 0. -1.
         11    1    4    4    0    0  0.22360685556E-01 -0.35865100852E-01  0.23629194155E-02  0.42333795328E-01  0.51100000000E-03 0.  1.
</event>
<event>
 8    1  0.1208168E+005  0.1043930E+01  0.7957747E-01            NaN
         13   -1    0    0    0    0  0.00000000000E+00  0.00000000000E+00  0.74505805969E-08  0.10566000000E+00  0.10566000000E+00 0. -1.
     999900   -1    0    0    0    0 -0.00000000000E+00 -0.00000000000E+00 -0.74505805969E-08  0.93827000000E+00  0.93827000000E+00 0.  1.
     999902    2    1    2    0    0  0.25217210340E-01  0.48339231760E-02 -0.28033214873E-02  0.10181010797E+01  0.10177733910E+01 0.  0.
     999903    2    3    3    0    0 -0.10275474566E+00 -0.69551787492E-01  0.13150149917E-02  0.12572951129E+00  0.20253193481E-01 0.  0.
         14    1    1    2    0    0 -0.25217210340E-01 -0.48339231760E-02  0.28033214873E-02  0.25828920264E-01  0.00000000000E+00 0.  1.
     999901    1    3    3    0    0  0.12797195600E+00  0.74385710669E-01 -0.41183364789E-02  0.89237156845E+00  0.88000000000E+00 0.  1.
        -11    1    4    4    0    0 -0.73204897516E-01 -0.51297634929E-01  0.99290387340E-02  0.89940265181E-01  0.51100000000E-03 0. -1.
         11    1    4    4    0    0 -0.29549848143E-01 -0.18254152564E-01 -0.86140237424E-02  0.35789246110E-01  0.51100000000E-03 0.  1.
</event>
<event>
 8    1  0.1208168E+005  0.1043930E+01  0.7957747E-01            NaN
         13   -1    0    0    0    0  0.00000000000E+00  0.00000000000E+00  0.74505805969E-08  0.10566000000E+00  0.10566000000E+00 0.  1.
     999900   -1    0    0    0    0 -0.00000000000E+00 -0.00000000000E+00 -0.74505805969E-08  0.93827000000E+00  0.93827000000E+00 0. -1.
     999902    2    1    2    0    0 -0.11468346406E-01 -0.57103086295E-02 -0.20381082682E-01  0.10198567965E+01  0.10195726391E+01 0.  0.
     999903    2    3    3    0    0  0.10168665600E+00  0.41313625975E-02 -0.79177583840E-01  0.13061108155E+00  0.20806745937E-01 0.  0.
         14    1    1    2    0    0  0.11468346406E-01  0.57103086295E-02  0.20381082682E-01  0.24073203468E-01  0.00000000000E+00 0. -1.
     999901    1    3    3    0    0 -0.11315500240E+00 -0.98416712269E-02  0.58796501158E-01  0.88924571498E+00  0.88000000000E+00 0.  1.
        -11    1    4    4    0    0  0.74313266572E-01 -0.52022590763E-03 -0.46236246923E-01  0.87525904018E-01  0.51100000000E-03 0.  1.
         11    1    4    4    0    0  0.27373389426E-01  0.46515885051E-02 -0.32941336917E-01  0.43085177534E-01  0.51100000000E-03 0. -1.
</event>
<event>
 8    1  0.1208168E+005  0.1043930E+01  0.7957747E-01            NaN
         13   -1    0    0    0    0  0.00000000000E+00  0.00000000000E+00  0.74505805969E-08  0.10566000000E+00  0.10566000000E+00 0.  1.
     999900   -1    0    0    0    0 -0.00000000000E+00 -0.00000000000E+00 -0.74505805969E-08  0.93827000000E+00  0.93827000000E+00 0.  1.
     999902    2    1    2    0    0  0.12929512891E-01  0.18631188104E-01  0.63131191181E-02  0.10203896316E+01  0.10201180575E+01 0.  0.
     999903    2    3    3    0    0  0.62463936567E-02  0.56329878257E-01  0.11810420577E+00  0.13249149416E+00  0.19832296566E-01 0.  0.
         14    1    1    2    0    0 -0.12929512891E-01 -0.18631188104E-01 -0.63131191181E-02  0.23540368450E-01  0.00000000000E+00 0.  1.
     999901    1    3    3    0    0  0.66831192346E-02 -0.37698690154E-01 -0.11179108665E+00  0.88789813739E+00  0.88000000000E+00 0.  1.
        -11    1    4    4    0    0  0.33777790412E-02  0.35613568454E-01  0.93981024951E-01  0.10056057787E+00  0.51100000000E-03 0.  1.
         11    1    4    4    0    0  0.28686146155E-02  0.20716309803E-01  0.24123180817E-01  0.31930916295E-01  0.51100000000E-03 0. -1.
</event>
<event>
 8    1  0.1208168E+005  0.1043930E+01  0.7957747E-01            NaN
         13   -1    0    0    0    0  0.00000000000E+00  0.00000000000E+00  0.74505805969E-08  0.10566000000E+00  0.10566000000E+00 0. -1.
     999900   -1    0    0    0    0 -0.00000000000E+00 -0.00000000000E+00 -0.74505805969E-08  0.93827000000E+00  0.93827000000E+00 0. -1.
     999902    2    1    2    0    0  0.23422509915E-01 -0.31282374237E-02 -0.60705999445E-03  0.10202917183E+01  0.10200178538E+01 0.  0.
     999903    2    3    3    0    0 -0.58256467221E-01  0.10717201452E+00 -0.37197703639E-01  0.12890152535E+00  0.18769054638E-01 0.  0.
         14    1    1    2    0    0 -0.23422509915E-01  0.31282374237E-02  0.60705999445E-03  0.23638281704E-01  0.00000000000E+00 0. -1.
     999901    1    3    3    0    0  0.81678977136E-01 -0.11030025194E+00  0.36590643644E-01  0.89139019295E+00  0.88000000000E+00 0.  1.
        -11    1    4    4    0    0 -0.41961042676E-01  0.64614501370E-01 -0.16232778360E-01  0.78737075791E-01  0.51100000000E-03 0. -1.
         11    1    4    4    0    0 -0.16295424546E-01  0.42557513146E-01 -0.20964925279E-01  0.50164449556E-01  0.51100000000E-03 0.  1.
</event>
<event>
 8    1  0.1208168E+005  0.1043930E+01  0.7957747E-01            NaN
         13   -1    0    0    0    0  0.00000000000E+00  0.00000000000E+00  0.74505805969E-08  0.10566000000E+00  0.10566000000E+00 0.  1.
     999900   -1    0    0    0    0 -0.00000000000E+00 -0.00000000000E+00 -0.74505805969E-08  0.93827000000E+00  0.93827000000E+00 0. -1.
     999902    2    1    2    0    0 -0.16081751243E-01 -0.15009997409E-01  0.88530909406E-02  0.10202171350E+01  0.10199415192E+01 0.  0.
     999903    2    3    3    0    0 -0.85912801438E-02 -0.31507499689E-01 -0.12431329017E+00  0.13001403474E+00  0.19578623129E-01 0.  0.
         14    1    1    2    0    0  0.16081751243E-01  0.15009997409E-01 -0.88530909406E-02  0.23712864957E-01  0.00000000000E+00 0. -1.
     999901    1    3    3    0    0 -0.74904710991E-02  0.16497502280E-01  0.13316638111E+00  0.89020310031E+00  0.88000000000E+00 0.  1.
        -11    1    4    4    0    0 -0.26699930186E-02 -0.24690213151E-01 -0.58116328940E-01  0.63202090936E-01  0.51100000000E-03 0.  1.
         11    1    4    4    0    0 -0.59212871252E-02 -0.68172865376E-02 -0.66196961232E-01  0.66811943799E-01  0.51100000000E-03 0. -1.
</event>
<event>
 8    1  0.1208168E+005  0.1043930E+01  0.7957747E-01            NaN
         13   -1    0    0    0    0  0.00000000000E+00  0.00000000000E+00  0.74505805969E-08  0.10566000000E+00  0.10566000000E+00 0. -1.
     999900   -1    0    0    0    0 -0.00000000000E+00 -0.00000000000E+00 -0.74505805969E-08  0.93827000000E+00  0.93827000000E+00 0. -1.
     999902    2    1    2    0    0 -0.16680716297E-01 -0.12029338344E-01 -0.10107544624E-01  0.10210146397E+01  0.10207574545E+01 0.  0.
     999903    2    3    3    0    0  0.80180754208E-01 -0.95262346325E-01 -0.37535782760E-01  0.13137303419E+00  0.18602987745E-01 0.  0.
         14    1    1    2    0    0  0.16680716297E-01  0.12029338344E-01  0.10107544624E-01  0.22915360253E-01  0.00000000000E+00 0. -1.
     999901    1    3    3    0    0 -0.96861470506E-01  0.83233007981E-01  0.27428238135E-01  0.88964160555E+00  0.88000000000E+00 0.  1.
        -11    1    4    4    0    0  0.65241551723E-01 -0.83901577680E-01 -0.26287368949E-01  0.10948617125E+00  0.51100000000E-03 0. -1.
         11    1    4    4    0    0  0.14939202486E-01 -0.11360768645E-01 -0.11248413811E-01  0.21886862941E-01  0.51100000000E-03 0.  1.
</event>
<event>
 8    1  0.1208168E+005  0.1043930E+01  0.7957747E-01            NaN
         13   -1    0    0    0    0  0.00000000000E+00  0.00000000000E+00  0.74505805969E-08  0.10566000000E+00  0.10566000000E+00 0.  1.
     999900   -1    0    0    0    0 -0.00000000000E+00 -0.00000000000E+00 -0.74505805969E-08  0.93827000000E+00  0.93827000000E+00 0.  1.
     999902    2    1    2    0    0 -0.12641631112E-02 -0.19507824396E-01 -0.15090563142E-01  0.10192342834E+01  0.10189350549E+01 0.  0.
     999903    2    3    3    0    0  0.11785469591E+00  0.12255920747E-01  0.45684656492E-01  0.12856494781E+00  0.20047968118E-01 0.  0.
         14    1    1    2    0    0  0.12641631112E-02  0.19507824396E-01  0.15090563142E-01  0.24695716572E-01  0.00000000000E+00 0.  1.
     999901    1    3    3    0    0 -0.11911885902E+00 -0.31763745144E-01 -0.60775219634E-01  0.89066933561E+00  0.88000000000E+00 0.  1.
        -11    1    4    4    0    0  0.98653159591E-01  0.17225708702E-01  0.40745443481E-01  0.10811856095E+00  0.51100000000E-03 0. -1.
         11    1    4    4    0    0  0.19201536322E-01 -0.49697879544E-02  0.49392130114E-02  0.20446386860E-01  0.51100000000E-03 0.  1.
</event>
<event>
 8    1  0.1208168E+005  0.1043930E+01  0.7957747E-01            NaN
         13   -1    0    0    0    0  0.00000000000E+00  0.00000000000E+00  0.74505805969E-08  0.10566000000E+00  0.10566000000E+00 0.  1.
     999900   -1    0    0    0    0 -0.00000000000E+00 -0.00000000000E+00 -0.74505805969E-08  0.93827000000E+00  0.93827000000E+00 0. -1.
     999902    2    1    2    0    0 -0.22233978086E-01 -0.62076053102E-02  0.68349152325E-02  0.10198551124E+01  0.10195709147E+01 0.  0.
     999903    2    3    3    0    0  0.28736755575E-01  0.14177975440E-01 -0.12304889202E+00  0.12862933241E+00  0.19433456231E-01 0.  0.
         14    1    1    2    0    0  0.22233978086E-01  0.62076053102E-02 -0.68349152325E-02  0.24074887569E-01  0.00000000000E+00 0.  1.
     999901    1    3    3    0    0 -0.50970733661E-01 -0.20385580750E-01  0.12988380725E+00  0.89122578002E+00  0.88000000000E+00 0.  1.
        -11    1    4    4    0    0  0.11650929588E-01 -0.37121416103E-02 -0.51078760648E-01  0.52524518712E-01  0.51100000000E-03 0. -1.
         11    1    4    4    0    0  0.17085825987E-01  0.17890117050E-01 -0.71970131367E-01  0.76104813696E-01  0.51100000000E-03 0.  1.
</event>
<event>
 8    1  0.1208168E+005  0.1043930E+01  0.7957747E-01            NaN
         13   -1    0    0    0    0  0.00000000000E+00  0.00000000000E+00  0.74505805969E-08  0.10566000000E+00  0.10566000000E+00 0. -1.
     999900   -1    0    0    0    0 -0.00000000000E+00 -0.00000000000E+00 -0.74505805969E-08  0.93827000000E+00  0.93827000000E+00 0.  1.
     999902    2    1    2    0    0 -0.55359732064E-02 -0.48450194306E-02  0.22813383277E-01  0.10199597754E+01  0.10196780726E+01 0.  0.
     999903    2    3    3    0    0 -0.73152188734E-02 -0.12236691485E+00 -0.38439583089E-01  0.13003478554E+00  0.20106457320E-01 0.  0.
         14    1    1    2    0    0  0.55359732064E-02  0.48450194306E-02 -0.22813383277E-01  0.23970224638E-01  0.00000000000E+00 0.  1.
     999901    1    3    3    0    0  0.17792456670E-02  0.11752189542E+00  0.61252966366E-01  0.88992498982E+00  0.88000000000E+00 0.  1.
        -11    1    4    4    0    0 -0.11981725921E-01 -0.42347626729E-01 -0.11804771040E-01  0.45568596489E-01  0.51100000000E-03 0.  1.
         11    1    4    4    0    0  0.46665070479E-02 -0.80019288120E-01 -0.26634812048E-01  0.84466189053E-01  0.51100000000E-03 0. -1.
</event>
<event>
 8    1  0.1237238E+005  0.1043930E+01  0.7957747E-01            NaN
         13   -1    0    0    0    0  0.00000000000E+00  0.00000000000E+00  0.74505805969E-08  0.10566000000E+00  0.10566000000E+00 0. -1.
     999900   -1    0    0    0    0 -0.00000000000E+00 -0.00000000000E+00 -0.74505805969E-08  0.93827000000E+00  0.93827000000E+00 0. -1.
     999902    2    1    2    0    0 -0.11156806884E-01 -0.12284560874E-01  0.15981639563E-01  0.10208909553E+01  0.10206309544E+01 0.  0.
     999903    2    3    3    0    0  0.79135659390E-01 -0.14834266003E-01  0.10260083588E+00  0.13203657152E+00  0.20596520581E-01 0.  0.
         14    1    1    2    0    0  0.11156806884E-01  0.12284560874E-01 -0.15981639563E-01  0.23039044659E-01  0.00000000000E+00 0.  1.
     999901    1    3    3    0    0 -0.90292466274E-01  0.25497051295E-02 -0.86619196322E-01  0.88885438382E+00  0.88000000000E+00 0. -1.
        -11    1    4    4    0    0  0.28590970075E-01 -0.14105194645E-01  0.48016638851E-01  0.57639038970E-01  0.51100000000E-03 0. -1.
         11    1    4    4    0    0  0.50544689315E-01 -0.72907135812E-03  0.54584197034E-01  0.74397532552E-01  0.51100000000E-03 0.  1.
</event>
<event>
 8    1  0.1208168E+005  0.1043930E+01  0.7957747E-01            NaN
         13   -1    0    0    0    0  0.00000000000E+00  0.00000000000E+00  0.74505805969E-08  0.10566000000E+00  0.10566000000E+00 0. -1.
     999900   -1    0    0    0    0 -0.00000000000E+00 -0.00000000000E+00 -0.74505805969E-08  0.93827000000E+00  0.93827000000E+00 0.  1.
     999902    2    1    2    0    0 -0.97936647578E-03  0.94391086610E-02  0.22447005322E-01  0.10195594444E+01  0.10192681378E+01 0.  0.
     999903    2    3    3    0    0 -0.61037416415E-01 -0.98190145988E-01 -0.51348103186E-01  0.12791111473E+00  0.18914401866E-01 0.  0.
         14    1    1    2    0    0  0.97936647578E-03 -0.94391086610E-02 -0.22447005322E-01  0.24370555573E-01  0.00000000000E+00 0.  1.
     999901    1    3    3    0    0  0.60058049939E-01  0.10762925465E+00  0.73795108508E-01  0.89164832970E+00  0.88000000000E+00 0. -1.
        -11    1    4    4    0    0 -0.27261997259E-01 -0.61429707692E-01 -0.30607724016E-01  0.73850655868E-01  0.51100000000E-03 0.  1.
         11    1    4    4    0    0 -0.33775419156E-01 -0.36760438296E-01 -0.20740379170E-01  0.54060458858E-01  0.51100000000E-03 0. -1.
</event>
<event>
 8    1  0.1208168E+005  0.1043930E+01  0.7957747E-01            NaN
         13   -1    0    0    0    0  0.00000000000E+00  0.00000000000E+00  0.74505805969E-08  0.10566000000E+00  0.10566000000E+00 0. -1.
     999900   -1    0    0    0    0 -0.00000000000E+00 -0.00000000000E+00 -0.74505805969E-08  0.93827000000E+00  0.93827000000E+00 0. -1.
     999902    2    1    2    0    0  0.10330185212E-01 -0.22322660840E-01  0.97464400688E-02  0.10174723545E+01  0.10171283032E+01 0.  0.
     999903    2    3    3    0    0 -0.61057401713E-01  0.71641272533E-01  0.82049311502E-01  0.12665637259E+00  0.21195965772E-01 0.  0.
         14    1    1    2    0    0 -0.10330185212E-01  0.22322660840E-01 -0.97464400688E-02  0.26457645540E-01  0.00000000000E+00 0.  1.
     999901    1    3    3    0    0  0.71387586925E-01 -0.93963933373E-01 -0.72302871433E-01  0.89081598187E+00  0.88000000000E+00 0. -1.
        -11    1    4    4    0    0 -0.29435312891E-01  0.22167451922E-01  0.23336441923E-01  0.43619768596E-01  0.51100000000E-03 0. -1.
         11    1    4    4    0    0 -0.31622088822E-01  0.49473820610E-01  0.58712869579E-01  0.83036603992E-01  0.51100000000E-03 0.  1.
</event>
<event>
 8    1  0.1208168E+005  0.1043930E+01  0.7957747E-01            NaN
         13   -1    0    0    0    0  0.00000000000E+00  0.00000000000E+00  0.74505805969E-08  0.10566000000E+00  0.10566000000E+00 0.  1.
     999900   -1    0    0    0    0 -0.00000000000E+00 -0.00000000000E+00 -0.74505805969E-08  0.93827000000E+00  0.93827000000E+00 0. -1.
     999902    2    1    2    0    0 -0.16933913510E-01  0.13389616250E-01  0.11313251563E-01  0.10195572917E+01  0.10192659330E+01 0.  0.
     999903    2    3    3    0    0 -0.27171056366E-03 -0.79209396720E-01  0.10037468954E+00  0.13007196524E+00  0.23862847416E-01 0.  0.
         14    1    1    2    0    0  0.16933913510E-01 -0.13389616250E-01 -0.11313251563E-01  0.24372708323E-01  0.00000000000E+00 0. -1.
     999901    1    3    3    0    0 -0.16662202946E-01  0.92599012970E-01 -0.89061437974E-01  0.88948532644E+00  0.88000000000E+00 0.  1.
        -11    1    4    4    0    0 -0.81925099496E-02 -0.44489109833E-01  0.42236393136E-01  0.61891616065E-01  0.51100000000E-03 0.  1.
         11    1    4    4    0    0  0.79207993859E-02 -0.34720286887E-01  0.58138296400E-01  0.68180349176E-01  0.51100000000E-03 0. -1.
</event>
<event>
 8    1  0.1208168E+005  0.1043930E+01  0.7957747E-01            NaN
         13   -1    0    0    0    0  0.00000000000E+00  0.00000000000E+00  0.74505805969E-08  0.10566000000E+00  0.10566000000E+00 0. -1.
     999900   -1    0    0    0    0 -0.00000000000E+00 -0.00000000000E+00 -0.74505805969E-08  0.93827000000E+00  0.93827000000E+00 0. -1.
     999902    2    1    2    0    0 -0.69543862623E-03 -0.51972281284E-03 -0.24130562416E-01  0.10197838245E+01  0.10194979210E+01 0.  0.
     999903    2    3    3    0    0  0.12795590879E+00  0.10252429812E-01  0.24654079438E-02  0.12996667810E+00  0.20184951556E-01 0.  0.
         14    1    1    2    0    0  0.69543862623E-03  0.51972281284E-03  0.24130562416E-01  0.24146175457E-01  0.00000000000E+00 0. -1.
     999901    1    3    3    0    0 -0.12865134741E+00 -0.10772152625E-01 -0.26595970360E-01  0.88981714644E+00  0.88000000000E+00 0.  1.
        -11    1    4    4    0    0  0.92466465728E-01  0.12353735360E-01  0.93298387715E-02  0.93754834937E-01  0.51100000000E-03 0.  1.
         11    1    4    4    0    0  0.35489443060E-01 -0.21013055472E-02 -0.68644308277E-02  0.36211843164E-01  0.51100000000E-03 0. -1.
</event>
<event>
 8    1  0.1208168E+005  0.1043930E+01  0.7957747E-01            NaN
         13   -1    0    0    0    0  0.00000000000E+00  0.00000000000E+00  0.74505805969E-08  0.10566000000E+00  0.10566000000E+00 0. -1.
     999900   -1    0    0    0    0 -0.00000000000E+00 -0.00000000000E+00 -0.74505805969E-08  0.93827000000E+00  0.93827000000E+00 0.  1.
     999902    2    1    2    0    0 -0.87380126500E-02  0.24846016987E-01 -0.52398827252E-02  0.10170760655E+01  0.10167214905E+01 0.  0.
     999903    2    3    3    0    0 -0.12307576247E+00  0.19994127481E-01 -0.28134035917E-01  0.12937070669E+00  0.19946110680E-01 0.  0.
         14    1    1    2    0    0  0.87380126500E-02 -0.24846016987E-01  0.52398827252E-02  0.26853934464E-01  0.00000000000E+00 0.  1.
     999901    1    3    3    0    0  0.11433774982E+00  0.48518895063E-02  0.22894153192E-01  0.88770535884E+00  0.88000000000E+00 0.  1.
        -11    1    4    4    0    0 -0.10713954771E+00  0.12073848551E-01 -0.19437689759E-01  0.10955704179E+00  0.51100000000E-03 0. -1.
         11    1    4    4    0    0 -0.15936214769E-01  0.79202789298E-02 -0.86963461582E-02  0.19813664905E-01  0.51100000000E-03 0.  1.
</event>
<event>
 8    1  0.1208168E+005  0.1043930E+01  0.7957747E-01            NaN
         13   -1    0    0    0    0  0.00000000000E+00  0.00000000000E+00  0.74505805969E-08  0.10566000000E+00  0.10566000000E+00 0.  1.
     999900   -1    0    0    0    0 -0.00000000000E+00 -0.00000000000E+00 -0.74505805969E-08  0.93827000000E+00  0.93827000000E+00 0. -1.
     999902    2    1    2    0    0 -0.22356523296E-02  0.24024153269E-01  0.70990241910E-03  0.10197916065E+01  0.10195058894E+01 0.  0.
     999903    2    3    3    0    0  0.12048520660E+00 -0.74686674644E-02  0.43374070570E-01  0.12969473632E+00  0.19155903208E-01 0.  0.
         14    1    1    2    0    0  0.22356523296E-02 -0.24024153269E-01 -0.70990241910E-03  0.24138393548E-01  0.00000000000E+00 0.  1.
     999901    1    3    3    0    0 -0.12272085893E+00  0.31492820733E-01 -0.42664168151E-01  0.89009687013E+00  0.88000000000E+00 0. -1.
        -11    1    4    4    0    0  0.87437684138E-01 -0.44299594493E-02  0.40240499984E-01  0.96356276952E-01  0.51100000000E-03 0. -1.
         11    1    4    4    0    0  0.33047522464E-01 -0.30387080151E-02  0.31335705861E-02  0.33338459368E-01  0.51100000000E-03 0.  1.
</event>
<event>
 8    1  0.1208168E+005  0.1043930E+01  0.7957747E-01            NaN
         13   -1    0    0    0    0  0.00000000000E+00  0.00000000000E+00  0.74505805969E-08  0.10566000000E+00  0.10566000000E+00 0. -1.
     999900   -1    0    0    0    0 -0.00000000000E+00 -0.00000000000E+00 -0.74505805969E-08  0.93827000000E+00  0.93827000000E+00 0.  1.
     999902    2    1    2    0    0 -0.57446527535E-02 -0.16585879589E-01  0.15106092328E-01  0.10207721404E+01  0.10205094199E+01 0.  0.
     999903    2    3    3    0    0  0.50400068597E-01  0.54912591081E-01 -0.10253939183E+00  0.12830100864E+00  0.19780353055E-01 0.  0.
         14    1    1    2    0    0  0.57446527535E-02  0.16585879589E-01 -0.15106092328E-01  0.23157859625E-01  0.00000000000E+00 0.  1.
     999901    1    3    3    0    0 -0.56144721351E-01 -0.71498470670E-01  0.11764548416E+00  0.89247113174E+00  0.88000000000E+00 0. -1.
        -11    1    4    4    0    0  0.25306908122E-01  0.36600344181E-01 -0.47432996435E-01  0.65039796007E-01  0.51100000000E-03 0. -1.
         11    1    4    4    0    0  0.25093160475E-01  0.18312246899E-01 -0.55106395393E-01  0.63261212629E-01  0.51100000000E-03 0.  1.
</event>
<event>
 8    1  0.1208168E+005  0.1043930E+01  0.7957747E-01            NaN
         13   -1    0    0    0    0  0.00000000000E+00  0.00000000000E+00  0.74505805969E-08  0.10566000000E+00  0.10566000000E+00 0. -1.
     999900   -1    0    0    0    0 -0.00000000000E+00 -0.00000000000E+00 -0.74505805969E-08  0.93827000000E+00  0.93827000000E+00 0.  1.
     999902    2    1    2    0    0 -0.11672402058E-02 -0.21589719771E-01 -0.11898112589E-01  0.10192511926E+01  0.10189523788E+01 0.  0.
     999903    2    3    3    0    0 -0.60345002207E-01  0.58493914540E-01  0.93677774119E-01  0.12736461697E+00  0.19574548871E-01 0.  0.
         14    1    1    2    0    0  0.11672402058E-02  0.21589719771E-01  0.11898112589E-01  0.24678807359E-01  0.00000000000E+00 0. -1.
     999901    1    3    3    0    0  0.59177762001E-01 -0.80083634311E-01 -0.10557588671E+00  0.89188657567E+00  0.88000000000E+00 0.  1.
        -11    1    4    4    0    0 -0.41453525415E-01  0.46514682750E-01  0.57261509286E-01  0.84623590372E-01  0.51100000000E-03 0. -1.
         11    1    4    4    0    0 -0.18891476792E-01  0.11979231790E-01  0.36416264833E-01  0.42741026602E-01  0.51100000000E-03 0.  1.
</event>
<event>
 8    1  0.1208168E+005  0.1043930E+01  0.7957747E-01            NaN
         13   -1    0    0    0    0  0.00000000000E+00  0.00000000000E+00  0.74505805969E-08  0.10566000000E+00  0.10566000000E+00 0. -1.
     999900   -1    0    0    0    0 -0.00000000000E+00 -0.00000000000E+00 -0.74505805969E-08  0.93827000000E+00  0.93827000000E+00 0.  1.
     999902    2    1    2    0    0 -0.65768195051E-02  0.20881169818E-01  0.97378590077E-02  0.10199695387E+01  0.10196880681E+01 0.  0.
     999903    2    3    3    0    0  0.10803290903E+00  0.62792310606E-01 -0.32266098205E-01  0.13055609939E+00  0.19743613934E-01 0.  0.
         14    1    1    2    0    0  0.65768195051E-02 -0.20881169818E-01 -0.97378590077E-02  0.23960461302E-01  0.00000000000E+00 0. -1.
     999901    1    3    3    0    0 -0.11460972853E+00 -0.41911140789E-01  0.42003957213E-01  0.88941343931E+00  0.88000000000E+00 0.  1.
        -11    1    4    4    0    0  0.52267243510E-01  0.29242783005E-01 -0.25594321632E-01  0.65133213669E-01  0.51100000000E-03 0. -1.
         11    1    4    4    0    0  0.55765665516E-01  0.33549527601E-01 -0.66717765724E-02  0.65422885723E-01  0.51100000000E-03 0.  1.
</event>
<event>
 8    1  0.1208168E+005  0.1043930E+01  0.7957747E-01            NaN
         13   -1    0    0    0    0  0.00000000000E+00  0.00000000000E+00  0.74505805969E-08  0.10566000000E+00  0.10566000000E+00 0.  1.
     999900   -1    0    0    0    0 -0.00000000000E+00 -0.00000000000E+00 -0.74505805969E-08  0.93827000000E+00  0.93827000000E+00 0. -1.
     999902    2    1    2    0    0  0.17389209543E-01 -0.11831909770E-01 -0.11369252467E-01  0.10200210352E+01  0.10197407875E+01 0.  0.
     999903    2    3    3    0    0  0.32526697710E-01 -0.84800226933E-02  0.12313195230E+00  0.12966663788E+00  0.22848686011E-01 0.  0.
         14    1    1    2    0    0 -0.17389209543E-01  0.11831909770E-01  0.11369252467E-01  0.23908964825E-01  0.00000000000E+00 0.  1.
     999901    1    3    3    0    0 -0.15137488167E-01 -0.33518870769E-02 -0.13450120477E+00  0.89035439729E+00  0.88000000000E+00 0. -1.
        -11    1    4    4    0    0  0.13471714926E-02 -0.58644704326E-02  0.46515538999E-01  0.46905899137E-01  0.51100000000E-03 0.  1.
         11    1    4    4    0    0  0.31179526218E-01 -0.26155522607E-02  0.76616413305E-01  0.82760738745E-01  0.51100000000E-03 0. -1.
</event>
<event>
 8    1  0.1208168E+005  0.1043930E+01  0.7957747E-01            NaN
         13   -1    0    0    0    0  0.00000000000E+00  0.00000000000E+00  0.74505805969E-08  0.10566000000E+00  0.10566000000E+00 0. -1.
     999900   -1    0    0    0    0 -0.00000000000E+00 -0.00000000000E+00 -0.74505805969E-08  0.93827000000E+00  0.93827000000E+00 0. -1.
     999902    2    1    2    0    0  0.16812725475E-02  0.16640381171E-01  0.16544837485E-01  0.10204042564E+01  0.10201330236E+01 0.  0.
     999903    2    3    3    0    0  0.98160065238E-01  0.45090724087E-01  0.76154095499E-01  0.13267071359E+00  0.11554227669E-01 0.  0.
         14    1    1    2    0    0 -0.16812725475E-02 -0.16640381171E-01 -0.16544837485E-01  0.23525743565E-01  0.00000000000E+00 0.  1.
     999901    1    3    3    0    0 -0.96478792690E-01 -0.28450342916E-01 -0.59609258014E-01  0.88773354284E+00  0.88000000000E+00 0. -1.
        -11    1    4    4    0    0  0.81364000239E-01  0.32579825321E-01  0.59994421600E-01  0.10621269838E+00  0.51100000000E-03 0. -1.
         11    1    4    4    0    0  0.16796064998E-01  0.12510898766E-01  0.16159673899E-01  0.26458015211E-01  0.51100000000E-03 0.  1.
</event>
<event>
 8    1  0.1208168E+005  0.1043930E+01  0.7957747E-01            NaN
         13   -1    0    0    0    0  0.00000000000E+00  0.00000000000E+00  0.74505805969E-08  0.10566000000E+00  0.10566000000E+00 0.  1.
     999900   -1    0    0    0    0 -0.00000000000E+00 -0.00000000000E+00 -0.74505805969E-08  0.93827000000E+00  0.93827000000E+00 0.  1.
     999902    2    1    2    0    0 -0.39522858785E-02 -0.21394934426E-01  0.95693161965E-02  0.10201616262E+01  0.10198847032E+01 0.  0.
     999903    2    3    3    0    0 -0.22732211104E-01  0.23271913698E-01  0.12544018609E+00  0.13124437950E+00  0.20772854307E-01 0.  0.
         14    1    1    2    0    0  0.39522858785E-02  0.21394934426E-01 -0.95693161965E-02  0.23768373845E-01  0.00000000000E+00 0.  1.
     999901    1    3    3    0    0  0.18779925225E-01 -0.44666848125E-01 -0.11587086989E+00  0.88891724666E+00  0.88000000000E+00 0.  1.
        -11    1    4    4    0    0  0.14442749618E-02  0.45011755917E-02  0.43736343268E-01  0.43994037725E-01  0.51100000000E-03 0.  1.
         11    1    4    4    0    0 -0.24176486066E-01  0.18770738107E-01  0.81703842817E-01  0.87250341774E-01  0.51100000000E-03 0. -1.
</event>
<event>
 8    1  0.1208168E+005  0.1043930E+01  0.7957747E-01            NaN
         13   -1    0    0    0    0  0.00000000000E+00  0.00000000000E+00  0.74505805969E-08  0.10566000000E+00  0.10566000000E+00 0.  1.
     999900   -1    0    0    0    0 -0.00000000000E+00 -0.00000000000E+00 -0.74505805969E-08  0.93827000000E+00  0.93827000000E+00 0. -1.
     999902    2    1    2    0    0  0.14676059361E-01  0.53960586439E-02  0.17230344635E-01  0.10206622338E+01  0.10203969848E+01 0.  0.
     999903    2    3    3    0    0 -0.33513358716E-01  0.12234034334E+00  0.28573117601E-01  0.13154646844E+00  0.19943557564E-01 0.  0.
         14    1    1    2    0    0 -0.14676059361E-01 -0.53960586439E-02 -0.17230344635E-01  0.23267766191E-01  0.00000000000E+00 0. -1.
     999901    1    3    3    0    0  0.48189418077E-01 -0.11694428469E+00 -0.11342772966E-01  0.88911576537E+00  0.88000000000E+00 0.  1.
        -11    1    4    4    0    0 -0.18039342347E-01  0.61869283467E-01  0.24653121320E-01  0.69001910270E-01  0.51100000000E-03 0.  1.
         11    1    4    4    0    0 -0.15474016369E-01  0.60471059870E-01  0.39199962811E-02  0.62544558166E-01  0.51100000000E-03 0. -1.
</event>
<event>
 8    1  0.1208168E+005  0.1043930E+01  0.7957747E-01            NaN
         13   -1    0    0    0    0  0.00000000000E+00  0.00000000000E+00  0.74505805969E-08  0.10566000000E+00  0.10566000000E+00 0.  1.
     999900   -1    0    0    0    0 -0.00000000000E+00 -0.00000000000E+00 -0.74505805969E-08  0.93827000000E+00  0.93827000000E+00 0.  1.
     999902    2    1    2    0    0  0.33113137772E-01 -0.10339138559E-01  0.30786991981E-03  0.10092388994E+01  0.10086424954E+01 0.  0.
     999903    2    3    3    0    0  0.35671465350E-01 -0.32195956334E-01  0.11039159266E+00  0.12210717773E+00  0.20367279580E-01 0.  0.
         14    1    1    2    0    0 -0.33113137772E-01  0.10339138559E-01 -0.30786991981E-03  0.34691100633E-01  0.00000000000E+00 0.  1.
     999901    1    3    3    0    0 -0.25583275774E-02  0.21856817775E-01 -0.11008372274E+00  0.88713172164E+00  0.88000000000E+00 0. -1.
        -11    1    4    4    0    0  0.10062638821E-01 -0.17272632021E-01  0.26965690396E-01  0.33570971039E-01  0.51100000000E-03 0.  1.
         11    1    4    4    0    0  0.25608826528E-01 -0.14923324313E-01  0.83425902269E-01  0.88536206690E-01  0.51100000000E-03 0. -1.
</event>
<event>
 8    1  0.1208168E+005  0.1043930E+01  0.7957747E-01            NaN
         13   -1    0    0    0    0  0.00000000000E+00  0.00000000000E+00  0.74505805969E-08  0.10566000000E+00  0.10566000000E+00 0.  1.
     999900   -1    0    0    0    0 -0.00000000000E+00 -0.00000000000E+00 -0.74505805969E-08  0.93827000000E+00  0.93827000000E+00 0. -1.
     999902    2    1    2    0    0  0.18818242920E-01 -0.30001757887E-02  0.13807911592E-01  0.10203973473E+01  0.10201259533E+01 0.  0.
     999903    2    3    3    0    0  0.98177332809E-01 -0.44634341710E-01 -0.72731156098E-01  0.13162275316E+00  0.20092658981E-01 0.  0.
         14    1    1    2    0    0 -0.18818242920E-01  0.30001757887E-02 -0.13807911592E-01  0.23532652717E-01  0.00000000000E+00 0. -1.
     999901    1    3    3    0    0 -0.79359089888E-01  0.41634165921E-01  0.86539067690E-01  0.88877459412E+00  0.88000000000E+00 0.  1.
        -11    1    4    4    0    0  0.70250138164E-01 -0.38959584749E-01 -0.60695330708E-01  0.10068324313E+00  0.51100000000E-03 0.  1.
         11    1    4    4    0    0  0.27927194645E-01 -0.56747569611E-02 -0.12035825391E-01  0.30939510034E-01  0.51100000000E-03 0. -1.
</event>
<event>
 8    1  0.1208168E+005  0.1043930E+01  0.7957747E-01            NaN
         13   -1    0    0    0    0  0.00000000000E+00  0.00000000000E+00  0.74505805969E-08  0.10566000000E+00  0.10566000000E+00 0. -1.
     999900   -1    0    0    0    0 -0.00000000000E+00 -0.00000000000E+00 -0.74505805969E-08  0.93827000000E+00  0.93827000000E+00 0. -1.
     999902    2    1    2    0    0 -0.19118109067E-01 -0.14906064768E-02  0.23084036914E-01  0.10139200556E+01  0.10134758420E+01 0.  0.
     999903    2    3    3    0    0 -0.61044849417E-01 -0.10849789240E+00  0.38637080444E-02  0.12623890123E+00  0.20568559721E-01 0.  0.
         14    1    1    2    0    0  0.19118109067E-01  0.14906064768E-02 -0.23084036914E-01  0.30009944389E-01  0.00000000000E+00 0.  1.
     999901    1    3    3    0    0  0.41926740349E-01  0.10700728592E+00  0.19220328870E-01  0.88768115438E+00  0.88000000000E+00 0. -1.
        -11    1    4    4    0    0 -0.44907592318E-01 -0.95203609257E-01  0.30787744528E-02  0.10530982403E+00  0.51100000000E-03 0.  1.
         11    1    4    4    0    0 -0.16137257099E-01 -0.13294283143E-01  0.78493359163E-03  0.20929077206E-01  0.51100000000E-03 0. -1.
</event>
<event>
 8    1  0.1208168E+005  0.1043930E+01  0.7957747E-01            NaN
         13   -1    0    0    0    0  0.00000000000E+00  0.00000000000E+00  0.74505805969E-08  0.10566000000E+00  0.10566000000E+00 0. -1.
     999900   -1    0    0    0    0 -0.00000000000E+00 -0.00000000000E+00 -0.74505805969E-08  0.93827000000E+00  0.93827000000E+00 0. -1.
     999902    2    1    2    0    0  0.10959582343E-01 -0.96235750921E-02 -0.95148740661E-02  0.10265156820E+01  0.10263679588E+01 0.  0.
     999903    2    3    3    0    0 -0.76875561110E-01  0.10813744529E+00 -0.93999666532E-02  0.13433706561E+00  0.18828936636E-01 0.  0.
         14    1    1    2    0    0 -0.10959582343E-01  0.96235750921E-02  0.95148740661E-02  0.17414317994E-01  0.00000000000E+00 0.  1.
     999901    1    3    3    0    0  0.87835143454E-01 -0.11776102038E+00 -0.11490741294E-03  0.89217861639E+00  0.88000000000E+00 0.  1.
        -11    1    4    4    0    0 -0.64855572213E-01  0.82795840589E-01 -0.13310722018E-01  0.10601336193E+00  0.51100000000E-03 0.  1.
         11    1    4    4    0    0 -0.12019988897E-01  0.25341604699E-01  0.39107553644E-02  0.28323703683E-01  0.51100000000E-03 0. -1.
</event>
<event>
 8    1  0.1208168E+005  0.1043930E+01  0.7957747E-01            NaN
         13   -1    0    0    0    0  0.00000000000E+00  0.00000000000E+00  0.74505805969E-08  0.10566000000E+00  0.10566000000E+00 0. -1.
     999900   -1    0    0    0    0 -0.00000000000E+00 -0.00000000000E+00 -0.74505805969E-08  0.93827000000E+00  0.93827000000E+00 0.  1.
     999902    2    1    2    0    0  0.16437040907E-01 -0.81064459501E-02  0.16201967431E-01  0.10194678961E+01  0.10191743701E+01 0.  0.
     999903    2    3    3    0    0  0.84254158821E-01 -0.47992772526E-01  0.88830341097E-01  0.13297764729E+00  0.19752359001E-01 0.  0.
         14    1    1    2    0    0 -0.16437040907E-01  0.81064459501E-02 -0.16201967431E-01  0.24462103924E-01  0.00000000000E+00 0.  1.
     999901    1    3    3    0    0 -0.67817117914E-01  0.39886326576E-01 -0.72628373666E-01  0.88649024879E+00  0.88000000000E+00 0.  1.
        -11    1    4    4    0    0  0.68031729440E-01 -0.46889214960E-01  0.72449667803E-01  0.10989144724E+00  0.51100000000E-03 0.  1.
         11    1    4    4    0    0  0.16222429382E-01 -0.11035575663E-02  0.16380673295E-01  0.23086200054E-01  0.51100000000E-03 0. -1.
</event>
<event>
 8    1  0.1208168E+005  0.1043930E+01  0.7957747E-01            NaN
         13   -1    0    0    0    0  0.00000000000E+00  0.00000000000E+00  0.74505805969E-08  0.10566000000E+00  0.10566000000E+00 0. -1.
     999900   -1    0    0    0    0 -0.00000000000E+00 -0.00000000000E+00 -0.74505805969E-08  0.93827000000E+00  0.93827000000E+00 0.  1.
     999902    2    1    2    0    0  0.70783096205E-02  0.12807041696E-01 -0.18869071859E-01  0.10200518791E+01  0.10197723626E+01 0.  0.
     999903    2    3    3    0    0 -0.10616676160E+00  0.48755415243E-01  0.51270480509E-01  0.12930147158E+00  0.21017530747E-01 0.  0.
         14    1    1    2    0    0 -0.70783096205E-02 -0.12807041696E-01  0.18869071859E-01  0.23878120883E-01  0.00000000000E+00 0. -1.
     999901    1    3    3    0    0  0.11324507122E+00 -0.35948373547E-01 -0.70139552368E-01  0.89075040753E+00  0.88000000000E+00 0.  1.
        -11    1    4    4    0    0 -0.26366911862E-01  0.17165735109E-01  0.22864668984E-01  0.38896410011E-01  0.51100000000E-03 0. -1.
         11    1    4    4    0    0 -0.79799849734E-01  0.31589680133E-01  0.28405811525E-01  0.90405061572E-01  0.51100000000E-03 0.  1.
</event>
<event>
 8    1  0.1208168E+005  0.1043930E+01  0.7957747E-01            NaN
         13   -1    0    0    0    0  0.00000000000E+00  0.00000000000E+00  0.74505805969E-08  0.10566000000E+00  0.10566000000E+00 0.  1.
     999900   -1    0    0    0    0 -0.00000000000E+00 -0.00000000000E+00 -0.74505805969E-08  0.93827000000E+00  0.93827000000E+00 0. -1.
     999902    2    1    2    0    0 -0.20196239630E-01  0.14824647434E-02  0.12673986556E-01  0.10200403426E+01  0.10197605526E+01 0.  0.
     999903    2    3    3    0    0 -0.81782239714E-01  0.89850537243E-01  0.49435163601E-01  0.13271112758E+00  0.20173106030E-01 0.  0.
         14    1    1    2    0    0  0.20196239630E-01 -0.14824647434E-02 -0.12673986556E-01  0.23889657430E-01  0.00000000000E+00 0. -1.
     999901    1    3    3    0    0  0.61586000084E-01 -0.88368072499E-01 -0.36761177045E-01  0.88732921499E+00  0.88000000000E+00 0.  1.
        -11    1    4    4    0    0 -0.21433489819E-01  0.37423942561E-01  0.19722888104E-01  0.47425725074E-01  0.51100000000E-03 0.  1.
         11    1    4    4    0    0 -0.60348749894E-01  0.52426594682E-01  0.29712275497E-01  0.85285402502E-01  0.51100000000E-03 0. -1.
</event>
<event>
 8    1  0.1208168E+005  0.1043930E+01  0.7957747E-01            NaN
         13   -1    0    0    0    0  0.00000000000E+00  0.00000000000E+00  0.74505805969E-08  0.10566000000E+00  0.10566000000E+00 0.  1.
     999900   -1    0    0    0    0 -0.00000000000E+00 -0.00000000000E+00 -0.74505805969E-08  0.93827000000E+00  0.93827000000E+00 0. -1.
     999902    2    1    2    0    0 -0.11705769073E-01  0.22432662045E-01 -0.26108882794E-03  0.10186255039E+01  0.10183111507E+01 0.  0.
     999903    2    3    3    0    0  0.98999672687E-01 -0.34119492949E-01 -0.65973735214E-01  0.12746222314E+00  0.30479658748E-01 0.  0.
         14    1    1    2    0    0  0.11705769073E-01 -0.22432662045E-01  0.26108882794E-03  0.25304496110E-01  0.00000000000E+00 0.  1.
     999901    1    3    3    0    0 -0.11070544176E+00  0.56552154994E-01  0.65712646386E-01  0.89116328075E+00  0.88000000000E+00 0. -1.
        -11    1    4    4    0    0  0.70307947015E-01 -0.21782126887E-01 -0.29134019548E-01  0.79162621743E-01  0.51100000000E-03 0.  1.
         11    1    4    4    0    0  0.28691725672E-01 -0.12337366062E-01 -0.36839715665E-01  0.48299601393E-01  0.51100000000E-03 0. -1.
</event>
<event>
 8    1  0.1208168E+005  0.1043930E+01  0.7957747E-01            NaN
         13   -1    0    0    0    0  0.00000000000E+00  0.00000000000E+00  0.74505805969E-08  0.10566000000E+00  0.10566000000E+00 0. -1.
     999900   -1    0    0    0    0 -0.00000000000E+00 -0.00000000000E+00 -0.74505805969E-08  0.93827000000E+00  0.93827000000E+00 0. -1.
     999902    2    1    2    0    0 -0.40043310669E-03  0.90755771335E-02  0.21028172444E-01  0.10210234402E+01  0.10207664546E+01 0.  0.
     999903    2    3    3    0    0  0.11064034566E+00 -0.64804802562E-01 -0.11956700100E-01  0.13036280510E+00  0.20262027369E-01 0.  0.
         14    1    1    2    0    0  0.40043310669E-03 -0.90755771335E-02 -0.21028172444E-01  0.22906559831E-01  0.00000000000E+00 0.  1.
     999901    1    3    3    0    0 -0.11104077876E+00  0.73880379695E-01  0.32984872544E-01  0.89066063507E+00  0.88000000000E+00 0. -1.
        -11    1    4    4    0    0  0.53818612614E-01 -0.42140132715E-01 -0.20328657570E-02  0.68385872175E-01  0.51100000000E-03 0. -1.
         11    1    4    4    0    0  0.56821733042E-01 -0.22664669847E-01 -0.99238343432E-02  0.61976932921E-01  0.51100000000E-03 0.  1.
</event>
<event>
 8    1  0.1208168E+005  0.1043930E+01  0.7957747E-01            NaN
         13   -1    0    0    0    0  0.00000000000E+00  0.00000000000E+00  0.74505805969E-08  0.10566000000E+00  0.10566000000E+00 0.  1.
     999900   -1    0    0    0    0 -0.00000000000E+00 -0.00000000000E+00 -0.74505805969E-08  0.93827000000E+00  0.93827000000E+00 0. -1.
     999902    2    1    2    0    0  0.13246621991E-01  0.17529308679E-01 -0.62526441477E-02  0.10210860683E+01  0.10208305019E+01 0.  0.
     999903    2    3    3    0    0  0.67524423551E-01 -0.10852081965E+00 -0.15955511010E-01  0.13039596494E+00  0.20303035892E-01 0.  0.
         14    1    1    2    0    0 -0.13246621991E-01 -0.17529308679E-01  0.62526441477E-02  0.22843931705E-01  0.00000000000E+00 0. -1.
     999901    1    3    3    0    0 -0.54277801560E-01  0.12605012833E+00  0.97028668622E-02  0.89069010336E+00  0.88000000000E+00 0.  1.
        -11    1    4    4    0    0  0.53850704404E-01 -0.82831164527E-01 -0.20594089513E-01  0.10092213744E+00  0.51100000000E-03 0. -1.
         11    1    4    4    0    0  0.13673719147E-01 -0.25689655124E-01  0.46385785035E-02  0.29473827495E-01  0.51100000000E-03 0.  1.
</event>
<event>
 8    1  0.1208168E+005  0.1043930E+01  0.7957747E-01            NaN
         13   -1    0    0    0    0  0.00000000000E+00  0.00000000000E+00  0.74505805969E-08  0.10566000000E+00  0.10566000000E+00 0.  1.
     999900   -1    0    0    0    0 -0.00000000000E+00 -0.00000000000E+00 -0.74505805969E-08  0.93827000000E+00  0.93827000000E+00 0. -1.
     999902    2    1    2    0    0  0.21697404416E-01  0.11067991609E-01 -0.57971205505E-02  0.10188923403E+01  0.10185846635E+01 0.  0.
     999903    2    3    3    0    0  0.99819391515E-02  0.12086828029E+00  0.44637055299E-01  0.13055852826E+00  0.18554845866E-01 0.  0.
         14    1    1    2    0    0 -0.21697404416E-01 -0.11067991609E-01  0.57971205505E-02  0.25037659701E-01  0.00000000000E+00 0. -1.
     999901    1    3    3    0    0  0.11715465264E-01 -0.10980028868E+00 -0.50434175850E-01  0.88833381204E+00  0.88000000000E+00 0.  1.
        -11    1    4    4    0    0  0.58535270316E-02  0.97579337813E-01  0.43145388242E-01  0.10685399662E+00  0.51100000000E-03 0. -1.
         11    1    4    4    0    0  0.41284121199E-02  0.23288942479E-01  0.14916670572E-02  0.23704531635E-01  0.51100000000E-03 0.  1.
</event>
<event>
 8    1  0.1208168E+005  0.1043930E+01  0.7957747E-01            NaN
         13   -1    0    0    0    0  0.00000000000E+00  0.00000000000E+00  0.74505805969E-08  0.10566000000E+00  0.10566000000E+00 0.  1.
     999900   -1    0    0    0    0 -0.00000000000E+00 -0.00000000000E+00 -0.74505805969E-08  0.93827000000E+00  0.93827000000E+00 0. -1.
     999902    2    1    2    0    0  0.11368870546E-01  0.19131415065E-01 -0.17874213461E-01  0.10153861781E+01  0.10149848969E+01 0.  0.
     999903    2    3    3    0    0  0.54250436519E-01 -0.88057335005E-01  0.65863608506E-01  0.12390410895E+00  0.17804751602E-01 0.  0.
         14    1    1    2    0    0 -0.11368870546E-01 -0.19131415065E-01  0.17874213461E-01  0.28543821866E-01  0.00000000000E+00 0.  1.
     999901    1    3    3    0    0 -0.42881565973E-01  0.10718875007E+00 -0.83737821967E-01  0.89148206918E+00  0.88000000000E+00 0. -1.
        -11    1    4    4    0    0  0.24591347961E-01 -0.27113054113E-01  0.29311262407E-01  0.46896303935E-01  0.51100000000E-03 0.  1.
         11    1    4    4    0    0  0.29659088558E-01 -0.60944280892E-01  0.36552346099E-01  0.77007805019E-01  0.51100000000E-03 0. -1.
</event>
<event>
 8    1  0.1208168E+005  0.1043930E+01  0.7957747E-01            NaN
         13   -1    0    0    0    0  0.00000000000E+00  0.00000000000E+00  0.74505805969E-08  0.10566000000E+00  0.10566000000E+00 0.  1.
     999900   -1    0    0    0    0 -0.00000000000E+00 -0.00000000000E+00 -0.74505805969E-08  0.93827000000E+00  0.93827000000E+00 0.  1.
     999902    2    1    2    0    0  0.13435247650E-01 -0.38306603067E-02  0.18153393171E-01  0.10210231119E+01  0.10207661189E+01 0.  0.
     999903    2    3    3    0    0 -0.98572477584E-01  0.68232957459E-02  0.84277899239E-01  0.13139864756E+00  0.19993738475E-01 0.  0.
         14    1    1    2    0    0 -0.13435247650E-01  0.38306603067E-02 -0.18153393171E-01  0.22906888078E-01  0.00000000000E+00 0. -1.
     999901    1    3    3    0    0  0.11200772523E+00 -0.10653956053E-01 -0.66124506068E-01  0.88962446436E+00  0.88000000000E+00 0.  1.
        -11    1    4    4    0    0 -0.92689300152E-02  0.34110392419E-02  0.16489084290E-01  0.19227565474E-01  0.51100000000E-03 0. -1.
         11    1    4    4    0    0 -0.89303547569E-01  0.34122565040E-02  0.67788814949E-01  0.11217108208E+00  0.51100000000E-03 0.  1.
</event>
<event>
 8    1  0.1208168E+005  0.1043930E+01  0.7957747E-01            NaN
         13   -1    0    0    0    0  0.00000000000E+00  0.00000000000E+00  0.74505805969E-08  0.10566000000E+00  0.10566000000E+00 0. -1.
     999900   -1    0    0    0    0 -0.00000000000E+00 -0.00000000000E+00 -0.74505805969E-08  0.93827000000E+00  0.93827000000E+00 0.  1.
     999902    2    1    2    0    0  0.11681197371E-02 -0.12130873722E-01  0.21375479173E-01  0.10193244374E+01  0.10190274162E+01 0.  0.
     999903    2    3    3    0    0 -0.95650711326E-01  0.49627365489E-01 -0.65360249276E-01  0.12763443928E+00  0.20165661960E-01 0.  0.
         14    1    1    2    0    0 -0.11681197371E-02  0.12130873722E-01 -0.21375479173E-01  0.24605562600E-01  0.00000000000E+00 0.  1.
     999901    1    3    3    0    0  0.96818831063E-01 -0.61758239211E-01  0.86735728449E-01  0.89168999812E+00  0.88000000000E+00 0.  1.
        -11    1    4    4    0    0 -0.81466432280E-01  0.47092944676E-01 -0.49966692476E-01  0.10654321426E+00  0.51100000000E-03 0. -1.
         11    1    4    4    0    0 -0.14184279045E-01  0.25344208130E-02 -0.15393556800E-01  0.21091225020E-01  0.51100000000E-03 0.  1.
</event>
<event>
 8    1  0.1208168E+005  0.1043930E+01  0.7957747E-01            NaN
         13   -1    0    0    0    0  0.00000000000E+00  0.00000000000E+00  0.74505805969E-08  0.10566000000E+00  0.10566000000E+00 0. -1.
     999900   -1    0    0    0    0 -0.00000000000E+00 -0.00000000000E+00 -0.74505805969E-08  0.93827000000E+00  0.93827000000E+00 0. -1.
     999902    2    1    2    0    0 -0.73827290706E-02 -0.13244752366E-01 -0.17693524730E-01  0.10206278763E+01  0.10203618343E+01 0.  0.
     999903    2    3    3    0    0  0.46183188356E-01 -0.63847472958E-01  0.10083693882E+00  0.12962876647E+00  0.20643211414E-01 0.  0.
         14    1    1    2    0    0  0.73827290706E-02  0.13244752366E-01  0.17693524730E-01  0.23302123747E-01  0.00000000000E+00 0. -1.
     999901    1    3    3    0    0 -0.53565917427E-01  0.50602720592E-01 -0.11853046355E+00  0.89099910978E+00  0.88000000000E+00 0. -1.
        -11    1    4    4    0    0  0.34864610768E-01 -0.60006973181E-01  0.83728440919E-01  0.10875242919E+00  0.51100000000E-03 0. -1.
         11    1    4    4    0    0  0.11318577588E-01 -0.38404997767E-02  0.17108497897E-01  0.20876337285E-01  0.51100000000E-03 0.  1.
</event>
<event>
 8    1  0.1208168E+005  0.1043930E+01  0.7957747E-01            NaN
         13   -1    0    0    0    0  0.00000000000E+00  0.00000000000E+00  0.74505805969E-08  0.10566000000E+00  0.10566000000E+00 0. -1.
     999900   -1    0    0    0    0 -0.00000000000E+00 -0.00000000000E+00 -0.74505805969E-08  0.93827000000E+00  0.93827000000E+00 0. -1.
     999902    2    1    2    0    0  0.10371736170E-01  0.85554379865E-02  0.21945301909E-01  0.10181935530E+01  0.10178682364E+01 0.  0.
     999903    2    3    3    0    0  0.36439169397E-01  0.77696084682E-01  0.97976848078E-01  0.13182978107E+00  0.20374831964E-01 0.  0.
         14    1    1    2    0    0 -0.10371736170E-01 -0.85554379865E-02 -0.21945301909E-01  0.25736447039E-01  0.00000000000E+00 0.  1.
     999901    1    3    3    0    0 -0.26067433228E-01 -0.69140646695E-01 -0.76031546170E-01  0.88636377189E+00  0.88000000000E+00 0. -1.
        -11    1    4    4    0    0  0.90732118913E-03  0.13818099140E-01  0.24737386525E-01  0.28354232641E-01  0.51100000000E-03 0.  1.
         11    1    4    4    0    0  0.35531848208E-01  0.63877985542E-01  0.73239461554E-01  0.10347554843E+00  0.51100000000E-03 0. -1.
</event>
<event>
 7    1  0.1208168E+005  0.1043930E+01  0.7957747E-01            NaN
         13   -1    0    0    0    0  0.00000000000E+00  0.00000000000E+00  0.74505805969E-08  0.10566000000E+00  0.10566000000E+00 0.  1.
     999900   -1    0    0    0    0 -0.00000000000E+00 -0.00000000000E+00 -0.74505805969E-08  0.93827000000E+00  0.93827000000E+00 0. -1.
     999903    2    1    2    0    0  0.18573517772E-01  0.53024047808E-01 -0.91059185829E-01  0.10876537426E+00  0.19534740975E-01 0.  0.
         14    1    1    2    0    0  0.40858764160E-01 -0.63254794280E-02 -0.18235023911E-01  0.45188122285E-01  0.00000000000E+00 0. -1.
     999901    1    1    2    0    0 -0.59432281932E-01 -0.46698568380E-01  0.10929420974E+00  0.88997650346E+00  0.88000000000E+00 0.  1.
        -11    1    3    3    0    0 -0.22435785193E-02  0.21683212987E-01 -0.31294175041E-01  0.38141603041E-01  0.51100000000E-03 0. -1.
         11    1    3    3    0    0  0.20817096291E-01  0.31340834821E-01 -0.59765010788E-01  0.70623771216E-01  0.51100000000E-03 0.  1.
</event>
<event>
 8    1  0.1208168E+005  0.1043930E+01  0.7957747E-01            NaN
         13   -1    0    0    0    0  0.00000000000E+00  0.00000000000E+00  0.74505805969E-08  0.10566000000E+00  0.10566000000E+00 0. -1.
     999900   -1    0    0    0    0 -0.00000000000E+00 -0.00000000000E+00 -0.74505805969E-08  0.93827000000E+00  0.93827000000E+00 0.  1.
     999902    2    1    2    0    0 -0.41978159541E-02  0.62754509530E-02 -0.23487022834E-01  0.10192593051E+01  0.10189606901E+01 0.  0.
     999903    2    3    3    0    0 -0.71104260152E-01 -0.64673068495E-01  0.81601227158E-01  0.12765754147E+00  0.19981642072E-01 0.  0.
         14    1    1    2    0    0  0.41978159541E-02 -0.62754509530E-02  0.23487022834E-01  0.24670694864E-01  0.00000000000E+00 0. -1.
     999901    1    3    3    0    0  0.66906444198E-01  0.70948519448E-01 -0.10508824999E+00  0.89160176367E+00  0.88000000000E+00 0. -1.
        -11    1    4    4    0    0 -0.93587410880E-02 -0.83576390167E-02  0.20844091044E-01  0.24334613561E-01  0.51100000000E-03 0.  1.
         11    1    4    4    0    0 -0.61745519064E-01 -0.56315429479E-01  0.60757136114E-01  0.10332292791E+00  0.51100000000E-03 0. -1.
</event>
<event>
 8    1  0.1208168E+005  0.1043930E+01  0.7957747E-01            NaN
         13   -1    0    0    0    0  0.00000000000E+00  0.00000000000E+00  0.74505805969E-08  0.10566000000E+00  0.10566000000E+00 0. -1.
     999900   -1    0    0    0    0 -0.00000000000E+00 -0.00000000000E+00 -0.74505805969E-08  0.93827000000E+00  0.93827000000E+00 0.  1.
     999902    2    1    2    0    0 -0.64175659441E-02 -0.17411788146E-01 -0.13272534772E-01  0.10211151869E+01  0.10208602790E+01 0.  0.
     999903    2    3    3    0    0  0.69461462148E-01 -0.74569754603E-01  0.80114124131E-01  0.13108949729E+00  0.19510007440E-01 0.  0.
         14    1    1    2    0    0  0.64175659441E-02  0.17411788146E-01  0.13272534772E-01  0.22814813135E-01  0.00000000000E+00 0.  1.
     999901    1    3    3    0    0 -0.75879028092E-01  0.57157966457E-01 -0.93386658904E-01  0.89002568957E+00  0.88000000000E+00 0. -1.
        -11    1    4    4    0    0  0.58435923570E-01 -0.71401547203E-01  0.70665940767E-01  0.11621907938E+00  0.51100000000E-03 0. -1.
         11    1    4    4    0    0  0.11025538579E-01 -0.31682074004E-02  0.94481833637E-02  0.14870417915E-01  0.51100000000E-03 0.  1.
</event>
<event>
 8    1  0.1208168E+005  0.1043930E+01  0.7957747E-01            NaN
         13   -1    0    0    0    0  0.00000000000E+00  0.00000000000E+00  0.74505805969E-08  0.10566000000E+00  0.10566000000E+00 0.  1.
     999900   -1    0    0    0    0 -0.00000000000E+00 -0.00000000000E+00 -0.74505805969E-08  0.93827000000E+00  0.93827000000E+00 0. -1.
     999902    2    1    2    0    0  0.54443076057E-02 -0.20354264193E-01  0.10806511752E-01  0.10202505310E+01  0.10199757001E+01 0.  0.
     999903    2    3    3    0    0  0.10023408351E+00  0.10447959735E-01  0.82519155404E-01  0.13172558375E+00  0.19651642353E-01 0.  0.
         14    1    1    2    0    0 -0.54443076057E-02  0.20354264193E-01 -0.10806511752E-01  0.23679469006E-01  0.00000000000E+00 0. -1.
     999901    1    3    3    0    0 -0.94789775900E-01 -0.30802223929E-01 -0.71712643651E-01  0.88852494724E+00  0.88000000000E+00 0. -1.
        -11    1    4    4    0    0  0.52451048047E-01  0.12169348563E-01  0.52866619067E-01  0.75460890653E-01  0.51100000000E-03 0. -1.
         11    1    4    4    0    0  0.47783035459E-01 -0.17213888277E-02  0.29652536337E-01  0.56264693097E-01  0.51100000000E-03 0.  1.
</event>
<event>
 8    1  0.1208168E+005  0.1043930E+01  0.7957747E-01            NaN
         13   -1    0    0    0    0  0.00000000000E+00  0.00000000000E+00  0.74505805969E-08  0.10566000000E+00  0.10566000000E+00 0.  1.
     999900   -1    0    0    0    0 -0.00000000000E+00 -0.00000000000E+00 -0.74505805969E-08  0.93827000000E+00  0.93827000000E+00 0. -1.
     999902    2    1    2    0    0 -0.20644524667E-01  0.72154950379E-02  0.92140851672E-02  0.10201990259E+01  0.10199229840E+01 0.  0.
     999903    2    3    3    0    0  0.76413012141E-01 -0.24863793082E-01  0.99692333472E-01  0.12967358570E+00  0.20482208017E-01 0.  0.
         14    1    1    2    0    0  0.20644524667E-01 -0.72154950379E-02 -0.92140851672E-02  0.23730974124E-01  0.00000000000E+00 0. -1.
     999901    1    3    3    0    0 -0.97057536809E-01  0.32079288120E-01 -0.90478248305E-01  0.89052544017E+00  0.88000000000E+00 0. -1.
        -11    1    4    4    0    0  0.36396048110E-01 -0.20398949577E-01  0.60400742328E-01  0.73411853652E-01  0.51100000000E-03 0.  1.
         11    1    4    4    0    0  0.40016964032E-01 -0.44648435048E-02  0.39291591144E-01  0.56261732052E-01  0.51100000000E-03 0. -1.
</event>
<event>
 8    1  0.1208168E+005  0.1043930E+01  0.7957747E-01            NaN
         13   -1    0    0    0    0  0.00000000000E+00  0.00000000000E+00  0.74505805969E-08  0.10566000000E+00  0.10566000000E+00 0. -1.
     999900   -1    0    0    0    0 -0.00000000000E+00 -0.00000000000E+00 -0.74505805969E-08  0.93827000000E+00  0.93827000000E+00 0.  1.
     999902    2    1    2    0    0 -0.15204172381E-01  0.17154787158E-01  0.35758665619E-03  0.10210044368E+01  0.10207470198E+01 0.  0.
     999903    2    3    3    0    0  0.12739759970E-01 -0.12575990657E+00  0.14512978305E-01  0.12892492904E+00  0.20812380997E-01 0.  0.
         14    1    1    2    0    0  0.15204172381E-01 -0.17154787158E-01 -0.35758665619E-03  0.22925563209E-01  0.00000000000E+00 0. -1.
     999901    1    3    3    0    0 -0.27943932352E-01  0.14291469373E+00 -0.14155391649E-01  0.89207950775E+00  0.88000000000E+00 0.  1.
        -11    1    4    4    0    0  0.12304711412E-01 -0.87825219523E-01  0.19069934655E-01  0.90711623489E-01  0.51100000000E-03 0. -1.
         11    1    4    4    0    0  0.43504855822E-03 -0.37934687050E-01 -0.45569563493E-02  0.38213305549E-01  0.51100000000E-03 0.  1.
</event>
<event>
 8    1  0.1208168E+005  0.1043930E+01  0.7957747E-01            NaN
         13   -1    0    0    0    0  0.00000000000E+00  0.00000000000E+00  0.74505805969E-08  0.10566000000E+00  0.10566000000E+00 0. -1.
     999900   -1    0    0    0    0 -0.00000000000E+00 -0.00000000000E+00 -0.74505805969E-08  0.93827000000E+00  0.93827000000E+00 0. -1.
     999902    2    1    2    0    0  0.21774823004E-01  0.16396532789E-03 -0.98798807442E-02  0.10200180397E+01  0.10197377209E+01 0.  0.
     999903    2    3    3    0    0  0.11491096832E+00  0.30001663755E-02  0.62657614735E-01  0.13213061787E+00  0.17860343105E-01 0.  0.
         14    1    1    2    0    0 -0.21774823004E-01 -0.16396532789E-03  0.98798807442E-02  0.23911960292E-01  0.00000000000E+00 0.  1.
     999901    1    3    3    0    0 -0.93136145321E-01 -0.28362010476E-02 -0.72537495479E-01  0.88788742183E+00  0.88000000000E+00 0. -1.
        -11    1    4    4    0    0  0.70851378674E-01 -0.40077523452E-02  0.45658023196E-01  0.84385402422E-01  0.51100000000E-03 0. -1.
         11    1    4    4    0    0  0.44059589651E-01  0.70079187207E-02  0.16999591539E-01  0.47745215451E-01  0.51100000000E-03 0.  1.
</event>
<event>
 8    1  0.1208168E+005  0.1043930E+01  0.7957747E-01            NaN
         13   -1    0    0    0    0  0.00000000000E+00  0.00000000000E+00  0.74505805969E-08  0.10566000000E+00  0.10566000000E+00 0. -1.
     999900   -1    0    0    0    0 -0.00000000000E+00 -0.00000000000E+00 -0.74505805969E-08  0.93827000000E+00  0.93827000000E+00 0. -1.
     999902    2    1    2    0    0  0.30866489961E-02  0.17476841623E-01 -0.16269315607E-01  0.10198539117E+01  0.10195696853E+01 0.  0.
     999903    2    3    3    0    0  0.21530466132E-01  0.87563461162E-01 -0.96296548893E-01  0.13325554344E+00  0.18790790964E-01 0.  0.
         14    1    1    2    0    0 -0.30866489961E-02 -0.17476841623E-01  0.16269315607E-01  0.24076088251E-01  0.00000000000E+00 0. -1.
     999901    1    3    3    0    0 -0.18443817136E-01 -0.70086619538E-01  0.80027233286E-01  0.88659836831E+00  0.88000000000E+00 0.  1.
        -11    1    4    4    0    0  0.11649725491E-01  0.16907647336E-01 -0.17775789599E-01  0.27162924352E-01  0.51100000000E-03 0. -1.
         11    1    4    4    0    0  0.98807406409E-02  0.70655813826E-01 -0.78520759294E-01  0.10609261908E+00  0.51100000000E-03 0.  1.
</event>
<event>
 8    1  0.1208168E+005  0.1043930E+01  0.7957747E-01            NaN
         13   -1    0    0    0    0  0.00000000000E+00  0.00000000000E+00  0.74505805969E-08  0.10566000000E+00  0.10566000000E+00 0.  1.
     999900   -1    0    0    0    0 -0.00000000000E+00 -0.00000000000E+00 -0.74505805969E-08  0.93827000000E+00  0.93827000000E+00 0. -1.
     999902    2    1    2    0    0  0.11039578890E-01  0.52407729824E-02 -0.20660054139E-01  0.10199263369E+01  0.10196438383E+01 0.  0.
     999903    2    3    3    0    0 -0.11846948837E+00  0.28270443818E-01 -0.40384838361E-01  0.12993081371E+00  0.20416745930E-01 0.  0.
         14    1    1    2    0    0 -0.11039578890E-01 -0.52407729824E-02  0.20660054139E-01  0.24003663065E-01  0.00000000000E+00 0.  1.
     999901    1    3    3    0    0  0.12950906726E+00 -0.23029670835E-01  0.19724784222E-01  0.88999552322E+00  0.88000000000E+00 0.  1.
        -11    1    4    4    0    0 -0.77336398868E-01  0.25711526056E-01 -0.19848892474E-01  0.83882303351E-01  0.51100000000E-03 0. -1.
         11    1    4    4    0    0 -0.41133089503E-01  0.25589177612E-02 -0.20535945887E-01  0.46048510363E-01  0.51100000000E-03 0.  1.
</event>
<event>
 8    1  0.1208168E+005  0.1043930E+01  0.7957747E-01            NaN
         13   -1    0    0    0    0  0.00000000000E+00  0.00000000000E+00  0.74505805969E-08  0.10566000000E+00  0.10566000000E+00 0.  1.
     999900   -1    0    0    0    0 -0.00000000000E+00 -0.00000000000E+00 -0.74505805969E-08  0.93827000000E+00  0.93827000000E+00 0.  1.
     999902    2    1    2    0    0 -0.18674642405E-01 -0.10501004327E-01 -0.96511532761E-02  0.10204319550E+01  0.10201613679E+01 0.  0.
     999903    2    3    3    0    0  0.53662460907E-01 -0.10859137608E+00  0.44449685041E-01  0.13038629420E+00  0.18790011871E-01 0.  0.
         14    1    1    2    0    0  0.18674642405E-01  0.10501004327E-01  0.96511532761E-02  0.23498045033E-01  0.00000000000E+00 0.  1.
     999901    1    3    3    0    0 -0.72337103312E-01  0.98090371748E-01 -0.54100838317E-01  0.89004566077E+00  0.88000000000E+00 0.  1.
        -11    1    4    4    0    0  0.13669621697E-01 -0.48420846828E-01  0.19022445744E-01  0.53791742192E-01  0.51100000000E-03 0. -1.
         11    1    4    4    0    0  0.39992839209E-01 -0.60170529247E-01  0.25427239297E-01  0.76594552007E-01  0.51100000000E-03 0.  1.
</event>
<event>
 8    1  0.1208168E+005  0.1043930E+01  0.7957747E-01            NaN
         13   -1    0    0    0    0  0.00000000000E+00  0.00000000000E+00  0.74505805969E-08  0.10566000000E+00  0.10566000000E+00 0. -1.
     999900   -1    0    0    0    0 -0.00000000000E+00 -0.00000000000E+00 -0.74505805969E-08  0.93827000000E+00  0.93827000000E+00 0. -1.
     999902    2    1    2    0    0 -0.18127880625E-02 -0.13889991124E-01  0.19052236356E-01  0.10202824681E+01  0.10200083867E+01 0.  0.
     999903    2    3    3    0    0  0.57281381357E-01 -0.35929805816E-01 -0.10794283995E+00  0.12893201869E+00  0.19992527378E-01 0.  0.
         14    1    1    2    0    0  0.18127880625E-02  0.13889991124E-01 -0.19052236356E-01  0.23647531883E-01  0.00000000000E+00 0.  1.
     999901    1    3    3    0    0 -0.59094169420E-01  0.22039814692E-01  0.12699507630E+00  0.89135044943E+00  0.88000000000E+00 0.  1.
        -11    1    4    4    0    0  0.35007357919E-01 -0.31879546870E-01 -0.65456667427E-01  0.80787728330E-01  0.51100000000E-03 0.  1.
         11    1    4    4    0    0  0.22274023439E-01 -0.40502589464E-02 -0.42486172521E-01  0.48144290359E-01  0.51100000000E-03 0. -1.
</event>
<event>
 8    1  0.1208168E+005  0.1043930E+01  0.7957747E-01            NaN
         13   -1    0    0    0    0  0.00000000000E+00  0.00000000000E+00  0.74505805969E-08  0.10566000000E+00  0.10566000000E+00 0. -1.
     999900   -1    0    0    0    0 -0.00000000000E+00 -0.00000000000E+00 -0.74505805969E-08  0.93827000000E+00  0.93827000000E+00 0. -1.
     999902    2    1    2    0    0  0.53622171902E-02 -0.22981966205E-01  0.14085451840E-02  0.10202887618E+01  0.10200148280E+01 0.  0.
     999903    2    3    3    0    0  0.10170668388E+00  0.55968270060E-01 -0.55450556292E-01  0.12969999392E+00  0.16450757700E-01 0.  0.
         14    1    1    2    0    0 -0.53622171902E-02  0.22981966205E-01 -0.14085451840E-02  0.23641238195E-01  0.00000000000E+00 0.  1.
     999901    1    3    3    0    0 -0.96344466692E-01 -0.78950236265E-01  0.56859101476E-01  0.89058876789E+00  0.88000000000E+00 0.  1.
        -11    1    4    4    0    0  0.34014420735E-01  0.20626272335E-01 -0.27581307124E-01  0.48408816883E-01  0.51100000000E-03 0. -1.
         11    1    4    4    0    0  0.67692263148E-01  0.35341997725E-01 -0.27869249168E-01  0.81291177034E-01  0.51100000000E-03 0.  1.
</event>
<event>
 8    1  0.1208168E+005  0.1043930E+01  0.7957747E-01            NaN
         13   -1    0    0    0    0  0.00000000000E+00  0.00000000000E+00  0.74505805969E-08  0.10566000000E+00  0.10566000000E+00 0.  1.
     999900   -1    0    0    0    0 -0.00000000000E+00 -0.00000000000E+00 -0.74505805969E-08  0.93827000000E+00  0.93827000000E+00 0.  1.
     999902    2    1    2    0    0  0.14498462926E-01 -0.18973517931E-01 -0.18119167983E-02  0.10199824980E+01  0.10197013354E+01 0.  0.
     999903    2    3    3    0    0  0.62592997430E-01 -0.24563652514E-01 -0.11158564446E+00  0.13184140271E+00  0.20237170417E-01 0.  0.
         14    1    1    2    0    0 -0.14498462926E-01  0.18973517931E-01  0.18119167983E-02  0.23947502007E-01  0.00000000000E+00 0.  1.
     999901    1    3    3    0    0 -0.48094534504E-01  0.55901345837E-02  0.10977372766E+00  0.88814109529E+00  0.88000000000E+00 0. -1.
        -11    1    4    4    0    0  0.24556581130E-01 -0.13323714802E-01 -0.64383900544E-01  0.70186144097E-01  0.51100000000E-03 0.  1.
         11    1    4    4    0    0  0.38036416300E-01 -0.11239937713E-01 -0.47201743913E-01  0.61655258609E-01  0.51100000000E-03 0. -1.
</event>
<event>
 8    1  0.1208168E+005  0.1043930E+01  0.7957747E-01            NaN
         13   -1    0    0    0    0  0.00000000000E+00  0.00000000000E+00  0.74505805969E-08  0.10566000000E+00  0.10566000000E+00 0.  1.
     999900   -1    0    0    0    0 -0.00000000000E+00 -0.00000000000E+00 -0.74505805969E-08  0.93827000000E+00  0.93827000000E+00 0.  1.
     999902    2    1    2    0    0 -0.84426557370E-02  0.20628805062E-01  0.74657396273E-02  0.10204233349E+01  0.10201525470E+01 0.  0.
     999903    2    3    3    0    0  0.79639802420E-02 -0.33602564973E-01  0.12472008475E+00  0.13083983652E+00  0.19271894779E-01 0.  0.
         14    1    1    2    0    0  0.84426557370E-02 -0.20628805062E-01 -0.74657396273E-02  0.23506665062E-01  0.00000000000E+00 0.  1.
     999901    1    3    3    0    0 -0.16406635979E-01  0.54231370035E-01 -0.11725434512E+00  0.88958349841E+00  0.88000000000E+00 0.  1.
        -11    1    4    4    0    0  0.12102362837E-02  0.23530230356E-02  0.13161641027E-01  0.13434705237E-01  0.51100000000E-03 0. -1.
         11    1    4    4    0    0  0.67537439583E-02 -0.35955588009E-01  0.11155844372E+00  0.11740513129E+00  0.51100000000E-03 0.  1.
</event>
<event>
 8    1  0.1208168E+005  0.1043930E+01  0.7957747E-01            NaN
         13   -1    0    0    0    0  0.00000000000E+00  0.00000000000E+00  0.74505805969E-08  0.10566000000E+00  0.10566000000E+00 0. -1.
     999900   -1    0    0    0    0 -0.00000000000E+00 -0.00000000000E+00 -0.74505805969E-08  0.93827000000E+00  0.93827000000E+00 0.  1.
     999902    2    1    2    0    0 -0.22977999036E-01  0.27987687075E-02  0.59345825808E-02  0.10200335397E+01  0.10197535885E+01 0.  0.
     999903    2    3    3    0    0 -0.12365241810E+00  0.45158603587E-01  0.81883696900E-02  0.13327834582E+00  0.19153278696E-01 0.  0.
         14    1    1    2    0    0  0.22977999036E-01 -0.27987687075E-02 -0.59345825808E-02  0.23896460332E-01  0.00000000000E+00 0.  1.
     999901    1    3    3    0    0  0.10067441907E+00 -0.42359834880E-01 -0.22537871091E-02  0.88675519385E+00  0.88000000000E+00 0.  1.
        -11    1    4    4    0    0 -0.71227728679E-01  0.24729948949E-01  0.14081014359E-01  0.76703949013E-01  0.51100000000E-03 0. -1.
         11    1    4    4    0    0 -0.52424689424E-01  0.20428654639E-01 -0.58926446689E-02  0.56574396804E-01  0.51100000000E-03 0.  1.
</event>
<event>
 8    1  0.1208168E+005  0.1043930E+01  0.7957747E-01            NaN
         13   -1    0    0    0    0  0.00000000000E+00  0.00000000000E+00  0.74505805969E-08  0.10566000000E+00  0.10566000000E+00 0. -1.
     999900   -1    0    0    0    0 -0.00000000000E+00 -0.00000000000E+00 -0.74505805969E-08  0.93827000000E+00  0.93827000000E+00 0.  1.
     999902    2    1    2    0    0 -0.18465246508E-01 -0.59063331895E-02 -0.14899104581E-01  0.10194793677E+01  0.10191861203E+01 0.  0.
     999903    2    3    3    0    0 -0.68134311421E-01  0.19489831284E-01 -0.11023797538E+00  0.13257380261E+00  0.20031575271E-01 0.  0.
         14    1    1    2    0    0  0.18465246508E-01  0.59063331895E-02  0.14899104581E-01  0.24450632255E-01  0.00000000000E+00 0. -1.
     999901    1    3    3    0    0  0.49669064913E-01 -0.25396164473E-01  0.95338870795E-01  0.88690556513E+00  0.88000000000E+00 0. -1.
        -11    1    4    4    0    0 -0.38742802513E-02 -0.36384555594E-02 -0.84747869197E-02  0.10016563316E-01  0.51100000000E-03 0.  1.
         11    1    4    4    0    0 -0.64260031170E-01  0.23128286843E-01 -0.10176318846E+00  0.12255723930E+00  0.51100000000E-03 0. -1.
</event>
<event>
 8    1  0.1208168E+005  0.1043930E+01  0.7957747E-01            NaN
         13   -1    0    0    0    0  0.00000000000E+00  0.00000000000E+00  0.74505805969E-08  0.10566000000E+00  0.10566000000E+00 0.  1.
     999900   -1    0    0    0    0 -0.00000000000E+00 -0.00000000000E+00 -0.74505805969E-08  0.93827000000E+00  0.93827000000E+00 0. -1.
     999902    2    1    2    0    0 -0.19268136729E-01  0.60784056802E-02 -0.10526287431E-01  0.10211481907E+01  0.10208940280E+01 0.  0.
     999903    2    3    3    0    0 -0.10884220549E+00 -0.36242025943E-01 -0.66813006528E-01  0.13380230126E+00  0.16702330429E-01 0.  0.
         14    1    1    2    0    0  0.19268136729E-01 -0.60784056802E-02  0.10526287431E-01  0.22781809316E-01  0.00000000000E+00 0. -1.
     999901    1    3    3    0    0  0.89574068760E-01  0.42320431623E-01  0.56286719097E-01  0.88734588942E+00  0.88000000000E+00 0.  1.
        -11    1    4    4    0    0 -0.41205651698E-01 -0.55651225587E-02 -0.26287911392E-01  0.49195444172E-01  0.51100000000E-03 0. -1.
         11    1    4    4    0    0 -0.67636553791E-01 -0.30676903384E-01 -0.40525095136E-01  0.84606857091E-01  0.51100000000E-03 0.  1.
</event>
<event>
 8    1  0.1208168E+005  0.1043930E+01  0.7957747E-01            NaN
         13   -1    0    0    0    0  0.00000000000E+00  0.00000000000E+00  0.74505805969E-08  0.10566000000E+00  0.10566000000E+00 0. -1.
     999900   -1    0    0    0    0 -0.00000000000E+00 -0.00000000000E+00 -0.74505805969E-08  0.93827000000E+00  0.93827000000E+00 0.  1.
     999902    2    1    2    0    0  0.14094963359E-01  0.42424590114E-02 -0.19017200072E-01  0.10198817080E+01  0.10195981453E+01 0.  0.
     999903    2    3    3    0    0 -0.11353514257E+00 -0.50628045036E-01 -0.28069483203E-01  0.12893717548E+00  0.19582435817E-01 0.  0.
         14    1    1    2    0    0 -0.14094963359E-01 -0.42424590114E-02  0.19017200072E-01  0.24048292021E-01  0.00000000000E+00 0. -1.
     999901    1    3    3    0    0  0.12763010593E+00  0.54870504047E-01  0.90522831313E-02  0.89094453250E+00  0.88000000000E+00 0. -1.
        -11    1    4    4    0    0 -0.80883464881E-01 -0.34831729930E-01 -0.10687804097E-01  0.88712313567E-01  0.51100000000E-03 0. -1.
         11    1    4    4    0    0 -0.32651677687E-01 -0.15796315106E-01 -0.17381679106E-01  0.40224861917E-01  0.51100000000E-03 0.  1.
</event>
<event>
 8    1  0.1208168E+005  0.1043930E+01  0.7957747E-01            NaN
         13   -1    0    0    0    0  0.00000000000E+00  0.00000000000E+00  0.74505805969E-08  0.10566000000E+00  0.10566000000E+00 0.  1.
     999900   -1    0    0    0    0 -0.00000000000E+00 -0.00000000000E+00 -0.74505805969E-08  0.93827000000E+00  0.93827000000E+00 0. -1.
     999902    2    1    2    0    0  0.25179458548E-02 -0.12742665616E-01 -0.20188489038E-01  0.10199239452E+01  0.10196413896E+01 0.  0.
     999903    2    3    3    0    0 -0.26898346705E-01  0.38751839330E-01  0.11659687586E+00  0.12738417668E+00  0.20166082910E-01 0.  0.
         14    1    1    2    0    0 -0.25179458548E-02  0.12742665616E-01  0.20188489038E-01  0.24006054819E-01  0.00000000000E+00 0.  1.
     999901    1    3    3    0    0  0.29416292560E-01 -0.51494504946E-01 -0.13678536490E+00  0.89253976850E+00  0.88000000000E+00 0. -1.
        -11    1    4    4    0    0 -0.17658618485E-01  0.19008724503E-01  0.39487344390E-01  0.47251136516E-01  0.51100000000E-03 0.  1.
         11    1    4    4    0    0 -0.92397282200E-02  0.19743114827E-01  0.77109531473E-01  0.80133040162E-01  0.51100000000E-03 0. -1.
</event>
<event>
 8    1  0.1208168E+005  0.1043930E+01  0.7957747E-01            NaN
         13   -1    0    0    0    0  0.00000000000E+00  0.00000000000E+00  0.74505805969E-08  0.10566000000E+00  0.10566000000E+00 0.  1.
     999900   -1    0    0    0    0 -0.00000000000E+00 -0.00000000000E+00 -0.74505805969E-08  0.93827000000E+00  0.93827000000E+00 0. -1.
     999902    2    1    2    0    0 -0.16535260377E-01  0.64442955692E-02  0.15715388908E-01  0.10202252066E+01  0.10199497806E+01 0.  0.
     999903    2    3    3    0    0  0.94211687955E-01 -0.81795686226E-01  0.25333804687E-01  0.12885340154E+00  0.19875135122E-01 0.  0.
         14    1    1    2    0    0  0.16535260377E-01 -0.64442955692E-02 -0.15715388908E-01  0.23704793390E-01  0.00000000000E+00 0. -1.
     999901    1    3    3    0    0 -0.11074694833E+00  0.88239981795E-01 -0.96184157788E-02  0.89137180507E+00  0.88000000000E+00 0. -1.
        -11    1    4    4    0    0  0.23930331972E-01 -0.16477788691E-01 -0.18800640841E-02  0.29119994340E-01  0.51100000000E-03 0.  1.
         11    1    4    4    0    0  0.70281355983E-01 -0.65317897535E-01  0.27213868771E-01  0.99733407200E-01  0.51100000000E-03 0. -1.
</event>
<event>
 8    1  0.1208168E+005  0.1043930E+01  0.7957747E-01            NaN
         13   -1    0    0    0    0  0.00000000000E+00  0.00000000000E+00  0.74505805969E-08  0.10566000000E+00  0.10566000000E+00 0.  1.
     999900   -1    0    0    0    0 -0.00000000000E+00 -0.00000000000E+00 -0.74505805969E-08  0.93827000000E+00  0.93827000000E+00 0.  1.
     999902    2    1    2    0    0 -0.11708159393E-01 -0.55904495361E-02 -0.18587356575E-01  0.10212623149E+01  0.10210107208E+01 0.  0.
     999903    2    3    3    0    0 -0.48089585473E-01 -0.67264565171E-01  0.99058057217E-01  0.13055038164E+00  0.19843726667E-01 0.  0.
         14    1    1    2    0    0  0.11708159393E-01  0.55904495361E-02  0.18587356575E-01  0.22667685079E-01  0.00000000000E+00 0.  1.
     999901    1    3    3    0    0  0.36381426080E-01  0.61674115635E-01 -0.11764541379E+00  0.89071193328E+00  0.88000000000E+00 0.  1.
        -11    1    4    4    0    0 -0.33432274466E-01 -0.50772640217E-01  0.58458849710E-01  0.84340240698E-01  0.51100000000E-03 0.  1.
         11    1    4    4    0    0 -0.14657311007E-01 -0.16491924954E-01  0.40599207507E-01  0.46210140942E-01  0.51100000000E-03 0. -1.
</event>
<event>
 8    1  0.1208168E+005  0.1043930E+01  0.7957747E-01            NaN
         13   -1    0    0    0    0  0.00000000000E+00  0.00000000000E+00  0.74505805969E-08  0.10566000000E+00  0.10566000000E+00 0. -1.
     999900   -1    0    0    0    0 -0.00000000000E+00 -0.00000000000E+00 -0.74505805969E-08  0.93827000000E+00  0.93827000000E+00 0. -1.
     999902    2    1    2    0    0 -0.14829481515E-01 -0.37074783101E-02 -0.18102356116E-01  0.10202370851E+01  0.10199619384E+01 0.  0.
     999903    2    3    3    0    0  0.41489982202E-01 -0.41286162284E-01 -0.11658145055E+00  0.13215928927E+00  0.21186724831E-01 0.  0.
         14    1    1    2    0    0  0.14829481515E-01  0.37074783101E-02  0.18102356116E-01  0.23692914856E-01  0.00000000000E+00 0. -1.
     999901    1    3    3    0    0 -0.56319463717E-01  0.37578683974E-01  0.98479094434E-01  0.88807779587E+00  0.88000000000E+00 0.  1.
        -11    1    4    4    0    0  0.34850081431E-01 -0.34304061111E-01 -0.75459285903E-01  0.89920307687E-01  0.51100000000E-03 0. -1.
         11    1    4    4    0    0  0.66399007704E-02 -0.69821011727E-02 -0.41122164647E-01  0.42238981584E-01  0.51100000000E-03 0.  1.
</event>
<event>
 8    1  0.1208168E+005  0.1043930E+01  0.7957747E-01            NaN
         13   -1    0    0    0    0  0.00000000000E+00  0.00000000000E+00  0.74505805969E-08  0.10566000000E+00  0.10566000000E+00 0.  1.
     999900   -1    0    0    0    0 -0.00000000000E+00 -0.00000000000E+00 -0.74505805969E-08  0.93827000000E+00  0.93827000000E+00 0.  1.
     999902    2    1    2    0    0  0.69968002819E-02 -0.21491711944E-01  0.54755066352E-02  0.10206742465E+01  0.10204092745E+01 0.  0.
     999903    2    3    3    0    0 -0.44311714283E-01 -0.12411738470E+00  0.10824331534E-02  0.13321501284E+00  0.19401411689E-01 0.  0.
         14    1    1    2    0    0 -0.69968002819E-02  0.21491711944E-01 -0.54755066352E-02  0.23255753468E-01  0.00000000000E+00 0.  1.
     999901    1    3    3    0    0  0.51308514565E-01  0.10262567276E+00  0.43930734818E-02  0.88745923370E+00  0.88000000000E+00 0.  1.
        -11    1    4    4    0    0 -0.37344924588E-01 -0.11813020860E+00 -0.41104242345E-03  0.12389438911E+00  0.51100000000E-03 0.  1.
         11    1    4    4    0    0 -0.69667896952E-02 -0.59871761027E-02  0.14934755769E-02  0.93206237259E-02  0.51100000000E-03 0. -1.
</event>
<event>
 8    1  0.1208168E+005  0.1043930E+01  0.7957747E-01            NaN
         13   -1    0    0    0    0  0.00000000000E+00  0.00000000000E+00  0.74505805969E-08  0.10566000000E+00  0.10566000000E+00 0. -1.
     999900   -1    0    0    0    0 -0.00000000000E+00 -0.00000000000E+00 -0.74505805969E-08  0.93827000000E+00  0.93827000000E+00 0. -1.
     999902    2    1    2    0    0  0.83156495971E-02  0.28425557705E-01 -0.15218028023E-01  0.10106320911E+01  0.10100833990E+01 0.  0.
     999903    2    3    3    0    0 -0.21574053194E-01  0.21621838962E-01 -0.11858411423E+00  0.12405201425E+00  0.19843548072E-01 0.  0.
         14    1    1    2    0    0 -0.83156495971E-02 -0.28425557705E-01  0.15218028023E-01  0.33297908883E-01  0.00000000000E+00 0. -1.
     999901    1    3    3    0    0  0.29889702791E-01  0.68037187429E-02  0.10336608621E+00  0.88658007687E+00  0.88000000000E+00 0.  1.
        -11    1    4    4    0    0 -0.12933959044E-01  0.22046502591E-01 -0.10392295187E+00  0.10702138394E+00  0.51100000000E-03 0. -1.
         11    1    4    4    0    0 -0.86400941505E-02 -0.42466362864E-03 -0.14661162360E-01  0.17030630313E-01  0.51100000000E-03 0.  1.
</event>
<event>
 8    1  0.1208168E+005  0.1043930E+01  0.7957747E-01            NaN
         13   -1    0    0    0    0  0.00000000000E+00  0.00000000000E+00  0.74505805969E-08  0.10566000000E+00  0.10566000000E+00 0. -1.
     999900   -1    0    0    0    0 -0.00000000000E+00 -0.00000000000E+00 -0.74505805969E-08  0.93827000000E+00  0.93827000000E+00 0.  1.
     999902    2    1    2    0    0  0.11617132050E-01 -0.16947411191E-01  0.10861485159E-01  0.10206889939E+01  0.10204243617E+01 0.  0.
     999903    2    3    3    0    0  0.12268059182E+00 -0.44905886680E-01  0.17692976517E-01  0.13324128408E+00  0.19316627512E-01 0.  0.
         14    1    1    2    0    0 -0.11617132050E-01  0.16947411191E-01 -0.10861485159E-01  0.23241006067E-01  0.00000000000E+00 0.  1.
     999901    1    3    3    0    0 -0.11106345977E+00  0.27958475488E-01 -0.68314913578E-02  0.88744770985E+00  0.88000000000E+00 0.  1.
        -11    1    4    4    0    0  0.31954054364E-01 -0.20472200292E-01  0.22450446431E-02  0.38019388758E-01  0.51100000000E-03 0.  1.
         11    1    4    4    0    0  0.90726537453E-01 -0.24433686388E-01  0.15447931874E-01  0.95221895323E-01  0.51100000000E-03 0. -1.
</event>
<event>
 8    1  0.1208168E+005  0.1043930E+01  0.7957747E-01            NaN
         13   -1    0    0    0    0  0.00000000000E+00  0.00000000000E+00  0.74505805969E-08  0.10566000000E+00  0.10566000000E+00 0. -1.
     999900   -1    0    0    0    0 -0.00000000000E+00 -0.00000000000E+00 -0.74505805969E-08  0.93827000000E+00  0.93827000000E+00 0. -1.
     999902    2    1    2    0    0 -0.13028497323E-01 -0.19782909117E-01 -0.41392887860E-02  0.10198834005E+01  0.10195998782E+01 0.  0.
     999903    2    3    3    0    0  0.91089590057E-01 -0.13342593548E-01  0.87600473784E-01  0.12898596655E+00  0.22095210824E-01 0.  0.
         14    1    1    2    0    0  0.13028497323E-01  0.19782909117E-01  0.41392887860E-02  0.24046599495E-01  0.00000000000E+00 0.  1.
     999901    1    3    3    0    0 -0.10411808738E+00 -0.64403155688E-02 -0.91739762570E-01  0.89089743395E+00  0.88000000000E+00 0.  1.
        -11    1    4    4    0    0  0.26704888449E-01 -0.14133049412E-01  0.30245574760E-01  0.42754532699E-01  0.51100000000E-03 0.  1.
         11    1    4    4    0    0  0.64384701608E-01  0.79045586378E-03  0.57354899024E-01  0.86231433855E-01  0.51100000000E-03 0. -1.
</event>
<event>
 8    1  0.1208168E+005  0.1043930E+01  0.7957747E-01            NaN
         13   -1    0    0    0    0  0.00000000000E+00  0.00000000000E+00  0.74505805969E-08  0.10566000000E+00  0.10566000000E+00 0.  1.
     999900   -1    0    0    0    0 -0.00000000000E+00 -0.00000000000E+00 -0.74505805969E-08  0.93827000000E+00  0.93827000000E+00 0. -1.
     999902    2    1    2    0    0  0.16860766206E-01 -0.16017292799E-01 -0.46350290489E-02  0.10202166578E+01  0.10199410307E+01 0.  0.
     999903    2    3    3    0    0 -0.87946365689E-01 -0.43001659378E-01 -0.83238474307E-01  0.13010925271E+00  0.20397747118E-01 0.  0.
         14    1    1    2    0    0 -0.16860766206E-01  0.16017292799E-01  0.46350290489E-02  0.23713342234E-01  0.00000000000E+00 0.  1.
     999901    1    3    3    0    0  0.10480713189E+00  0.26984366580E-01  0.78603445258E-01  0.89010740506E+00  0.88000000000E+00 0.  1.
        -11    1    4    4    0    0 -0.41257046220E-01 -0.91642660697E-02 -0.32822374313E-01  0.53513521767E-01  0.51100000000E-03 0.  1.
         11    1    4    4    0    0 -0.46689319469E-01 -0.33837393309E-01 -0.50416099994E-01  0.76595730939E-01  0.51100000000E-03 0. -1.
</event>
<event>
 8    1  0.1208168E+005  0.1043930E+01  0.7957747E-01            NaN
         13   -1    0    0    0    0  0.00000000000E+00  0.00000000000E+00  0.74505805969E-08  0.10566000000E+00  0.10566000000E+00 0.  1.
     999900   -1    0    0    0    0 -0.00000000000E+00 -0.00000000000E+00 -0.74505805969E-08  0.93827000000E+00  0.93827000000E+00 0.  1.
     999902    2    1    2    0    0 -0.97352777211E-03  0.42848388145E-02  0.23157628960E-01  0.10203591837E+01  0.10200868985E+01 0.  0.
     999903    2    3    3    0    0  0.16648120474E-02  0.12315267048E+00  0.43992240058E-01  0.13211901168E+00  0.18728700353E-01 0.  0.
         14    1    1    2    0    0  0.97352777211E-03 -0.42848388145E-02 -0.23157628960E-01  0.23570816257E-01  0.00000000000E+00 0. -1.
     999901    1    3    3    0    0 -0.26383398195E-02 -0.11886783167E+00 -0.20834611099E-01  0.88824017206E+00  0.88000000000E+00 0.  1.
        -11    1    4    4    0    0  0.12677315715E-02  0.26185651783E-01  0.17741686920E-01  0.31659502182E-01  0.51100000000E-03 0.  1.
         11    1    4    4    0    0  0.39708047587E-03  0.96967018698E-01  0.26250553138E-01  0.10045950950E+00  0.51100000000E-03 0. -1.
</event>
<event>
 7    1  0.1208168E+005  0.1043930E+01  0.7957747E-01            NaN
         13   -1    0    0    0    0  0.00000000000E+00  0.00000000000E+00  0.74505805969E-08  0.10566000000E+00  0.10566000000E+00 0. -1.
     999900   -1    0    0    0    0 -0.00000000000E+00 -0.00000000000E+00 -0.74505805969E-08  0.93827000000E+00  0.93827000000E+00 0. -1.
     999903    2    1    2    0    0  0.38238599137E-01  0.82145613876E-01 -0.39698765965E-01  0.10097109643E+00  0.20225675586E-01 0.  0.
         14    1    1    2    0    0 -0.32128966680E-01  0.42435653601E-01  0.54313403605E-02  0.53502847163E-01  0.00000000000E+00 0.  1.
     999901    1    1    2    0    0 -0.61096324574E-02 -0.12458126748E+00  0.34267425604E-01  0.88945605640E+00  0.88000000000E+00 0. -1.
        -11    1    3    3    0    0  0.81964542033E-02  0.39503281353E-01 -0.13133578809E-01  0.42431628680E-01  0.51100000000E-03 0.  1.
         11    1    3    3    0    0  0.30042144934E-01  0.42642332523E-01 -0.26565187155E-01  0.58539467753E-01  0.51100000000E-03 0. -1.
</event>
<event>
 8    1  0.1208168E+005  0.1043930E+01  0.7957747E-01            NaN
         13   -1    0    0    0    0  0.00000000000E+00  0.00000000000E+00  0.74505805969E-08  0.10566000000E+00  0.10566000000E+00 0. -1.
     999900   -1    0    0    0    0 -0.00000000000E+00 -0.00000000000E+00 -0.74505805969E-08  0.93827000000E+00  0.93827000000E+00 0.  1.
     999902    2    1    2    0    0  0.17393645919E-01 -0.61928768497E-02 -0.13386439762E-01  0.10211245750E+01  0.10208698792E+01 0.  0.
     999903    2    3    3    0    0 -0.10380209269E+00 -0.58675119553E-01  0.45726769596E-01  0.12930779760E+00  0.20295934545E-01 0.  0.
         14    1    1    2    0    0 -0.17393645919E-01  0.61928768497E-02  0.13386439762E-01  0.22805425046E-01  0.00000000000E+00 0. -1.
     999901    1    3    3    0    0  0.12119573861E+00  0.52482242703E-01 -0.59113209358E-01  0.89181677736E+00  0.88000000000E+00 0.  1.
        -11    1    4    4    0    0 -0.70680907105E-01 -0.35203143084E-01  0.20761150520E-01  0.81647647879E-01  0.51100000000E-03 0.  1.
         11    1    4    4    0    0 -0.33121185589E-01 -0.23471976469E-01  0.24965619076E-01  0.47660149717E-01  0.51100000000E-03 0. -1.
</event>
<event>
 8    1  0.1208168E+005  0.1043930E+01  0.7957747E-01            NaN
         13   -1    0    0    0    0  0.00000000000E+00  0.00000000000E+00  0.74505805969E-08  0.10566000000E+00  0.10566000000E+00 0. -1.
     999900   -1    0    0    0    0 -0.00000000000E+00 -0.00000000000E+00 -0.74505805969E-08  0.93827000000E+00  0.93827000000E+00 0. -1.
     999902    2    1    2    0    0  0.17037784221E-01  0.11177491427E-01 -0.11453106159E-01  0.10205548840E+01  0.10202871533E+01 0.  0.
     999903    2    3    3    0    0  0.98353499204E-01 -0.76563435719E-01  0.36068893684E-01  0.13119047263E+00  0.19354702859E-01 0.  0.
         14    1    1    2    0    0 -0.17037784221E-01 -0.11177491427E-01  0.11453106159E-01  0.23375115966E-01  0.00000000000E+00 0. -1.
     999901    1    3    3    0    0 -0.81315714983E-01  0.87740927146E-01 -0.47521999843E-01  0.88936441140E+00  0.88000000000E+00 0.  1.
        -11    1    4    4    0    0  0.59296876099E-01 -0.40508004355E-01  0.29468436824E-01  0.77625175180E-01  0.51100000000E-03 0.  1.
         11    1    4    4    0    0  0.39056623105E-01 -0.36055431364E-01  0.66004568604E-02  0.53565297451E-01  0.51100000000E-03 0. -1.
</event>
<event>
 8    1  0.1208168E+005  0.1043930E+01  0.7957747E-01            NaN
         13   -1    0    0    0    0  0.00000000000E+00  0.00000000000E+00  0.74505805969E-08  0.10566000000E+00  0.10566000000E+00 0.  1.
     999900   -1    0    0    0    0 -0.00000000000E+00 -0.00000000000E+00 -0.74505805969E-08  0.93827000000E+00  0.93827000000E+00 0. -1.
     999902    2    1    2    0    0  0.12232490846E-01  0.11661178727E-01  0.16795674448E-01  0.10201033007E+01  0.10198250009E+01 0.  0.
     999903    2    3    3    0    0 -0.12627230924E+00  0.97655591612E-02  0.19173518311E-01  0.12926502848E+00  0.17371285466E-01 0.  0.
         14    1    1    2    0    0 -0.12232490846E-01 -0.11661178727E-01 -0.16795674448E-01  0.23826699347E-01  0.00000000000E+00 0.  1.
     999901    1    3    3    0    0  0.13850480008E+00  0.18956195654E-02 -0.23778438631E-02  0.89083827217E+00  0.88000000000E+00 0.  1.
        -11    1    4    4    0    0 -0.11821862488E+00  0.12994054364E-01  0.15957796907E-01  0.11999750464E+00  0.51100000000E-03 0.  1.
         11    1    4    4    0    0 -0.80536843558E-02 -0.32284952030E-02  0.32157214042E-02  0.92675238402E-02  0.51100000000E-03 0. -1.
</event>
<event>
 8    1  0.1208168E+005  0.1043930E+01  0.7957747E-01            NaN
         13   -1    0    0    0    0  0.00000000000E+00  0.00000000000E+00  0.74505805969E-08  0.10566000000E+00  0.10566000000E+00 0.  1.
     999900   -1    0    0    0    0 -0.00000000000E+00 -0.00000000000E+00 -0.74505805969E-08  0.93827000000E+00  0.93827000000E+00 0.  1.
     999902    2    1    2    0    0 -0.16931958987E-01  0.15488508640E-01  0.92958637699E-03  0.10209637364E+01  0.10207053942E+01 0.  0.
     999903    2    3    3    0    0  0.75653472346E-02 -0.12492579761E+00 -0.25519888638E-01  0.12910283344E+00  0.18777313409E-01 0.  0.
         14    1    1    2    0    0  0.16931958987E-01 -0.15488508640E-01 -0.92958637699E-03  0.22966263646E-01  0.00000000000E+00 0.  1.
     999901    1    3    3    0    0 -0.24497306222E-01  0.14041430625E+00  0.26449475015E-01  0.89186090291E+00  0.88000000000E+00 0. -1.
        -11    1    4    4    0    0  0.57846354599E-02 -0.86509490581E-01 -0.26392106743E-01  0.90631994281E-01  0.51100000000E-03 0. -1.
         11    1    4    4    0    0  0.17807117747E-02 -0.38416307032E-01  0.87221810535E-03  0.38470839162E-01  0.51100000000E-03 0.  1.
</event>
<event>
 8    1  0.1208168E+005  0.1043930E+01  0.7957747E-01            NaN
         13   -1    0    0    0    0  0.00000000000E+00  0.00000000000E+00  0.74505805969E-08  0.10566000000E+00  0.10566000000E+00 0.  1.
     999900   -1    0    0    0    0 -0.00000000000E+00 -0.00000000000E+00 -0.74505805969E-08  0.93827000000E+00  0.93827000000E+00 0.  1.
     999902    2    1    2    0    0  0.21183420637E-01  0.47753909865E-02  0.19473296197E-01  0.10147623650E+01  0.10143430911E+01 0.  0.
     999903    2    3    3    0    0 -0.88242084393E-01 -0.56532920174E-01  0.64475701143E-01  0.12472985622E+00  0.20439776743E-01 0.  0.
         14    1    1    2    0    0 -0.21183420637E-01 -0.47753909865E-02 -0.19473296197E-01  0.29167635038E-01  0.00000000000E+00 0. -1.
     999901    1    3    3    0    0  0.10942550503E+00  0.61308311160E-01 -0.45002404946E-01  0.89003250874E+00  0.88000000000E+00 0.  1.
        -11    1    4    4    0    0 -0.50875947392E-01 -0.33353845541E-01  0.48985454749E-01  0.78106830261E-01  0.51100000000E-03 0.  1.
         11    1    4    4    0    0 -0.37366137000E-01 -0.23179074633E-01  0.15490246393E-01  0.46623025958E-01  0.51100000000E-03 0. -1.
</event>
<event>
 8    1  0.1208168E+005  0.1043930E+01  0.7957747E-01            NaN
         13   -1    0    0    0    0  0.00000000000E+00  0.00000000000E+00  0.74505805969E-08  0.10566000000E+00  0.10566000000E+00 0. -1.
     999900   -1    0    0    0    0 -0.00000000000E+00 -0.00000000000E+00 -0.74505805969E-08  0.93827000000E+00  0.93827000000E+00 0. -1.
     999902    2    1    2    0    0  0.15912479012E-01  0.17158562823E-01  0.34807919605E-02  0.10202711924E+01  0.10199968465E+01 0.  0.
     999903    2    3    3    0    0  0.46843914446E-01  0.13161087074E-01  0.12092687519E+00  0.13192085832E+00  0.20303624910E-01 0.  0.
         14    1    1    2    0    0 -0.15912479012E-01 -0.17158562823E-01 -0.34807919605E-02  0.23658807643E-01  0.00000000000E+00 0.  1.
     999901    1    3    3    0    0 -0.30931435434E-01  0.39974757481E-02 -0.11744608323E+00  0.88835033403E+00  0.88000000000E+00 0. -1.
        -11    1    4    4    0    0  0.16587341131E-01  0.10429021630E-01  0.69281716498E-01  0.72000845411E-01  0.51100000000E-03 0.  1.
         11    1    4    4    0    0  0.30256573315E-01  0.27320654443E-02  0.51645158690E-01  0.59920012913E-01  0.51100000000E-03 0. -1.
</event>
<event>
 8    1  0.1208168E+005  0.1043930E+01  0.7957747E-01            NaN
         13   -1    0    0    0    0  0.00000000000E+00  0.00000000000E+00  0.74505805969E-08  0.10566000000E+00  0.10566000000E+00 0. -1.
     999900   -1    0    0    0    0 -0.00000000000E+00 -0.00000000000E+00 -0.74505805969E-08  0.93827000000E+00  0.93827000000E+00 0. -1.
     999902    2    1    2    0    0 -0.12963647667E-01 -0.10019443795E-01  0.17579493611E-01  0.10198991030E+01  0.10196159553E+01 0.  0.
     999903    2    3    3    0    0  0.12154875611E+00 -0.13228345132E-01  0.38691634301E-01  0.12942192401E+00  0.17432803079E-01 0.  0.
         14    1    1    2    0    0  0.12963647667E-01  0.10019443795E-01 -0.17579493611E-01  0.24030896996E-01  0.00000000000E+00 0.  1.
     999901    1    3    3    0    0 -0.13451240378E+00  0.32089013373E-02 -0.21112140689E-01  0.89047717899E+00  0.88000000000E+00 0.  1.
        -11    1    4    4    0    0  0.38437932105E-01 -0.74261946558E-02  0.46740154328E-02  0.39430071428E-01  0.51100000000E-03 0. -1.
         11    1    4    4    0    0  0.83110824007E-01 -0.58021504763E-02  0.34017618868E-01  0.89991852586E-01  0.51100000000E-03 0.  1.
</event>
<event>
 8    1  0.1208168E+005  0.1043930E+01  0.7957747E-01            NaN
         13   -1    0    0    0    0  0.00000000000E+00  0.00000000000E+00  0.74505805969E-08  0.10566000000E+00  0.10566000000E+00 0.  1.
     999900   -1    0    0    0    0 -0.00000000000E+00 -0.00000000000E+00 -0.74505805969E-08  0.93827000000E+00  0.93827000000E+00 0. -1.
     999902    2    1    2    0    0  0.39512393086E-02  0.35058639821E-02  0.23441387137E-01  0.10199008093E+01  0.10196177023E+01 0.  0.
     999903    2    3    3    0    0  0.27254943653E-01 -0.56789435035E-01  0.11552827879E+00  0.13273758795E+00  0.17453142120E-01 0.  0.
         14    1    1    2    0    0 -0.39512393086E-02 -0.35058639821E-02 -0.23441387137E-01  0.24029190690E-01  0.00000000000E+00 0. -1.
     999901    1    3    3    0    0 -0.23303704345E-01  0.60295299017E-01 -0.92086891651E-01  0.88716322136E+00  0.88000000000E+00 0. -1.
        -11    1    4    4    0    0  0.97283519522E-02 -0.32820305971E-01  0.47909183465E-01  0.58884329809E-01  0.51100000000E-03 0. -1.
         11    1    4    4    0    0  0.17526591701E-01 -0.23969129064E-01  0.67619095323E-01  0.73853258141E-01  0.51100000000E-03 0.  1.
</event>
<event>
 8    1  0.1208168E+005  0.1043930E+01  0.7957747E-01            NaN
         13   -1    0    0    0    0  0.00000000000E+00  0.00000000000E+00  0.74505805969E-08  0.10566000000E+00  0.10566000000E+00 0.  1.
     999900   -1    0    0    0    0 -0.00000000000E+00 -0.00000000000E+00 -0.74505805969E-08  0.93827000000E+00  0.93827000000E+00 0. -1.
     999902    2    1    2    0    0 -0.60891884227E-02 -0.73641059993E-02  0.22180211913E-01  0.10197790151E+01  0.10194929963E+01 0.  0.
     999903    2    3    3    0    0 -0.11422179761E+00 -0.51678054704E-01  0.36242038012E-01  0.13194224957E+00  0.19443032549E-01 0.  0.
         14    1    1    2    0    0  0.60891884227E-02  0.73641059993E-02 -0.22180211913E-01  0.24150984934E-01  0.00000000000E+00 0. -1.
     999901    1    3    3    0    0  0.10813260918E+00  0.44313948705E-01 -0.14061826100E-01  0.88783676550E+00  0.88000000000E+00 0. -1.
        -11    1    4    4    0    0 -0.11033044934E+00 -0.53209717189E-01  0.36198772977E-01  0.12772898786E+00  0.51100000000E-03 0.  1.
         11    1    4    4    0    0 -0.38913482712E-02  0.15316624844E-02  0.43265035713E-04  0.42132617053E-02  0.51100000000E-03 0. -1.
</event>
<event>
 8    1  0.1208168E+005  0.1043930E+01  0.7957747E-01            NaN
         13   -1    0    0    0    0  0.00000000000E+00  0.00000000000E+00  0.74505805969E-08  0.10566000000E+00  0.10566000000E+00 0.  1.
     999900   -1    0    0    0    0 -0.00000000000E+00 -0.00000000000E+00 -0.74505805969E-08  0.93827000000E+00  0.93827000000E+00 0.  1.
     999902    2    1    2    0    0 -0.20726468420E-01 -0.36134590099E-02  0.10906234055E-01  0.10202321199E+01  0.10199568564E+01 0.  0.
     999903    2    3    3    0    0 -0.28655432475E-01  0.59458717064E-01  0.11261377107E+00  0.13209621199E+00  0.20274983148E-01 0.  0.
         14    1    1    2    0    0  0.20726468420E-01  0.36134590099E-02 -0.10906234055E-01  0.23697880083E-01  0.00000000000E+00 0. -1.
     999901    1    3    3    0    0  0.79289640554E-02 -0.63072176074E-01 -0.10170753702E+00  0.88813590793E+00  0.88000000000E+00 0.  1.
        -11    1    4    4    0    0 -0.16899949275E-02  0.16739056168E-01  0.16813941295E-01  0.23791213234E-01  0.51100000000E-03 0. -1.
         11    1    4    4    0    0 -0.26965437548E-01  0.42719660895E-01  0.95799829776E-01  0.10830499875E+00  0.51100000000E-03 0.  1.
</event>
<event>
 7    1  0.1208168E+005  0.1043930E+01  0.7957747E-01            NaN
         13   -1    0    0    0    0  0.00000000000E+00  0.00000000000E+00  0.74505805969E-08  0.10566000000E+00  0.10566000000E+00 0. -1.
     999900   -1    0    0    0    0 -0.00000000000E+00 -0.00000000000E+00 -0.74505805969E-08  0.93827000000E+00  0.93827000000E+00 0. -1.
     999903    2    1    2    0    0  0.17449673837E-01  0.25810324645E-01 -0.51723522071E-01  0.63632826288E-01  0.20078592345E-01 0.  0.
         14    1    1    2    0    0 -0.38872557673E-01 -0.27070387748E-01  0.87292762205E-01  0.99317208813E-01  0.00000000000E+00 0. -1.
     999901    1    1    2    0    0  0.21422883836E-01  0.12600631031E-02 -0.35569240134E-01  0.88097996490E+00  0.88000000000E+00 0. -1.
        -11    1    3    3    0    0  0.20182389470E-01  0.20103279548E-01 -0.31674959088E-01  0.42603225788E-01  0.51100000000E-03 0.  1.
         11    1    3    3    0    0 -0.27327156331E-02  0.57070450971E-02 -0.20048562984E-01  0.21029600500E-01  0.51100000000E-03 0. -1.
</event>
<event>
 8    1  0.1208168E+005  0.1043930E+01  0.7957747E-01            NaN
         13   -1    0    0    0    0  0.00000000000E+00  0.00000000000E+00  0.74505805969E-08  0.10566000000E+00  0.10566000000E+00 0. -1.
     999900   -1    0    0    0    0 -0.00000000000E+00 -0.00000000000E+00 -0.74505805969E-08  0.93827000000E+00  0.93827000000E+00 0. -1.
     999902    2    1    2    0    0 -0.13839862976E-01 -0.10249706436E-01  0.16383362429E-01  0.10201600010E+01  0.10198830397E+01 0.  0.
     999903    2    3    3    0    0 -0.45402018582E-01  0.96253506174E-01 -0.70600667374E-01  0.12892191527E+00  0.17616051258E-01 0.  0.
         14    1    1    2    0    0  0.13839862976E-01  0.10249706436E-01 -0.16383362429E-01  0.23769999026E-01  0.00000000000E+00 0.  1.
     999901    1    3    3    0    0  0.31562155606E-01 -0.10650321261E+00  0.86984029803E-01  0.89123808570E+00  0.88000000000E+00 0.  1.
        -11    1    4    4    0    0 -0.20526301587E-01  0.52228473609E-01 -0.27588014743E-01  0.62534008274E-01  0.51100000000E-03 0.  1.
         11    1    4    4    0    0 -0.24875716995E-01  0.44025032565E-01 -0.43012652631E-01  0.66387906999E-01  0.51100000000E-03 0. -1.
</event>
<event>
 8    1  0.1208168E+005  0.1043930E+01  0.7957747E-01            NaN
         13   -1    0    0    0    0  0.00000000000E+00  0.00000000000E+00  0.74505805969E-08  0.10566000000E+00  0.10566000000E+00 0.  1.
     999900   -1    0    0    0    0 -0.00000000000E+00 -0.00000000000E+00 -0.74505805969E-08  0.93827000000E+00  0.93827000000E+00 0. -1.
     999902    2    1    2    0    0 -0.12894855072E-01  0.94962180561E-02  0.14065547965E-01  0.10226158009E+01  0.10223936527E+01 0.  0.
     999903    2    3    3    0    0  0.80849281931E-01  0.74103566786E-01 -0.69629181345E-01  0.13134318240E+00  0.19361396363E-01 0.  0.
         14    1    1    2    0    0  0.12894855072E-01 -0.94962180561E-02 -0.14065547965E-01  0.21314199123E-01  0.00000000000E+00 0. -1.
     999901    1    3    3    0    0 -0.93744137003E-01 -0.64607348730E-01  0.83694729310E-01  0.89127261848E+00  0.88000000000E+00 0.  1.
        -11    1    4    4    0    0  0.59421403932E-01  0.42260334365E-01 -0.47727928572E-01  0.87149614989E-01  0.51100000000E-03 0.  1.
         11    1    4    4    0    0  0.21427877999E-01  0.31843232421E-01 -0.21901252773E-01  0.44193567412E-01  0.51100000000E-03 0. -1.
</event>
<event>
 8    1  0.1208168E+005  0.1043930E+01  0.7957747E-01            NaN
         13   -1    0    0    0    0  0.00000000000E+00  0.00000000000E+00  0.74505805969E-08  0.10566000000E+00  0.10566000000E+00 0. -1.
     999900   -1    0    0    0    0 -0.00000000000E+00 -0.00000000000E+00 -0.74505805969E-08  0.93827000000E+00  0.93827000000E+00 0.  1.
     999902    2    1    2    0    0  0.26978705336E-02 -0.21457849080E-01  0.32686868023E-02  0.10220575949E+01  0.10218235294E+01 0.  0.
     999903    2    3    3    0    0 -0.16060875499E-01 -0.13170865044E-01 -0.12906900457E+00  0.13192623984E+00  0.17728547887E-01 0.  0.
         14    1    1    2    0    0 -0.26978705336E-02  0.21457849080E-01 -0.32686868023E-02  0.21872405126E-01  0.00000000000E+00 0. -1.
     999901    1    3    3    0    0  0.18758746033E-01 -0.82869840364E-02  0.13233769137E+00  0.89013135503E+00  0.88000000000E+00 0. -1.
        -11    1    4    4    0    0 -0.12661220576E-01  0.29561287783E-03 -0.46539306620E-01  0.48234449050E-01  0.51100000000E-03 0.  1.
         11    1    4    4    0    0 -0.33996549232E-02 -0.13466477922E-01 -0.82529697949E-01  0.83691790791E-01  0.51100000000E-03 0. -1.
</event>
<event>
 8    1  0.1208168E+005  0.1043930E+01  0.7957747E-01            NaN
         13   -1    0    0    0    0  0.00000000000E+00  0.00000000000E+00  0.74505805969E-08  0.10566000000E+00  0.10566000000E+00 0. -1.
     999900   -1    0    0    0    0 -0.00000000000E+00 -0.00000000000E+00 -0.74505805969E-08  0.93827000000E+00  0.93827000000E+00 0. -1.
     999902    2    1    2    0    0 -0.34964612569E-02 -0.19344569120E-01  0.12707623488E-01  0.10205222814E+01  0.10202537947E+01 0.  0.
     999903    2    3    3    0    0  0.96447667090E-01 -0.23541232461E-01  0.84583865555E-01  0.13194328381E+00  0.19956395379E-01 0.  0.
         14    1    1    2    0    0  0.34964612569E-02  0.19344569120E-01 -0.12707623488E-01  0.23407718609E-01  0.00000000000E+00 0. -1.
     999901    1    3    3    0    0 -0.99944128347E-01  0.41966633407E-02 -0.71876242067E-01  0.88857899758E+00  0.88000000000E+00 0. -1.
        -11    1    4    4    0    0  0.72453299168E-01 -0.26320714105E-01  0.63361442261E-01  0.99785740654E-01  0.51100000000E-03 0. -1.
         11    1    4    4    0    0  0.23994367922E-01  0.27794816438E-02  0.21222423293E-01  0.32157543153E-01  0.51100000000E-03 0.  1.
</event>
<event>
 7    1  0.1208168E+005  0.1043930E+01  0.7957747E-01            NaN
         13   -1    0    0    0    0  0.00000000000E+00  0.00000000000E+00  0.74505805969E-08  0.10566000000E+00  0.10566000000E+00 0.  1.
     999900   -1    0    0    0    0 -0.00000000000E+00 -0.00000000000E+00 -0.74505805969E-08  0.93827000000E+00  0.93827000000E+00 0. -1.
     999902    2    1    2    0    0  0.13913332231E-01  0.29134977147E-02  0.19391564606E-01  0.10198862470E+01  0.10196027926E+01 0.  0.
         14    1    1    2    0    0 -0.13913332231E-01 -0.29134977147E-02 -0.19391564606E-01  0.24043753047E-01  0.00000000000E+00 0. -1.
     999901    1    3    3    0    0 -0.66046219809E-01  0.28431986783E-01  0.98312964663E-01  0.88838950919E+00  0.88000000000E+00 0.  1.
        -11    1    3    3    0    0  0.57151175804E-01  0.13850872992E-01 -0.52782810301E-01  0.79021451282E-01  0.51100000000E-03 0.  1.
         11    1    3    3    0    0  0.22808376235E-01 -0.39369362061E-01 -0.26138589755E-01  0.52475286478E-01  0.51100000000E-03 0. -1.
</event>
<event>
 8    1  0.1208168E+005  0.1043930E+01  0.7957747E-01            NaN
         13   -1    0    0    0    0  0.00000000000E+00  0.00000000000E+00  0.74505805969E-08  0.10566000000E+00  0.10566000000E+00 0.  1.
     999900   -1    0    0    0    0 -0.00000000000E+00 -0.00000000000E+00 -0.74505805969E-08  0.93827000000E+00  0.93827000000E+00 0.  1.
     999902    2    1    2    0    0  0.19755514676E-01  0.12637281096E-01 -0.92403944083E-02  0.10187235301E+01  0.10184116382E+01 0.  0.
     999903    2    3    3    0    0  0.16754583835E-01 -0.72944825337E-01 -0.10381294649E+00  0.12952317582E+00  0.19936438823E-01 0.  0.
         14    1    1    2    0    0 -0.19755514676E-01 -0.12637281096E-01  0.92403944083E-02  0.25206469853E-01  0.00000000000E+00 0.  1.
     999901    1    3    3    0    0  0.30009308414E-02  0.85582106433E-01  0.94572552081E-01  0.88920035433E+00  0.88000000000E+00 0. -1.
        -11    1    4    4    0    0  0.53268552187E-02 -0.20743154840E-01 -0.46293124282E-01  0.51009492607E-01  0.51100000000E-03 0.  1.
         11    1    4    4    0    0  0.11427728616E-01 -0.52201670497E-01 -0.57519822207E-01  0.78513683214E-01  0.51100000000E-03 0. -1.
</event>
<event>
 8    1  0.1208168E+005  0.1043930E+01  0.7957747E-01            NaN
         13   -1    0    0    0    0  0.00000000000E+00  0.00000000000E+00  0.74505805969E-08  0.10566000000E+00  0.10566000000E+00 0. -1.
     999900   -1    0    0    0    0 -0.00000000000E+00 -0.00000000000E+00 -0.74505805969E-08  0.93827000000E+00  0.93827000000E+00 0. -1.
     999902    2    1    2    0    0 -0.38693892155E-02  0.20702370089E-01 -0.11223709839E-01  0.10200651312E+01  0.10197859285E+01 0.  0.
     999903    2    3    3    0    0 -0.55405222439E-01  0.43646983359E-01  0.10767663032E+00  0.13027881513E+00  0.20087685861E-01 0.  0.
         14    1    1    2    0    0  0.38693892155E-02 -0.20702370089E-01  0.11223709839E-01  0.23864868799E-01  0.00000000000E+00 0. -1.
     999901    1    3    3    0    0  0.51535833224E-01 -0.22944613270E-01 -0.11890034016E+00  0.88978631608E+00  0.88000000000E+00 0. -1.
        -11    1    4    4    0    0 -0.30474314826E-01  0.11497628135E-01  0.44956343075E-01  0.55517683854E-01  0.51100000000E-03 0. -1.
         11    1    4    4    0    0 -0.24930907613E-01  0.32149355224E-01  0.62720287247E-01  0.74761131272E-01  0.51100000000E-03 0.  1.
</event>
<event>
 8    1  0.1208168E+005  0.1043930E+01  0.7957747E-01            NaN
         13   -1    0    0    0    0  0.00000000000E+00  0.00000000000E+00  0.74505805969E-08  0.10566000000E+00  0.10566000000E+00 0.  1.
     999900   -1    0    0    0    0 -0.00000000000E+00 -0.00000000000E+00 -0.74505805969E-08  0.93827000000E+00  0.93827000000E+00 0. -1.
     999902    2    1    2    0    0  0.35047960695E-02  0.18677533934E-01 -0.14854077973E-01  0.10198099357E+01  0.10195246576E+01 0.  0.
     999903    2    3    3    0    0 -0.97752454361E-01 -0.76003689761E-01  0.25511448747E-01  0.12804374402E+00  0.20304264908E-01 0.  0.
         14    1    1    2    0    0 -0.35047960695E-02 -0.18677533934E-01  0.14854077973E-01  0.24120064299E-01  0.00000000000E+00 0.  1.
     999901    1    3    3    0    0  0.10125725043E+00  0.94681223696E-01 -0.40365526720E-01  0.89176619169E+00  0.88000000000E+00 0. -1.
        -11    1    4    4    0    0 -0.50939268937E-01 -0.46996987791E-01  0.58113410708E-02  0.69552561328E-01  0.51100000000E-03 0. -1.
         11    1    4    4    0    0 -0.46813185424E-01 -0.29006701970E-01  0.19700107676E-01  0.58491182688E-01  0.51100000000E-03 0.  1.
</event>
<event>
 8    1  0.1208168E+005  0.1043930E+01  0.7957747E-01            NaN
         13   -1    0    0    0    0  0.00000000000E+00  0.00000000000E+00  0.74505805969E-08  0.10566000000E+00  0.10566000000E+00 0. -1.
     999900   -1    0    0    0    0 -0.00000000000E+00 -0.00000000000E+00 -0.74505805969E-08  0.93827000000E+00  0.93827000000E+00 0. -1.
     999902    2    1    2    0    0 -0.14329330015E-01 -0.16199581727E-01 -0.16375069669E-01  0.10168025406E+01  0.10164406070E+01 0.  0.
     999903    2    3    3    0    0  0.11727605565E+00  0.31817056976E-01 -0.24962518803E-01  0.12568003532E+00  0.20158015546E-01 0.  0.
         14    1    1    2    0    0  0.14329330015E-01  0.16199581727E-01  0.16375069669E-01  0.27127459399E-01  0.00000000000E+00 0. -1.
     999901    1    3    3    0    0 -0.13160538566E+00 -0.48016638703E-01  0.85874491345E-02  0.89112250528E+00  0.88000000000E+00 0. -1.
        -11    1    4    4    0    0  0.78262367543E-01  0.26958576994E-01 -0.90742868848E-02  0.83272845817E-01  0.51100000000E-03 0.  1.
         11    1    4    4    0    0  0.39013688106E-01  0.48584799820E-02 -0.15888231919E-01  0.42407189507E-01  0.51100000000E-03 0. -1.
</event>
<event>
 8    1  0.1208168E+005  0.1043930E+01  0.7957747E-01            NaN
         13   -1    0    0    0    0  0.00000000000E+00  0.00000000000E+00  0.74505805969E-08  0.10566000000E+00  0.10566000000E+00 0. -1.
     999900   -1    0    0    0    0 -0.00000000000E+00 -0.00000000000E+00 -0.74505805969E-08  0.93827000000E+00  0.93827000000E+00 0. -1.
     999902    2    1    2    0    0  0.19371415034E-01  0.36419513599E-02 -0.12844618240E-01  0.10204034246E+01  0.10201321725E+01 0.  0.
     999903    2    3    3    0    0 -0.55054678455E-01  0.10315966414E+00  0.51102411393E-01  0.12937467026E+00  0.21293541943E-01 0.  0.
         14    1    1    2    0    0 -0.19371415034E-01 -0.36419513599E-02  0.12844618240E-01  0.23526575353E-01  0.00000000000E+00 0.  1.
     999901    1    3    3    0    0  0.74426093490E-01 -0.99517712781E-01 -0.63947029633E-01  0.89102875439E+00  0.88000000000E+00 0. -1.
        -11    1    4    4    0    0 -0.29993756678E-02  0.19732095961E-01  0.13462637451E-01  0.24080190895E-01  0.51100000000E-03 0.  1.
         11    1    4    4    0    0 -0.52055302788E-01  0.83427568180E-01  0.37639773943E-01  0.10529447936E+00  0.51100000000E-03 0. -1.
</event>
<event>
 8    1  0.1208168E+005  0.1043930E+01  0.7957747E-01            NaN
         13   -1    0    0    0    0  0.00000000000E+00  0.00000000000E+00  0.74505805969E-08  0.10566000000E+00  0.10566000000E+00 0.  1.
     999900   -1    0    0    0    0 -0.00000000000E+00 -0.00000000000E+00 -0.74505805969E-08  0.93827000000E+00  0.93827000000E+00 0.  1.
     999902    2    1    2    0    0  0.12765587169E-01 -0.15212899628E-01  0.11558603184E-01  0.10209518835E+01  0.10206932715E+01 0.  0.
     999903    2    3    3    0    0 -0.58919338584E-01 -0.11463103235E+00  0.23299613013E-01  0.13237968889E+00  0.19228833256E-01 0.  0.
         14    1    1    2    0    0 -0.12765587169E-01  0.15212899628E-01 -0.11558603184E-01  0.22978116512E-01  0.00000000000E+00 0. -1.
     999901    1    3    3    0    0  0.71684925753E-01  0.99418132722E-01 -0.11741009829E-01  0.88857219459E+00  0.88000000000E+00 0. -1.
        -11    1    4    4    0    0 -0.24084583934E-01 -0.64118682088E-01  0.17815282865E-01  0.70773709811E-01  0.51100000000E-03 0. -1.
         11    1    4    4    0    0 -0.34834754650E-01 -0.50512350263E-01  0.54843301474E-02  0.61605979083E-01  0.51100000000E-03 0.  1.
</event>
<event>
 8    1  0.1208168E+005  0.1043930E+01  0.7957747E-01            NaN
         13   -1    0    0    0    0  0.00000000000E+00  0.00000000000E+00  0.74505805969E-08  0.10566000000E+00  0.10566000000E+00 0. -1.
     999900   -1    0    0    0    0 -0.00000000000E+00 -0.00000000000E+00 -0.74505805969E-08  0.93827000000E+00  0.93827000000E+00 0.  1.
     999902    2    1    2    0    0  0.18141722849E-01 -0.14364158400E-01  0.57522831018E-02  0.10200859249E+01  0.10198072143E+01 0.  0.
     999903    2    3    3    0    0 -0.48395697121E-01 -0.79556322897E-01 -0.85395768240E-01  0.13048758084E+00  0.32607046893E-01 0.  0.
         14    1    1    2    0    0 -0.18141722849E-01  0.14364158400E-01 -0.57522831018E-02  0.23844075058E-01  0.00000000000E+00 0.  1.
     999901    1    3    3    0    0  0.66537419970E-01  0.65192164497E-01  0.91148051342E-01  0.88959834410E+00  0.88000000000E+00 0.  1.
        -11    1    4    4    0    0 -0.17932563215E-01 -0.43764468976E-01 -0.62004655191E-01  0.77985536830E-01  0.51100000000E-03 0.  1.
         11    1    4    4    0    0 -0.30463133906E-01 -0.35791853921E-01 -0.23391113049E-01  0.52502044009E-01  0.51100000000E-03 0. -1.
</event>
<event>
 8    1  0.1208168E+005  0.1043930E+01  0.7957747E-01            NaN
         13   -1    0    0    0    0  0.00000000000E+00  0.00000000000E+00  0.74505805969E-08  0.10566000000E+00  0.10566000000E+00 0.  1.
     999900   -1    0    0    0    0 -0.00000000000E+00 -0.00000000000E+00 -0.74505805969E-08  0.93827000000E+00  0.93827000000E+00 0.  1.
     999902    2    1    2    0    0  0.14118407917E-02 -0.23813008612E-01  0.22088866489E-02  0.10199731251E+01  0.10196917398E+01 0.  0.
     999903    2    3    3    0    0  0.17231188420E-01  0.12046336633E+00 -0.32064333489E-01  0.12742588394E+00  0.20022435755E-01 0.  0.
         14    1    1    2    0    0 -0.14118407917E-02  0.23813008612E-01 -0.22088866489E-02  0.23956874876E-01  0.00000000000E+00 0.  1.
     999901    1    3    3    0    0 -0.15819347628E-01 -0.14427637494E+00  0.34273220138E-01  0.89254724118E+00  0.88000000000E+00 0. -1.
        -11    1    4    4    0    0  0.36314727832E-02  0.84644203969E-01 -0.26059559300E-01  0.88640795417E-01  0.51100000000E-03 0. -1.
         11    1    4    4    0    0  0.13599715636E-01  0.35819162363E-01 -0.60047741892E-02  0.38785088524E-01  0.51100000000E-03 0.  1.
</event>
<event>
 8    1  0.1208168E+005  0.1043930E+01  0.7957747E-01            NaN
         13   -1    0    0    0    0  0.00000000000E+00  0.00000000000E+00  0.74505805969E-08  0.10566000000E+00  0.10566000000E+00 0.  1.
     999900   -1    0    0    0    0 -0.00000000000E+00 -0.00000000000E+00 -0.74505805969E-08  0.93827000000E+00  0.93827000000E+00 0. -1.
     999902    2    1    2    0    0 -0.40300093230E-02  0.23278525339E-01 -0.10546234819E-01  0.10180581275E+01  0.10177293340E+01 0.  0.
     999903    2    3    3    0    0 -0.12563110041E+00  0.11066279070E-01  0.19437819862E-01  0.12910649337E+00  0.19621974096E-01 0.  0.
         14    1    1    2    0    0  0.40300093230E-02 -0.23278525339E-01  0.10546234819E-01  0.25871872487E-01  0.00000000000E+00 0. -1.
     999901    1    3    3    0    0  0.12160109108E+00  0.12212246269E-01 -0.29984054682E-01  0.88895163414E+00  0.88000000000E+00 0. -1.
        -11    1    4    4    0    0 -0.82010039060E-01  0.15835218153E-01  0.90944391124E-02  0.84020060607E-01  0.51100000000E-03 0. -1.
         11    1    4    4    0    0 -0.43621061346E-01 -0.47689390825E-02  0.10343380750E-01  0.45086432763E-01  0.51100000000E-03 0.  1.
</event>
<event>
 8    1  0.1208168E+005  0.1043930E+01  0.7957747E-01            NaN
         13   -1    0    0    0    0  0.00000000000E+00  0.00000000000E+00  0.74505805969E-08  0.10566000000E+00  0.10566000000E+00 0.  1.
     999900   -1    0    0    0    0 -0.00000000000E+00 -0.00000000000E+00 -0.74505805969E-08  0.93827000000E+00  0.93827000000E+00 0. -1.
     999902    2    1    2    0    0 -0.10443869241E-02 -0.16094638667E-01 -0.18334348866E-01  0.10195112268E+01  0.10192187523E+01 0.  0.
     999903    2    3    3    0    0 -0.29910663923E-01  0.75313384113E-01 -0.10037588572E+00  0.13051206909E+00  0.19782014573E-01 0.  0.
         14    1    1    2    0    0  0.10443869241E-02  0.16094638667E-01  0.18334348866E-01  0.24418773234E-01  0.00000000000E+00 0. -1.
     999901    1    3    3    0    0  0.28866276999E-01 -0.91408022781E-01  0.82041536859E-01  0.88899915767E+00  0.88000000000E+00 0. -1.
        -11    1    4    4    0    0 -0.24382041514E-01  0.34697420246E-01 -0.49987817360E-01  0.65554846697E-01  0.51100000000E-03 0.  1.
         11    1    4    4    0    0 -0.55286224097E-02  0.40615963867E-01 -0.50388068365E-01  0.64957222394E-01  0.51100000000E-03 0. -1.
</event>
<event>
 8    1  0.1208168E+005  0.1043930E+01  0.7957747E-01            NaN
         13   -1    0    0    0    0  0.00000000000E+00  0.00000000000E+00  0.74505805969E-08  0.10566000000E+00  0.10566000000E+00 0.  1.
     999900   -1    0    0    0    0 -0.00000000000E+00 -0.00000000000E+00 -0.74505805969E-08  0.93827000000E+00  0.93827000000E+00 0.  1.
     999902    2    1    2    0    0  0.68126910293E-02 -0.21177677241E-01 -0.34816800901E-02  0.10214126985E+01  0.10211644685E+01 0.  0.
     999903    2    3    3    0    0  0.48676088546E-03 -0.13262477030E+00 -0.76024246403E-02  0.13435156614E+00  0.20074357533E-01 0.  0.
         14    1    1    2    0    0 -0.68126910293E-02  0.21177677241E-01  0.34816800901E-02  0.22517301540E-01  0.00000000000E+00 0.  1.
     999901    1    3    3    0    0  0.63259301438E-02  0.11144709306E+00  0.41207445503E-02  0.88706113232E+00  0.88000000000E+00 0. -1.
        -11    1    4    4    0    0  0.10202233780E-01 -0.71693828902E-01 -0.51272314020E-02  0.72599175612E-01  0.51100000000E-03 0. -1.
         11    1    4    4    0    0 -0.97154728948E-02 -0.60930941395E-01 -0.24751932383E-02  0.61752390524E-01  0.51100000000E-03 0.  1.
</event>
<event>
 8    1  0.1208168E+005  0.1043930E+01  0.7957747E-01            NaN
         13   -1    0    0    0    0  0.00000000000E+00  0.00000000000E+00  0.74505805969E-08  0.10566000000E+00  0.10566000000E+00 0. -1.
     999900   -1    0    0    0    0 -0.00000000000E+00 -0.00000000000E+00 -0.74505805969E-08  0.93827000000E+00  0.93827000000E+00 0. -1.
     999902    2    1    2    0    0  0.23838730750E-01 -0.12462039462E-02  0.21598176026E-02  0.10199612095E+01  0.10196795408E+01 0.  0.
     999903    2    3    3    0    0 -0.41911522335E-01  0.11717270466E+00 -0.28021593031E-01  0.12908689102E+00  0.19803972734E-01 0.  0.
         14    1    1    2    0    0 -0.23838730750E-01  0.12462039462E-02 -0.21598176026E-02  0.23968790544E-01  0.00000000000E+00 0.  1.
     999901    1    3    3    0    0  0.65750253085E-01 -0.11841890861E+00  0.30181410634E-01  0.89087431843E+00  0.88000000000E+00 0.  1.
        -11    1    4    4    0    0 -0.16273646476E-01  0.72810539748E-01 -0.19798740248E-01  0.77191045494E-01  0.51100000000E-03 0. -1.
         11    1    4    4    0    0 -0.25637875859E-01  0.44362164912E-01 -0.82228527831E-02  0.51895845529E-01  0.51100000000E-03 0.  1.
</event>
<event>
 8    1  0.1208168E+005  0.1043930E+01  0.7957747E-01            NaN
         13   -1    0    0    0    0  0.00000000000E+00  0.00000000000E+00  0.74505805969E-08  0.10566000000E+00  0.10566000000E+00 0.  1.
     999900   -1    0    0    0    0 -0.00000000000E+00 -0.00000000000E+00 -0.74505805969E-08  0.93827000000E+00  0.93827000000E+00 0.  1.
     999902    2    1    2    0    0  0.10601278685E-01  0.18937555610E-01 -0.79063209450E-02  0.10208317742E+01  0.10205704205E+01 0.  0.
     999903    2    3    3    0    0 -0.11360988306E+00  0.94209607403E-02  0.57937788236E-01  0.12962224501E+00  0.21193845000E-01 0.  0.
         14    1    1    2    0    0 -0.10601278685E-01 -0.18937555610E-01  0.79063209450E-02  0.23098225757E-01  0.00000000000E+00 0.  1.
     999901    1    3    3    0    0  0.12421116175E+00  0.95165948693E-02 -0.65844109181E-01  0.89120952923E+00  0.88000000000E+00 0.  1.
        -11    1    4    4    0    0 -0.60292068908E-01  0.64544990857E-02  0.19049414430E-01  0.63560486490E-01  0.51100000000E-03 0. -1.
         11    1    4    4    0    0 -0.53317814152E-01  0.29664616546E-02  0.38888373806E-01  0.66061758522E-01  0.51100000000E-03 0.  1.
</event>
<event>
 8    1  0.1208168E+005  0.1043930E+01  0.7957747E-01            NaN
         13   -1    0    0    0    0  0.00000000000E+00  0.00000000000E+00  0.74505805969E-08  0.10566000000E+00  0.10566000000E+00 0. -1.
     999900   -1    0    0    0    0 -0.00000000000E+00 -0.00000000000E+00 -0.74505805969E-08  0.93827000000E+00  0.93827000000E+00 0. -1.
     999902    2    1    2    0    0 -0.60377101130E-02 -0.71146147973E-02  0.20584212725E-01  0.10213295243E+01  0.10210794366E+01 0.  0.
     999903    2    3    3    0    0 -0.11079256576E-01 -0.16904314202E-01 -0.12601204376E+00  0.12913463652E+00  0.19703132038E-01 0.  0.
         14    1    1    2    0    0  0.60377101130E-02  0.71146147973E-02 -0.20584212725E-01  0.22600475673E-01  0.00000000000E+00 0.  1.
     999901    1    3    3    0    0  0.50415464632E-02  0.97896994043E-02  0.14659625649E+00  0.89219488780E+00  0.88000000000E+00 0.  1.
        -11    1    4    4    0    0 -0.69902855243E-02  0.19226560713E-02 -0.17917417943E-01  0.19335348065E-01  0.51100000000E-03 0.  1.
         11    1    4    4    0    0 -0.40889710519E-02 -0.18826970273E-01 -0.10809462582E+00  0.10979928846E+00  0.51100000000E-03 0. -1.
</event>
<event>
 8    1  0.1208168E+005  0.1043930E+01  0.7957747E-01            NaN
         13   -1    0    0    0    0  0.00000000000E+00  0.00000000000E+00  0.74505805969E-08  0.10566000000E+00  0.10566000000E+00 0.  1.
     999900   -1    0    0    0    0 -0.00000000000E+00 -0.00000000000E+00 -0.74505805969E-08  0.93827000000E+00  0.93827000000E+00 0.  1.
     999902    2    1    2    0    0  0.22357872706E-01 -0.13749792661E-02  0.91968548391E-02  0.10197153933E+01  0.10194278474E+01 0.  0.
     999903    2    3    3    0    0  0.11216781679E+00 -0.16028373726E-01  0.66354618702E-01  0.13317855930E+00  0.22250063966E-01 0.  0.
         14    1    1    2    0    0 -0.22357872706E-01  0.13749792661E-02 -0.91968548391E-02  0.24214606726E-01  0.00000000000E+00 0. -1.
     999901    1    3    3    0    0 -0.89809944082E-01  0.14653394460E-01 -0.57157763863E-01  0.88653683398E+00  0.88000000000E+00 0.  1.
        -11    1    4    4    0    0  0.75161098565E-01 -0.15655010385E-01  0.33800365275E-01  0.83886804096E-01  0.51100000000E-03 0.  1.
         11    1    4    4    0    0  0.37006718224E-01 -0.37336334109E-03  0.32554253427E-01  0.49291755203E-01  0.51100000000E-03 0. -1.
</event>
<event>
 8    1  0.1208168E+005  0.1043930E+01  0.7957747E-01            NaN
         13   -1    0    0    0    0  0.00000000000E+00  0.00000000000E+00  0.74505805969E-08  0.10566000000E+00  0.10566000000E+00 0.  1.
     999900   -1    0    0    0    0 -0.00000000000E+00 -0.00000000000E+00 -0.74505805969E-08  0.93827000000E+00  0.93827000000E+00 0. -1.
     999902    2    1    2    0    0  0.54706699767E-02  0.16781297413E-01 -0.10738201708E-01  0.10232696721E+01  0.10230610797E+01 0.  0.
     999903    2    3    3    0    0  0.64778543459E-01  0.85661148592E-01  0.78858562858E-01  0.13406247579E+00  0.14831803939E-01 0.  0.
         14    1    1    2    0    0 -0.54706699767E-02 -0.16781297413E-01  0.10738201708E-01  0.20660327896E-01  0.00000000000E+00 0.  1.
     999901    1    3    3    0    0 -0.59307873482E-01 -0.68879851180E-01 -0.89596764566E-01  0.88920719631E+00  0.88000000000E+00 0. -1.
        -11    1    4    4    0    0  0.28323482008E-01  0.46716123155E-01  0.33898754407E-01  0.64296208808E-01  0.51100000000E-03 0.  1.
         11    1    4    4    0    0  0.36455061451E-01  0.38945025438E-01  0.44959808451E-01  0.69766266983E-01  0.51100000000E-03 0. -1.
</event>
<event>
 8    1  0.1208168E+005  0.1043930E+01  0.7957747E-01            NaN
         13   -1    0    0    0    0  0.00000000000E+00  0.00000000000E+00  0.74505805969E-08  0.10566000000E+00  0.10566000000E+00 0. -1.
     999900   -1    0    0    0    0 -0.00000000000E+00 -0.00000000000E+00 -0.74505805969E-08  0.93827000000E+00  0.93827000000E+00 0. -1.
     999902    2    1    2    0    0 -0.15866088285E-01 -0.12578596890E-01  0.11907810455E-01  0.10204406448E+01  0.10201702602E+01 0.  0.
     999903    2    3    3    0    0 -0.78783978019E-01  0.19724490450E-01  0.10313993192E+00  0.13290165959E+00  0.20713156454E-01 0.  0.
         14    1    1    2    0    0  0.15866088285E-01  0.12578596890E-01 -0.11907810455E-01  0.23489355185E-01  0.00000000000E+00 0.  1.
     999901    1    3    3    0    0  0.62917889733E-01 -0.32303087340E-01 -0.91232121466E-01  0.88753898522E+00  0.88000000000E+00 0. -1.
        -11    1    4    4    0    0 -0.24007054852E-01  0.10939061013E-02  0.18305570788E-01  0.30214075463E-01  0.51100000000E-03 0. -1.
         11    1    4    4    0    0 -0.54776923167E-01  0.18630584349E-01  0.84834361133E-01  0.10268758413E+00  0.51100000000E-03 0.  1.
</event>
<event>
 8    1  0.1208168E+005  0.1043930E+01  0.7957747E-01            NaN
         13   -1    0    0    0    0  0.00000000000E+00  0.00000000000E+00  0.74505805969E-08  0.10566000000E+00  0.10566000000E+00 0. -1.
     999900   -1    0    0    0    0 -0.00000000000E+00 -0.00000000000E+00 -0.74505805969E-08  0.93827000000E+00  0.93827000000E+00 0. -1.
     999902    2    1    2    0    0 -0.65058116891E-02  0.16774904522E-01 -0.15599831923E-01  0.10201166054E+01  0.10198386200E+01 0.  0.
     999903    2    3    3    0    0  0.49797922818E-01 -0.11573543141E+00  0.10999459166E-01  0.12801984945E+00  0.19838612598E-01 0.  0.
         14    1    1    2    0    0  0.65058116891E-02 -0.16774904522E-01  0.15599831923E-01  0.23813394624E-01  0.00000000000E+00 0. -1.
     999901    1    3    3    0    0 -0.56303734507E-01  0.13251033594E+00 -0.26599291089E-01  0.89209675593E+00  0.88000000000E+00 0.  1.
        -11    1    4    4    0    0  0.46793036789E-02 -0.16906964987E-01 -0.48992502052E-02  0.18221007699E-01  0.51100000000E-03 0.  1.
         11    1    4    4    0    0  0.45118619139E-01 -0.98828466426E-01  0.15898709371E-01  0.10979884175E+00  0.51100000000E-03 0. -1.
</event>
<event>
 8    1  0.1208168E+005  0.1043930E+01  0.7957747E-01            NaN
         13   -1    0    0    0    0  0.00000000000E+00  0.00000000000E+00  0.74505805969E-08  0.10566000000E+00  0.10566000000E+00 0.  1.
     999900   -1    0    0    0    0 -0.00000000000E+00 -0.00000000000E+00 -0.74505805969E-08  0.93827000000E+00  0.93827000000E+00 0. -1.
     999902    2    1    2    0    0  0.31242843154E-02  0.21038572055E-01  0.89074080621E-02  0.10208708460E+01  0.10206103858E+01 0.  0.
     999903    2    3    3    0    0  0.94595144117E-01  0.91415584640E-01  0.31880950557E-02  0.13331659261E+00  0.21403259347E-01 0.  0.
         14    1    1    2    0    0 -0.31242843154E-02 -0.21038572055E-01 -0.89074080621E-02  0.23059154038E-01  0.00000000000E+00 0.  1.
     999901    1    3    3    0    0 -0.91470859802E-01 -0.70377012585E-01  0.57193130063E-02  0.88755425335E+00  0.88000000000E+00 0.  1.
        -11    1    4    4    0    0  0.93023610512E-01  0.83443399242E-01  0.13647585452E-02  0.12497326385E+00  0.51100000000E-03 0.  1.
         11    1    4    4    0    0  0.15715336051E-02  0.79721853972E-02  0.18233365106E-02  0.83433287668E-02  0.51100000000E-03 0. -1.
</event>
<event>
 8    1  0.1208168E+005  0.1043930E+01  0.7957747E-01            NaN
         13   -1    0    0    0    0  0.00000000000E+00  0.00000000000E+00  0.74505805969E-08  0.10566000000E+00  0.10566000000E+00 0.  1.
     999900   -1    0    0    0    0 -0.00000000000E+00 -0.00000000000E+00 -0.74505805969E-08  0.93827000000E+00  0.93827000000E+00 0.  1.
     999902    2    1    2    0    0  0.19568748306E-01  0.14361868042E-01 -0.41569355588E-02  0.10193032000E+01  0.10190056596E+01 0.  0.
     999903    2    3    3    0    0 -0.36809773950E-01  0.48359291893E-01 -0.11331531900E+00  0.13011822755E+00  0.19920116715E-01 0.  0.
         14    1    1    2    0    0 -0.19568748306E-01 -0.14361868042E-01  0.41569355588E-02  0.24626799978E-01  0.00000000000E+00 0. -1.
     999901    1    3    3    0    0  0.56378522257E-01 -0.33997423852E-01  0.10915838344E+00  0.88918497247E+00  0.88000000000E+00 0. -1.
        -11    1    4    4    0    0 -0.33086387425E-01  0.28404514574E-01 -0.75117726672E-01  0.86858847923E-01  0.51100000000E-03 0. -1.
         11    1    4    4    0    0 -0.37233865246E-02  0.19954777320E-01 -0.38197592324E-01  0.43259379624E-01  0.51100000000E-03 0.  1.
</event>
<event>
 8    1  0.1208168E+005  0.1043930E+01  0.7957747E-01            NaN
         13   -1    0    0    0    0  0.00000000000E+00  0.00000000000E+00  0.74505805969E-08  0.10566000000E+00  0.10566000000E+00 0.  1.
     999900   -1    0    0    0    0 -0.00000000000E+00 -0.00000000000E+00 -0.74505805969E-08  0.93827000000E+00  0.93827000000E+00 0.  1.
     999902    2    1    2    0    0 -0.89303742868E-02  0.43767121964E-02  0.21833229739E-01  0.10199383949E+01  0.10196561834E+01 0.  0.
     999903    2    3    3    0    0 -0.82241520177E-01 -0.23559983678E-02 -0.97032462600E-01  0.12890028891E+00  0.20754934688E-01 0.  0.
         14    1    1    2    0    0  0.89303742868E-02 -0.43767121964E-02 -0.21833229739E-01  0.23991605103E-01  0.00000000000E+00 0. -1.
     999901    1    3    3    0    0  0.73311145891E-01  0.67327105642E-02  0.11886569234E+00  0.89103810599E+00  0.88000000000E+00 0. -1.
        -11    1    4    4    0    0 -0.21374239838E-01  0.66593194331E-02 -0.34805839605E-01  0.41387344147E-01  0.51100000000E-03 0. -1.
         11    1    4    4    0    0 -0.60867280340E-01 -0.90153178009E-02 -0.62226622995E-01  0.87512944765E-01  0.51100000000E-03 0.  1.
</event>
<event>
 8    1  0.1208168E+005  0.1043930E+01  0.7957747E-01            NaN
         13   -1    0    0    0    0  0.00000000000E+00  0.00000000000E+00  0.74505805969E-08  0.10566000000E+00  0.10566000000E+00 0.  1.
     999900   -1    0    0    0    0 -0.00000000000E+00 -0.00000000000E+00 -0.74505805969E-08  0.93827000000E+00  0.93827000000E+00 0.  1.
     999902    2    1    2    0    0  0.16092017197E-01  0.61220842476E-02  0.16095436972E-01  0.10203610368E+01  0.10200887949E+01 0.  0.
     999903    2    3    3    0    0  0.42297137622E-02  0.90315329271E-01  0.95383844047E-01  0.13271478509E+00  0.18449587983E-01 0.  0.
         14    1    1    2    0    0 -0.16092017197E-01 -0.61220842476E-02 -0.16095436972E-01  0.23568963158E-01  0.00000000000E+00 0. -1.
     999901    1    3    3    0    0  0.11862303435E-01 -0.84193245024E-01 -0.79288407074E-01  0.88764625175E+00  0.88000000000E+00 0.  1.
        -11    1    4    4    0    0  0.36470170999E-03  0.30184192841E-01  0.44890689644E-01  0.54098554903E-01  0.51100000000E-03 0.  1.
         11    1    4    4    0    0  0.38650120522E-02  0.60131136430E-01  0.50493154403E-01  0.78616230188E-01  0.51100000000E-03 0. -1.
</event>
<event>
 8    1  0.1208168E+005  0.1043930E+01  0.7957747E-01            NaN
         13   -1    0    0    0    0  0.00000000000E+00  0.00000000000E+00  0.74505805969E-08  0.10566000000E+00  0.10566000000E+00 0. -1.
     999900   -1    0    0    0    0 -0.00000000000E+00 -0.00000000000E+00 -0.74505805969E-08  0.93827000000E+00  0.93827000000E+00 0.  1.
     999902    2    1    2    0    0 -0.19198696360E-01 -0.67324024641E-02 -0.10824930267E-01  0.10208845167E+01  0.10206243688E+01 0.  0.
     999903    2    3    3    0    0 -0.46488640145E-01  0.12092694699E+00 -0.33645357388E-02  0.13122317214E+00  0.20583503955E-01 0.  0.
         14    1    1    2    0    0  0.19198696360E-01  0.67324024641E-02  0.10824930267E-01  0.23045483292E-01  0.00000000000E+00 0. -1.
     999901    1    3    3    0    0  0.27289943784E-01 -0.12765934945E+00 -0.74603945278E-02  0.88966134457E+00  0.88000000000E+00 0. -1.
        -11    1    4    4    0    0 -0.30899336254E-01  0.60355161192E-01 -0.90917143186E-02  0.68413703698E-01  0.51100000000E-03 0. -1.
         11    1    4    4    0    0 -0.15589303891E-01  0.60571785796E-01  0.57271785798E-02  0.62809468441E-01  0.51100000000E-03 0.  1.
</event>
<event>
 8    1  0.1208168E+005  0.1043930E+01  0.7957747E-01            NaN
         13   -1    0    0    0    0  0.00000000000E+00  0.00000000000E+00  0.74505805969E-08  0.10566000000E+00  0.10566000000E+00 0. -1.
     999900   -1    0    0    0    0 -0.00000000000E+00 -0.00000000000E+00 -0.74505805969E-08  0.93827000000E+00  0.93827000000E+00 0. -1.
     999902    2    1    2    0    0  0.18590561651E-02  0.66390343096E-02 -0.23018882498E-01  0.10199008132E+01  0.10196177063E+01 0.  0.
     999903    2    3    3    0    0  0.38843359560E-02  0.74409636538E-01 -0.10862602848E+00  0.13315082605E+00  0.19433124797E-01 0.  0.
         14    1    1    2    0    0 -0.18590561651E-02 -0.66390343096E-02  0.23018882498E-01  0.24029186791E-01  0.00000000000E+00 0. -1.
     999901    1    3    3    0    0 -0.20252797909E-02 -0.67770602228E-01  0.85607145980E-01  0.88674998716E+00  0.88000000000E+00 0.  1.
        -11    1    4    4    0    0  0.96886288272E-02  0.49991901799E-01 -0.82246571780E-01  0.96735823068E-01  0.51100000000E-03 0. -1.
         11    1    4    4    0    0 -0.58042928712E-02  0.24417734739E-01 -0.26379456697E-01  0.36415002981E-01  0.51100000000E-03 0.  1.
</event>
<event>
 8    1  0.1208168E+005  0.1043930E+01  0.7957747E-01            NaN
         13   -1    0    0    0    0  0.00000000000E+00  0.00000000000E+00  0.74505805969E-08  0.10566000000E+00  0.10566000000E+00 0.  1.
     999900   -1    0    0    0    0 -0.00000000000E+00 -0.00000000000E+00 -0.74505805969E-08  0.93827000000E+00  0.93827000000E+00 0.  1.
     999902    2    1    2    0    0  0.44525438131E-02 -0.23134955503E-01  0.18238828043E-02  0.10202999797E+01  0.10200263088E+01 0.  0.
     999903    2    3    3    0    0 -0.12021150997E+00 -0.20553813889E-01  0.42261919673E-01  0.13059046335E+00  0.19862851477E-01 0.  0.
         14    1    1    2    0    0 -0.44525438131E-02  0.23134955503E-01 -0.18238828043E-02  0.23630020334E-01  0.00000000000E+00 0.  1.
     999901    1    3    3    0    0  0.12466405378E+00 -0.25811416137E-02 -0.40438036869E-01  0.88970951632E+00  0.88000000000E+00 0.  1.
        -11    1    4    4    0    0 -0.36621619154E-01 -0.15339906305E-01  0.16072511429E-01  0.42837395574E-01  0.51100000000E-03 0.  1.
         11    1    4    4    0    0 -0.83589890816E-01 -0.52139075842E-02  0.26189408244E-01  0.87753067776E-01  0.51100000000E-03 0. -1.
</event>
<event>
 8    1  0.1208168E+005  0.1043930E+01  0.7957747E-01            NaN
         13   -1    0    0    0    0  0.00000000000E+00  0.00000000000E+00  0.74505805969E-08  0.10566000000E+00  0.10566000000E+00 0. -1.
     999900   -1    0    0    0    0 -0.00000000000E+00 -0.00000000000E+00 -0.74505805969E-08  0.93827000000E+00  0.93827000000E+00 0.  1.
     999902    2    1    2    0    0  0.23613438504E-01 -0.37545757569E-02  0.21269014664E-02  0.10199255207E+01  0.10196430026E+01 0.  0.
     999903    2    3    3    0    0  0.14570519798E-02  0.11952947311E+00  0.46822009235E-01  0.12993253486E+00  0.20018619412E-01 0.  0.
         14    1    1    2    0    0 -0.23613438504E-01  0.37545757569E-02 -0.21269014664E-02  0.24004479310E-01  0.00000000000E+00 0.  1.
     999901    1    3    3    0    0  0.22156386524E-01 -0.12328404887E+00 -0.44695107769E-01  0.88999298583E+00  0.88000000000E+00 0.  1.
        -11    1    4    4    0    0 -0.39448022722E-02  0.15068020846E-01  0.12059073783E-01  0.19705052618E-01  0.51100000000E-03 0.  1.
         11    1    4    4    0    0  0.54018542520E-02  0.10446145227E+00  0.34762935452E-01  0.11022748224E+00  0.51100000000E-03 0. -1.
</event>
<event>
 8    1  0.1208168E+005  0.1043930E+01  0.7957747E-01            NaN
         13   -1    0    0    0    0  0.00000000000E+00  0.00000000000E+00  0.74505805969E-08  0.10566000000E+00  0.10566000000E+00 0.  1.
     999900   -1    0    0    0    0 -0.00000000000E+00 -0.00000000000E+00 -0.74505805969E-08  0.93827000000E+00  0.93827000000E+00 0.  1.
     999902    2    1    2    0    0 -0.14479622323E-01 -0.18358815753E-01 -0.37794477634E-02  0.10202447767E+01  0.10199698106E+01 0.  0.
     999903    2    3    3    0    0  0.10873730048E-01 -0.49338491649E-01 -0.11967376515E+00  0.13174377747E+00  0.21956504087E-01 0.  0.
         14    1    1    2    0    0  0.14479622323E-01  0.18358815753E-01  0.37794477634E-02  0.23685223323E-01  0.00000000000E+00 0.  1.
     999901    1    3    3    0    0 -0.25353352371E-01  0.30979675896E-01  0.11589431739E+00  0.88850099921E+00  0.88000000000E+00 0. -1.
        -11    1    4    4    0    0  0.79205701721E-02 -0.38768289829E-02 -0.28212610424E-01  0.29563114564E-01  0.51100000000E-03 0.  1.
         11    1    4    4    0    0  0.29531598759E-02 -0.45461662666E-01 -0.91461154730E-01  0.10218066290E+00  0.51100000000E-03 0. -1.
</event>
<event>
 8    1  0.1208168E+005  0.1043930E+01  0.7957747E-01            NaN
         13   -1    0    0    0    0  0.00000000000E+00  0.00000000000E+00  0.74505805969E-08  0.10566000000E+00  0.10566000000E+00 0.  1.
     999900   -1    0    0    0    0 -0.00000000000E+00 -0.00000000000E+00 -0.74505805969E-08  0.93827000000E+00  0.93827000000E+00 0. -1.
     999902    2    1    2    0    0 -0.16895566883E-01  0.13283735461E-01  0.71119246660E-02  0.10212915972E+01  0.10210406599E+01 0.  0.
     999903    2    3    3    0    0  0.10427917369E+00  0.74475001821E-01 -0.15236417415E-01  0.13060246108E+00  0.20104289699E-01 0.  0.
         14    1    1    2    0    0  0.16895566883E-01 -0.13283735461E-01 -0.71119246660E-02  0.22638402783E-01  0.00000000000E+00 0. -1.
     999901    1    3    3    0    0 -0.12117474057E+00 -0.61191266360E-01  0.22348342081E-01  0.89068913613E+00  0.88000000000E+00 0.  1.
        -11    1    4    4    0    0  0.47300333989E-01  0.32256365297E-01 -0.16799070966E-01  0.59667952906E-01  0.51100000000E-03 0. -1.
         11    1    4    4    0    0  0.56978839699E-01  0.42218636524E-01  0.15626535504E-02  0.70934508179E-01  0.51100000000E-03 0.  1.
</event>
<event>
 8    1  0.1208168E+005  0.1043930E+01  0.7957747E-01            NaN
         13   -1    0    0    0    0  0.00000000000E+00  0.00000000000E+00  0.74505805969E-08  0.10566000000E+00  0.10566000000E+00 0.  1.
     999900   -1    0    0    0    0 -0.00000000000E+00 -0.00000000000E+00 -0.74505805969E-08  0.93827000000E+00  0.93827000000E+00 0. -1.
     999902    2    1    2    0    0  0.11182166638E-01  0.21262377415E-01  0.44050328365E-02  0.10195059574E+01  0.10192133551E+01 0.  0.
     999903    2    3    3    0    0 -0.21353325051E-01  0.12715475717E+00  0.22310494813E-01  0.13238005882E+00  0.20060534213E-01 0.  0.
         14    1    1    2    0    0 -0.11182166638E-01 -0.21262377415E-01 -0.44050328365E-02  0.24424042629E-01  0.00000000000E+00 0. -1.
     999901    1    3    3    0    0  0.32535491689E-01 -0.10589237976E+00 -0.17905461976E-01  0.88712589855E+00  0.88000000000E+00 0.  1.
        -11    1    4    4    0    0 -0.12117291671E-01  0.69122458040E-01  0.20087289483E-02  0.70207115565E-01  0.51100000000E-03 0.  1.
         11    1    4    4    0    0 -0.92360333794E-02  0.58032299131E-01  0.20301765864E-01  0.62172943257E-01  0.51100000000E-03 0. -1.
</event>
<event>
 8    1  0.1208168E+005  0.1043930E+01  0.7957747E-01            NaN
         13   -1    0    0    0    0  0.00000000000E+00  0.00000000000E+00  0.74505805969E-08  0.10566000000E+00  0.10566000000E+00 0.  1.
     999900   -1    0    0    0    0 -0.00000000000E+00 -0.00000000000E+00 -0.74505805969E-08  0.93827000000E+00  0.93827000000E+00 0. -1.
     999902    2    1    2    0    0  0.88917219163E-02  0.18792645011E-01  0.98015511466E-02  0.10209452957E+01  0.10206865338E+01 0.  0.
     999903    2    3    3    0    0 -0.11323039538E+00  0.10288647273E-01 -0.59363817470E-01  0.12978314566E+00  0.19814726166E-01 0.  0.
         14    1    1    2    0    0 -0.88917219163E-02 -0.18792645011E-01 -0.98015511466E-02  0.22984704262E-01  0.00000000000E+00 0.  1.
     999901    1    3    3    0    0  0.12212211730E+00  0.85039977380E-02  0.69165368616E-01  0.89116215007E+00  0.88000000000E+00 0. -1.
        -11    1    4    4    0    0 -0.50163910900E-01 -0.36567855156E-02 -0.32122720576E-01  0.59681825838E-01  0.51100000000E-03 0. -1.
         11    1    4    4    0    0 -0.63066484480E-01  0.13945432788E-01 -0.27241096893E-01  0.70101319825E-01  0.51100000000E-03 0.  1.
</event>
<event>
 8    1  0.1208168E+005  0.1043930E+01  0.7957747E-01            NaN
         13   -1    0    0    0    0  0.00000000000E+00  0.00000000000E+00  0.74505805969E-08  0.10566000000E+00  0.10566000000E+00 0.  1.
     999900   -1    0    0    0    0 -0.00000000000E+00 -0.00000000000E+00 -0.74505805969E-08  0.93827000000E+00  0.93827000000E+00 0. -1.
     999902    2    1    2    0    0  0.15438347177E-02  0.10996878577E-01  0.20681681027E-01  0.10204556162E+01  0.10201855802E+01 0.  0.
     999903    2    3    3    0    0  0.53378680388E-01 -0.11041353024E+00 -0.33130900188E-01  0.12898316432E+00  0.22328657597E-01 0.  0.
         14    1    1    2    0    0 -0.15438347177E-02 -0.10996878577E-01 -0.20681681027E-01  0.23474383787E-01  0.00000000000E+00 0. -1.
     999901    1    3    3    0    0 -0.51834845670E-01  0.12141040882E+00  0.53812581215E-01  0.89147245190E+00  0.88000000000E+00 0.  1.
        -11    1    4    4    0    0  0.33150960360E-01 -0.43219102674E-01 -0.13701119589E-01  0.56168129822E-01  0.51100000000E-03 0. -1.
         11    1    4    4    0    0  0.20227720028E-01 -0.67194427564E-01 -0.19429780598E-01  0.72815034493E-01  0.51100000000E-03 0.  1.
</event>
<event>
 8    1  0.1208168E+005  0.1043930E+01  0.7957747E-01            NaN
         13   -1    0    0    0    0  0.00000000000E+00  0.00000000000E+00  0.74505805969E-08  0.10566000000E+00  0.10566000000E+00 0.  1.
     999900   -1    0    0    0    0 -0.00000000000E+00 -0.00000000000E+00 -0.74505805969E-08  0.93827000000E+00  0.93827000000E+00 0.  1.
     999902    2    1    2    0    0  0.13497448688E-01  0.18379210536E-01 -0.62600992361E-02  0.10202833228E+01  0.10200092614E+01 0.  0.
     999903    2    3    3    0    0 -0.10595186077E+00  0.19737898666E-01  0.68078012049E-01  0.12910649501E+00  0.20457025322E-01 0.  0.
         14    1    1    2    0    0 -0.13497448688E-01 -0.18379210536E-01  0.62600992361E-02  0.23646677218E-01  0.00000000000E+00 0.  1.
     999901    1    3    3    0    0  0.11944930946E+00 -0.13586881304E-02 -0.74338111285E-01  0.89117682777E+00  0.88000000000E+00 0.  1.
        -11    1    4    4    0    0 -0.41432644650E-01  0.14599752351E-01  0.18937726340E-01  0.47840520600E-01  0.51100000000E-03 0.  1.
         11    1    4    4    0    0 -0.64519216123E-01  0.51381463149E-02  0.49140285709E-01  0.81265974412E-01  0.51100000000E-03 0. -1.
</event>
<event>
 8    1  0.1208168E+005  0.1043930E+01  0.7957747E-01            NaN
         13   -1    0    0    0    0  0.00000000000E+00  0.00000000000E+00  0.74505805969E-08  0.10566000000E+00  0.10566000000E+00 0. -1.
     999900   -1    0    0    0    0 -0.00000000000E+00 -0.00000000000E+00 -0.74505805969E-08  0.93827000000E+00  0.93827000000E+00 0. -1.
     999902    2    1    2    0    0  0.30919781008E-02 -0.43808961142E-03 -0.23265208517E-01  0.10204561384E+01  0.10201861145E+01 0.  0.
     999903    2    3    3    0    0  0.75111688099E-01  0.51080784693E-01  0.89233505469E-01  0.12888617834E+00  0.19950343708E-01 0.  0.
         14    1    1    2    0    0 -0.30919781008E-02  0.43808961142E-03  0.23265208517E-01  0.23473861600E-01  0.00000000000E+00 0. -1.
     999901    1    3    3    0    0 -0.72019709998E-01 -0.51518874305E-01 -0.11249871399E+00  0.89156996006E+00  0.88000000000E+00 0. -1.
        -11    1    4    4    0    0  0.46775824620E-01  0.21704150199E-01  0.57076942282E-01  0.76922599839E-01  0.51100000000E-03 0. -1.
         11    1    4    4    0    0  0.28335863479E-01  0.29376634494E-01  0.32156563187E-01  0.51963578498E-01  0.51100000000E-03 0.  1.
</event>
<event>
 8    1  0.1208168E+005  0.1043930E+01  0.7957747E-01            NaN
         13   -1    0    0    0    0  0.00000000000E+00  0.00000000000E+00  0.74505805969E-08  0.10566000000E+00  0.10566000000E+00 0. -1.
     999900   -1    0    0    0    0 -0.00000000000E+00 -0.00000000000E+00 -0.74505805969E-08  0.93827000000E+00  0.93827000000E+00 0. -1.
     999902    2    1    2    0    0  0.61365203904E-02 -0.70298846509E-02  0.19259918120E-01  0.10225285840E+01  0.10223045948E+01 0.  0.
     999903    2    3    3    0    0 -0.22038312577E-01  0.12378578988E+00  0.33735550872E-01  0.13229484736E+00  0.23563324209E-01 0.  0.
         14    1    1    2    0    0 -0.61365203904E-02  0.70298846509E-02 -0.19259918120E-01  0.21401415998E-01  0.00000000000E+00 0.  1.
     999901    1    3    3    0    0  0.28174832968E-01 -0.13081567453E+00 -0.14475632752E-01  0.89023373664E+00  0.88000000000E+00 0. -1.
        -11    1    4    4    0    0 -0.26295153497E-01  0.88992524099E-01  0.22562407735E-01  0.95500930921E-01  0.51100000000E-03 0. -1.
         11    1    4    4    0    0  0.42568409201E-02  0.34793265780E-01  0.11173143137E-01  0.36793916438E-01  0.51100000000E-03 0.  1.
</event>
<event>
 8    1  0.1208168E+005  0.1043930E+01  0.7957747E-01            NaN
         13   -1    0    0    0    0  0.00000000000E+00  0.00000000000E+00  0.74505805969E-08  0.10566000000E+00  0.10566000000E+00 0.  1.
     999900   -1    0    0    0    0 -0.00000000000E+00 -0.00000000000E+00 -0.74505805969E-08  0.93827000000E+00  0.93827000000E+00 0. -1.
     999902    2    1    2    0    0 -0.57396895110E-03 -0.83970244060E-02  0.22105315595E-01  0.10202765766E+01  0.10200023571E+01 0.  0.
     999903    2    3    3    0    0  0.21899714880E-02  0.66962908847E-01  0.11290066618E+00  0.13239676800E+00  0.17132326601E-01 0.  0.
         14    1    1    2    0    0  0.57396895110E-03  0.83970244060E-02 -0.22105315595E-01  0.23653423363E-01  0.00000000000E+00 0. -1.
     999901    1    3    3    0    0 -0.27639404391E-02 -0.75359933253E-01 -0.90795350588E-01  0.88787980864E+00  0.88000000000E+00 0. -1.
        -11    1    4    4    0    0  0.77475769204E-03  0.28538130368E-01  0.32420506231E-01  0.43201568023E-01  0.51100000000E-03 0.  1.
         11    1    4    4    0    0  0.14152137960E-02  0.38424778479E-01  0.80480159951E-01  0.89195199972E-01  0.51100000000E-03 0. -1.
</event>
<event>
 7    1  0.1208168E+005  0.1043930E+01  0.7957747E-01            NaN
         13   -1    0    0    0    0  0.00000000000E+00  0.00000000000E+00  0.74505805969E-08  0.10566000000E+00  0.10566000000E+00 0. -1.
     999900   -1    0    0    0    0 -0.00000000000E+00 -0.00000000000E+00 -0.74505805969E-08  0.93827000000E+00  0.93827000000E+00 0.  1.
     999902    2    1    2    0    0 -0.91878656661E-02  0.13215049640E-02  0.20723298053E-01  0.10212227691E+01  0.10209702865E+01 0.  0.
         14    1    1    2    0    0  0.91878656661E-02 -0.13215049640E-02 -0.20723298053E-01  0.22707230854E-01  0.00000000000E+00 0.  1.
     999901    1    3    3    0    0 -0.66748063640E-01  0.56189265278E-01  0.11365674841E+00  0.89158869104E+00  0.88000000000E+00 0. -1.
        -11    1    3    3    0    0  0.10193061250E-01 -0.37390705304E-01 -0.50638240024E-01  0.63768768331E-01  0.51100000000E-03 0.  1.
         11    1    3    3    0    0  0.47367136724E-01 -0.17477055010E-01 -0.42295210336E-01  0.65865309774E-01  0.51100000000E-03 0. -1.
</event>
<event>
 8    1  0.1208168E+005  0.1043930E+01  0.7957747E-01            NaN
         13   -1    0    0    0    0  0.00000000000E+00  0.00000000000E+00  0.74505805969E-08  0.10566000000E+00  0.10566000000E+00 0.  1.
     999900   -1    0    0    0    0 -0.00000000000E+00 -0.00000000000E+00 -0.74505805969E-08  0.93827000000E+00  0.93827000000E+00 0.  1.
     999902    2    1    2    0    0 -0.41117079043E-02 -0.18422682459E-01  0.14567804293E-01  0.10200862945E+01  0.10198075926E+01 0.  0.
     999903    2    3    3    0    0  0.60412806483E-01  0.10926630901E+00 -0.18827688842E-01  0.12790741642E+00  0.20420377941E-01 0.  0.
         14    1    1    2    0    0  0.41117079043E-02  0.18422682459E-01 -0.14567804293E-01  0.23843705517E-01  0.00000000000E+00 0. -1.
     999901    1    3    3    0    0 -0.64524514387E-01 -0.12768899147E+00  0.33395493135E-01  0.89217887806E+00  0.88000000000E+00 0. -1.
        -11    1    4    4    0    0  0.29821674296E-01  0.33913477691E-01 -0.79074228054E-02  0.45850241911E-01  0.51100000000E-03 0. -1.
         11    1    4    4    0    0  0.30591132186E-01  0.75352831324E-01 -0.10920266037E-01  0.82057174508E-01  0.51100000000E-03 0.  1.
</event>
<event>
 8    1  0.1208168E+005  0.1043930E+01  0.7957747E-01            NaN
         13   -1    0    0    0    0  0.00000000000E+00  0.00000000000E+00  0.74505805969E-08  0.10566000000E+00  0.10566000000E+00 0.  1.
     999900   -1    0    0    0    0 -0.00000000000E+00 -0.00000000000E+00 -0.74505805969E-08  0.93827000000E+00  0.93827000000E+00 0.  1.
     999902    2    1    2    0    0  0.22363733460E-01  0.69418526344E-02 -0.92806044390E-02  0.10187415997E+01  0.10184301603E+01 0.  0.
     999903    2    3    3    0    0 -0.52714319381E-01  0.25512126043E-01  0.11124992740E+00  0.12716480647E+00  0.19096429348E-01 0.  0.
         14    1    1    2    0    0 -0.22363733460E-01 -0.69418526344E-02  0.92806044390E-02  0.25188400327E-01  0.00000000000E+00 0.  1.
     999901    1    3    3    0    0  0.75078052842E-01 -0.18570273409E-01 -0.12053053184E+00  0.89157679320E+00  0.88000000000E+00 0. -1.
        -11    1    4    4    0    0 -0.63112784595E-02  0.10031127688E-01  0.30842881460E-01  0.33045426555E-01  0.51100000000E-03 0.  1.
         11    1    4    4    0    0 -0.46403040922E-01  0.15480998355E-01  0.80407045945E-01  0.94119379914E-01  0.51100000000E-03 0. -1.
</event>
<event>
 8    1  0.1208168E+005  0.1043930E+01  0.7957747E-01            NaN
         13   -1    0    0    0    0  0.00000000000E+00  0.00000000000E+00  0.74505805969E-08  0.10566000000E+00  0.10566000000E+00 0. -1.
     999900   -1    0    0    0    0 -0.00000000000E+00 -0.00000000000E+00 -0.74505805969E-08  0.93827000000E+00  0.93827000000E+00 0. -1.
     999902    2    1    2    0    0  0.30345865736E-01 -0.14649547404E-01 -0.93162830027E-03  0.10102202279E+01  0.10096576450E+01 0.  0.
     999903    2    3    3    0    0  0.10130445039E+00 -0.62593733008E-01  0.33879534836E-01  0.12537810480E+00  0.19780778584E-01 0.  0.
         14    1    1    2    0    0 -0.30345865736E-01  0.14649547404E-01  0.93162830027E-03  0.33709772140E-01  0.00000000000E+00 0.  1.
     999901    1    3    3    0    0 -0.70958584651E-01  0.47944185605E-01 -0.34811163136E-01  0.88484212306E+00  0.88000000000E+00 0. -1.
        -11    1    4    4    0    0  0.48062921303E-01 -0.33337065903E-01  0.26366514341E-01  0.64162750617E-01  0.51100000000E-03 0. -1.
         11    1    4    4    0    0  0.53241529085E-01 -0.29256667105E-01  0.75130204946E-02  0.61215354180E-01  0.51100000000E-03 0.  1.
</event>
<event>
 8    1  0.1208168E+005  0.1043930E+01  0.7957747E-01            NaN
         13   -1    0    0    0    0  0.00000000000E+00  0.00000000000E+00  0.74505805969E-08  0.10566000000E+00  0.10566000000E+00 0. -1.
     999900   -1    0    0    0    0 -0.00000000000E+00 -0.00000000000E+00 -0.74505805969E-08  0.93827000000E+00  0.93827000000E+00 0. -1.
     999902    2    1    2    0    0 -0.17041140755E-01 -0.23283098632E-02  0.20787036922E-01  0.10169499628E+01  0.10165920049E+01 0.  0.
     999903    2    3    3    0    0 -0.83806860704E-02 -0.10666145512E-01  0.12808631983E+00  0.13035103479E+00  0.20032083901E-01 0.  0.
         14    1    1    2    0    0  0.17041140755E-01  0.23283098632E-02 -0.20787036922E-01  0.26980037232E-01  0.00000000000E+00 0.  1.
     999901    1    3    3    0    0 -0.86604546842E-02  0.83378356484E-02 -0.10729928290E+00  0.88659892798E+00  0.88000000000E+00 0. -1.
        -11    1    4    4    0    0  0.58757623638E-02  0.70698616410E-03  0.32944512075E-01  0.33475758538E-01  0.51100000000E-03 0.  1.
         11    1    4    4    0    0 -0.14256448434E-01 -0.11373131676E-01  0.95141807750E-01  0.96875276253E-01  0.51100000000E-03 0. -1.
</event>
<event>
 8    1  0.1208168E+005  0.1043930E+01  0.7957747E-01            NaN
         13   -1    0    0    0    0  0.00000000000E+00  0.00000000000E+00  0.74505805969E-08  0.10566000000E+00  0.10566000000E+00 0. -1.
     999900   -1    0    0    0    0 -0.00000000000E+00 -0.00000000000E+00 -0.74505805969E-08  0.93827000000E+00  0.93827000000E+00 0.  1.
     999902    2    1    2    0    0  0.22617693172E-02  0.83470896877E-02 -0.22236739689E-01  0.10200707859E+01  0.10197917170E+01 0.  0.
     999903    2    3    3    0    0  0.61893867807E-01  0.91149132986E-01 -0.71403053082E-01  0.13281124554E+00  0.20035359637E-01 0.  0.
         14    1    1    2    0    0 -0.22617693172E-02 -0.83470896877E-02  0.22236739689E-01  0.23859214126E-01  0.00000000000E+00 0. -1.
     999901    1    3    3    0    0 -0.59632098490E-01 -0.82802043299E-01  0.49166313393E-01  0.88725954034E+00  0.88000000000E+00 0. -1.
        -11    1    4    4    0    0  0.19991420099E-01  0.20964292687E-01 -0.27856923701E-01  0.40192384409E-01  0.51100000000E-03 0. -1.
         11    1    4    4    0    0  0.41902447708E-01  0.70184840299E-01 -0.43546129381E-01  0.92618861129E-01  0.51100000000E-03 0.  1.
</event>
<event>
 8    1  0.1208168E+005  0.1043930E+01  0.7957747E-01            NaN
         13   -1    0    0    0    0  0.00000000000E+00  0.00000000000E+00  0.74505805969E-08  0.10566000000E+00  0.10566000000E+00 0.  1.
     999900   -1    0    0    0    0 -0.00000000000E+00 -0.00000000000E+00 -0.74505805969E-08  0.93827000000E+00  0.93827000000E+00 0.  1.
     999902    2    1    2    0    0 -0.13969622570E-01  0.17197090964E-01  0.72772167778E-02  0.10206094473E+01  0.10203429795E+01 0.  0.
     999903    2    3    3    0    0  0.31121186931E-01 -0.71033549317E-01 -0.10047295718E+00  0.12851756475E+00  0.20190490882E-01 0.  0.
         14    1    1    2    0    0  0.13969622570E-01 -0.17197090964E-01 -0.72772167778E-02  0.23320552661E-01  0.00000000000E+00 0.  1.
     999901    1    3    3    0    0 -0.45090809501E-01  0.88230640281E-01  0.10775017395E+00  0.89209188258E+00  0.88000000000E+00 0. -1.
        -11    1    4    4    0    0  0.24479151110E-02 -0.20836582238E-02 -0.13487669224E-01  0.13874878814E-01  0.51100000000E-03 0. -1.
         11    1    4    4    0    0  0.28673271820E-01 -0.68949891093E-01 -0.86985287952E-01  0.11464268594E+00  0.51100000000E-03 0.  1.
</event>
<event>
 8    1  0.1208168E+005  0.1043930E+01  0.7957747E-01            NaN
         13   -1    0    0    0    0  0.00000000000E+00  0.00000000000E+00  0.74505805969E-08  0.10566000000E+00  0.10566000000E+00 0.  1.
     999900   -1    0    0    0    0 -0.00000000000E+00 -0.00000000000E+00 -0.74505805969E-08  0.93827000000E+00  0.93827000000E+00 0.  1.
     999902    2    1    2    0    0 -0.16314263206E-01  0.13992918327E-01 -0.68992111926E-02  0.10213566515E+01  0.10211071704E+01 0.  0.
     999903    2    3    3    0    0  0.64370392917E-01 -0.10482065902E+00 -0.34133872735E-01  0.12929812950E+00  0.20541834935E-01 0.  0.
         14    1    1    2    0    0  0.16314263206E-01 -0.13992918327E-01  0.68992111926E-02  0.22573348496E-01  0.00000000000E+00 0.  1.
     999901    1    3    3    0    0 -0.80684656122E-01  0.11881357734E+00  0.27234661542E-01  0.89205852201E+00  0.88000000000E+00 0.  1.
        -11    1    4    4    0    0  0.34498978890E-01 -0.44307632406E-01 -0.23937557838E-01  0.61045996021E-01  0.51100000000E-03 0. -1.
         11    1    4    4    0    0  0.29871414026E-01 -0.60513026612E-01 -0.10196314896E-01  0.68252133477E-01  0.51100000000E-03 0.  1.
</event>
<event>
 8    1  0.1208168E+005  0.1043930E+01  0.7957747E-01            NaN
         13   -1    0    0    0    0  0.00000000000E+00  0.00000000000E+00  0.74505805969E-08  0.10566000000E+00  0.10566000000E+00 0. -1.
     999900   -1    0    0    0    0 -0.00000000000E+00 -0.00000000000E+00 -0.74505805969E-08  0.93827000000E+00  0.93827000000E+00 0. -1.
     999902    2    1    2    0    0 -0.14048313934E-01  0.93022417219E-02 -0.19540023512E-01  0.10181288499E+01  0.10178018745E+01 0.  0.
     999903    2    3    3    0    0 -0.88266621609E-01 -0.43654511794E-01  0.79139381532E-01  0.12793201782E+00  0.20170438379E-01 0.  0.
         14    1    1    2    0    0  0.14048313934E-01 -0.93022417219E-02  0.19540023512E-01  0.25801150058E-01  0.00000000000E+00 0. -1.
     999901    1    3    3    0    0  0.74218307675E-01  0.52956753516E-01 -0.98679405045E-01  0.89019683212E+00  0.88000000000E+00 0. -1.
        -11    1    4    4    0    0 -0.55854636273E-01 -0.17985868101E-01  0.40165601749E-01  0.71110959277E-01  0.51100000000E-03 0. -1.
         11    1    4    4    0    0 -0.32411985336E-01 -0.25668643694E-01  0.38973779784E-01  0.56821058545E-01  0.51100000000E-03 0.  1.
</event>
<event>
 8    1  0.1208168E+005  0.1043930E+01  0.7957747E-01            NaN
         13   -1    0    0    0    0  0.00000000000E+00  0.00000000000E+00  0.74505805969E-08  0.10566000000E+00  0.10566000000E+00 0.  1.
     999900   -1    0    0    0    0 -0.00000000000E+00 -0.00000000000E+00 -0.74505805969E-08  0.93827000000E+00  0.93827000000E+00 0.  1.
     999902    2    1    2    0    0 -0.28290184992E-02 -0.72442981707E-02 -0.20914494906E-01  0.10216163428E+01  0.10213726316E+01 0.  0.
     999903    2    3    3    0    0 -0.12906724220E+00  0.31545156106E-02  0.15595333898E-01  0.13179771403E+00  0.21427062524E-01 0.  0.
         14    1    1    2    0    0  0.28290184992E-02  0.72442981707E-02  0.20914494906E-01  0.22313657227E-01  0.00000000000E+00 0.  1.
     999901    1    3    3    0    0  0.12623822370E+00 -0.10398813781E-01 -0.36509828805E-01  0.88981862874E+00  0.88000000000E+00 0. -1.
        -11    1    4    4    0    0 -0.90954151889E-01 -0.35305851802E-02  0.29002663294E-02  0.91070277497E-01  0.51100000000E-03 0.  1.
         11    1    4    4    0    0 -0.38113090307E-01  0.66851007908E-02  0.12695067569E-01  0.40727436537E-01  0.51100000000E-03 0. -1.
</event>
<event>
 8    1  0.1208168E+005  0.1043930E+01  0.7957747E-01            NaN
         13   -1    0    0    0    0  0.00000000000E+00  0.00000000000E+00  0.74505805969E-08  0.10566000000E+00  0.10566000000E+00 0.  1.
     999900   -1    0    0    0    0 -0.00000000000E+00 -0.00000000000E+00 -0.74505805969E-08  0.93827000000E+00  0.93827000000E+00 0.  1.
     999902    2    1    2    0    0 -0.21190534843E-01  0.13751830297E-01  0.71397212813E-02  0.10176787672E+01  0.10173401329E+01 0.  0.
     999903    2    3    3    0    0 -0.12480359845E+00 -0.85313217782E-02 -0.31352871466E-01  0.13048437728E+00  0.19860728269E-01 0.  0.
         14    1    1    2    0    0  0.21190534843E-01 -0.13751830297E-01 -0.71397212813E-02  0.26251232798E-01  0.00000000000E+00 0. -1.
     999901    1    3    3    0    0  0.10361306361E+00  0.22283152075E-01  0.38492592747E-01  0.88719438992E+00  0.88000000000E+00 0. -1.
        -11    1    4    4    0    0 -0.65056020400E-01 -0.10370909166E-01 -0.24614837968E-01  0.70327753529E-01  0.51100000000E-03 0.  1.
         11    1    4    4    0    0 -0.59747578049E-01  0.18395873881E-02 -0.67380334980E-02  0.60156623749E-01  0.51100000000E-03 0. -1.
</event>
<event>
 8    1  0.1208168E+005  0.1043930E+01  0.7957747E-01            NaN
         13   -1    0    0    0    0  0.00000000000E+00  0.00000000000E+00  0.74505805969E-08  0.10566000000E+00  0.10566000000E+00 0.  1.
     999900   -1    0    0    0    0 -0.00000000000E+00 -0.00000000000E+00 -0.74505805969E-08  0.93827000000E+00  0.93827000000E+00 0.  1.
     999902    2    1    2    0    0 -0.19205499808E-01  0.74190236376E-02  0.12082234623E-01  0.10200579760E+01  0.10197786039E+01 0.  0.
     999903    2    3    3    0    0  0.47658283881E-01 -0.64776743228E-01  0.10042389467E+00  0.13017751034E+00  0.19846588973E-01 0.  0.
         14    1    1    2    0    0  0.19205499808E-01 -0.74190236376E-02 -0.12082234623E-01  0.23872023963E-01  0.00000000000E+00 0. -1.
     999901    1    3    3    0    0 -0.66863783689E-01  0.72195766866E-01 -0.88341660043E-01  0.88988046569E+00  0.88000000000E+00 0.  1.
        -11    1    4    4    0    0  0.20710878561E-01 -0.32125313154E-01  0.62895563941E-01  0.73600878531E-01  0.51100000000E-03 0.  1.
         11    1    4    4    0    0  0.26947405321E-01 -0.32651430074E-01  0.37528330724E-01  0.56576631814E-01  0.51100000000E-03 0. -1.
</event>
<event>
 8    1  0.1208168E+005  0.1043930E+01  0.7957747E-01            NaN
         13   -1    0    0    0    0  0.00000000000E+00  0.00000000000E+00  0.74505805969E-08  0.10566000000E+00  0.10566000000E+00 0.  1.
     999900   -1    0    0    0    0 -0.00000000000E+00 -0.00000000000E+00 -0.74505805969E-08  0.93827000000E+00  0.93827000000E+00 0. -1.
     999902    2    1    2    0    0 -0.19962296036E-01 -0.61867035577E-02  0.11490361152E-01  0.10200805354E+01  0.10198016972E+01 0.  0.
     999903    2    3    3    0    0 -0.90420205497E-01 -0.42187381057E-01  0.86598561954E-01  0.13334404259E+00  0.18048104617E-01 0.  0.
         14    1    1    2    0    0  0.19962296036E-01  0.61867035577E-02 -0.11490361152E-01  0.23849464634E-01  0.00000000000E+00 0. -1.
     999901    1    3    3    0    0  0.70457909462E-01  0.36000677500E-01 -0.75108200802E-01  0.88673649277E+00  0.88000000000E+00 0. -1.
        -11    1    4    4    0    0 -0.80095776876E-01 -0.42678721172E-01  0.74469487468E-01  0.11740005281E+00  0.51100000000E-03 0.  1.
         11    1    4    4    0    0 -0.10324428621E-01  0.49134011479E-03  0.12129074486E-01  0.15943989788E-01  0.51100000000E-03 0. -1.
</event>
<event>
 8    1  0.1208168E+005  0.1043930E+01  0.7957747E-01            NaN
         13   -1    0    0    0    0  0.00000000000E+00  0.00000000000E+00  0.74505805969E-08  0.10566000000E+00  0.10566000000E+00 0. -1.
     999900   -1    0    0    0    0 -0.00000000000E+00 -0.00000000000E+00 -0.74505805969E-08  0.93827000000E+00  0.93827000000E+00 0. -1.
     999902    2    1    2    0    0 -0.22720969847E-01 -0.63832438328E-02  0.14304809891E-02  0.10202860886E+01  0.10200120921E+01 0.  0.
     999903    2    3    3    0    0 -0.41507949773E-01 -0.23670013572E-01 -0.12096118095E+00  0.13144892578E+00  0.19079658133E-01 0.  0.
         14    1    1    2    0    0  0.22720969847E-01  0.63832438328E-02 -0.14304809891E-02  0.23643911446E-01  0.00000000000E+00 0.  1.
     999901    1    3    3    0    0  0.18786979926E-01  0.17286769739E-01  0.12239166194E+00  0.88883716278E+00  0.88000000000E+00 0.  1.
        -11    1    4    4    0    0 -0.25971474098E-01 -0.55107110387E-02 -0.50706601049E-01  0.57239024397E-01  0.51100000000E-03 0.  1.
         11    1    4    4    0    0 -0.15536475675E-01 -0.18159302533E-01 -0.70254579899E-01  0.74209901379E-01  0.51100000000E-03 0. -1.
</event>
<event>
 8    1  0.1208168E+005  0.1043930E+01  0.7957747E-01            NaN
         13   -1    0    0    0    0  0.00000000000E+00  0.00000000000E+00  0.74505805969E-08  0.10566000000E+00  0.10566000000E+00 0.  1.
     999900   -1    0    0    0    0 -0.00000000000E+00 -0.00000000000E+00 -0.74505805969E-08  0.93827000000E+00  0.93827000000E+00 0.  1.
     999902    2    1    2    0    0  0.16681382139E-02 -0.17415785162E-01 -0.15705596580E-01  0.10204191935E+01  0.10201483091E+01 0.  0.
     999903    2    3    3    0    0  0.15237144436E-01 -0.93162418356E-01 -0.92450191884E-01  0.13373356530E+00  0.20645138485E-01 0.  0.
         14    1    1    2    0    0 -0.16681382139E-02  0.17415785162E-01  0.15705596580E-01  0.23510806491E-01  0.00000000000E+00 0.  1.
     999901    1    3    3    0    0 -0.13569006222E-01  0.75746633194E-01  0.76744595304E-01  0.88668562821E+00  0.88000000000E+00 0. -1.
        -11    1    4    4    0    0  0.98830543517E-02 -0.82351519062E-01 -0.71291184486E-01  0.10937157566E+00  0.51100000000E-03 0.  1.
         11    1    4    4    0    0  0.53540900843E-02 -0.10810899295E-01 -0.21159007398E-01  0.24361989641E-01  0.51100000000E-03 0. -1.
</event>
<event>
 8    1  0.1208168E+005  0.1043930E+01  0.7957747E-01            NaN
         13   -1    0    0    0    0  0.00000000000E+00  0.00000000000E+00  0.74505805969E-08  0.10566000000E+00  0.10566000000E+00 0. -1.
     999900   -1    0    0    0    0 -0.00000000000E+00 -0.00000000000E+00 -0.74505805969E-08  0.93827000000E+00  0.93827000000E+00 0.  1.
     999902    2    1    2    0    0  0.22085055856E-01 -0.64403875097E-02 -0.76866315633E-03  0.10209121998E+01  0.10206526836E+01 0.  0.
     999903    2    3    3    0    0 -0.24400417534E-01 -0.12554736477E+00  0.22871001100E-01  0.13135826382E+00  0.19349150026E-01 0.  0.
         14    1    1    2    0    0 -0.22085055856E-01  0.64403875097E-02  0.76866315633E-03  0.23017800209E-01  0.00000000000E+00 0. -1.
     999901    1    3    3    0    0  0.46485473390E-01  0.11910697726E+00 -0.23639664256E-01  0.88955393597E+00  0.88000000000E+00 0.  1.
        -11    1    4    4    0    0 -0.44711289195E-02 -0.68479056769E-01  0.16427925351E-01  0.70565643639E-01  0.51100000000E-03 0.  1.
         11    1    4    4    0    0 -0.19929288614E-01 -0.57068308001E-01  0.64430757493E-02  0.60792620185E-01  0.51100000000E-03 0. -1.
</event>
<event>
 8    1  0.1208168E+005  0.1043930E+01  0.7957747E-01            NaN
         13   -1    0    0    0    0  0.00000000000E+00  0.00000000000E+00  0.74505805969E-08  0.10566000000E+00  0.10566000000E+00 0.  1.
     999900   -1    0    0    0    0 -0.00000000000E+00 -0.00000000000E+00 -0.74505805969E-08  0.93827000000E+00  0.93827000000E+00 0.  1.
     999902    2    1    2    0    0  0.92301406092E-02  0.20769849762E-01  0.58591950344E-02  0.10204584785E+01  0.10201885091E+01 0.  0.
     999903    2    3    3    0    0  0.76413108861E-01 -0.98583846661E-01 -0.27254215212E-01  0.12924842806E+00  0.20115314598E-01 0.  0.
         14    1    1    2    0    0 -0.92301406092E-02 -0.20769849762E-01 -0.58591950344E-02  0.23471521495E-01  0.00000000000E+00 0.  1.
     999901    1    3    3    0    0 -0.67182968252E-01  0.11935369642E+00  0.33113410246E-01  0.89121005044E+00  0.88000000000E+00 0.  1.
        -11    1    4    4    0    0  0.43885598366E-01 -0.44469438384E-01 -0.66561468718E-02  0.62833447354E-01  0.51100000000E-03 0.  1.
         11    1    4    4    0    0  0.32527510495E-01 -0.54114408277E-01 -0.20598068340E-01  0.66414980708E-01  0.51100000000E-03 0. -1.
</event>
<event>
 8    1  0.1208168E+005  0.1043930E+01  0.7957747E-01            NaN
         13   -1    0    0    0    0  0.00000000000E+00  0.00000000000E+00  0.74505805969E-08  0.10566000000E+00  0.10566000000E+00 0. -1.
     999900   -1    0    0    0    0 -0.00000000000E+00 -0.00000000000E+00 -0.74505805969E-08  0.93827000000E+00  0.93827000000E+00 0. -1.
     999902    2    1    2    0    0  0.87262635058E-02 -0.21127874876E-01  0.16903922024E-02  0.10210085647E+01  0.10207512415E+01 0.  0.
     999903    2    3    3    0    0  0.10030560562E+00 -0.55795571658E-01 -0.64466713256E-01  0.13310914036E+00  0.19690753983E-01 0.  0.
         14    1    1    2    0    0 -0.87262635058E-02  0.21127874876E-01 -0.16903922024E-02  0.22921435325E-01  0.00000000000E+00 0. -1.
     999901    1    3    3    0    0 -0.91579342117E-01  0.34667696782E-01  0.66157105459E-01  0.88789942432E+00  0.88000000000E+00 0.  1.
        -11    1    4    4    0    0  0.77926610253E-01 -0.46092363923E-01 -0.41480195356E-01  0.99588806225E-01  0.51100000000E-03 0.  1.
         11    1    4    4    0    0  0.22378995370E-01 -0.97032077347E-02 -0.22986517901E-01  0.33520334132E-01  0.51100000000E-03 0. -1.
</event>
<event>
 8    1  0.1208168E+005  0.1043930E+01  0.7957747E-01            NaN
         13   -1    0    0    0    0  0.00000000000E+00  0.00000000000E+00  0.74505805969E-08  0.10566000000E+00  0.10566000000E+00 0.  1.
     999900   -1    0    0    0    0 -0.00000000000E+00 -0.00000000000E+00 -0.74505805969E-08  0.93827000000E+00  0.93827000000E+00 0. -1.
     999902    2    1    2    0    0 -0.18596337264E-01 -0.13413505844E-01 -0.32027572197E-02  0.10207782495E+01  0.10205156692E+01 0.  0.
     999903    2    3    3    0    0  0.83445906114E-01 -0.88072640044E-01 -0.44414211941E-01  0.13078668224E+00  0.20310707921E-01 0.  0.
         14    1    1    2    0    0  0.18596337264E-01  0.13413505844E-01  0.32027572197E-02  0.23151750527E-01  0.00000000000E+00 0.  1.
     999901    1    3    3    0    0 -0.10204224338E+00  0.74659134200E-01  0.41211454721E-01  0.88999156724E+00  0.88000000000E+00 0.  1.
        -11    1    4    4    0    0  0.63308809366E-01 -0.77860995268E-01 -0.38039986601E-01  0.10732027595E+00  0.51100000000E-03 0. -1.
         11    1    4    4    0    0  0.20137096748E-01 -0.10211644776E-01 -0.63742253405E-02  0.23466406290E-01  0.51100000000E-03 0.  1.
</event>
<event>
 8    1  0.1208168E+005  0.1043930E+01  0.7957747E-01            NaN
         13   -1    0    0    0    0  0.00000000000E+00  0.00000000000E+00  0.74505805969E-08  0.10566000000E+00  0.10566000000E+00 0.  1.
     999900   -1    0    0    0    0 -0.00000000000E+00 -0.00000000000E+00 -0.74505805969E-08  0.93827000000E+00  0.93827000000E+00 0.  1.
     999902    2    1    2    0    0 -0.19984433758E-01 -0.87751138961E-02  0.75464420991E-02  0.10208360829E+01  0.10205748278E+01 0.  0.
     999903    2    3    3    0    0 -0.52753169646E-01  0.13238107763E-01 -0.11769326190E+00  0.13109266182E+00  0.19376214297E-01 0.  0.
         14    1    1    2    0    0  0.19984433758E-01  0.87751138961E-02 -0.75464420991E-02  0.23093917054E-01  0.00000000000E+00 0. -1.
     999901    1    3    3    0    0  0.32768735887E-01 -0.22013221659E-01  0.12523970400E+00  0.88974342113E+00  0.88000000000E+00 0. -1.
        -11    1    4    4    0    0 -0.52917475686E-02 -0.85975915271E-04 -0.30216092661E-01  0.30680341603E-01  0.51100000000E-03 0. -1.
         11    1    4    4    0    0 -0.47461422077E-01  0.13324083678E-01 -0.87477169244E-01  0.10041232022E+00  0.51100000000E-03 0.  1.
</event>
<event>
 8    1  0.1208168E+005  0.1043930E+01  0.7957747E-01            NaN
         13   -1    0    0    0    0  0.00000000000E+00  0.00000000000E+00  0.74505805969E-08  0.10566000000E+00  0.10566000000E+00 0.  1.
     999900   -1    0    0    0    0 -0.00000000000E+00 -0.00000000000E+00 -0.74505805969E-08  0.93827000000E+00  0.93827000000E+00 0. -1.
     999902    2    1    2    0    0  0.22546662493E-01  0.47338930990E-02  0.48802723947E-02  0.10203805034E+01  0.10201087162E+01 0.  0.
     999903    2    3    3    0    0  0.27762300551E-01  0.97756949300E-01 -0.80718689521E-01  0.13133175658E+00  0.20133479093E-01 0.  0.
         14    1    1    2    0    0 -0.22546662493E-01 -0.47338930990E-02 -0.48802723947E-02  0.23549496642E-01  0.00000000000E+00 0. -1.
     999901    1    3    3    0    0 -0.52156380582E-02 -0.93023056201E-01  0.85598961916E-01  0.88904874678E+00  0.88000000000E+00 0.  1.
        -11    1    4    4    0    0  0.21265179505E-01  0.76512114394E-01 -0.51612693793E-01  0.94712421519E-01  0.51100000000E-03 0. -1.
         11    1    4    4    0    0  0.64971210457E-02  0.21244834906E-01 -0.29105995729E-01  0.36619335062E-01  0.51100000000E-03 0.  1.
</event>
<event>
 8    1  0.1208168E+005  0.1043930E+01  0.7957747E-01            NaN
         13   -1    0    0    0    0  0.00000000000E+00  0.00000000000E+00  0.74505805969E-08  0.10566000000E+00  0.10566000000E+00 0.  1.
     999900   -1    0    0    0    0 -0.00000000000E+00 -0.00000000000E+00 -0.74505805969E-08  0.93827000000E+00  0.93827000000E+00 0. -1.
     999902    2    1    2    0    0  0.10117940544E-01 -0.11267055007E-01 -0.20012789730E-01  0.10188335659E+01  0.10185244249E+01 0.  0.
     999903    2    3    3    0    0  0.10393676233E+00  0.73171848222E-01  0.12630251648E-01  0.12922833448E+00  0.19582370638E-01 0.  0.
         14    1    1    2    0    0 -0.10117940544E-01  0.11267055007E-01  0.20012789730E-01  0.25096434053E-01  0.00000000000E+00 0.  1.
     999901    1    3    3    0    0 -0.93818821788E-01 -0.84438903229E-01 -0.32643041378E-01  0.88960523147E+00  0.88000000000E+00 0.  1.
        -11    1    4    4    0    0  0.61696076623E-01  0.42538930959E-01  0.17061116717E-01  0.76859022518E-01  0.51100000000E-03 0.  1.
         11    1    4    4    0    0  0.42240685709E-01  0.30632917263E-01 -0.44308650698E-02  0.52369311963E-01  0.51100000000E-03 0. -1.
</event>
<event>
 8    1  0.1208168E+005  0.1043930E+01  0.7957747E-01            NaN
         13   -1    0    0    0    0  0.00000000000E+00  0.00000000000E+00  0.74505805969E-08  0.10566000000E+00  0.10566000000E+00 0.  1.
     999900   -1    0    0    0    0 -0.00000000000E+00 -0.00000000000E+00 -0.74505805969E-08  0.93827000000E+00  0.93827000000E+00 0. -1.
     999902    2    1    2    0    0  0.73020091783E-02  0.51176926159E-02 -0.21875618803E-01  0.10203068585E+01  0.10200333488E+01 0.  0.
     999903    2    3    3    0    0 -0.30371571513E-01 -0.10264900814E+00 -0.73845490286E-01  0.13141213583E+00  0.18887609116E-01 0.  0.
         14    1    1    2    0    0 -0.73020091783E-02 -0.51176926159E-02  0.21875618803E-01  0.23623141488E-01  0.00000000000E+00 0.  1.
     999901    1    3    3    0    0  0.37673580691E-01  0.10776670076E+00  0.51969871483E-01  0.88889472268E+00  0.88000000000E+00 0.  1.
        -11    1    4    4    0    0 -0.85788776571E-02 -0.56804238298E-01 -0.45386829124E-01  0.73215736078E-01  0.51100000000E-03 0.  1.
         11    1    4    4    0    0 -0.21792693856E-01 -0.45844769846E-01 -0.28458661162E-01  0.58196399750E-01  0.51100000000E-03 0. -1.
</event>
<event>
 8    1  0.1208168E+005  0.1043930E+01  0.7957747E-01            NaN
         13   -1    0    0    0    0  0.00000000000E+00  0.00000000000E+00  0.74505805969E-08  0.10566000000E+00  0.10566000000E+00 0. -1.
     999900   -1    0    0    0    0 -0.00000000000E+00 -0.00000000000E+00 -0.74505805969E-08  0.93827000000E+00  0.93827000000E+00 0.  1.
     999902    2    1    2    0    0  0.21025707814E-01  0.83791126853E-02 -0.71541348614E-02  0.10201924440E+01  0.10199162472E+01 0.  0.
     999903    2    3    3    0    0 -0.10746011052E+00  0.11825532214E-01 -0.67172090969E-01  0.12883245031E+00  0.19954745886E-01 0.  0.
         14    1    1    2    0    0 -0.21025707814E-01 -0.83791126853E-02  0.71541348614E-02  0.23737555984E-01  0.00000000000E+00 0. -1.
     999901    1    3    3    0    0  0.12848581833E+00 -0.34464195292E-02  0.60017956108E-01  0.89135999370E+00  0.88000000000E+00 0.  1.
        -11    1    4    4    0    0 -0.10218414372E+00  0.83632885207E-02 -0.67040407217E-01  0.12249988222E+00  0.51100000000E-03 0. -1.
         11    1    4    4    0    0 -0.52759667985E-02  0.34622436937E-02 -0.13168375289E-03  0.63325680939E-02  0.51100000000E-03 0.  1.
</event>
<event>
 8    1  0.1208168E+005  0.1043930E+01  0.7957747E-01            NaN
         13   -1    0    0    0    0  0.00000000000E+00  0.00000000000E+00  0.74505805969E-08  0.10566000000E+00  0.10566000000E+00 0. -1.
     999900   -1    0    0    0    0 -0.00000000000E+00 -0.00000000000E+00 -0.74505805969E-08  0.93827000000E+00  0.93827000000E+00 0. -1.
     999902    2    1    2    0    0 -0.18068395046E-02  0.19269694879E-02  0.23354659199E-01  0.10204264261E+01  0.10201557102E+01 0.  0.
     999903    2    3    3    0    0 -0.53578943948E-01 -0.11647225293E+00  0.18240231637E-01  0.13097441275E+00  0.19624010989E-01 0.  0.
         14    1    1    2    0    0  0.18068395046E-02 -0.19269694879E-02 -0.23354659199E-01  0.23503573914E-01  0.00000000000E+00 0.  1.
     999901    1    3    3    0    0  0.51772104443E-01  0.11839922242E+00  0.51144275625E-02  0.88945201334E+00  0.88000000000E+00 0. -1.
        -11    1    4    4    0    0 -0.30389611335E-01 -0.83535340167E-01  0.70898321708E-02  0.89175155593E-01  0.51100000000E-03 0.  1.
         11    1    4    4    0    0 -0.23189332613E-01 -0.32936912760E-01  0.11150399466E-01  0.41799257152E-01  0.51100000000E-03 0. -1.
</event>
<event>
 8    1  0.1208168E+005  0.1043930E+01  0.7957747E-01            NaN
         13   -1    0    0    0    0  0.00000000000E+00  0.00000000000E+00  0.74505805969E-08  0.10566000000E+00  0.10566000000E+00 0.  1.
     999900   -1    0    0    0    0 -0.00000000000E+00 -0.00000000000E+00 -0.74505805969E-08  0.93827000000E+00  0.93827000000E+00 0. -1.
     999902    2    1    2    0    0  0.12136560918E-01  0.17331109888E-01  0.10653997295E-01  0.10202409490E+01  0.10199658930E+01 0.  0.
     999903    2    3    3    0    0 -0.51143417902E-01 -0.51056513970E-02  0.11890497891E+00  0.13106940252E+00  0.19976921606E-01 0.  0.
         14    1    1    2    0    0 -0.12136560918E-01 -0.17331109888E-01 -0.10653997295E-01  0.23689051041E-01  0.00000000000E+00 0. -1.
     999901    1    3    3    0    0  0.63279978820E-01  0.22436761285E-01 -0.10825098161E+00  0.88917154644E+00  0.88000000000E+00 0. -1.
        -11    1    4    4    0    0 -0.28951576613E-02  0.43713951743E-02  0.64108015812E-02  0.82976220429E-02  0.51100000000E-03 0. -1.
         11    1    4    4    0    0 -0.48248260241E-01 -0.94770465713E-02  0.11249417733E+00  0.12277178048E+00  0.51100000000E-03 0.  1.
</event>
<event>
 7    1  0.1208168E+005  0.1043930E+01  0.7957747E-01            NaN
         13   -1    0    0    0    0  0.00000000000E+00  0.00000000000E+00  0.74505805969E-08  0.10566000000E+00  0.10566000000E+00 0.  1.
     999900   -1    0    0    0    0 -0.00000000000E+00 -0.00000000000E+00 -0.74505805969E-08  0.93827000000E+00  0.93827000000E+00 0. -1.
     999903    2    1    2    0    0 -0.75149742183E-01  0.17610939227E-01 -0.21913130195E-01  0.82657704295E-01  0.19861567756E-01 0.  0.
         14    1    1    2    0    0 -0.34481834034E-01  0.23471184283E-01 -0.56312735551E-01  0.70078652635E-01  0.00000000000E+00 0. -1.
     999901    1    1    2    0    0  0.10963157622E+00 -0.41082123509E-01  0.78225865746E-01  0.89119364307E+00  0.88000000000E+00 0.  1.
        -11    1    3    3    0    0 -0.22981690117E-01  0.11515215918E-02  0.16888478792E-02  0.23078072076E-01  0.51100000000E-03 0. -1.
         11    1    3    3    0    0 -0.52168052066E-01  0.16459417635E-01 -0.23601978074E-01  0.59579632219E-01  0.51100000000E-03 0.  1.
</event>
<event>
 7    1  0.1208168E+005  0.1043930E+01  0.7957747E-01            NaN
         13   -1    0    0    0    0  0.00000000000E+00  0.00000000000E+00  0.74505805969E-08  0.10566000000E+00  0.10566000000E+00 0.  1.
     999900   -1    0    0    0    0 -0.00000000000E+00 -0.00000000000E+00 -0.74505805969E-08  0.93827000000E+00  0.93827000000E+00 0.  1.
     999903    2    1    2    0    0 -0.10427441958E-01 -0.54987464136E-01  0.85228628811E-01  0.10393172522E+00  0.20137814695E-01 0.  0.
         14    1    1    2    0    0 -0.32998421901E-01  0.22132777665E-01  0.31388990989E-01  0.50636197037E-01  0.00000000000E+00 0.  1.
     999901    1    1    2    0    0  0.43425863859E-01  0.32854686472E-01 -0.11661761980E+00  0.88936207774E+00  0.88000000000E+00 0.  1.
        -11    1    3    3    0    0  0.51268618958E-02 -0.11028740516E-01  0.24569188832E-01  0.27419409022E-01  0.51100000000E-03 0. -1.
         11    1    3    3    0    0 -0.15554303854E-01 -0.43958723620E-01  0.60659439980E-01  0.76512316201E-01  0.51100000000E-03 0.  1.
</event>
<event>
 8    1  0.1208168E+005  0.1043930E+01  0.7957747E-01            NaN
         13   -1    0    0    0    0  0.00000000000E+00  0.00000000000E+00  0.74505805969E-08  0.10566000000E+00  0.10566000000E+00 0. -1.
     999900   -1    0    0    0    0 -0.00000000000E+00 -0.00000000000E+00 -0.74505805969E-08  0.93827000000E+00  0.93827000000E+00 0. -1.
     999902    2    1    2    0    0  0.37258246567E-02  0.19682326309E-01 -0.11841119070E-01  0.10206601087E+01  0.10203948107E+01 0.  0.
     999903    2    3    3    0    0  0.42239123734E-02  0.68868796269E-01 -0.11259456077E+00  0.13354635452E+00  0.19908318767E-01 0.  0.
         14    1    1    2    0    0 -0.37258246567E-02 -0.19682326309E-01  0.11841119070E-01  0.23269891257E-01  0.00000000000E+00 0. -1.
     999901    1    3    3    0    0 -0.49808771670E-03 -0.49186469960E-01  0.10075344170E+00  0.88711375422E+00  0.88000000000E+00 0.  1.
        -11    1    4    4    0    0  0.15002453187E-02  0.14630427325E-01 -0.41834412960E-01  0.44347258860E-01  0.51100000000E-03 0.  1.
         11    1    4    4    0    0  0.27236670547E-02  0.54238368944E-01 -0.70760147806E-01  0.89199095659E-01  0.51100000000E-03 0. -1.
</event>
<event>
 8    1  0.1208168E+005  0.1043930E+01  0.7957747E-01            NaN
         13   -1    0    0    0    0  0.00000000000E+00  0.00000000000E+00  0.74505805969E-08  0.10566000000E+00  0.10566000000E+00 0.  1.
     999900   -1    0    0    0    0 -0.00000000000E+00 -0.00000000000E+00 -0.74505805969E-08  0.93827000000E+00  0.93827000000E+00 0. -1.
     999902    2    1    2    0    0 -0.91817146865E-02 -0.10746451759E-01  0.18764663069E-01  0.10204373907E+01  0.10201669303E+01 0.  0.
     999903    2    3    3    0    0 -0.28823651110E-02 -0.12841910861E+00 -0.21171576579E-01  0.13168464716E+00  0.19820069570E-01 0.  0.
         14    1    1    2    0    0  0.91817146865E-02  0.10746451759E-01 -0.18764663069E-01  0.23492609265E-01  0.00000000000E+00 0. -1.
     999901    1    3    3    0    0 -0.62993495754E-02  0.11767265685E+00  0.39936239648E-01  0.88875274358E+00  0.88000000000E+00 0. -1.
        -11    1    4    4    0    0 -0.11961001719E-02 -0.58819509275E-01  0.27442386376E-03  0.58834528608E-01  0.51100000000E-03 0.  1.
         11    1    4    4    0    0 -0.16862649392E-02 -0.69599599335E-01 -0.21446000442E-01  0.72850118552E-01  0.51100000000E-03 0. -1.
</event>
<event>
 8    1  0.1208168E+005  0.1043930E+01  0.7957747E-01            NaN
         13   -1    0    0    0    0  0.00000000000E+00  0.00000000000E+00  0.74505805969E-08  0.10566000000E+00  0.10566000000E+00 0. -1.
     999900   -1    0    0    0    0 -0.00000000000E+00 -0.00000000000E+00 -0.74505805969E-08  0.93827000000E+00  0.93827000000E+00 0. -1.
     999902    2    1    2    0    0  0.15908484598E-01  0.80562828219E-02  0.99732006619E-02  0.10234984483E+01  0.10232944959E+01 0.  0.
     999903    2    3    3    0    0 -0.29682444671E-01 -0.11677505847E+00  0.50659491750E-01  0.13259061302E+00  0.22280591462E-01 0.  0.
         14    1    1    2    0    0 -0.15908484598E-01 -0.80562828219E-02 -0.99732006619E-02  0.20431551741E-01  0.00000000000E+00 0.  1.
     999901    1    3    3    0    0  0.45590929269E-01  0.12483134129E+00 -0.40686291088E-01  0.89090783523E+00  0.88000000000E+00 0.  1.
        -11    1    4    4    0    0 -0.19473010916E-02 -0.52111220913E-01  0.20430563444E-01  0.56009288250E-01  0.51100000000E-03 0.  1.
         11    1    4    4    0    0 -0.27735143580E-01 -0.64663837555E-01  0.30228928305E-01  0.76581324775E-01  0.51100000000E-03 0. -1.
</event>
<event>
 8    1  0.1208168E+005  0.1043930E+01  0.7957747E-01            NaN
         13   -1    0    0    0    0  0.00000000000E+00  0.00000000000E+00  0.74505805969E-08  0.10566000000E+00  0.10566000000E+00 0.  1.
     999900   -1    0    0    0    0 -0.00000000000E+00 -0.00000000000E+00 -0.74505805969E-08  0.93827000000E+00  0.93827000000E+00 0. -1.
     999902    2    1    2    0    0  0.22868381302E-01  0.46589655749E-02  0.56016762610E-03  0.10205851374E+01  0.10203181073E+01 0.  0.
     999903    2    3    3    0    0 -0.16687583385E-01  0.81354857965E-01 -0.99011051858E-01  0.13077540377E+00  0.20048179163E-01 0.  0.
         14    1    1    2    0    0 -0.22868381302E-01 -0.46589655749E-02 -0.56016762610E-03  0.23344862633E-01  0.00000000000E+00 0.  1.
     999901    1    3    3    0    0  0.39555964687E-01 -0.76695892390E-01  0.99571219484E-01  0.88980973360E+00  0.88000000000E+00 0. -1.
        -11    1    4    4    0    0 -0.63738382301E-02  0.68967762665E-01 -0.78638736747E-01  0.10479260536E+00  0.51100000000E-03 0. -1.
         11    1    4    4    0    0 -0.10313745155E-01  0.12387095300E-01 -0.20372315111E-01  0.25982798408E-01  0.51100000000E-03 0.  1.
</event>
<event>
 8    1  0.1208168E+005  0.1043930E+01  0.7957747E-01            NaN
         13   -1    0    0    0    0  0.00000000000E+00  0.00000000000E+00  0.74505805969E-08  0.10566000000E+00  0.10566000000E+00 0. -1.
     999900   -1    0    0    0    0 -0.00000000000E+00 -0.00000000000E+00 -0.74505805969E-08  0.93827000000E+00  0.93827000000E+00 0.  1.
     999902    2    1    2    0    0  0.11642950940E-01 -0.20475452778E-01  0.35148431993E-02  0.10201149502E+01  0.10198369257E+01 0.  0.
     999903    2    3    3    0    0  0.12853866672E+00 -0.12936882744E-01  0.10406178421E-01  0.13232616402E+00  0.26690323292E-01 0.  0.
         14    1    1    2    0    0 -0.11642950940E-01  0.20475452778E-01 -0.35148431993E-02  0.23815049775E-01  0.00000000000E+00 0.  1.
     999901    1    3    3    0    0 -0.11689571578E+00 -0.75385700344E-02 -0.68913352222E-02  0.88778878620E+00  0.88000000000E+00 0.  1.
        -11    1    4    4    0    0  0.38773526234E-01 -0.16152812827E-01  0.55380099669E-02  0.42370159007E-01  0.51100000000E-03 0. -1.
         11    1    4    4    0    0  0.89765140489E-01  0.32159300828E-02  0.48681684546E-02  0.89956005015E-01  0.51100000000E-03 0.  1.
</event>
<event>
 8    1  0.1208168E+005  0.1043930E+01  0.7957747E-01            NaN
         13   -1    0    0    0    0  0.00000000000E+00  0.00000000000E+00  0.74505805969E-08  0.10566000000E+00  0.10566000000E+00 0. -1.
     999900   -1    0    0    0    0 -0.00000000000E+00 -0.00000000000E+00 -0.74505805969E-08  0.93827000000E+00  0.93827000000E+00 0.  1.
     999902    2    1    2    0    0 -0.84931551076E-02 -0.22864428997E-01 -0.14045163916E-02  0.10194986991E+01  0.10192059208E+01 0.  0.
     999903    2    3    3    0    0 -0.47187675248E-01  0.92388993567E-01  0.72467991806E-01  0.12807412868E+00  0.19722316600E-01 0.  0.
         14    1    1    2    0    0  0.84931551076E-02  0.22864428997E-01  0.14045163916E-02  0.24431300893E-01  0.00000000000E+00 0. -1.
     999901    1    3    3    0    0  0.38694520141E-01 -0.11525342256E+00 -0.73872508197E-01  0.89142457043E+00  0.88000000000E+00 0.  1.
        -11    1    4    4    0    0 -0.39546121396E-01  0.58147044919E-01  0.51919070886E-01  0.87411816094E-01  0.51100000000E-03 0.  1.
         11    1    4    4    0    0 -0.76415538519E-02  0.34241948648E-01  0.20548920920E-01  0.40662312581E-01  0.51100000000E-03 0. -1.
</event>
<event>
 8    1  0.1208168E+005  0.1043930E+01  0.7957747E-01            NaN
         13   -1    0    0    0    0  0.00000000000E+00  0.00000000000E+00  0.74505805969E-08  0.10566000000E+00  0.10566000000E+00 0.  1.
     999900   -1    0    0    0    0 -0.00000000000E+00 -0.00000000000E+00 -0.74505805969E-08  0.93827000000E+00  0.93827000000E+00 0.  1.
     999902    2    1    2    0    0 -0.32315763499E-02 -0.26038313974E-01 -0.40629105217E-02  0.10173792162E+01  0.10170327061E+01 0.  0.
     999903    2    3    3    0    0 -0.10990354813E+00 -0.37903954203E-01 -0.53664699395E-01  0.12947154054E+00  0.19169773399E-01 0.  0.
         14    1    1    2    0    0  0.32315763499E-02  0.26038313974E-01  0.40629105217E-02  0.26550783834E-01  0.00000000000E+00 0.  1.
     999901    1    3    3    0    0  0.10667197178E+00  0.11865640229E-01  0.49601788873E-01  0.88790767563E+00  0.88000000000E+00 0. -1.
        -11    1    4    4    0    0 -0.10683353781E-01 -0.73648813512E-02 -0.90039733553E-03  0.13017194848E-01  0.51100000000E-03 0.  1.
         11    1    4    4    0    0 -0.99220194348E-01 -0.30539072852E-01 -0.52764302059E-01  0.11645434569E+00  0.51100000000E-03 0. -1.
</event>
<event>
 8    1  0.1208168E+005  0.1043930E+01  0.7957747E-01            NaN
         13   -1    0    0    0    0  0.00000000000E+00  0.00000000000E+00  0.74505805969E-08  0.10566000000E+00  0.10566000000E+00 0.  1.
     999900   -1    0    0    0    0 -0.00000000000E+00 -0.00000000000E+00 -0.74505805969E-08  0.93827000000E+00  0.93827000000E+00 0. -1.
     999902    2    1    2    0    0  0.69367713107E-02  0.97428088147E-03 -0.20977068204E-01  0.10218142723E+01  0.10215749125E+01 0.  0.
     999903    2    3    3    0    0  0.29594407081E-01 -0.12676198111E+00 -0.12870896547E-01  0.13226627976E+00  0.19603060953E-01 0.  0.
         14    1    1    2    0    0 -0.69367713107E-02 -0.97428088147E-03  0.20977068204E-01  0.22115727659E-01  0.00000000000E+00 0.  1.
     999901    1    3    3    0    0 -0.22657635771E-01  0.12773626199E+00 -0.81061716563E-02  0.88954799258E+00  0.88000000000E+00 0. -1.
        -11    1    4    4    0    0  0.11459948855E-01 -0.73409516560E-01 -0.15308605360E-01  0.75861070836E-01  0.51100000000E-03 0.  1.
         11    1    4    4    0    0  0.18134458226E-01 -0.53352464548E-01  0.24377088122E-02  0.56405208924E-01  0.51100000000E-03 0. -1.
</event>
<event>
 8    1  0.1208168E+005  0.1043930E+01  0.7957747E-01            NaN
         13   -1    0    0    0    0  0.00000000000E+00  0.00000000000E+00  0.74505805969E-08  0.10566000000E+00  0.10566000000E+00 0.  1.
     999900   -1    0    0    0    0 -0.00000000000E+00 -0.00000000000E+00 -0.74505805969E-08  0.93827000000E+00  0.93827000000E+00 0.  1.
     999902    2    1    2    0    0  0.55564975899E-03  0.10338186763E-01 -0.30625178217E-01  0.10116021731E+01  0.10110854901E+01 0.  0.
     999903    2    3    3    0    0 -0.11519781116E-01  0.11914124777E+00  0.17134186176E-01  0.12353411319E+00  0.25293368869E-01 0.  0.
         14    1    1    2    0    0 -0.55564975899E-03 -0.10338186763E-01  0.30625178217E-01  0.32327826914E-01  0.00000000000E+00 0.  1.
     999901    1    3    3    0    0  0.12075430875E-01 -0.10880306101E+00 -0.47759364393E-01  0.88806805989E+00  0.88000000000E+00 0.  1.
        -11    1    4    4    0    0 -0.17802486635E-01  0.62154762605E-01  0.44179135940E-02  0.64806806173E-01  0.51100000000E-03 0. -1.
         11    1    4    4    0    0  0.62827055198E-02  0.56986485167E-01  0.12716272582E-01  0.58727307019E-01  0.51100000000E-03 0.  1.
</event>
<event>
 8    1  0.1208168E+005  0.1043930E+01  0.7957747E-01            NaN
         13   -1    0    0    0    0  0.00000000000E+00  0.00000000000E+00  0.74505805969E-08  0.10566000000E+00  0.10566000000E+00 0.  1.
     999900   -1    0    0    0    0 -0.00000000000E+00 -0.00000000000E+00 -0.74505805969E-08  0.93827000000E+00  0.93827000000E+00 0. -1.
     999902    2    1    2    0    0  0.83590600254E-02 -0.25164561512E-02 -0.21083284205E-01  0.10211109003E+01  0.10208558956E+01 0.  0.
     999903    2    3    3    0    0 -0.16646625266E-01 -0.78729761027E-01  0.99155519303E-01  0.12931993717E+00  0.20404502863E-01 0.  0.
         14    1    1    2    0    0 -0.83590600254E-02  0.25164561512E-02  0.21083284205E-01  0.22819099653E-01  0.00000000000E+00 0.  1.
     999901    1    3    3    0    0  0.25005685292E-01  0.76213304875E-01 -0.12023880351E+00  0.89179096318E+00  0.88000000000E+00 0. -1.
        -11    1    4    4    0    0 -0.67126767330E-03 -0.35538662948E-01  0.31620643865E-01  0.47577026009E-01  0.51100000000E-03 0. -1.
         11    1    4    4    0    0 -0.15975357593E-01 -0.43191098078E-01  0.67534875439E-01  0.81742911160E-01  0.51100000000E-03 0.  1.
</event>
<event>
 8    1  0.1208168E+005  0.1043930E+01  0.7957747E-01            NaN
         13   -1    0    0    0    0  0.00000000000E+00  0.00000000000E+00  0.74505805969E-08  0.10566000000E+00  0.10566000000E+00 0.  1.
     999900   -1    0    0    0    0 -0.00000000000E+00 -0.00000000000E+00 -0.74505805969E-08  0.93827000000E+00  0.93827000000E+00 0. -1.
     999902    2    1    2    0    0 -0.43874594332E-02  0.18635825745E-02 -0.21623698419E-01  0.10217871214E+01  0.10215471670E+01 0.  0.
     999903    2    3    3    0    0  0.42212244451E-02 -0.12410651203E+00 -0.43368823712E-01  0.13250908575E+00  0.16048609650E-01 0.  0.
         14    1    1    2    0    0  0.43874594332E-02 -0.18635825745E-02  0.21623698419E-01  0.22142878621E-01  0.00000000000E+00 0.  1.
     999901    1    3    3    0    0 -0.86086838783E-02  0.12597009461E+00  0.21745125293E-01  0.88927803563E+00  0.88000000000E+00 0.  1.
        -11    1    4    4    0    0  0.94228799729E-05 -0.83709020091E-01 -0.21728977797E-01  0.86484736980E-01  0.51100000000E-03 0. -1.
         11    1    4    4    0    0  0.42118015652E-02 -0.40397491943E-01 -0.21639845915E-01  0.46024348773E-01  0.51100000000E-03 0.  1.
</event>
<event>
 8    1  0.1208168E+005  0.1043930E+01  0.7957747E-01            NaN
         13   -1    0    0    0    0  0.00000000000E+00  0.00000000000E+00  0.74505805969E-08  0.10566000000E+00  0.10566000000E+00 0. -1.
     999900   -1    0    0    0    0 -0.00000000000E+00 -0.00000000000E+00 -0.74505805969E-08  0.93827000000E+00  0.93827000000E+00 0.  1.
     999902    2    1    2    0    0 -0.18387066405E-01 -0.65521809304E-02  0.12894745652E-01  0.10205357753E+01  0.10202676016E+01 0.  0.
     999903    2    3    3    0    0 -0.27438872790E-01 -0.12631700798E+00 -0.18044776694E-01  0.13183852476E+00  0.18625369759E-01 0.  0.
         14    1    1    2    0    0  0.18387066405E-01  0.65521809304E-02 -0.12894745652E-01  0.23394224743E-01  0.00000000000E+00 0.  1.
     999901    1    3    3    0    0  0.90518063857E-02  0.11976482705E+00  0.30939522346E-01  0.88869725050E+00  0.88000000000E+00 0. -1.
        -11    1    4    4    0    0 -0.27730549672E-01 -0.11665617458E+00 -0.12188076242E-01  0.12052575151E+00  0.51100000000E-03 0.  1.
         11    1    4    4    0    0  0.29167688151E-03 -0.96608334008E-02 -0.58567004527E-02  0.11312773249E-01  0.51100000000E-03 0. -1.
</event>
<event>
 8    1  0.1208168E+005  0.1043930E+01  0.7957747E-01            NaN
         13   -1    0    0    0    0  0.00000000000E+00  0.00000000000E+00  0.74505805969E-08  0.10566000000E+00  0.10566000000E+00 0. -1.
     999900   -1    0    0    0    0 -0.00000000000E+00 -0.00000000000E+00 -0.74505805969E-08  0.93827000000E+00  0.93827000000E+00 0. -1.
     999902    2    1    2    0    0  0.43337187538E-02  0.19759251441E-02 -0.22084494866E-01  0.10213377378E+01  0.10210878338E+01 0.  0.
     999903    2    3    3    0    0  0.90624568290E-01 -0.39613681720E-02  0.90703428065E-01  0.12993296008E+00  0.20662948387E-01 0.  0.
         14    1    1    2    0    0 -0.43337187538E-02 -0.19759251441E-02  0.22084494866E-01  0.22592262213E-01  0.00000000000E+00 0. -1.
     999901    1    3    3    0    0 -0.86290849536E-01  0.59372933161E-02 -0.11278792293E+00  0.89140477771E+00  0.88000000000E+00 0. -1.
        -11    1    4    4    0    0  0.50487270049E-01 -0.14390714738E-02  0.35961294576E-01  0.62004122382E-01  0.51100000000E-03 0.  1.
         11    1    4    4    0    0  0.40137298241E-01 -0.25222966982E-02  0.54742133489E-01  0.67928837695E-01  0.51100000000E-03 0. -1.
</event>
<event>
 8    1  0.1208168E+005  0.1043930E+01  0.7957747E-01            NaN
         13   -1    0    0    0    0  0.00000000000E+00  0.00000000000E+00  0.74505805969E-08  0.10566000000E+00  0.10566000000E+00 0. -1.
     999900   -1    0    0    0    0 -0.00000000000E+00 -0.00000000000E+00 -0.74505805969E-08  0.93827000000E+00  0.93827000000E+00 0. -1.
     999902    2    1    2    0    0 -0.72176051272E-03  0.22713847230E-01  0.58818501982E-02  0.10204558449E+01  0.10201858142E+01 0.  0.
     999903    2    3    3    0    0 -0.11347782871E+00  0.36802679526E-01  0.52136013344E-01  0.13194480183E+00  0.21438563724E-01 0.  0.
         14    1    1    2    0    0  0.72176051272E-03 -0.22713847230E-01 -0.58818501982E-02  0.23474155065E-01  0.00000000000E+00 0.  1.
     999901    1    3    3    0    0  0.11275606819E+00 -0.14088832296E-01 -0.46254163146E-01  0.88851104310E+00  0.88000000000E+00 0. -1.
        -11    1    4    4    0    0 -0.41202816295E-01  0.44869142060E-02  0.11838071059E-01  0.43106907998E-01  0.51100000000E-03 0.  1.
         11    1    4    4    0    0 -0.72275012412E-01  0.32315765320E-01  0.40297942285E-01  0.88837893833E-01  0.51100000000E-03 0. -1.
</event>
<event>
 8    1  0.1208168E+005  0.1043930E+01  0.7957747E-01            NaN
         13   -1    0    0    0    0  0.00000000000E+00  0.00000000000E+00  0.74505805969E-08  0.10566000000E+00  0.10566000000E+00 0. -1.
     999900   -1    0    0    0    0 -0.00000000000E+00 -0.00000000000E+00 -0.74505805969E-08  0.93827000000E+00  0.93827000000E+00 0. -1.
     999902    2    1    2    0    0  0.17089172243E-01 -0.82670359839E-02  0.29829308581E-01  0.10085722379E+01  0.10079522745E+01 0.  0.
     999903    2    3    3    0    0 -0.40307671535E-01 -0.11135125035E+00  0.10147920489E-01  0.12047983843E+00  0.19712986537E-01 0.  0.
         14    1    1    2    0    0 -0.17089172243E-01  0.82670359839E-02 -0.29829308581E-01  0.35357762123E-01  0.00000000000E+00 0.  1.
     999901    1    3    3    0    0  0.57396843778E-01  0.10308421436E+00  0.19681388092E-01  0.88809239945E+00  0.88000000000E+00 0. -1.
        -11    1    4    4    0    0 -0.15231606646E-01 -0.68129101622E-01  0.98678249972E-02  0.70506818252E-01  0.51100000000E-03 0.  1.
         11    1    4    4    0    0 -0.25076064889E-01 -0.43222148726E-01  0.28009549173E-03  0.49973020174E-01  0.51100000000E-03 0. -1.
</event>
<event>
 8    1  0.1208168E+005  0.1043930E+01  0.7957747E-01            NaN
         13   -1    0    0    0    0  0.00000000000E+00  0.00000000000E+00  0.74505805969E-08  0.10566000000E+00  0.10566000000E+00 0. -1.
     999900   -1    0    0    0    0 -0.00000000000E+00 -0.00000000000E+00 -0.74505805969E-08  0.93827000000E+00  0.93827000000E+00 0.  1.
     999902    2    1    2    0    0  0.70622295925E-02  0.16086005875E-01 -0.13582799486E-01  0.10217235344E+01  0.10214821847E+01 0.  0.
     999903    2    3    3    0    0  0.49978391903E-01 -0.88718967079E-01 -0.80423650343E-01  0.13195189029E+00  0.23967541400E-01 0.  0.
         14    1    1    2    0    0 -0.70622295925E-02 -0.16086005875E-01  0.13582799486E-01  0.22206465584E-01  0.00000000000E+00 0. -1.
     999901    1    3    3    0    0 -0.42916162310E-01  0.10480497295E+00  0.66840850857E-01  0.88977164412E+00  0.88000000000E+00 0.  1.
        -11    1    4    4    0    0  0.41620452245E-02 -0.46363986332E-02 -0.14233012413E-01  0.15545371533E-01  0.51100000000E-03 0.  1.
         11    1    4    4    0    0  0.45816346678E-01 -0.84082568445E-01 -0.66190637929E-01  0.11640651876E+00  0.51100000000E-03 0. -1.
</event>
<event>
 8    1  0.1208168E+005  0.1043930E+01  0.7957747E-01            NaN
         13   -1    0    0    0    0  0.00000000000E+00  0.00000000000E+00  0.74505805969E-08  0.10566000000E+00  0.10566000000E+00 0.  1.
     999900   -1    0    0    0    0 -0.00000000000E+00 -0.00000000000E+00 -0.74505805969E-08  0.93827000000E+00  0.93827000000E+00 0. -1.
     999902    2    1    2    0    0 -0.11265371576E-01 -0.71645132976E-02 -0.19953455843E-01  0.10199221003E+01  0.10196395007E+01 0.  0.
     999903    2    3    3    0    0  0.11818550851E+00 -0.48549808698E-01  0.11997308032E-02  0.12923824487E+00  0.19395521071E-01 0.  0.
         14    1    1    2    0    0  0.11265371576E-01  0.71645132976E-02  0.19953455843E-01  0.24007899692E-01  0.00000000000E+00 0.  1.
     999901    1    3    3    0    0 -0.12945088008E+00  0.41385295401E-01 -0.21153186647E-01  0.89068385544E+00  0.88000000000E+00 0.  1.
        -11    1    4    4    0    0  0.69880103016E-01 -0.20054223821E-01 -0.46297414971E-02  0.72849820302E-01  0.51100000000E-03 0. -1.
         11    1    4    4    0    0  0.48305405491E-01 -0.28495584877E-01  0.58294723004E-02  0.56388424569E-01  0.51100000000E-03 0.  1.
</event>
<event>
 8    1  0.1208168E+005  0.1043930E+01  0.7957747E-01            NaN
         13   -1    0    0    0    0  0.00000000000E+00  0.00000000000E+00  0.74505805969E-08  0.10566000000E+00  0.10566000000E+00 0. -1.
     999900   -1    0    0    0    0 -0.00000000000E+00 -0.00000000000E+00 -0.74505805969E-08  0.93827000000E+00  0.93827000000E+00 0.  1.
     999902    2    1    2    0    0 -0.75045227725E-03 -0.16823572469E-01 -0.16814180643E-01  0.10201326800E+01  0.10198550742E+01 0.  0.
     999903    2    3    3    0    0 -0.79398149533E-01  0.72516776191E-01 -0.71155167021E-01  0.13045852560E+00  0.19839862120E-01 0.  0.
         14    1    1    2    0    0  0.75045227725E-03  0.16823572469E-01  0.16814180643E-01  0.23797320016E-01  0.00000000000E+00 0. -1.
     999901    1    3    3    0    0  0.78647697256E-01 -0.89340348660E-01  0.54340986378E-01  0.88967415439E+00  0.88000000000E+00 0. -1.
        -11    1    4    4    0    0 -0.26588240576E-01  0.14676399885E-01 -0.26435956478E-01  0.40267259236E-01  0.51100000000E-03 0.  1.
         11    1    4    4    0    0 -0.52809908958E-01  0.57840376306E-01 -0.44719210543E-01  0.90191266361E-01  0.51100000000E-03 0. -1.
</event>
<event>
 8    1  0.1208168E+005  0.1043930E+01  0.7957747E-01            NaN
         13   -1    0    0    0    0  0.00000000000E+00  0.00000000000E+00  0.74505805969E-08  0.10566000000E+00  0.10566000000E+00 0.  1.
     999900   -1    0    0    0    0 -0.00000000000E+00 -0.00000000000E+00 -0.74505805969E-08  0.93827000000E+00  0.93827000000E+00 0. -1.
     999902    2    1    2    0    0  0.83324958443E-02 -0.22019893121E-01  0.26898881241E-02  0.10202331294E+01  0.10199578896E+01 0.  0.
     999903    2    3    3    0    0  0.15253565528E-01 -0.16160984767E-01 -0.12703272261E+00  0.13067695702E+00  0.21102269807E-01 0.  0.
         14    1    1    2    0    0 -0.83324958443E-02  0.22019893121E-01 -0.26898881241E-02  0.23696870641E-01  0.00000000000E+00 0.  1.
     999901    1    3    3    0    0 -0.69210696841E-02 -0.58589083535E-02  0.12972261074E+00  0.88955617234E+00  0.88000000000E+00 0.  1.
        -11    1    4    4    0    0  0.92200105850E-02  0.28054589071E-02 -0.26768239846E-01  0.28454858642E-01  0.51100000000E-03 0. -1.
         11    1    4    4    0    0  0.60335549434E-02 -0.18966443675E-01 -0.10026448277E+00  0.10222209838E+00  0.51100000000E-03 0.  1.
</event>
<event>
 8    1  0.1208168E+005  0.1043930E+01  0.7957747E-01            NaN
         13   -1    0    0    0    0  0.00000000000E+00  0.00000000000E+00  0.74505805969E-08  0.10566000000E+00  0.10566000000E+00 0.  1.
     999900   -1    0    0    0    0 -0.00000000000E+00 -0.00000000000E+00 -0.74505805969E-08  0.93827000000E+00  0.93827000000E+00 0. -1.
     999902    2    1    2    0    0 -0.20517962241E-02 -0.23668815734E-02  0.23229588039E-01  0.10204901673E+01  0.10202209348E+01 0.  0.
     999903    2    3    3    0    0  0.21286351144E-01  0.11653312738E+00  0.54522674204E-01  0.13163633315E+00  0.17953375195E-01 0.  0.
         14    1    1    2    0    0  0.20517962241E-02  0.23668815734E-02 -0.23229588039E-01  0.23439832691E-01  0.00000000000E+00 0. -1.
     999901    1    3    3    0    0 -0.23338147368E-01 -0.11890000896E+00 -0.31293086165E-01  0.88885383416E+00  0.88000000000E+00 0.  1.
        -11    1    4    4    0    0  0.19341907653E-01  0.10096988525E+00  0.53540125438E-01  0.11591304186E+00  0.51100000000E-03 0.  1.
         11    1    4    4    0    0  0.19444434902E-02  0.15563242130E-01  0.98254876550E-03  0.15723291295E-01  0.51100000000E-03 0. -1.
</event>
<event>
 8    1  0.1208168E+005  0.1043930E+01  0.7957747E-01            NaN
         13   -1    0    0    0    0  0.00000000000E+00  0.00000000000E+00  0.74505805969E-08  0.10566000000E+00  0.10566000000E+00 0. -1.
     999900   -1    0    0    0    0 -0.00000000000E+00 -0.00000000000E+00 -0.74505805969E-08  0.93827000000E+00  0.93827000000E+00 0.  1.
     999902    2    1    2    0    0 -0.13465253014E-01  0.18612027251E-01  0.66323144054E-02  0.10200195799E+01  0.10197392976E+01 0.  0.
     999903    2    3    3    0    0  0.30411646099E-01 -0.32502933401E-01 -0.11908664505E+00  0.12853588497E+00  0.18935041519E-01 0.  0.
         14    1    1    2    0    0  0.13465253014E-01 -0.18612027251E-01 -0.66323144054E-02  0.23910420145E-01  0.00000000000E+00 0. -1.
     999901    1    3    3    0    0 -0.43876899112E-01  0.51114960652E-01  0.12571895946E+00  0.89148369488E+00  0.88000000000E+00 0. -1.
        -11    1    4    4    0    0  0.15763080615E-01 -0.87146141431E-02 -0.67551223930E-01  0.69913147444E-01  0.51100000000E-03 0.  1.
         11    1    4    4    0    0  0.14648565484E-01 -0.23788319258E-01 -0.51535421122E-01  0.58622737527E-01  0.51100000000E-03 0. -1.
</event>
<event>
 8    1  0.1208168E+005  0.1043930E+01  0.7957747E-01            NaN
         13   -1    0    0    0    0  0.00000000000E+00  0.00000000000E+00  0.74505805969E-08  0.10566000000E+00  0.10566000000E+00 0. -1.
     999900   -1    0    0    0    0 -0.00000000000E+00 -0.00000000000E+00 -0.74505805969E-08  0.93827000000E+00  0.93827000000E+00 0.  1.
     999902    2    1    2    0    0  0.49327143344E-02 -0.16264757233E-01 -0.16202592109E-01  0.10204481349E+01  0.10201779247E+01 0.  0.
     999903    2    3    3    0    0  0.79930843478E-01 -0.70485122872E-01  0.73638854189E-01  0.13104605882E+00  0.19831701901E-01 0.  0.
         14    1    1    2    0    0 -0.49327143344E-02  0.16264757233E-01  0.16202592109E-01  0.23481865122E-01  0.00000000000E+00 0.  1.
     999901    1    3    3    0    0 -0.74998129143E-01  0.54220365640E-01 -0.89841446299E-01  0.88940207606E+00  0.88000000000E+00 0. -1.
        -11    1    4    4    0    0  0.54743635783E-01 -0.54528342329E-01  0.61871337768E-01  0.98987521103E-01  0.51100000000E-03 0.  1.
         11    1    4    4    0    0  0.25187207695E-01 -0.15956780543E-01  0.11767516421E-01  0.32058537716E-01  0.51100000000E-03 0. -1.
</event>
<event>
 8    1  0.1208168E+005  0.1043930E+01  0.7957747E-01            NaN
         13   -1    0    0    0    0  0.00000000000E+00  0.00000000000E+00  0.74505805969E-08  0.10566000000E+00  0.10566000000E+00 0. -1.
     999900   -1    0    0    0    0 -0.00000000000E+00 -0.00000000000E+00 -0.74505805969E-08  0.93827000000E+00  0.93827000000E+00 0. -1.
     999902    2    1    2    0    0  0.22254165131E-01  0.41332514613E-02 -0.46470278563E-02  0.10208231503E+01  0.10205615992E+01 0.  0.
     999903    2    3    3    0    0  0.39124842639E-01  0.10824926020E-01  0.12332418044E+00  0.13138173663E+00  0.20109075168E-01 0.  0.
         14    1    1    2    0    0 -0.22254165131E-01 -0.41332514613E-02  0.46470278563E-02  0.23106849661E-01  0.00000000000E+00 0.  1.
     999901    1    3    3    0    0 -0.16870677508E-01 -0.66916745586E-02 -0.12797120830E+00  0.88944141371E+00  0.88000000000E+00 0. -1.
        -11    1    4    4    0    0  0.18998658014E-01  0.15044625627E-01  0.56970759402E-01  0.61912989868E-01  0.51100000000E-03 0.  1.
         11    1    4    4    0    0  0.20126184624E-01 -0.42196996071E-02  0.66353421038E-01  0.69468746762E-01  0.51100000000E-03 0. -1.
</event>
<event>
 8    1  0.1208168E+005  0.1043930E+01  0.7957747E-01            NaN
         13   -1    0    0    0    0  0.00000000000E+00  0.00000000000E+00  0.74505805969E-08  0.10566000000E+00  0.10566000000E+00 0. -1.
     999900   -1    0    0    0    0 -0.00000000000E+00 -0.00000000000E+00 -0.74505805969E-08  0.93827000000E+00  0.93827000000E+00 0.  1.
     999902    2    1    2    0    0 -0.35050913090E-03 -0.23526379064E-01  0.47996411296E-02  0.10199164637E+01  0.10196337299E+01 0.  0.
     999903    2    3    3    0    0 -0.57952610898E-01  0.77183222918E-01  0.83128758425E-01  0.12885200105E+00  0.19408572532E-01 0.  0.
         14    1    1    2    0    0  0.35050913090E-03  0.23526379064E-01 -0.47996411296E-02  0.24013536255E-01  0.00000000000E+00 0. -1.
     999901    1    3    3    0    0  0.57602101767E-01 -0.10070960198E+00 -0.78329117295E-01  0.89106446269E+00  0.88000000000E+00 0. -1.
        -11    1    4    4    0    0 -0.32209412831E-01  0.33373565550E-01  0.29493641403E-01  0.54967055194E-01  0.51100000000E-03 0.  1.
         11    1    4    4    0    0 -0.25743198066E-01  0.43809657369E-01  0.53635117022E-01  0.73884945858E-01  0.51100000000E-03 0. -1.
</event>
<event>
 8    1  0.1208168E+005  0.1043930E+01  0.7957747E-01            NaN
         13   -1    0    0    0    0  0.00000000000E+00  0.00000000000E+00  0.74505805969E-08  0.10566000000E+00  0.10566000000E+00 0. -1.
     999900   -1    0    0    0    0 -0.00000000000E+00 -0.00000000000E+00 -0.74505805969E-08  0.93827000000E+00  0.93827000000E+00 0. -1.
     999902    2    1    2    0    0  0.21659305232E-01 -0.69858140653E-02  0.70641700359E-02  0.10201008246E+01  0.10198224663E+01 0.  0.
     999903    2    3    3    0    0 -0.21837421068E-01 -0.11492450321E+00  0.55902939420E-01  0.13109691506E+00  0.19410000143E-01 0.  0.
         14    1    1    2    0    0 -0.21659305232E-01  0.69858140653E-02 -0.70641700359E-02  0.23829175386E-01  0.00000000000E+00 0.  1.
     999901    1    3    3    0    0  0.43496726299E-01  0.10793868914E+00 -0.48838769384E-01  0.88900390956E+00  0.88000000000E+00 0. -1.
        -11    1    4    4    0    0 -0.38605032235E-03 -0.31794151965E-01  0.22580694474E-01  0.39002128377E-01  0.51100000000E-03 0. -1.
         11    1    4    4    0    0 -0.21451370745E-01 -0.83130351242E-01  0.33322244946E-01  0.92094786680E-01  0.51100000000E-03 0.  1.
</event>
<event>
 8    1  0.1208168E+005  0.1043930E+01  0.7957747E-01            NaN
         13   -1    0    0    0    0  0.00000000000E+00  0.00000000000E+00  0.74505805969E-08  0.10566000000E+00  0.10566000000E+00 0.  1.
     999900   -1    0    0    0    0 -0.00000000000E+00 -0.00000000000E+00 -0.74505805969E-08  0.93827000000E+00  0.93827000000E+00 0. -1.
     999902    2    1    2    0    0 -0.19818709308E-01 -0.98572481406E-02 -0.10228588487E-01  0.10195461816E+01  0.10192545539E+01 0.  0.
     999903    2    3    3    0    0  0.25930494414E-01  0.99790440712E-01 -0.75281432618E-01  0.12918250426E+00  0.19756080392E-01 0.  0.
         14    1    1    2    0    0  0.19818709308E-01  0.98572481406E-02  0.10228588487E-01  0.24383818445E-01  0.00000000000E+00 0. -1.
     999901    1    3    3    0    0 -0.45749203722E-01 -0.10964768885E+00  0.65052844132E-01  0.89036367729E+00  0.88000000000E+00 0.  1.
        -11    1    4    4    0    0  0.26890580780E-01  0.80641489394E-01 -0.54896786497E-01  0.10119323809E+00  0.51100000000E-03 0. -1.
         11    1    4    4    0    0 -0.96008636621E-03  0.19148951318E-01 -0.20384646122E-01  0.27989266173E-01  0.51100000000E-03 0.  1.
</event>
<event>
 8    1  0.1208168E+005  0.1043930E+01  0.7957747E-01            NaN
         13   -1    0    0    0    0  0.00000000000E+00  0.00000000000E+00  0.74505805969E-08  0.10566000000E+00  0.10566000000E+00 0.  1.
     999900   -1    0    0    0    0 -0.00000000000E+00 -0.00000000000E+00 -0.74505805969E-08  0.93827000000E+00  0.93827000000E+00 0.  1.
     999902    2    1    2    0    0  0.22428603208E-01  0.54297471089E-02  0.19007535941E-02  0.10207753620E+01  0.10205127155E+01 0.  0.
     999903    2    3    3    0    0  0.63540541026E-01  0.78275093431E-01  0.84382767042E-01  0.13296912277E+00  0.19898382646E-01 0.  0.
         14    1    1    2    0    0 -0.22428603208E-01 -0.54297471089E-02 -0.19007535941E-02  0.23154637975E-01  0.00000000000E+00 0. -1.
     999901    1    3    3    0    0 -0.41111937819E-01 -0.72845346323E-01 -0.82482013448E-01  0.88780623925E+00  0.88000000000E+00 0.  1.
        -11    1    4    4    0    0  0.51631518860E-01  0.63873929651E-01  0.57643934686E-01  0.10034329552E+00  0.51100000000E-03 0.  1.
         11    1    4    4    0    0  0.11909022167E-01  0.14401163781E-01  0.26738832356E-01  0.32625827253E-01  0.51100000000E-03 0. -1.
</event>
<event>
 8    1  0.1208168E+005  0.1043930E+01  0.7957747E-01            NaN
         13   -1    0    0    0    0  0.00000000000E+00  0.00000000000E+00  0.74505805969E-08  0.10566000000E+00  0.10566000000E+00 0.  1.
     999900   -1    0    0    0    0 -0.00000000000E+00 -0.00000000000E+00 -0.74505805969E-08  0.93827000000E+00  0.93827000000E+00 0. -1.
     999902    2    1    2    0    0  0.31491046295E-01  0.86484055526E-02  0.14025702968E-03  0.10112726794E+01  0.10107452357E+01 0.  0.
     999903    2    3    3    0    0 -0.45740951452E-01 -0.96844690102E-01  0.50826364608E-01  0.12017074574E+00  0.19661133033E-01 0.  0.
         14    1    1    2    0    0 -0.31491046295E-01 -0.86484055526E-02 -0.14025702968E-03  0.32657320579E-01  0.00000000000E+00 0. -1.
     999901    1    3    3    0    0  0.77231997747E-01  0.10549309565E+00 -0.50686107578E-01  0.89110193368E+00  0.88000000000E+00 0. -1.
        -11    1    4    4    0    0 -0.11570331776E-01 -0.18541301591E-01  0.24729501546E-02  0.22000660116E-01  0.51100000000E-03 0.  1.
         11    1    4    4    0    0 -0.34170619676E-01 -0.78303388511E-01  0.48353414454E-01  0.98170085625E-01  0.51100000000E-03 0. -1.
</event>
<event>
 8    1  0.1208168E+005  0.1043930E+01  0.7957747E-01            NaN
         13   -1    0    0    0    0  0.00000000000E+00  0.00000000000E+00  0.74505805969E-08  0.10566000000E+00  0.10566000000E+00 0. -1.
     999900   -1    0    0    0    0 -0.00000000000E+00 -0.00000000000E+00 -0.74505805969E-08  0.93827000000E+00  0.93827000000E+00 0.  1.
     999902    2    1    2    0    0  0.42080043467E-02 -0.13232283893E-01 -0.20223994765E-01  0.10193981717E+01  0.10191029495E+01 0.  0.
     999903    2    3    3    0    0  0.85841220755E-01 -0.42924468526E-01 -0.89101633858E-01  0.13244285316E+00  0.19768232524E-01 0.  0.
         14    1    1    2    0    0 -0.42080043467E-02  0.13232283893E-01  0.20223994765E-01  0.24531828343E-01  0.00000000000E+00 0. -1.
     999901    1    3    3    0    0 -0.81633216409E-01  0.29692184632E-01  0.68877639093E-01  0.88695531850E+00  0.88000000000E+00 0. -1.
        -11    1    4    4    0    0  0.47003743329E-01 -0.22458203990E-01 -0.34965619635E-01  0.62742158800E-01  0.51100000000E-03 0.  1.
         11    1    4    4    0    0  0.38837477426E-01 -0.20466264536E-01 -0.54136014222E-01  0.69700694356E-01  0.51100000000E-03 0. -1.
</event>
<event>
 8    1  0.1208168E+005  0.1043930E+01  0.7957747E-01            NaN
         13   -1    0    0    0    0  0.00000000000E+00  0.00000000000E+00  0.74505805969E-08  0.10566000000E+00  0.10566000000E+00 0.  1.
     999900   -1    0    0    0    0 -0.00000000000E+00 -0.00000000000E+00 -0.74505805969E-08  0.93827000000E+00  0.93827000000E+00 0.  1.
     999902    2    1    2    0    0  0.20388108602E-01  0.18513032398E-01  0.27927880380E-02  0.10162495555E+01  0.10158725078E+01 0.  0.
     999903    2    3    3    0    0  0.14929636136E-01 -0.11103500078E+00  0.52447731062E-01  0.12536342297E+00  0.20336122815E-01 0.  0.
         14    1    1    2    0    0 -0.20388108602E-01 -0.18513032398E-01 -0.27927880380E-02  0.27680444469E-01  0.00000000000E+00 0. -1.
     999901    1    3    3    0    0  0.54584724666E-02  0.12954803318E+00 -0.49654943024E-01  0.89088613256E+00  0.88000000000E+00 0.  1.
        -11    1    4    4    0    0 -0.12990363001E-02 -0.51755149543E-01  0.30553468492E-01  0.60117040491E-01  0.51100000000E-03 0.  1.
         11    1    4    4    0    0  0.16228672436E-01 -0.59279851241E-01  0.21894262570E-01  0.65246382479E-01  0.51100000000E-03 0. -1.
</event>
<event>
 8    1  0.1208168E+005  0.1043930E+01  0.7957747E-01            NaN
         13   -1    0    0    0    0  0.00000000000E+00  0.00000000000E+00  0.74505805969E-08  0.10566000000E+00  0.10566000000E+00 0. -1.
     999900   -1    0    0    0    0 -0.00000000000E+00 -0.00000000000E+00 -0.74505805969E-08  0.93827000000E+00  0.93827000000E+00 0. -1.
     999902    2    1    2    0    0  0.29172821712E-01  0.93254762332E-03  0.93367579626E-02  0.10132852905E+01  0.10128217917E+01 0.  0.
     999903    2    3    3    0    0 -0.37903684227E-01 -0.11518529667E+00 -0.55578285935E-02  0.12300193104E+00  0.19855571822E-01 0.  0.
         14    1    1    2    0    0 -0.29172821712E-01 -0.93254762332E-03 -0.93367579626E-02  0.30644709510E-01  0.00000000000E+00 0. -1.
     999901    1    3    3    0    0  0.67076505939E-01  0.11611784430E+00  0.14894586556E-01  0.89028335945E+00  0.88000000000E+00 0.  1.
        -11    1    4    4    0    0 -0.17972233999E-01 -0.38446815256E-01  0.60438789512E-02  0.42871300330E-01  0.51100000000E-03 0. -1.
         11    1    4    4    0    0 -0.19931450228E-01 -0.76738481416E-01 -0.11601707545E-01  0.80130630705E-01  0.51100000000E-03 0.  1.
</event>
<event>
 8    1  0.1208168E+005  0.1043930E+01  0.7957747E-01            NaN
         13   -1    0    0    0    0  0.00000000000E+00  0.00000000000E+00  0.74505805969E-08  0.10566000000E+00  0.10566000000E+00 0. -1.
     999900   -1    0    0    0    0 -0.00000000000E+00 -0.00000000000E+00 -0.74505805969E-08  0.93827000000E+00  0.93827000000E+00 0. -1.
     999902    2    1    2    0    0 -0.11719234018E-01  0.80122491329E-02  0.18349233489E-01  0.10207301950E+01  0.10204665110E+01 0.  0.
     999903    2    3    3    0    0 -0.11080756258E+00 -0.62655867404E-01  0.29402150481E-01  0.13228512269E+00  0.20755567632E-01 0.  0.
         14    1    1    2    0    0  0.11719234018E-01 -0.80122491329E-02 -0.18349233489E-01  0.23199804995E-01  0.00000000000E+00 0.  1.
     999901    1    3    3    0    0  0.99088328557E-01  0.70668116537E-01 -0.11052916992E-01  0.88844507232E+00  0.88000000000E+00 0. -1.
        -11    1    4    4    0    0 -0.33941033616E-01 -0.20140317583E-01 -0.55788628149E-03  0.39474023273E-01  0.51100000000E-03 0. -1.
         11    1    4    4    0    0 -0.76866528959E-01 -0.42515549821E-01  0.29960036762E-01  0.92811099415E-01  0.51100000000E-03 0.  1.
</event>
<event>
 8    1  0.1208168E+005  0.1043930E+01  0.7957747E-01            NaN
         13   -1    0    0    0    0  0.00000000000E+00  0.00000000000E+00  0.74505805969E-08  0.10566000000E+00  0.10566000000E+00 0.  1.
     999900   -1    0    0    0    0 -0.00000000000E+00 -0.00000000000E+00 -0.74505805969E-08  0.93827000000E+00  0.93827000000E+00 0.  1.
     999902    2    1    2    0    0 -0.75287929917E-02 -0.14212131667E-01 -0.19739921245E-01  0.10184676376E+01  0.10181492999E+01 0.  0.
     999903    2    3    3    0    0  0.73456642934E-01 -0.44103295018E-01 -0.96953898403E-01  0.13087870075E+00  0.19702712281E-01 0.  0.
         14    1    1    2    0    0  0.75287929917E-02  0.14212131667E-01  0.19739921245E-01  0.25462362443E-01  0.00000000000E+00 0.  1.
     999901    1    3    3    0    0 -0.80985435926E-01  0.29891163351E-01  0.77213977159E-01  0.88758893681E+00  0.88000000000E+00 0. -1.
        -11    1    4    4    0    0  0.36594759489E-01 -0.24472895844E-01 -0.63981988970E-01  0.77666305993E-01  0.51100000000E-03 0.  1.
         11    1    4    4    0    0  0.36861883445E-01 -0.19630399173E-01 -0.32971909433E-01  0.53212394754E-01  0.51100000000E-03 0. -1.
</event>
<event>
 8    1  0.1208168E+005  0.1043930E+01  0.7957747E-01            NaN
         13   -1    0    0    0    0  0.00000000000E+00  0.00000000000E+00  0.74505805969E-08  0.10566000000E+00  0.10566000000E+00 0.  1.
     999900   -1    0    0    0    0 -0.00000000000E+00 -0.00000000000E+00 -0.74505805969E-08  0.93827000000E+00  0.93827000000E+00 0.  1.
     999902    2    1    2    0    0 -0.17650611349E-02 -0.10072794680E-01  0.20430888843E-01  0.10210827277E+01  0.10208270857E+01 0.  0.
     999903    2    3    3    0    0  0.88279650289E-01  0.93348557394E-01  0.11194047831E-01  0.13041480676E+00  0.19376926838E-01 0.  0.
         14    1    1    2    0    0  0.17650611349E-02  0.10072794680E-01 -0.20430888843E-01  0.22847272319E-01  0.00000000000E+00 0. -1.
     999901    1    3    3    0    0 -0.90044711424E-01 -0.10342135207E+00  0.92368410126E-02  0.89066792092E+00  0.88000000000E+00 0.  1.
        -11    1    4    4    0    0  0.26307242919E-01  0.40197952400E-01  0.80201010450E-02  0.48708618836E-01  0.51100000000E-03 0. -1.
         11    1    4    4    0    0  0.61972407370E-01  0.53150604994E-01  0.31739467858E-02  0.81706187927E-01  0.51100000000E-03 0.  1.
</event>
<event>
 8    1  0.1208168E+005  0.1043930E+01  0.7957747E-01            NaN
         13   -1    0    0    0    0  0.00000000000E+00  0.00000000000E+00  0.74505805969E-08  0.10566000000E+00  0.10566000000E+00 0.  1.
     999900   -1    0    0    0    0 -0.00000000000E+00 -0.00000000000E+00 -0.74505805969E-08  0.93827000000E+00  0.93827000000E+00 0.  1.
     999902    2    1    2    0    0 -0.24004835617E-01 -0.14322278299E-02  0.30172476072E-02  0.10196939279E+01  0.10194058658E+01 0.  0.
     999903    2    3    3    0    0  0.48705876420E-01 -0.91743189102E-01  0.74123449113E-01  0.12924515940E+00  0.20517075191E-01 0.  0.
         14    1    1    2    0    0  0.24004835617E-01  0.14322278299E-02 -0.30172476072E-02  0.24236072138E-01  0.00000000000E+00 0. -1.
     999901    1    3    3    0    0 -0.72710712037E-01  0.90310961272E-01 -0.71106201506E-01  0.89044876847E+00  0.88000000000E+00 0. -1.
        -11    1    4    4    0    0 -0.10821327554E-03 -0.86435335735E-02  0.11151350715E-01  0.14118644642E-01  0.51100000000E-03 0. -1.
         11    1    4    4    0    0  0.48814089696E-01 -0.83099655528E-01  0.62972098398E-01  0.11512651475E+00  0.51100000000E-03 0.  1.
</event>
<event>
 8    1  0.1208168E+005  0.1043930E+01  0.7957747E-01            NaN
         13   -1    0    0    0    0  0.00000000000E+00  0.00000000000E+00  0.74505805969E-08  0.10566000000E+00  0.10566000000E+00 0. -1.
     999900   -1    0    0    0    0 -0.00000000000E+00 -0.00000000000E+00 -0.74505805969E-08  0.93827000000E+00  0.93827000000E+00 0.  1.
     999902    2    1    2    0    0  0.28685500950E-02  0.14191723693E-01 -0.19355798996E-01  0.10197581040E+01  0.10194715838E+01 0.  0.
     999903    2    3    3    0    0 -0.71512955854E-01  0.68564524934E-01 -0.85693907224E-01  0.13246460435E+00  0.19703520869E-01 0.  0.
         14    1    1    2    0    0 -0.28685500950E-02 -0.14191723693E-01  0.19355798996E-01  0.24171895991E-01  0.00000000000E+00 0. -1.
     999901    1    3    3    0    0  0.74381505949E-01 -0.54372801241E-01  0.66338108228E-01  0.88729349966E+00  0.88000000000E+00 0. -1.
        -11    1    4    4    0    0 -0.74959098395E-02  0.65014195836E-02 -0.17832131397E-01  0.20413308210E-01  0.51100000000E-03 0. -1.
         11    1    4    4    0    0 -0.64017046014E-01  0.62063105350E-01 -0.67861775827E-01  0.11205129613E+00  0.51100000000E-03 0.  1.
</event>
<event>
 8    1  0.1208168E+005  0.1043930E+01  0.7957747E-01            NaN
         13   -1    0    0    0    0  0.00000000000E+00  0.00000000000E+00  0.74505805969E-08  0.10566000000E+00  0.10566000000E+00 0.  1.
     999900   -1    0    0    0    0 -0.00000000000E+00 -0.00000000000E+00 -0.74505805969E-08  0.93827000000E+00  0.93827000000E+00 0. -1.
     999902    2    1    2    0    0 -0.18775847792E-01 -0.13720522725E-01  0.20307729867E-02  0.10205867088E+01  0.10203197151E+01 0.  0.
     999903    2    3    3    0    0  0.10300976269E+00  0.66659308498E-01 -0.26875716759E-01  0.12810240233E+00  0.25168367291E-01 0.  0.
         14    1    1    2    0    0  0.18775847792E-01  0.13720522725E-01 -0.20307729867E-02  0.23343291180E-01  0.00000000000E+00 0. -1.
     999901    1    3    3    0    0 -0.12178561048E+00 -0.80379831223E-01  0.28906489745E-01  0.89248430649E+00  0.88000000000E+00 0. -1.
        -11    1    4    4    0    0  0.47754186028E-01  0.19229393170E-01 -0.34210958901E-02  0.51596481111E-01  0.51100000000E-03 0.  1.
         11    1    4    4    0    0  0.55255576660E-01  0.47429915328E-01 -0.23454620868E-01  0.76505921216E-01  0.51100000000E-03 0. -1.
</event>
<event>
 8    1  0.1208168E+005  0.1043930E+01  0.7957747E-01            NaN
         13   -1    0    0    0    0  0.00000000000E+00  0.00000000000E+00  0.74505805969E-08  0.10566000000E+00  0.10566000000E+00 0.  1.
     999900   -1    0    0    0    0 -0.00000000000E+00 -0.00000000000E+00 -0.74505805969E-08  0.93827000000E+00  0.93827000000E+00 0.  1.
     999902    2    1    2    0    0  0.33461828308E-02  0.16420066145E-01  0.16873129281E-01  0.10201493776E+01  0.10198721658E+01 0.  0.
     999903    2    3    3    0    0 -0.62216638089E-01  0.11206170930E+00  0.27657827106E-01  0.13247707480E+00  0.18880762713E-01 0.  0.
         14    1    1    2    0    0 -0.33461828308E-02 -0.16420066145E-01 -0.16873129281E-01  0.23780622436E-01  0.00000000000E+00 0. -1.
     999901    1    3    3    0    0  0.65562820920E-01 -0.95641643153E-01 -0.10784697826E-01  0.88767230277E+00  0.88000000000E+00 0. -1.
        -11    1    4    4    0    0 -0.20803929690E-01  0.47365802785E-01  0.19251939984E-01  0.55201640177E-01  0.51100000000E-03 0. -1.
         11    1    4    4    0    0 -0.41412708399E-01  0.64695906512E-01  0.84058871221E-02  0.77275434620E-01  0.51100000000E-03 0.  1.
</event>
<event>
 8    1  0.1208168E+005  0.1043930E+01  0.7957747E-01            NaN
         13   -1    0    0    0    0  0.00000000000E+00  0.00000000000E+00  0.74505805969E-08  0.10566000000E+00  0.10566000000E+00 0.  1.
     999900   -1    0    0    0    0 -0.00000000000E+00 -0.00000000000E+00 -0.74505805969E-08  0.93827000000E+00  0.93827000000E+00 0. -1.
     999902    2    1    2    0    0  0.41905478039E-02  0.12697056193E-01 -0.19857373541E-01  0.10199906765E+01  0.10197097081E+01 0.  0.
     999903    2    3    3    0    0 -0.56373556016E-01  0.92796737232E-01  0.68396914218E-01  0.12989360936E+00  0.20124602360E-01 0.  0.
         14    1    1    2    0    0 -0.41905478039E-02 -0.12697056193E-01  0.19857373541E-01  0.23939323524E-01  0.00000000000E+00 0.  1.
     999901    1    3    3    0    0  0.60564103819E-01 -0.80099681040E-01 -0.88254287759E-01  0.89009706711E+00  0.88000000000E+00 0.  1.
        -11    1    4    4    0    0 -0.12571021942E-01  0.78690958526E-02  0.82043932190E-02  0.16956604946E-01  0.51100000000E-03 0.  1.
         11    1    4    4    0    0 -0.43802534073E-01  0.84927641380E-01  0.60192520999E-01  0.11293700442E+00  0.51100000000E-03 0. -1.
</event>
<event>
 8    1  0.1208168E+005  0.1043930E+01  0.7957747E-01            NaN
         13   -1    0    0    0    0  0.00000000000E+00  0.00000000000E+00  0.74505805969E-08  0.10566000000E+00  0.10566000000E+00 0.  1.
     999900   -1    0    0    0    0 -0.00000000000E+00 -0.00000000000E+00 -0.74505805969E-08  0.93827000000E+00  0.93827000000E+00 0. -1.
     999902    2    1    2    0    0 -0.16243521461E-01  0.63344553418E-03  0.15866424305E-01  0.10212144401E+01  0.10209617701E+01 0.  0.
     999903    2    3    3    0    0  0.21087749769E-01  0.89016585673E-01  0.94320704234E-01  0.13252986312E+00  0.17295191700E-01 0.  0.
         14    1    1    2    0    0  0.16243521461E-01 -0.63344553418E-03 -0.15866424305E-01  0.22715559929E-01  0.00000000000E+00 0. -1.
     999901    1    3    3    0    0 -0.37331271230E-01 -0.88383140139E-01 -0.78454279930E-01  0.88868457695E+00  0.88000000000E+00 0. -1.
        -11    1    4    4    0    0  0.47872778953E-03  0.36404561215E-01  0.41053173436E-01  0.54873904797E-01  0.51100000000E-03 0.  1.
         11    1    4    4    0    0  0.20609021979E-01  0.52612024458E-01  0.53267530799E-01  0.77655958322E-01  0.51100000000E-03 0. -1.
</event>
<event>
 8    1  0.1208168E+005  0.1043930E+01  0.7957747E-01            NaN
         13   -1    0    0    0    0  0.00000000000E+00  0.00000000000E+00  0.74505805969E-08  0.10566000000E+00  0.10566000000E+00 0. -1.
     999900   -1    0    0    0    0 -0.00000000000E+00 -0.00000000000E+00 -0.74505805969E-08  0.93827000000E+00  0.93827000000E+00 0.  1.
     999902    2    1    2    0    0 -0.22872516721E-01  0.57041344695E-02 -0.35813655812E-02  0.10200864401E+01  0.10198077416E+01 0.  0.
     999903    2    3    3    0    0  0.38321526558E-02  0.12284467394E+00  0.39963048050E-01  0.13085578308E+00  0.20510764148E-01 0.  0.
         14    1    1    2    0    0  0.22872516721E-01 -0.57041344695E-02  0.35813655812E-02  0.23843559941E-01  0.00000000000E+00 0. -1.
     999901    1    3    3    0    0 -0.26704669377E-01 -0.11714053947E+00 -0.43544413631E-01  0.88923065698E+00  0.88000000000E+00 0. -1.
        -11    1    4    4    0    0  0.11156336601E-01  0.85885509960E-01  0.32078228445E-01  0.92358315969E-01  0.51100000000E-03 0.  1.
         11    1    4    4    0    0 -0.73241839448E-02  0.36959163983E-01  0.78848196051E-02  0.38497467111E-01  0.51100000000E-03 0. -1.
</event>
<event>
 8    1  0.1208168E+005  0.1043930E+01  0.7957747E-01            NaN
         13   -1    0    0    0    0  0.00000000000E+00  0.00000000000E+00  0.74505805969E-08  0.10566000000E+00  0.10566000000E+00 0. -1.
     999900   -1    0    0    0    0 -0.00000000000E+00 -0.00000000000E+00 -0.74505805969E-08  0.93827000000E+00  0.93827000000E+00 0. -1.
     999902    2    1    2    0    0  0.10141705825E-01  0.25218944240E-02 -0.21675791398E-01  0.10198664574E+01  0.10195825307E+01 0.  0.
     999903    2    3    3    0    0  0.93346482374E-01  0.83705273699E-01 -0.36890299031E-01  0.13209100318E+00  0.19157253011E-01 0.  0.
         14    1    1    2    0    0 -0.10141705825E-01 -0.25218944240E-02  0.21675791398E-01  0.24063542575E-01  0.00000000000E+00 0. -1.
     999901    1    3    3    0    0 -0.83204776548E-01 -0.81183379275E-01  0.15214507632E-01  0.88777545424E+00  0.88000000000E+00 0.  1.
        -11    1    4    4    0    0  0.31989147132E-01  0.40594863045E-01 -0.18305041704E-01  0.54832327259E-01  0.51100000000E-03 0. -1.
         11    1    4    4    0    0  0.61357335241E-01  0.43110410654E-01 -0.18585257327E-01  0.77258675924E-01  0.51100000000E-03 0.  1.
</event>
<event>
 8    1  0.1208168E+005  0.1043930E+01  0.7957747E-01            NaN
         13   -1    0    0    0    0  0.00000000000E+00  0.00000000000E+00  0.74505805969E-08  0.10566000000E+00  0.10566000000E+00 0. -1.
     999900   -1    0    0    0    0 -0.00000000000E+00 -0.00000000000E+00 -0.74505805969E-08  0.93827000000E+00  0.93827000000E+00 0.  1.
     999902    2    1    2    0    0 -0.21117831887E-01  0.60520199281E-02 -0.79732678934E-03  0.10219476093E+01  0.10217111582E+01 0.  0.
     999903    2    3    3    0    0  0.19446793145E-01 -0.94213695376E-01  0.86700203347E-01  0.13101858847E+00  0.19863209785E-01 0.  0.
         14    1    1    2    0    0  0.21117831887E-01 -0.60520199281E-02  0.79732678934E-03  0.21982390653E-01  0.00000000000E+00 0. -1.
     999901    1    3    3    0    0 -0.40564625032E-01  0.10026571530E+00 -0.87497530137E-01  0.89092902088E+00  0.88000000000E+00 0.  1.
        -11    1    4    4    0    0  0.67956336961E-02 -0.71297289284E-01  0.57918748516E-01  0.92110404663E-01  0.51100000000E-03 0.  1.
         11    1    4    4    0    0  0.12651159449E-01 -0.22916406092E-01  0.28781454831E-01  0.38908183802E-01  0.51100000000E-03 0. -1.
</event>
<event>
 8    1  0.1208168E+005  0.1043930E+01  0.7957747E-01            NaN
         13   -1    0    0    0    0  0.00000000000E+00  0.00000000000E+00  0.74505805969E-08  0.10566000000E+00  0.10566000000E+00 0. -1.
     999900   -1    0    0    0    0 -0.00000000000E+00 -0.00000000000E+00 -0.74505805969E-08  0.93827000000E+00  0.93827000000E+00 0. -1.
     999902    2    1    2    0    0 -0.47173587177E-03  0.21235749484E-01 -0.27285938139E-02  0.10225144726E+01  0.10222901847E+01 0.  0.
     999903    2    3    3    0    0 -0.58751197768E-01  0.79973688956E-01  0.87784784520E-01  0.13401049798E+00  0.20128363332E-01 0.  0.
         14    1    1    2    0    0  0.47173587177E-03 -0.21235749484E-01  0.27285938139E-02  0.21415527429E-01  0.00000000000E+00 0.  1.
     999901    1    3    3    0    0  0.58279461896E-01 -0.58737939472E-01 -0.90513378334E-01  0.88850397459E+00  0.88000000000E+00 0. -1.
        -11    1    4    4    0    0 -0.30627705509E-01  0.27951260266E-01  0.43730471352E-01  0.60265616572E-01  0.51100000000E-03 0.  1.
         11    1    4    4    0    0 -0.28123492259E-01  0.52022428690E-01  0.44054313168E-01  0.73744881404E-01  0.51100000000E-03 0. -1.
</event>
<event>
 8    1  0.1208168E+005  0.1043930E+01  0.7957747E-01            NaN
         13   -1    0    0    0    0  0.00000000000E+00  0.00000000000E+00  0.74505805969E-08  0.10566000000E+00  0.10566000000E+00 0.  1.
     999900   -1    0    0    0    0 -0.00000000000E+00 -0.00000000000E+00 -0.74505805969E-08  0.93827000000E+00  0.93827000000E+00 0.  1.
     999902    2    1    2    0    0 -0.18022234339E-01  0.10811837171E-01 -0.78135416106E-03  0.10228988976E+01  0.10226826719E+01 0.  0.
     999903    2    3    3    0    0  0.80663975670E-01  0.79020538232E-01  0.65999829489E-01  0.13225243495E+00  0.19590983261E-01 0.  0.
         14    1    1    2    0    0  0.18022234339E-01 -0.10811837171E-01  0.78135416106E-03  0.21031102394E-01  0.00000000000E+00 0.  1.
     999901    1    3    3    0    0 -0.98686210009E-01 -0.68208701061E-01 -0.66781183650E-01  0.89064646265E+00  0.88000000000E+00 0.  1.
        -11    1    4    4    0    0  0.34990584843E-01  0.41035734231E-01  0.41243523946E-01  0.67893754499E-01  0.51100000000E-03 0.  1.
         11    1    4    4    0    0  0.45673390828E-01  0.37984804001E-01  0.24756305543E-01  0.64358680454E-01  0.51100000000E-03 0. -1.
</event>
<event>
 8    1  0.1208168E+005  0.1043930E+01  0.7957747E-01            NaN
         13   -1    0    0    0    0  0.00000000000E+00  0.00000000000E+00  0.74505805969E-08  0.10566000000E+00  0.10566000000E+00 0. -1.
     999900   -1    0    0    0    0 -0.00000000000E+00 -0.00000000000E+00 -0.74505805969E-08  0.93827000000E+00  0.93827000000E+00 0. -1.
     999902    2    1    2    0    0  0.44701498932E-03  0.31025997351E-02  0.23820862211E-01  0.10199037763E+01  0.10196207401E+01 0.  0.
     999903    2    3    3    0    0 -0.82185566859E-01 -0.96692347461E-01  0.18835905465E-01  0.13040277865E+00  0.23371262020E-01 0.  0.
         14    1    1    2    0    0 -0.44701498932E-03 -0.31025997351E-02 -0.23820862211E-01  0.24026223673E-01  0.00000000000E+00 0.  1.
     999901    1    3    3    0    0  0.82632581848E-01  0.99794947196E-01  0.49849567452E-02  0.88950099767E+00  0.88000000000E+00 0. -1.
        -11    1    4    4    0    0 -0.42736781465E-01 -0.58565394338E-01  0.33643798599E-03  0.72503187623E-01  0.51100000000E-03 0.  1.
         11    1    4    4    0    0 -0.39448785394E-01 -0.38126953123E-01  0.18499467479E-01  0.57899591031E-01  0.51100000000E-03 0. -1.
</event>
<event>
 8    1  0.1208168E+005  0.1043930E+01  0.7957747E-01            NaN
         13   -1    0    0    0    0  0.00000000000E+00  0.00000000000E+00  0.74505805969E-08  0.10566000000E+00  0.10566000000E+00 0. -1.
     999900   -1    0    0    0    0 -0.00000000000E+00 -0.00000000000E+00 -0.74505805969E-08  0.93827000000E+00  0.93827000000E+00 0.  1.
     999902    2    1    2    0    0  0.13370116117E-01  0.37208513392E-02  0.11516234608E-01  0.10258959101E+01  0.10257373884E+01 0.  0.
     999903    2    3    3    0    0 -0.82231563678E-01 -0.92366335922E-01 -0.46571411851E-01  0.13362543348E+00  0.19831540418E-01 0.  0.
         14    1    1    2    0    0 -0.13370116117E-01 -0.37208513392E-02 -0.11516234608E-01  0.18034089920E-01  0.00000000000E+00 0.  1.
     999901    1    3    3    0    0  0.95601679795E-01  0.96087187261E-01  0.58087646459E-01  0.89227047660E+00  0.88000000000E+00 0. -1.
        -11    1    4    4    0    0 -0.69051768381E-01 -0.68371142161E-01 -0.42008170552E-01  0.10586645980E+00  0.51100000000E-03 0.  1.
         11    1    4    4    0    0 -0.13179795298E-01 -0.23995193760E-01 -0.45632412982E-02  0.27758973681E-01  0.51100000000E-03 0. -1.
</event>
<event>
 8    1  0.1208168E+005  0.1043930E+01  0.7957747E-01            NaN
         13   -1    0    0    0    0  0.00000000000E+00  0.00000000000E+00  0.74505805969E-08  0.10566000000E+00  0.10566000000E+00 0.  1.
     999900   -1    0    0    0    0 -0.00000000000E+00 -0.00000000000E+00 -0.74505805969E-08  0.93827000000E+00  0.93827000000E+00 0.  1.
     999902    2    1    2    0    0 -0.10185042050E-02  0.23200583586E-01  0.69715492350E-02  0.10196832079E+01  0.10193948879E+01 0.  0.
     999903    2    3    3    0    0 -0.12627086638E+00 -0.22184386374E-01  0.11263543862E-02  0.12963707647E+00  0.19183957538E-01 0.  0.
         14    1    1    2    0    0  0.10185042050E-02 -0.23200583586E-01 -0.69715492350E-02  0.24246792124E-01  0.00000000000E+00 0.  1.
     999901    1    3    3    0    0  0.12525236217E+00  0.45384969960E-01  0.58451948488E-02  0.89004613141E+00  0.88000000000E+00 0.  1.
        -11    1    4    4    0    0 -0.81040979777E-01 -0.23161179856E-01 -0.17140528885E-02  0.84304684057E-01  0.51100000000E-03 0.  1.
         11    1    4    4    0    0 -0.45229886601E-01  0.97679348216E-03  0.28404072746E-02  0.45332392413E-01  0.51100000000E-03 0. -1.
</event>
<event>
 8    1  0.1208168E+005  0.1043930E+01  0.7957747E-01            NaN
         13   -1    0    0    0    0  0.00000000000E+00  0.00000000000E+00  0.74505805969E-08  0.10566000000E+00  0.10566000000E+00 0.  1.
     999900   -1    0    0    0    0 -0.00000000000E+00 -0.00000000000E+00 -0.74505805969E-08  0.93827000000E+00  0.93827000000E+00 0. -1.
     999902    2    1    2    0    0 -0.13429132443E-01 -0.74766919786E-02 -0.18791489949E-01  0.10196532083E+01  0.10193641658E+01 0.  0.
     999903    2    3    3    0    0  0.99421732595E-01  0.38766380858E-02 -0.81486486987E-01  0.13016184886E+00  0.20058666535E-01 0.  0.
         14    1    1    2    0    0  0.13429132443E-01  0.74766919786E-02  0.18791489949E-01  0.24276791708E-01  0.00000000000E+00 0.  1.
     999901    1    3    3    0    0 -0.11285086504E+00 -0.11353330064E-01  0.62694997038E-01  0.88949135943E+00  0.88000000000E+00 0.  1.
        -11    1    4    4    0    0  0.96032255111E-01  0.72912738352E-02 -0.74991738320E-01  0.12206301091E+00  0.51100000000E-03 0.  1.
         11    1    4    4    0    0  0.33894774848E-02 -0.34146357495E-02 -0.64947486667E-02  0.80988379515E-02  0.51100000000E-03 0. -1.
</event>
<event>
 8    1  0.1208168E+005  0.1043930E+01  0.7957747E-01            NaN
         13   -1    0    0    0    0  0.00000000000E+00  0.00000000000E+00  0.74505805969E-08  0.10566000000E+00  0.10566000000E+00 0. -1.
     999900   -1    0    0    0    0 -0.00000000000E+00 -0.00000000000E+00 -0.74505805969E-08  0.93827000000E+00  0.93827000000E+00 0. -1.
     999902    2    1    2    0    0 -0.23053914336E-01 -0.12247893878E-02  0.42373784833E-02  0.10204579219E+01  0.10201879395E+01 0.  0.
     999903    2    3    3    0    0  0.13586519355E-01  0.11495340859E+00  0.56786250245E-01  0.13051338484E+00  0.20253043028E-01 0.  0.
         14    1    1    2    0    0  0.23053914336E-01  0.12247893878E-02 -0.42373784833E-02  0.23472078129E-01  0.00000000000E+00 0.  1.
     999901    1    3    3    0    0 -0.36640433691E-01 -0.11617819797E+00 -0.52548871761E-01  0.88994453703E+00  0.88000000000E+00 0. -1.
        -11    1    4    4    0    0 -0.16163108756E-02  0.53815422084E-01  0.19265739468E-01  0.57185155007E-01  0.51100000000E-03 0.  1.
         11    1    4    4    0    0  0.15202830231E-01  0.61137986503E-01  0.37520510777E-01  0.73328229834E-01  0.51100000000E-03 0. -1.
</event>
<event>
 8    1  0.1208168E+005  0.1043930E+01  0.7957747E-01            NaN
         13   -1    0    0    0    0  0.00000000000E+00  0.00000000000E+00  0.74505805969E-08  0.10566000000E+00  0.10566000000E+00 0. -1.
     999900   -1    0    0    0    0 -0.00000000000E+00 -0.00000000000E+00 -0.74505805969E-08  0.93827000000E+00  0.93827000000E+00 0.  1.
     999902    2    1    2    0    0 -0.47196824618E-03  0.28367537996E-02  0.21934308255E-01  0.10218079792E+01  0.10215684816E+01 0.  0.
     999903    2    3    3    0    0 -0.99988918819E-01  0.81796627943E-01 -0.16762925886E-01  0.13184406919E+00  0.20332010870E-01 0.  0.
         14    1    1    2    0    0  0.47196824618E-03 -0.28367537996E-02 -0.21934308255E-01  0.22122020812E-01  0.00000000000E+00 0.  1.
     999901    1    3    3    0    0  0.99516950572E-01 -0.78959874143E-01  0.38697234142E-01  0.88996391000E+00  0.88000000000E+00 0. -1.
        -11    1    4    4    0    0 -0.34912682089E-01  0.20381030300E-01 -0.12265049038E-01  0.42248956386E-01  0.51100000000E-03 0.  1.
         11    1    4    4    0    0 -0.65076236729E-01  0.61415597643E-01 -0.44978768484E-02  0.89595112801E-01  0.51100000000E-03 0. -1.
</event>
<event>
 8    1  0.1208168E+005  0.1043930E+01  0.7957747E-01            NaN
         13   -1    0    0    0    0  0.00000000000E+00  0.00000000000E+00  0.74505805969E-08  0.10566000000E+00  0.10566000000E+00 0.  1.
     999900   -1    0    0    0    0 -0.00000000000E+00 -0.00000000000E+00 -0.74505805969E-08  0.93827000000E+00  0.93827000000E+00 0.  1.
     999902    2    1    2    0    0  0.20892624396E-01 -0.46603420508E-02  0.86524088929E-02  0.10208413725E+01  0.10205802384E+01 0.  0.
     999903    2    3    3    0    0  0.74380949954E-01 -0.98265897516E-01 -0.45091087580E-01  0.13263454722E+00  0.19235503799E-01 0.  0.
         14    1    1    2    0    0 -0.20892624396E-01  0.46603420508E-02 -0.86524088929E-02  0.23088627543E-01  0.00000000000E+00 0.  1.
     999901    1    3    3    0    0 -0.53488325559E-01  0.93605555465E-01  0.53743496472E-01  0.88820682524E+00  0.88000000000E+00 0. -1.
        -11    1    4    4    0    0  0.32558402922E-02 -0.14098324600E-01 -0.65705053922E-02  0.15899557058E-01  0.51100000000E-03 0. -1.
         11    1    4    4    0    0  0.71125109662E-01 -0.84167572916E-01 -0.38520582187E-01  0.11673499016E+00  0.51100000000E-03 0.  1.
</event>
<event>
 8    1  0.1208168E+005  0.1043930E+01  0.7957747E-01            NaN
         13   -1    0    0    0    0  0.00000000000E+00  0.00000000000E+00  0.74505805969E-08  0.10566000000E+00  0.10566000000E+00 0.  1.
     999900   -1    0    0    0    0 -0.00000000000E+00 -0.00000000000E+00 -0.74505805969E-08  0.93827000000E+00  0.93827000000E+00 0. -1.
     999902    2    1    2    0    0 -0.13967007952E-01 -0.92472540386E-02  0.17001039088E-01  0.10200631957E+01  0.10197839471E+01 0.  0.
     999903    2    3    3    0    0 -0.10537973611E+00  0.66661830941E-01  0.37587456527E-01  0.13183896913E+00  0.20494106626E-01 0.  0.
         14    1    1    2    0    0  0.13967007952E-01  0.92472540386E-02 -0.17001039088E-01  0.23866804321E-01  0.00000000000E+00 0. -1.
     999901    1    3    3    0    0  0.91412728153E-01 -0.75909084980E-01 -0.20586417438E-01  0.88822422655E+00  0.88000000000E+00 0.  1.
        -11    1    4    4    0    0 -0.17394276731E-01  0.18492380354E-01  0.13149791610E-01  0.28595578933E-01  0.51100000000E-03 0.  1.
         11    1    4    4    0    0 -0.87985459374E-01  0.48169450587E-01  0.24437664917E-01  0.10324339019E+00  0.51100000000E-03 0. -1.
</event>
<event>
 8    1  0.1208168E+005  0.1043930E+01  0.7957747E-01            NaN
         13   -1    0    0    0    0  0.00000000000E+00  0.00000000000E+00  0.74505805969E-08  0.10566000000E+00  0.10566000000E+00 0.  1.
     999900   -1    0    0    0    0 -0.00000000000E+00 -0.00000000000E+00 -0.74505805969E-08  0.93827000000E+00  0.93827000000E+00 0. -1.
     999902    2    1    2    0    0  0.85640492019E-02 -0.92782051851E-02  0.20571203357E-01  0.10197928411E+01  0.10195071537E+01 0.  0.
     999903    2    3    3    0    0 -0.83289689712E-01 -0.98368637911E-01  0.14094397303E-02  0.13033155039E+00  0.19255263454E-01 0.  0.
         14    1    1    2    0    0 -0.85640492019E-02  0.92782051851E-02 -0.20571203357E-01  0.24137158858E-01  0.00000000000E+00 0.  1.
     999901    1    3    3    0    0  0.91853738914E-01  0.89090432726E-01  0.19161763626E-01  0.88946129075E+00  0.88000000000E+00 0. -1.
        -11    1    4    4    0    0 -0.99937820570E-02 -0.23517578854E-01  0.63614273526E-03  0.25565953796E-01  0.51100000000E-03 0.  1.
         11    1    4    4    0    0 -0.73295907655E-01 -0.74851059058E-01  0.77329699504E-03  0.10476559660E+00  0.51100000000E-03 0. -1.
</event>
<event>
 7    1  0.1208168E+005  0.1043930E+01  0.7957747E-01            NaN
         13   -1    0    0    0    0  0.00000000000E+00  0.00000000000E+00  0.74505805969E-08  0.10566000000E+00  0.10566000000E+00 0. -1.
     999900   -1    0    0    0    0 -0.00000000000E+00 -0.00000000000E+00 -0.74505805969E-08  0.93827000000E+00  0.93827000000E+00 0.  1.
     999903    2    1    2    0    0  0.16564208249E-01 -0.73234396134E-01  0.50943596982E-01  0.93398669137E-01  0.22145237660E-01 0.  0.
         14    1    1    2    0    0  0.18385351893E-01 -0.28757430709E-01  0.47512171168E-01  0.58501430703E-01  0.00000000000E+00 0.  1.
     999901    1    1    2    0    0 -0.34949560142E-01  0.10199182684E+00 -0.98455768151E-01  0.89202990016E+00  0.88000000000E+00 0.  1.
        -11    1    3    3    0    0  0.15012586351E-01 -0.22063374689E-01  0.13097002075E-01  0.29731512507E-01  0.51100000000E-03 0. -1.
         11    1    3    3    0    0  0.15516218985E-02 -0.51171021445E-01  0.37846594908E-01  0.63667156630E-01  0.51100000000E-03 0.  1.
</event>
<event>
 8    1  0.1208168E+005  0.1043930E+01  0.7957747E-01            NaN
         13   -1    0    0    0    0  0.00000000000E+00  0.00000000000E+00  0.74505805969E-08  0.10566000000E+00  0.10566000000E+00 0. -1.
     999900   -1    0    0    0    0 -0.00000000000E+00 -0.00000000000E+00 -0.74505805969E-08  0.93827000000E+00  0.93827000000E+00 0. -1.
     999902    2    1    2    0    0 -0.85952757945E-02 -0.19274285132E-01 -0.63058910420E-02  0.10219040813E+01  0.10216666826E+01 0.  0.
     999903    2    3    3    0    0  0.10890666734E+00  0.50290043819E-01  0.45288029662E-01  0.12987951035E+00  0.20686490269E-01 0.  0.
         14    1    1    2    0    0  0.85952757945E-02  0.19274285132E-01  0.63058910420E-02  0.22025918713E-01  0.00000000000E+00 0. -1.
     999901    1    3    3    0    0 -0.11750194313E+00 -0.69564328951E-01 -0.51593920704E-01  0.89202457094E+00  0.88000000000E+00 0. -1.
        -11    1    4    4    0    0  0.64734258493E-01  0.25106601575E-01  0.16203860384E-01  0.71300013167E-01  0.51100000000E-03 0. -1.
         11    1    4    4    0    0  0.44172408846E-01  0.25183442244E-01  0.29084169278E-01  0.58579497182E-01  0.51100000000E-03 0.  1.
</event>
<event>
 8    1  0.1208168E+005  0.1043930E+01  0.7957747E-01            NaN
         13   -1    0    0    0    0  0.00000000000E+00  0.00000000000E+00  0.74505805969E-08  0.10566000000E+00  0.10566000000E+00 0. -1.
     999900   -1    0    0    0    0 -0.00000000000E+00 -0.00000000000E+00 -0.74505805969E-08  0.93827000000E+00  0.93827000000E+00 0.  1.
     999902    2    1    2    0    0 -0.20264145235E-01 -0.62129623044E-02  0.12359894377E-01  0.10193942410E+01  0.10190989231E+01 0.  0.
     999903    2    3    3    0    0  0.28974539252E-01 -0.81174518659E-01 -0.92853082194E-01  0.12860051993E+00  0.22081042769E-01 0.  0.
         14    1    1    2    0    0  0.20264145235E-01  0.62129623044E-02 -0.12359894377E-01  0.24535759040E-01  0.00000000000E+00 0.  1.
     999901    1    3    3    0    0 -0.49238684486E-01  0.74961556354E-01  0.10521297657E+00  0.89079372103E+00  0.88000000000E+00 0. -1.
        -11    1    4    4    0    0  0.52867866259E-02 -0.47518978415E-01 -0.49759021434E-01  0.69008874484E-01  0.51100000000E-03 0. -1.
         11    1    4    4    0    0  0.23687752626E-01 -0.33655540244E-01 -0.43094060760E-01  0.59591645449E-01  0.51100000000E-03 0.  1.
</event>
<event>
 8    1  0.1208168E+005  0.1043930E+01  0.7957747E-01            NaN
         13   -1    0    0    0    0  0.00000000000E+00  0.00000000000E+00  0.74505805969E-08  0.10566000000E+00  0.10566000000E+00 0.  1.
     999900   -1    0    0    0    0 -0.00000000000E+00 -0.00000000000E+00 -0.74505805969E-08  0.93827000000E+00  0.93827000000E+00 0.  1.
     999902    2    1    2    0    0  0.89983644728E-02  0.22548248297E-01  0.69363088442E-02  0.10186811100E+01  0.10183681542E+01 0.  0.
     999903    2    3    3    0    0 -0.52473284837E-01 -0.85959880249E-01 -0.73189138328E-01  0.12628385268E+00  0.21175808029E-01 0.  0.
         14    1    1    2    0    0 -0.89983644728E-02 -0.22548248297E-01 -0.69363088442E-02  0.25248889972E-01  0.00000000000E+00 0.  1.
     999901    1    3    3    0    0  0.61471649309E-01  0.10850812855E+00  0.80125447172E-01  0.89239725734E+00  0.88000000000E+00 0. -1.
        -11    1    4    4    0    0 -0.21777504365E-01 -0.44437884973E-01 -0.47546107106E-01  0.68628556295E-01  0.51100000000E-03 0.  1.
         11    1    4    4    0    0 -0.30695780472E-01 -0.41521995276E-01 -0.25643031222E-01  0.57655296389E-01  0.51100000000E-03 0. -1.
</event>
<event>
 8    1  0.1208168E+005  0.1043930E+01  0.7957747E-01            NaN
         13   -1    0    0    0    0  0.00000000000E+00  0.00000000000E+00  0.74505805969E-08  0.10566000000E+00  0.10566000000E+00 0. -1.
     999900   -1    0    0    0    0 -0.00000000000E+00 -0.00000000000E+00 -0.74505805969E-08  0.93827000000E+00  0.93827000000E+00 0.  1.
     999902    2    1    2    0    0  0.11869807013E-02  0.15683077013E-01 -0.16758516067E-01  0.10209470566E+01  0.10206883347E+01 0.  0.
     999903    2    3    3    0    0 -0.72970456179E-01  0.18807407481E-01  0.10354213722E+00  0.12966632972E+00  0.20346420608E-01 0.  0.
         14    1    1    2    0    0 -0.11869807013E-02 -0.15683077013E-01  0.16758516067E-01  0.22982943427E-01  0.00000000000E+00 0. -1.
     999901    1    3    3    0    0  0.74157436881E-01 -0.31243304680E-02 -0.12030065328E+00  0.89128072686E+00  0.88000000000E+00 0.  1.
        -11    1    4    4    0    0 -0.39224250136E-01  0.44458639374E-02  0.39387867740E-01  0.55767129664E-01  0.51100000000E-03 0.  1.
         11    1    4    4    0    0 -0.33746206043E-01  0.14361543544E-01  0.64154269477E-01  0.73899200052E-01  0.51100000000E-03 0. -1.
</event>
<event>
 8    1  0.1208168E+005  0.1043930E+01  0.7957747E-01            NaN
         13   -1    0    0    0    0  0.00000000000E+00  0.00000000000E+00  0.74505805969E-08  0.10566000000E+00  0.10566000000E+00 0.  1.
     999900   -1    0    0    0    0 -0.00000000000E+00 -0.00000000000E+00 -0.74505805969E-08  0.93827000000E+00  0.93827000000E+00 0.  1.
     999902    2    1    2    0    0  0.24442247089E-02 -0.21879572350E-01  0.82468702522E-02  0.10204204107E+01  0.10201495546E+01 0.  0.
     999903    2    3    3    0    0  0.13049052277E-01  0.12421259473E+00 -0.18885665007E-01  0.12790063045E+00  0.20071284755E-01 0.  0.
         14    1    1    2    0    0 -0.24442247089E-02  0.21879572350E-01 -0.82468702522E-02  0.23509589311E-01  0.00000000000E+00 0. -1.
     999901    1    3    3    0    0 -0.10604827568E-01 -0.14609216708E+00  0.27132535259E-01  0.89251978024E+00  0.88000000000E+00 0. -1.
        -11    1    4    4    0    0  0.94671349894E-02  0.35595682036E-01 -0.12815983745E-01  0.39002433063E-01  0.51100000000E-03 0.  1.
         11    1    4    4    0    0  0.35819172875E-02  0.88616912694E-01 -0.60696812623E-02  0.88898197386E-01  0.51100000000E-03 0. -1.
</event>
<event>
 8    1  0.1208168E+005  0.1043930E+01  0.7957747E-01            NaN
         13   -1    0    0    0    0  0.00000000000E+00  0.00000000000E+00  0.74505805969E-08  0.10566000000E+00  0.10566000000E+00 0.  1.
     999900   -1    0    0    0    0 -0.00000000000E+00 -0.00000000000E+00 -0.74505805969E-08  0.93827000000E+00  0.93827000000E+00 0. -1.
     999902    2    1    2    0    0  0.10730057984E-01 -0.20218976419E-01 -0.65008441513E-02  0.10201349979E+01  0.10198574468E+01 0.  0.
     999903    2    3    3    0    0  0.80023486482E-01 -0.10426904885E+00  0.73905113638E-02  0.13330978191E+00  0.21002032192E-01 0.  0.
         14    1    1    2    0    0 -0.10730057984E-01  0.20218976419E-01  0.65008441513E-02  0.23795002132E-01  0.00000000000E+00 0.  1.
     999901    1    3    3    0    0 -0.69293428497E-01  0.84050072433E-01 -0.13891355515E-01  0.88682521596E+00  0.88000000000E+00 0.  1.
        -11    1    4    4    0    0  0.24249083270E-01 -0.42220790712E-01 -0.50571437127E-02  0.48953539517E-01  0.51100000000E-03 0. -1.
         11    1    4    4    0    0  0.55774403212E-01 -0.62048258141E-01  0.12447655076E-01  0.84356242388E-01  0.51100000000E-03 0.  1.
</event>
<event>
 8    1  0.1208168E+005  0.1043930E+01  0.7957747E-01            NaN
         13   -1    0    0    0    0  0.00000000000E+00  0.00000000000E+00  0.74505805969E-08  0.10566000000E+00  0.10566000000E+00 0.  1.
     999900   -1    0    0    0    0 -0.00000000000E+00 -0.00000000000E+00 -0.74505805969E-08  0.93827000000E+00  0.93827000000E+00 0. -1.
     999902    2    1    2    0    0  0.19792279539E-01  0.23823221789E-03 -0.13756399751E-01  0.10198254440E+01  0.10195405371E+01 0.  0.
     999903    2    3    3    0    0 -0.48664365713E-01 -0.96172604497E-01  0.66451588036E-01  0.12830164569E+00  0.20690780286E-01 0.  0.
         14    1    1    2    0    0 -0.19792279539E-01 -0.23823221789E-03  0.13756399751E-01  0.24104555960E-01  0.00000000000E+00 0. -1.
     999901    1    3    3    0    0  0.68456645252E-01  0.96410836715E-01 -0.80207987788E-01  0.89152379835E+00  0.88000000000E+00 0. -1.
        -11    1    4    4    0    0 -0.16422462271E-01 -0.53224029425E-01  0.38896305492E-01  0.67938783307E-01  0.51100000000E-03 0. -1.
         11    1    4    4    0    0 -0.32241903442E-01 -0.42948575072E-01  0.27555282544E-01  0.60362862385E-01  0.51100000000E-03 0.  1.
</event>
<event>
 8    1  0.1208168E+005  0.1043930E+01  0.7957747E-01            NaN
         13   -1    0    0    0    0  0.00000000000E+00  0.00000000000E+00  0.74505805969E-08  0.10566000000E+00  0.10566000000E+00 0. -1.
     999900   -1    0    0    0    0 -0.00000000000E+00 -0.00000000000E+00 -0.74505805969E-08  0.93827000000E+00  0.93827000000E+00 0.  1.
     999902    2    1    2    0    0  0.16745685440E-01  0.13436787158E-01  0.11781016460E-01  0.10194400515E+01  0.10191458487E+01 0.  0.
     999903    2    3    3    0    0 -0.53964521522E-01 -0.10516299603E+00  0.47510527518E-01  0.12795677070E+00  0.12010812858E-01 0.  0.
         14    1    1    2    0    0 -0.16745685440E-01 -0.13436787158E-01 -0.11781016460E-01  0.24489948526E-01  0.00000000000E+00 0. -1.
     999901    1    3    3    0    0  0.70710206961E-01  0.11859978319E+00 -0.35729511058E-01  0.89148328077E+00  0.88000000000E+00 0. -1.
        -11    1    4    4    0    0 -0.24394531911E-01 -0.55696263978E-01  0.19346863059E-01  0.63810102958E-01  0.51100000000E-03 0.  1.
         11    1    4    4    0    0 -0.29569989611E-01 -0.49466732052E-01  0.28163664460E-01  0.64146667741E-01  0.51100000000E-03 0. -1.
</event>
<event>
 8    1  0.1208168E+005  0.1043930E+01  0.7957747E-01            NaN
         13   -1    0    0    0    0  0.00000000000E+00  0.00000000000E+00  0.74505805969E-08  0.10566000000E+00  0.10566000000E+00 0. -1.
     999900   -1    0    0    0    0 -0.00000000000E+00 -0.00000000000E+00 -0.74505805969E-08  0.93827000000E+00  0.93827000000E+00 0. -1.
     999902    2    1    2    0    0 -0.17102055750E-01  0.15270422081E-01 -0.30445693147E-02  0.10208013272E+01  0.10205392762E+01 0.  0.
     999903    2    3    3    0    0 -0.70530890177E-01 -0.89690510168E-01  0.60386373891E-01  0.13069182712E+00  0.20367754920E-01 0.  0.
         14    1    1    2    0    0  0.17102055750E-01 -0.15270422081E-01  0.30445693147E-02  0.23128672762E-01  0.00000000000E+00 0. -1.
     999901    1    3    3    0    0  0.53428834427E-01  0.10496093225E+00 -0.63430943206E-01  0.89010950012E+00  0.88000000000E+00 0.  1.
        -11    1    4    4    0    0 -0.24768264489E-01 -0.31206560365E-01  0.32314584407E-01  0.51301167843E-01  0.51100000000E-03 0.  1.
         11    1    4    4    0    0 -0.45762625688E-01 -0.58483949803E-01  0.28071789484E-01  0.79390659276E-01  0.51100000000E-03 0. -1.
</event>
<event>
 8    1  0.1208168E+005  0.1043930E+01  0.7957747E-01            NaN
         13   -1    0    0    0    0  0.00000000000E+00  0.00000000000E+00  0.74505805969E-08  0.10566000000E+00  0.10566000000E+00 0.  1.
     999900   -1    0    0    0    0 -0.00000000000E+00 -0.00000000000E+00 -0.74505805969E-08  0.93827000000E+00  0.93827000000E+00 0. -1.
     999902    2    1    2    0    0 -0.27861427949E-02 -0.11489073313E-01 -0.20581219832E-01  0.10201950467E+01  0.10199189112E+01 0.  0.
     999903    2    3    3    0    0  0.63729090856E-01  0.51332327813E-01  0.96030436031E-01  0.12779990833E+00  0.20360919045E-01 0.  0.
         14    1    1    2    0    0  0.27861427949E-02  0.11489073313E-01  0.20581219832E-01  0.23734953276E-01  0.00000000000E+00 0.  1.
     999901    1    3    3    0    0 -0.66515233651E-01 -0.62821401127E-01 -0.11661165586E+00  0.89239513839E+00  0.88000000000E+00 0. -1.
        -11    1    4    4    0    0  0.49393396155E-01  0.35172852561E-01  0.57189519259E-01  0.83353100573E-01  0.51100000000E-03 0.  1.
         11    1    4    4    0    0  0.14335694702E-01  0.16159475252E-01  0.38840916772E-01  0.44446807756E-01  0.51100000000E-03 0. -1.
</event>
<event>
 8    1  0.1208168E+005  0.1043930E+01  0.7957747E-01            NaN
         13   -1    0    0    0    0  0.00000000000E+00  0.00000000000E+00  0.74505805969E-08  0.10566000000E+00  0.10566000000E+00 0.  1.
     999900   -1    0    0    0    0 -0.00000000000E+00 -0.00000000000E+00 -0.74505805969E-08  0.93827000000E+00  0.93827000000E+00 0. -1.
     999902    2    1    2    0    0 -0.42786369592E-02 -0.20093892501E-01  0.13343686248E-01  0.10194325468E+01  0.10191381615E+01 0.  0.
     999903    2    3    3    0    0 -0.10412546754E+00 -0.71685056483E-01 -0.26647031889E-01  0.13138395844E+00  0.23891837794E-01 0.  0.
         14    1    1    2    0    0  0.42786369592E-02  0.20093892501E-01 -0.13343686248E-01  0.24497453189E-01  0.00000000000E+00 0. -1.
     999901    1    3    3    0    0  0.99846830577E-01  0.51591163982E-01  0.39990718136E-01  0.88804858837E+00  0.88000000000E+00 0. -1.
        -11    1    4    4    0    0 -0.76602953016E-01 -0.39162254611E-01 -0.18600381231E-01  0.88022326144E-01  0.51100000000E-03 0. -1.
         11    1    4    4    0    0 -0.27522514520E-01 -0.32522801873E-01 -0.80466506579E-02  0.43361632292E-01  0.51100000000E-03 0.  1.
</event>
<event>
 8    1  0.1208168E+005  0.1043930E+01  0.7957747E-01            NaN
         13   -1    0    0    0    0  0.00000000000E+00  0.00000000000E+00  0.74505805969E-08  0.10566000000E+00  0.10566000000E+00 0.  1.
     999900   -1    0    0    0    0 -0.00000000000E+00 -0.00000000000E+00 -0.74505805969E-08  0.93827000000E+00  0.93827000000E+00 0. -1.
     999902    2    1    2    0    0  0.71215260418E-02  0.22866436446E-01  0.10320653727E-01  0.10178511591E+01  0.10175170152E+01 0.  0.
     999903    2    3    3    0    0 -0.77674889578E-01  0.66811193270E-02  0.10086227865E+00  0.12900348800E+00  0.19765496099E-01 0.  0.
         14    1    1    2    0    0 -0.71215260418E-02 -0.22866436446E-01 -0.10320653727E-01  0.26078840892E-01  0.00000000000E+00 0. -1.
     999901    1    3    3    0    0  0.84796415620E-01  0.16185317119E-01 -0.90541624919E-01  0.88884767111E+00  0.88000000000E+00 0. -1.
        -11    1    4    4    0    0 -0.74458676387E-01  0.34287683292E-02  0.99256694662E-01  0.12412897928E+00  0.51100000000E-03 0. -1.
         11    1    4    4    0    0 -0.32162131906E-02  0.32523509978E-02  0.16055839840E-02  0.48745087168E-02  0.51100000000E-03 0.  1.
</event>
<event>
 8    1  0.1208168E+005  0.1043930E+01  0.7957747E-01            NaN
         13   -1    0    0    0    0  0.00000000000E+00  0.00000000000E+00  0.74505805969E-08  0.10566000000E+00  0.10566000000E+00 0.  1.
     999900   -1    0    0    0    0 -0.00000000000E+00 -0.00000000000E+00 -0.74505805969E-08  0.93827000000E+00  0.93827000000E+00 0. -1.
     999902    2    1    2    0    0 -0.20394558479E-01 -0.85869358612E-03  0.11915498184E-01  0.10202941275E+01  0.10200203195E+01 0.  0.
     999903    2    3    3    0    0  0.55675499773E-01 -0.69707637525E-01 -0.89976584716E-01  0.12849323754E+00  0.21349714073E-01 0.  0.
         14    1    1    2    0    0  0.20394558479E-01  0.85869358612E-03 -0.11915498184E-01  0.23635872466E-01  0.00000000000E+00 0. -1.
     999901    1    3    3    0    0 -0.76070058253E-01  0.68848943939E-01  0.10189208290E+00  0.89180089000E+00  0.88000000000E+00 0.  1.
        -11    1    4    4    0    0  0.29701232863E-01 -0.31766427343E-01 -0.57954627298E-01  0.72458740576E-01  0.51100000000E-03 0.  1.
         11    1    4    4    0    0  0.25974266910E-01 -0.37941210182E-01 -0.32021957418E-01  0.56034496959E-01  0.51100000000E-03 0. -1.
</event>
<event>
 8    1  0.1208168E+005  0.1043930E+01  0.7957747E-01            NaN
         13   -1    0    0    0    0  0.00000000000E+00  0.00000000000E+00  0.74505805969E-08  0.10566000000E+00  0.10566000000E+00 0.  1.
     999900   -1    0    0    0    0 -0.00000000000E+00 -0.00000000000E+00 -0.74505805969E-08  0.93827000000E+00  0.93827000000E+00 0.  1.
     999902    2    1    2    0    0  0.10982044580E-01 -0.17745231033E-01 -0.53040027634E-02  0.10223979083E+01  0.10221711461E+01 0.  0.
     999903    2    3    3    0    0  0.55825992940E-01  0.54338218367E-01 -0.10547174559E+00  0.13265604681E+00  0.20103586141E-01 0.  0.
         14    1    1    2    0    0 -0.10982044580E-01  0.17745231033E-01  0.53040027634E-02  0.21532091698E-01  0.00000000000E+00 0.  1.
     999901    1    3    3    0    0 -0.44843948360E-01 -0.72083449400E-01  0.10016774283E+00  0.88974186149E+00  0.88000000000E+00 0. -1.
        -11    1    4    4    0    0  0.41405663852E-01  0.27064893153E-01 -0.61211477204E-01  0.78702245856E-01  0.51100000000E-03 0.  1.
         11    1    4    4    0    0  0.14420329088E-01  0.27273325214E-01 -0.44260268385E-01  0.53953800957E-01  0.51100000000E-03 0. -1.
</event>
<event>
 8    1  0.1208168E+005  0.1043930E+01  0.7957747E-01            NaN
         13   -1    0    0    0    0  0.00000000000E+00  0.00000000000E+00  0.74505805969E-08  0.10566000000E+00  0.10566000000E+00 0. -1.
     999900   -1    0    0    0    0 -0.00000000000E+00 -0.00000000000E+00 -0.74505805969E-08  0.93827000000E+00  0.93827000000E+00 0.  1.
     999902    2    1    2    0    0  0.11105334885E-01  0.31406798101E-02  0.20174160324E-01  0.10206880320E+01  0.10204233776E+01 0.  0.
     999903    2    3    3    0    0  0.12397850371E+00  0.23083421838E-01 -0.33363263169E-01  0.13164117106E+00  0.17685498070E-01 0.  0.
         14    1    1    2    0    0 -0.11105334885E-01 -0.31406798101E-02 -0.20174160324E-01  0.23241968018E-01  0.00000000000E+00 0.  1.
     999901    1    3    3    0    0 -0.11287316883E+00 -0.19942742028E-01  0.53537423493E-01  0.88904686092E+00  0.88000000000E+00 0. -1.
        -11    1    4    4    0    0  0.41059445379E-01  0.50358540014E-02 -0.19187962093E-01  0.45603474546E-01  0.51100000000E-03 0. -1.
         11    1    4    4    0    0  0.82919058334E-01  0.18047567836E-01 -0.14175301076E-01  0.86037696514E-01  0.51100000000E-03 0.  1.
</event>
<event>
 8    1  0.1208168E+005  0.1043930E+01  0.7957747E-01            NaN
         13   -1    0    0    0    0  0.00000000000E+00  0.00000000000E+00  0.74505805969E-08  0.10566000000E+00  0.10566000000E+00 0. -1.
     999900   -1    0    0    0    0 -0.00000000000E+00 -0.00000000000E+00 -0.74505805969E-08  0.93827000000E+00  0.93827000000E+00 0. -1.
     999902    2    1    2    0    0  0.80243897434E-02 -0.69250470810E-02  0.21207876411E-01  0.10202209062E+01  0.10199453791E+01 0.  0.
     999903    2    3    3    0    0 -0.40891451471E-01 -0.11535905235E+00 -0.39403643941E-01  0.13015099352E+00  0.20169585942E-01 0.  0.
         14    1    1    2    0    0 -0.80243897434E-02  0.69250470810E-02 -0.21207876411E-01  0.23709093818E-01  0.00000000000E+00 0.  1.
     999901    1    3    3    0    0  0.48915841215E-01  0.10843400527E+00  0.60611520352E-01  0.89006991266E+00  0.88000000000E+00 0.  1.
        -11    1    4    4    0    0 -0.39146368057E-01 -0.85553172022E-01 -0.27701611399E-01  0.98078661136E-01  0.51100000000E-03 0.  1.
         11    1    4    4    0    0 -0.17450834143E-02 -0.29805880327E-01 -0.11702032541E-01  0.32072332388E-01  0.51100000000E-03 0. -1.
</event>
<event>
 8    1  0.1208168E+005  0.1043930E+01  0.7957747E-01            NaN
         13   -1    0    0    0    0  0.00000000000E+00  0.00000000000E+00  0.74505805969E-08  0.10566000000E+00  0.10566000000E+00 0. -1.
     999900   -1    0    0    0    0 -0.00000000000E+00 -0.00000000000E+00 -0.74505805969E-08  0.93827000000E+00  0.93827000000E+00 0.  1.
     999902    2    1    2    0    0 -0.21105435799E-01 -0.12489401597E-01 -0.62663230196E-02  0.10186181179E+01  0.10183035788E+01 0.  0.
     999903    2    3    3    0    0 -0.59083960758E-01  0.24866921192E-01 -0.11196766574E+00  0.13069321279E+00  0.20848969053E-01 0.  0.
         14    1    1    2    0    0  0.21105435799E-01  0.12489401597E-01  0.62663230196E-02  0.25311882125E-01  0.00000000000E+00 0. -1.
     999901    1    3    3    0    0  0.37978524958E-01 -0.37356322789E-01  0.10570134272E+00  0.88792490508E+00  0.88000000000E+00 0. -1.
        -11    1    4    4    0    0 -0.16609540497E-01  0.77269659449E-02 -0.52652078572E-01  0.55750204818E-01  0.51100000000E-03 0.  1.
         11    1    4    4    0    0 -0.42474420261E-01  0.17139955248E-01 -0.59315587168E-01  0.74943007976E-01  0.51100000000E-03 0. -1.
</event>
<event>
 8    1  0.1208168E+005  0.1043930E+01  0.7957747E-01            NaN
         13   -1    0    0    0    0  0.00000000000E+00  0.00000000000E+00  0.74505805969E-08  0.10566000000E+00  0.10566000000E+00 0. -1.
     999900   -1    0    0    0    0 -0.00000000000E+00 -0.00000000000E+00 -0.74505805969E-08  0.93827000000E+00  0.93827000000E+00 0.  1.
     999902    2    1    2    0    0  0.78894813310E-02  0.21825665032E-01  0.83542240627E-02  0.10192643026E+01  0.10189658100E+01 0.  0.
     999903    2    3    3    0    0 -0.12211571893E+00  0.38525114877E-01 -0.32598344855E-02  0.12948055914E+00  0.18924993730E-01 0.  0.
         14    1    1    2    0    0 -0.78894813310E-02 -0.21825665032E-01 -0.83542240627E-02  0.24665697425E-01  0.00000000000E+00 0. -1.
     999901    1    3    3    0    0  0.13000520027E+00 -0.16699449844E-01  0.11614058548E-01  0.88978374343E+00  0.88000000000E+00 0.  1.
        -11    1    4    4    0    0 -0.83493614540E-01  0.20080656259E-01  0.44379383492E-02  0.85990539261E-01  0.51100000000E-03 0.  1.
         11    1    4    4    0    0 -0.38622104395E-01  0.18444458618E-01 -0.76977728347E-02  0.43490019881E-01  0.51100000000E-03 0. -1.
</event>
<event>
 8    1  0.1208168E+005  0.1043930E+01  0.7957747E-01            NaN
         13   -1    0    0    0    0  0.00000000000E+00  0.00000000000E+00  0.74505805969E-08  0.10566000000E+00  0.10566000000E+00 0.  1.
     999900   -1    0    0    0    0 -0.00000000000E+00 -0.00000000000E+00 -0.74505805969E-08  0.93827000000E+00  0.93827000000E+00 0. -1.
     999902    2    1    2    0    0 -0.20037227327E-01 -0.95826565621E-02 -0.69514876380E-02  0.10206568187E+01  0.10203914448E+01 0.  0.
     999903    2    3    3    0    0  0.13277610207E-01 -0.12186772017E+00  0.43068431739E-01  0.13148877711E+00  0.20158684021E-01 0.  0.
         14    1    1    2    0    0  0.20037227327E-01  0.95826565621E-02  0.69514876380E-02  0.23273181264E-01  0.00000000000E+00 0.  1.
     999901    1    3    3    0    0 -0.33314837534E-01  0.11228506361E+00 -0.50019919377E-01  0.88916804162E+00  0.88000000000E+00 0. -1.
        -11    1    4    4    0    0  0.12036454224E-01 -0.48878249229E-01  0.25368690503E-01  0.56371899532E-01  0.51100000000E-03 0.  1.
         11    1    4    4    0    0  0.12411559831E-02 -0.72989470943E-01  0.17699741236E-01  0.75116877581E-01  0.51100000000E-03 0. -1.
</event>
<event>
 8    1  0.1208168E+005  0.1043930E+01  0.7957747E-01            NaN
         13   -1    0    0    0    0  0.00000000000E+00  0.00000000000E+00  0.74505805969E-08  0.10566000000E+00  0.10566000000E+00 0. -1.
     999900   -1    0    0    0    0 -0.00000000000E+00 -0.00000000000E+00 -0.74505805969E-08  0.93827000000E+00  0.93827000000E+00 0. -1.
     999902    2    1    2    0    0 -0.20730021596E-01  0.27632511651E-02 -0.11344827136E-01  0.10201376808E+01  0.10198601930E+01 0.  0.
     999903    2    3    3    0    0  0.20227919735E-01 -0.11261640656E+00  0.56285215757E-01  0.12909119427E+00  0.20121808127E-01 0.  0.
         14    1    1    2    0    0  0.20730021596E-01 -0.27632511651E-02  0.11344827136E-01  0.23792319246E-01  0.00000000000E+00 0. -1.
     999901    1    3    3    0    0 -0.40957941330E-01  0.11537965772E+00 -0.67630042894E-01  0.89104648648E+00  0.88000000000E+00 0. -1.
        -11    1    4    4    0    0 -0.27096929114E-03 -0.53583393559E-01  0.28589916553E-01  0.60736298366E-01  0.51100000000E-03 0. -1.
         11    1    4    4    0    0  0.20498889026E-01 -0.59033012998E-01  0.27695299204E-01  0.68354895903E-01  0.51100000000E-03 0.  1.
</event>
<event>
 8    1  0.1208168E+005  0.1043930E+01  0.7957747E-01            NaN
         13   -1    0    0    0    0  0.00000000000E+00  0.00000000000E+00  0.74505805969E-08  0.10566000000E+00  0.10566000000E+00 0. -1.
     999900   -1    0    0    0    0 -0.00000000000E+00 -0.00000000000E+00 -0.74505805969E-08  0.93827000000E+00  0.93827000000E+00 0.  1.
     999902    2    1    2    0    0 -0.12391162670E-01 -0.20473335826E-01 -0.13166304694E-02  0.10199626908E+01  0.10196810574E+01 0.  0.
     999903    2    3    3    0    0  0.61282851785E-01 -0.58457092004E-01  0.97474493261E-01  0.13056384204E+00  0.19308559827E-01 0.  0.
         14    1    1    2    0    0  0.12391162670E-01  0.20473335826E-01  0.13166304694E-02  0.23967309151E-01  0.00000000000E+00 0. -1.
     999901    1    3    3    0    0 -0.73674014455E-01  0.37983756179E-01 -0.98791123730E-01  0.88939884881E+00  0.88000000000E+00 0.  1.
        -11    1    4    4    0    0  0.48396944684E-01 -0.39615456701E-01  0.81337761363E-01  0.10260478161E+00  0.51100000000E-03 0. -1.
         11    1    4    4    0    0  0.12885907101E-01 -0.18841635304E-01  0.16136731898E-01  0.27959060429E-01  0.51100000000E-03 0.  1.
</event>
<event>
 8    1  0.1208168E+005  0.1043930E+01  0.7957747E-01            NaN
         13   -1    0    0    0    0  0.00000000000E+00  0.00000000000E+00  0.74505805969E-08  0.10566000000E+00  0.10566000000E+00 0. -1.
     999900   -1    0    0    0    0 -0.00000000000E+00 -0.00000000000E+00 -0.74505805969E-08  0.93827000000E+00  0.93827000000E+00 0. -1.
     999902    2    1    2    0    0 -0.60661493563E-02  0.56287571067E-02  0.22719746946E-01  0.10197500915E+01  0.10194633790E+01 0.  0.
     999903    2    3    3    0    0 -0.53295787733E-01  0.11645953149E+00  0.22417086146E-01  0.13154167512E+00  0.19935472858E-01 0.  0.
         14    1    1    2    0    0  0.60661493563E-02 -0.56287571067E-02 -0.22719746946E-01  0.24179908517E-01  0.00000000000E+00 0.  1.
     999901    1    3    3    0    0  0.47229638377E-01 -0.11083077438E+00  0.30266080058E-03  0.88820841636E+00  0.88000000000E+00 0. -1.
        -11    1    4    4    0    0 -0.29913736145E-01  0.82850558244E-01  0.21080421641E-01  0.90574234245E-01  0.51100000000E-03 0.  1.
         11    1    4    4    0    0 -0.23382051589E-01  0.33608973244E-01  0.13366645051E-02  0.40967440877E-01  0.51100000000E-03 0. -1.
</event>
<event>
 8    1  0.1208168E+005  0.1043930E+01  0.7957747E-01            NaN
         13   -1    0    0    0    0  0.00000000000E+00  0.00000000000E+00  0.74505805969E-08  0.10566000000E+00  0.10566000000E+00 0.  1.
     999900   -1    0    0    0    0 -0.00000000000E+00 -0.00000000000E+00 -0.74505805969E-08  0.93827000000E+00  0.93827000000E+00 0.  1.
     999902    2    1    2    0    0 -0.10251554840E-01 -0.45729569012E-02 -0.20726080332E-01  0.10203593251E+01  0.10200870431E+01 0.  0.
     999903    2    3    3    0    0 -0.85306911942E-01 -0.18859371508E-01  0.93806939051E-01  0.12965442398E+00  0.19431487958E-01 0.  0.
         14    1    1    2    0    0  0.10251554840E-01  0.45729569012E-02  0.20726080332E-01  0.23570674945E-01  0.00000000000E+00 0.  1.
     999901    1    3    3    0    0  0.75055357102E-01  0.14286414607E-01 -0.11453301938E+00  0.89070490108E+00  0.88000000000E+00 0.  1.
        -11    1    4    4    0    0 -0.52553195528E-01 -0.14255132374E-01  0.70984803928E-01  0.89465919035E-01  0.51100000000E-03 0.  1.
         11    1    4    4    0    0 -0.32753716415E-01 -0.46042391338E-02  0.22822135123E-01  0.40188504943E-01  0.51100000000E-03 0. -1.
</event>
<event>
 8    1  0.1208168E+005  0.1043930E+01  0.7957747E-01            NaN
         13   -1    0    0    0    0  0.00000000000E+00  0.00000000000E+00  0.74505805969E-08  0.10566000000E+00  0.10566000000E+00 0.  1.
     999900   -1    0    0    0    0 -0.00000000000E+00 -0.00000000000E+00 -0.74505805969E-08  0.93827000000E+00  0.93827000000E+00 0.  1.
     999902    2    1    2    0    0  0.23456984291E-01  0.52499974087E-02  0.40627775184E-02  0.10195517567E+01  0.10192602640E+01 0.  0.
     999903    2    3    3    0    0  0.10676940162E+00 -0.71513094092E-01  0.23048883847E-01  0.13208682595E+00  0.20046216403E-01 0.  0.
         14    1    1    2    0    0 -0.23456984291E-01 -0.52499974087E-02 -0.40627775184E-02  0.24378243292E-01  0.00000000000E+00 0. -1.
     999901    1    3    3    0    0 -0.83312417333E-01  0.76763091501E-01 -0.18986106329E-01  0.88746493076E+00  0.88000000000E+00 0.  1.
        -11    1    4    4    0    0  0.87849331724E-01 -0.65381714494E-01  0.14629246485E-01  0.11048325506E+00  0.51100000000E-03 0.  1.
         11    1    4    4    0    0  0.18920069901E-01 -0.61313795984E-02  0.84196373616E-02  0.21603570888E-01  0.51100000000E-03 0. -1.
</event>
<event>
 8    1  0.1208168E+005  0.1043930E+01  0.7957747E-01            NaN
         13   -1    0    0    0    0  0.00000000000E+00  0.00000000000E+00  0.74505805969E-08  0.10566000000E+00  0.10566000000E+00 0. -1.
     999900   -1    0    0    0    0 -0.00000000000E+00 -0.00000000000E+00 -0.74505805969E-08  0.93827000000E+00  0.93827000000E+00 0. -1.
     999902    2    1    2    0    0  0.30809008508E-02  0.18154344264E-01  0.14833429745E-01  0.10202846452E+01  0.10200106149E+01 0.  0.
     999903    2    3    3    0    0  0.56431913831E-01  0.10084110142E+00  0.63684616301E-01  0.13345328083E+00  0.20013974528E-01 0.  0.
         14    1    1    2    0    0 -0.30809008508E-02 -0.18154344264E-01 -0.14833429745E-01  0.23645354802E-01  0.00000000000E+00 0.  1.
     999901    1    3    3    0    0 -0.53351012980E-01 -0.82686757159E-01 -0.48851186556E-01  0.88683136437E+00  0.88000000000E+00 0. -1.
        -11    1    4    4    0    0  0.37282553337E-01  0.65122830120E-01  0.51911491404E-01  0.91247114184E-01  0.51100000000E-03 0. -1.
         11    1    4    4    0    0  0.19149360494E-01  0.35718271304E-01  0.11773124897E-01  0.42206166648E-01  0.51100000000E-03 0.  1.
</event>
<event>
 8    1  0.1208168E+005  0.1043930E+01  0.7957747E-01            NaN
         13   -1    0    0    0    0  0.00000000000E+00  0.00000000000E+00  0.74505805969E-08  0.10566000000E+00  0.10566000000E+00 0. -1.
     999900   -1    0    0    0    0 -0.00000000000E+00 -0.00000000000E+00 -0.74505805969E-08  0.93827000000E+00  0.93827000000E+00 0. -1.
     999902    2    1    2    0    0  0.12872322603E-01 -0.77848509124E-03  0.19860129230E-01  0.10202503154E+01  0.10199754794E+01 0.  0.
     999903    2    3    3    0    0  0.54589648801E-02 -0.12371572085E+00  0.39691070412E-01  0.13145236987E+00  0.19208451035E-01 0.  0.
         14    1    1    2    0    0 -0.12872322603E-01  0.77848509124E-03 -0.19860129230E-01  0.23679684568E-01  0.00000000000E+00 0.  1.
     999901    1    3    3    0    0  0.74133577232E-02  0.12293723576E+00 -0.19830941182E-01  0.88879794556E+00  0.88000000000E+00 0.  1.
        -11    1    4    4    0    0 -0.49913900446E-02 -0.47998792574E-01  0.90416323328E-02  0.49100003049E-01  0.51100000000E-03 0. -1.
         11    1    4    4    0    0  0.10450354925E-01 -0.75716928274E-01  0.30649438079E-01  0.82352366820E-01  0.51100000000E-03 0.  1.
</event>
<event>
 8    1  0.1208168E+005  0.1043930E+01  0.7957747E-01            NaN
         13   -1    0    0    0    0  0.00000000000E+00  0.00000000000E+00  0.74505805969E-08  0.10566000000E+00  0.10566000000E+00 0. -1.
     999900   -1    0    0    0    0 -0.00000000000E+00 -0.00000000000E+00 -0.74505805969E-08  0.93827000000E+00  0.93827000000E+00 0.  1.
     999902    2    1    2    0    0 -0.15384739874E-01  0.25263199694E-02  0.11380833515E-01  0.10246272571E+01  0.10244454207E+01 0.  0.
     999903    2    3    3    0    0 -0.22506205847E-01  0.12154681910E+00  0.52716263088E-01  0.13562488798E+00  0.18301565801E-01 0.  0.
         14    1    1    2    0    0  0.15384739874E-01 -0.25263199694E-02 -0.11380833515E-01  0.19302742942E-01  0.00000000000E+00 0.  1.
     999901    1    3    3    0    0  0.71214659731E-02 -0.11902049913E+00 -0.41335429573E-01  0.88900236908E+00  0.88000000000E+00 0.  1.
        -11    1    4    4    0    0 -0.17156984526E-01  0.45179247705E-01  0.18134143762E-01  0.51620101048E-01  0.51100000000E-03 0. -1.
         11    1    4    4    0    0 -0.53492213218E-02  0.76367571393E-01  0.34582119326E-01  0.84004786930E-01  0.51100000000E-03 0.  1.
</event>
<event>
 8    1  0.1208168E+005  0.1043930E+01  0.7957747E-01            NaN
         13   -1    0    0    0    0  0.00000000000E+00  0.00000000000E+00  0.74505805969E-08  0.10566000000E+00  0.10566000000E+00 0. -1.
     999900   -1    0    0    0    0 -0.00000000000E+00 -0.00000000000E+00 -0.74505805969E-08  0.93827000000E+00  0.93827000000E+00 0. -1.
     999902    2    1    2    0    0  0.17978865973E-01  0.11817536597E-01 -0.84327665565E-02  0.10208214443E+01  0.10205598541E+01 0.  0.
     999903    2    3    3    0    0 -0.39407795222E-01 -0.11690101153E+00  0.30976528259E-01  0.12873692703E+00  0.19870336098E-01 0.  0.
         14    1    1    2    0    0 -0.17978865973E-01 -0.11817536597E-01  0.84327665565E-02  0.23108555660E-01  0.00000000000E+00 0. -1.
     999901    1    3    3    0    0  0.57386661195E-01  0.12871854812E+00 -0.39409294816E-01  0.89208451731E+00  0.88000000000E+00 0. -1.
        -11    1    4    4    0    0 -0.13069124444E-01 -0.54316966963E-01  0.22804852049E-01  0.60344488661E-01  0.51100000000E-03 0.  1.
         11    1    4    4    0    0 -0.26338670778E-01 -0.62584044565E-01  0.81716762105E-02  0.68392438365E-01  0.51100000000E-03 0. -1.
</event>
<event>
 8    1  0.1208168E+005  0.1043930E+01  0.7957747E-01            NaN
         13   -1    0    0    0    0  0.00000000000E+00  0.00000000000E+00  0.74505805969E-08  0.10566000000E+00  0.10566000000E+00 0.  1.
     999900   -1    0    0    0    0 -0.00000000000E+00 -0.00000000000E+00 -0.74505805969E-08  0.93827000000E+00  0.93827000000E+00 0. -1.
     999902    2    1    2    0    0  0.56788742779E-02 -0.14840248788E-01  0.13560296600E-01  0.10230406668E+01  0.10228273763E+01 0.  0.
     999903    2    3    3    0    0 -0.22275892420E-01  0.12120334991E+00  0.41540832810E-01  0.13170894398E+00  0.20859954918E-01 0.  0.
         14    1    1    2    0    0 -0.56788742779E-02  0.14840248788E-01 -0.13560296600E-01  0.20889333187E-01  0.00000000000E+00 0. -1.
     999901    1    3    3    0    0  0.27954766698E-01 -0.13604359870E+00 -0.27980536210E-01  0.89133172284E+00  0.88000000000E+00 0. -1.
        -11    1    4    4    0    0 -0.22724182532E-01  0.80853972750E-01  0.34236409311E-01  0.90698104857E-01  0.51100000000E-03 0. -1.
         11    1    4    4    0    0  0.44829011177E-03  0.40349377164E-01  0.73044234987E-02  0.41010839118E-01  0.51100000000E-03 0.  1.
</event>
<event>
 8    1  0.1208168E+005  0.1043930E+01  0.7957747E-01            NaN
         13   -1    0    0    0    0  0.00000000000E+00  0.00000000000E+00  0.74505805969E-08  0.10566000000E+00  0.10566000000E+00 0.  1.
     999900   -1    0    0    0    0 -0.00000000000E+00 -0.00000000000E+00 -0.74505805969E-08  0.93827000000E+00  0.93827000000E+00 0. -1.
     999902    2    1    2    0    0 -0.56014905896E-02 -0.31741991580E-01 -0.46898040534E-03  0.10116941400E+01  0.10111804400E+01 0.  0.
     999903    2    3    3    0    0  0.72099527073E-01 -0.19213098587E-01 -0.95892283521E-01  0.12304346169E+00  0.19413357902E-01 0.  0.
         14    1    1    2    0    0  0.56014905896E-02  0.31741991580E-01  0.46898040534E-03  0.32235859984E-01  0.00000000000E+00 0. -1.
     999901    1    3    3    0    0 -0.77701017663E-01 -0.12528892994E-01  0.95423303116E-01  0.88865067832E+00  0.88000000000E+00 0.  1.
        -11    1    4    4    0    0  0.37588438451E-01 -0.93414543862E-02 -0.34229772723E-01  0.51692281212E-01  0.51100000000E-03 0.  1.
         11    1    4    4    0    0  0.34511088622E-01 -0.98716442006E-02 -0.61662510798E-01  0.71351180481E-01  0.51100000000E-03 0. -1.
</event>
<event>
 8    1  0.1208168E+005  0.1043930E+01  0.7957747E-01            NaN
         13   -1    0    0    0    0  0.00000000000E+00  0.00000000000E+00  0.74505805969E-08  0.10566000000E+00  0.10566000000E+00 0. -1.
     999900   -1    0    0    0    0 -0.00000000000E+00 -0.00000000000E+00 -0.74505805969E-08  0.93827000000E+00  0.93827000000E+00 0. -1.
     999902    2    1    2    0    0 -0.18904912076E-01 -0.55246115170E-02 -0.14591757651E-01  0.10194180351E+01  0.10191232967E+01 0.  0.
     999903    2    3    3    0    0  0.67217298719E-01  0.99874237907E-01  0.36967554135E-01  0.12746270252E+00  0.19675157674E-01 0.  0.
         14    1    1    2    0    0  0.18904912076E-01  0.55246115170E-02  0.14591757651E-01  0.24511964922E-01  0.00000000000E+00 0.  1.
     999901    1    3    3    0    0 -0.86122210795E-01 -0.10539884942E+00 -0.51559311786E-01  0.89195533256E+00  0.88000000000E+00 0.  1.
        -11    1    4    4    0    0  0.25651185669E-01  0.53867016010E-01  0.13561743548E-01  0.61186769396E-01  0.51100000000E-03 0. -1.
         11    1    4    4    0    0  0.41566113050E-01  0.46007221897E-01  0.23405810588E-01  0.66275933121E-01  0.51100000000E-03 0.  1.
</event>
<event>
 8    1  0.1208168E+005  0.1043930E+01  0.7957747E-01            NaN
         13   -1    0    0    0    0  0.00000000000E+00  0.00000000000E+00  0.74505805969E-08  0.10566000000E+00  0.10566000000E+00 0.  1.
     999900   -1    0    0    0    0 -0.00000000000E+00 -0.00000000000E+00 -0.74505805969E-08  0.93827000000E+00  0.93827000000E+00 0. -1.
     999902    2    1    2    0    0  0.91262919465E-02  0.23155234377E-01  0.27000249819E-02  0.10188951399E+01  0.10185875328E+01 0.  0.
     999903    2    3    3    0    0 -0.94488231488E-02  0.12670999114E+00  0.30222087976E-01  0.13220123192E+00  0.20471663530E-01 0.  0.
         14    1    1    2    0    0 -0.91262919465E-02 -0.23155234377E-01 -0.27000249819E-02  0.25034860069E-01  0.00000000000E+00 0. -1.
     999901    1    3    3    0    0  0.18575115095E-01 -0.10355475676E+00 -0.27522062994E-01  0.88669390801E+00  0.88000000000E+00 0. -1.
        -11    1    4    4    0    0 -0.12602508142E-01  0.82756837277E-01  0.12231448981E-01  0.84601340372E-01  0.51100000000E-03 0. -1.
         11    1    4    4    0    0  0.31536849932E-02  0.43953153858E-01  0.17990638996E-01  0.47599891550E-01  0.51100000000E-03 0.  1.
</event>
<event>
 8    1  0.1208168E+005  0.1043930E+01  0.7957747E-01            NaN
         13   -1    0    0    0    0  0.00000000000E+00  0.00000000000E+00  0.74505805969E-08  0.10566000000E+00  0.10566000000E+00 0.  1.
     999900   -1    0    0    0    0 -0.00000000000E+00 -0.00000000000E+00 -0.74505805969E-08  0.93827000000E+00  0.93827000000E+00 0.  1.
     999902    2    1    2    0    0  0.17824480187E-01 -0.15258032560E-01  0.19215535694E-02  0.10203882919E+01  0.10201166866E+01 0.  0.
     999903    2    3    3    0    0 -0.82323001655E-01  0.46891138258E-01  0.84729328367E-01  0.12867692318E+00  0.20070775422E-01 0.  0.
         14    1    1    2    0    0 -0.17824480187E-01  0.15258032560E-01 -0.19215535694E-02  0.23541708087E-01  0.00000000000E+00 0. -1.
     999901    1    3    3    0    0  0.10014748184E+00 -0.62149170818E-01 -0.82807774797E-01  0.89171136873E+00  0.88000000000E+00 0.  1.
        -11    1    4    4    0    0 -0.70485939661E-01  0.32718463795E-01  0.62171289875E-01  0.99520329424E-01  0.51100000000E-03 0. -1.
         11    1    4    4    0    0 -0.11837061994E-01  0.14172674463E-01  0.22558038492E-01  0.29156593760E-01  0.51100000000E-03 0.  1.
</event>
<event>
 8    1  0.1208168E+005  0.1043930E+01  0.7957747E-01            NaN
         13   -1    0    0    0    0  0.00000000000E+00  0.00000000000E+00  0.74505805969E-08  0.10566000000E+00  0.10566000000E+00 0.  1.
     999900   -1    0    0    0    0 -0.00000000000E+00 -0.00000000000E+00 -0.74505805969E-08  0.93827000000E+00  0.93827000000E+00 0.  1.
     999902    2    1    2    0    0  0.51443454863E-02 -0.65991665706E-02  0.20881034603E-01  0.10214348695E+01  0.10211871336E+01 0.  0.
     999903    2    3    3    0    0 -0.12450025918E+00  0.31588089210E-01  0.16463115116E-01  0.13110599317E+00  0.20484759478E-01 0.  0.
         14    1    1    2    0    0 -0.51443454863E-02  0.65991665706E-02 -0.20881034603E-01  0.22495130495E-01  0.00000000000E+00 0. -1.
     999901    1    3    3    0    0  0.12964460466E+00 -0.38187255780E-01  0.44179194872E-02  0.89032887633E+00  0.88000000000E+00 0. -1.
        -11    1    4    4    0    0 -0.43412449059E-01  0.22216722259E-02  0.10088884804E-01  0.44627606685E-01  0.51100000000E-03 0. -1.
         11    1    4    4    0    0 -0.81087810117E-01  0.29366416984E-01  0.63742303114E-02  0.86478386485E-01  0.51100000000E-03 0.  1.
</event>
<event>
 8    1  0.1208168E+005  0.1043930E+01  0.7957747E-01            NaN
         13   -1    0    0    0    0  0.00000000000E+00  0.00000000000E+00  0.74505805969E-08  0.10566000000E+00  0.10566000000E+00 0.  1.
     999900   -1    0    0    0    0 -0.00000000000E+00 -0.00000000000E+00 -0.74505805969E-08  0.93827000000E+00  0.93827000000E+00 0.  1.
     999902    2    1    2    0    0  0.81204788017E-02  0.21898145921E-01 -0.46915499477E-02  0.10201081275E+01  0.10198299417E+01 0.  0.
     999903    2    3    3    0    0  0.20651972110E-01  0.12592645479E+00  0.32368089138E-01  0.13311751633E+00  0.19713041125E-01 0.  0.
         14    1    1    2    0    0 -0.81204788017E-02 -0.21898145921E-01  0.46915499477E-02  0.23821872548E-01  0.00000000000E+00 0.  1.
     999901    1    3    3    0    0 -0.12531493308E-01 -0.10402830887E+00 -0.37059639085E-01  0.88699061112E+00  0.88000000000E+00 0.  1.
        -11    1    4    4    0    0  0.69139379211E-02  0.56645253087E-01  0.47049731243E-02  0.57261550171E-01  0.51100000000E-03 0. -1.
         11    1    4    4    0    0  0.13738034189E-01  0.69281201707E-01  0.27663116014E-01  0.75855966159E-01  0.51100000000E-03 0.  1.
</event>
<event>
 8    1  0.1208168E+005  0.1043930E+01  0.7957747E-01            NaN
         13   -1    0    0    0    0  0.00000000000E+00  0.00000000000E+00  0.74505805969E-08  0.10566000000E+00  0.10566000000E+00 0. -1.
     999900   -1    0    0    0    0 -0.00000000000E+00 -0.00000000000E+00 -0.74505805969E-08  0.93827000000E+00  0.93827000000E+00 0. -1.
     999902    2    1    2    0    0 -0.20038966209E-01 -0.43755625272E-02 -0.12943802249E-01  0.10196761811E+01  0.10193876920E+01 0.  0.
     999903    2    3    3    0    0 -0.73555155953E-01 -0.81715331419E-01  0.69748940465E-01  0.13080976138E+00  0.12590576673E-01 0.  0.
         14    1    1    2    0    0  0.20038966209E-01  0.43755625272E-02  0.12943802249E-01  0.24253818892E-01  0.00000000000E+00 0. -1.
     999901    1    3    3    0    0  0.53516189744E-01  0.77339768892E-01 -0.82692742714E-01  0.88886641972E+00  0.88000000000E+00 0. -1.
        -11    1    4    4    0    0 -0.66561921619E-01 -0.77413301860E-01  0.67081175920E-01  0.12216158970E+00  0.51100000000E-03 0. -1.
         11    1    4    4    0    0 -0.69932343339E-02 -0.43020295594E-02  0.26677645447E-02  0.86481716821E-02  0.51100000000E-03 0.  1.
</event>
<event>
 8    1  0.1208168E+005  0.1043930E+01  0.7957747E-01            NaN
         13   -1    0    0    0    0  0.00000000000E+00  0.00000000000E+00  0.74505805969E-08  0.10566000000E+00  0.10566000000E+00 0. -1.
     999900   -1    0    0    0    0 -0.00000000000E+00 -0.00000000000E+00 -0.74505805969E-08  0.93827000000E+00  0.93827000000E+00 0.  1.
     999902    2    1    2    0    0  0.19381707166E-04  0.17621616993E-02  0.23068118260E-01  0.10207946662E+01  0.10205324624E+01 0.  0.
     999903    2    3    3    0    0 -0.19179124729E-01  0.39343623236E-01 -0.11905625390E+00  0.12839325089E+00  0.19866448299E-01 0.  0.
         14    1    1    2    0    0 -0.19381707166E-04 -0.17621616993E-02 -0.23068118260E-01  0.23135333790E-01  0.00000000000E+00 0.  1.
     999901    1    3    3    0    0  0.19198506436E-01 -0.37581461537E-01  0.14212437216E+00  0.89240141532E+00  0.88000000000E+00 0. -1.
        -11    1    4    4    0    0 -0.10952588793E-01  0.32974214515E-01 -0.68901843958E-01  0.77168537928E-01  0.51100000000E-03 0. -1.
         11    1    4    4    0    0 -0.82265359356E-02  0.63694087214E-02 -0.50154409939E-01  0.51224712964E-01  0.51100000000E-03 0.  1.
</event>
<event>
 8    1  0.1208168E+005  0.1043930E+01  0.7957747E-01            NaN
         13   -1    0    0    0    0  0.00000000000E+00  0.00000000000E+00  0.74505805969E-08  0.10566000000E+00  0.10566000000E+00 0.  1.
     999900   -1    0    0    0    0 -0.00000000000E+00 -0.00000000000E+00 -0.74505805969E-08  0.93827000000E+00  0.93827000000E+00 0. -1.
     999902    2    1    2    0    0 -0.44898823454E-02 -0.16215248106E-01 -0.16025310872E-01  0.10206941677E+01  0.10204296546E+01 0.  0.
     999903    2    3    3    0    0 -0.46937258446E-01  0.76788167595E-01  0.89631543029E-01  0.12849756052E+00  0.19449438057E-01 0.  0.
         14    1    1    2    0    0  0.44898823454E-02  0.16215248106E-01  0.16025310872E-01  0.23235832310E-01  0.00000000000E+00 0.  1.
     999901    1    3    3    0    0  0.42447376101E-01 -0.93003415701E-01 -0.10565685390E+00  0.89219660717E+00  0.88000000000E+00 0. -1.
        -11    1    4    4    0    0 -0.21244948811E-01  0.51244155477E-01  0.59739859066E-01  0.81525598451E-01  0.51100000000E-03 0.  1.
         11    1    4    4    0    0 -0.25692309635E-01  0.25544012118E-01  0.29891683963E-01  0.46971962069E-01  0.51100000000E-03 0. -1.
</event>
<event>
 8    1  0.1208168E+005  0.1043930E+01  0.7957747E-01            NaN
         13   -1    0    0    0    0  0.00000000000E+00  0.00000000000E+00  0.74505805969E-08  0.10566000000E+00  0.10566000000E+00 0.  1.
     999900   -1    0    0    0    0 -0.00000000000E+00 -0.00000000000E+00 -0.74505805969E-08  0.93827000000E+00  0.93827000000E+00 0. -1.
     999902    2    1    2    0    0 -0.23494610036E-01 -0.59891813665E-02  0.28907430416E-02  0.10195123140E+01  0.10192198659E+01 0.  0.
     999903    2    3    3    0    0  0.99207047749E-01  0.65434848512E-01  0.41040963389E-01  0.12731697206E+00  0.20037289641E-01 0.  0.
         14    1    1    2    0    0  0.23494610036E-01  0.59891813665E-02 -0.28907430416E-02  0.24417685999E-01  0.00000000000E+00 0. -1.
     999901    1    3    3    0    0 -0.12270165778E+00 -0.71424029878E-01 -0.38150220348E-01  0.89219534194E+00  0.88000000000E+00 0.  1.
        -11    1    4    4    0    0  0.39634625241E-01  0.15540988149E-01  0.18368161357E-01  0.46368915269E-01  0.51100000000E-03 0. -1.
         11    1    4    4    0    0  0.59572422508E-01  0.49893860363E-01  0.22672802033E-01  0.80948056792E-01  0.51100000000E-03 0.  1.
</event>
<event>
 8    1  0.1208168E+005  0.1043930E+01  0.7957747E-01            NaN
         13   -1    0    0    0    0  0.00000000000E+00  0.00000000000E+00  0.74505805969E-08  0.10566000000E+00  0.10566000000E+00 0. -1.
     999900   -1    0    0    0    0 -0.00000000000E+00 -0.00000000000E+00 -0.74505805969E-08  0.93827000000E+00  0.93827000000E+00 0.  1.
     999902    2    1    2    0    0 -0.36599728895E-03  0.14967536055E-01  0.18441243146E-01  0.10201762521E+01  0.10198996739E+01 0.  0.
     999903    2    3    3    0    0  0.76290640608E-01  0.79095321452E-01 -0.66777335364E-01  0.13042863672E+00  0.21819372981E-01 0.  0.
         14    1    1    2    0    0  0.36599728895E-03 -0.14967536055E-01 -0.18441243146E-01  0.23753747880E-01  0.00000000000E+00 0.  1.
     999901    1    3    3    0    0 -0.76656637897E-01 -0.64127785396E-01  0.85218578510E-01  0.88974761540E+00  0.88000000000E+00 0. -1.
        -11    1    4    4    0    0  0.13920056544E-01  0.20801234331E-01 -0.25008082257E-01  0.35385373010E-01  0.51100000000E-03 0.  1.
         11    1    4    4    0    0  0.62370584064E-01  0.58294087121E-01 -0.41769253107E-01  0.95043263706E-01  0.51100000000E-03 0. -1.
</event>
<event>
 8    1  0.1208168E+005  0.1043930E+01  0.7957747E-01            NaN
         13   -1    0    0    0    0  0.00000000000E+00  0.00000000000E+00  0.74505805969E-08  0.10566000000E+00  0.10566000000E+00 0. -1.
     999900   -1    0    0    0    0 -0.00000000000E+00 -0.00000000000E+00 -0.74505805969E-08  0.93827000000E+00  0.93827000000E+00 0.  1.
     999902    2    1    2    0    0 -0.21834800721E-01  0.24811469349E-03  0.80632341544E-02  0.10206526327E+01  0.10203871622E+01 0.  0.
     999903    2    3    3    0    0 -0.11303442501E+00 -0.55111011381E-01  0.40349841464E-01  0.13362138786E+00  0.20311592127E-01 0.  0.
         14    1    1    2    0    0  0.21834800721E-01 -0.24811469349E-03 -0.80632341544E-02  0.23277367301E-01  0.00000000000E+00 0.  1.
     999901    1    3    3    0    0  0.91199624289E-01  0.55359126074E-01 -0.32286607310E-01  0.88703124484E+00  0.88000000000E+00 0. -1.
        -11    1    4    4    0    0 -0.33139968463E-01 -0.12852712851E-01  0.25116842062E-02  0.35637331774E-01  0.51100000000E-03 0.  1.
         11    1    4    4    0    0 -0.79894456546E-01 -0.42258298530E-01  0.37838157258E-01  0.97984056086E-01  0.51100000000E-03 0. -1.
</event>
<event>
 8    1  0.1208168E+005  0.1043930E+01  0.7957747E-01            NaN
         13   -1    0    0    0    0  0.00000000000E+00  0.00000000000E+00  0.74505805969E-08  0.10566000000E+00  0.10566000000E+00 0.  1.
     999900   -1    0    0    0    0 -0.00000000000E+00 -0.00000000000E+00 -0.74505805969E-08  0.93827000000E+00  0.93827000000E+00 0.  1.
     999902    2    1    2    0    0 -0.11045016612E-01 -0.18579414593E-01 -0.79344714409E-02  0.10209051683E+01  0.10206454917E+01 0.  0.
     999903    2    3    3    0    0 -0.26650268972E-01  0.11343658931E+00  0.53300333570E-01  0.12881691562E+00  0.13220270898E-01 0.  0.
         14    1    1    2    0    0  0.11045016612E-01  0.18579414593E-01  0.79344714409E-02  0.23024831717E-01  0.00000000000E+00 0. -1.
     999901    1    3    3    0    0  0.15605252361E-01 -0.13201600390E+00 -0.61234805011E-01  0.89208825266E+00  0.88000000000E+00 0.  1.
        -11    1    4    4    0    0 -0.10697399264E-01  0.43338034500E-01  0.13478294600E-01  0.46632018310E-01  0.51100000000E-03 0.  1.
         11    1    4    4    0    0 -0.15952869708E-01  0.70098554805E-01  0.39822038971E-01  0.82184897314E-01  0.51100000000E-03 0. -1.
</event>
<event>
 8    1  0.1208168E+005  0.1043930E+01  0.7957747E-01            NaN
         13   -1    0    0    0    0  0.00000000000E+00  0.00000000000E+00  0.74505805969E-08  0.10566000000E+00  0.10566000000E+00 0.  1.
     999900   -1    0    0    0    0 -0.00000000000E+00 -0.00000000000E+00 -0.74505805969E-08  0.93827000000E+00  0.93827000000E+00 0. -1.
     999902    2    1    2    0    0  0.16880664881E-01  0.11948116509E-01 -0.11963338099E-01  0.10200378299E+01  0.10197579804E+01 0.  0.
     999903    2    3    3    0    0 -0.90989153864E-01 -0.77159602319E-01 -0.42794146992E-01  0.12845125408E+00  0.20874752882E-01 0.  0.
         14    1    1    2    0    0 -0.16880664881E-01 -0.11948116509E-01  0.11963338099E-01  0.23892170128E-01  0.00000000000E+00 0.  1.
     999901    1    3    3    0    0  0.10786981874E+00  0.89107718828E-01  0.30830808893E-01  0.89158657579E+00  0.88000000000E+00 0. -1.
        -11    1    4    4    0    0 -0.35418451929E-01 -0.43189173033E-01 -0.16880437564E-01  0.58352221018E-01  0.51100000000E-03 0. -1.
         11    1    4    4    0    0 -0.55570701935E-01 -0.33970429285E-01 -0.25913709428E-01  0.70099033065E-01  0.51100000000E-03 0.  1.
</event>
<event>
 8    1  0.1208168E+005  0.1043930E+01  0.7957747E-01            NaN
         13   -1    0    0    0    0  0.00000000000E+00  0.00000000000E+00  0.74505805969E-08  0.10566000000E+00  0.10566000000E+00 0.  1.
     999900   -1    0    0    0    0 -0.00000000000E+00 -0.00000000000E+00 -0.74505805969E-08  0.93827000000E+00  0.93827000000E+00 0.  1.
     999902    2    1    2    0    0 -0.29802952714E-02 -0.79881720577E-02  0.22780338972E-01  0.10196064128E+01  0.10193162414E+01 0.  0.
     999903    2    3    3    0    0 -0.86043332816E-01  0.48803769188E-01  0.83690269421E-01  0.13178052193E+00  0.24016281038E-01 0.  0.
         14    1    1    2    0    0  0.29802952714E-02  0.79881720577E-02 -0.22780338972E-01  0.24323587244E-01  0.00000000000E+00 0. -1.
     999901    1    3    3    0    0  0.83063037545E-01 -0.56791941245E-01 -0.60909930449E-01  0.88782589083E+00  0.88000000000E+00 0.  1.
        -11    1    4    4    0    0 -0.16393411842E-01  0.20231148710E-01  0.16188693957E-01  0.30665587602E-01  0.51100000000E-03 0.  1.
         11    1    4    4    0    0 -0.69649920974E-01  0.28572620478E-01  0.67501575464E-01  0.10111493433E+00  0.51100000000E-03 0. -1.
</event>
<event>
 8    1  0.1208168E+005  0.1043930E+01  0.7957747E-01            NaN
         13   -1    0    0    0    0  0.00000000000E+00  0.00000000000E+00  0.74505805969E-08  0.10566000000E+00  0.10566000000E+00 0.  1.
     999900   -1    0    0    0    0 -0.00000000000E+00 -0.00000000000E+00 -0.74505805969E-08  0.93827000000E+00  0.93827000000E+00 0. -1.
     999902    2    1    2    0    0 -0.25827017302E-02 -0.21487366418E-01 -0.55486155432E-02  0.10215880127E+01  0.10213436754E+01 0.  0.
     999903    2    3    3    0    0 -0.96164980898E-01 -0.67219817346E-01  0.59570604655E-01  0.13305573250E+00  0.19722160580E-01 0.  0.
         14    1    1    2    0    0  0.25827017302E-02  0.21487366418E-01  0.55486155432E-02  0.22341987339E-01  0.00000000000E+00 0. -1.
     999901    1    3    3    0    0  0.93582279168E-01  0.45732450927E-01 -0.65119220198E-01  0.88853228016E+00  0.88000000000E+00 0. -1.
        -11    1    4    4    0    0 -0.23331354363E-01 -0.13973003664E-01  0.23297962385E-01  0.35814146648E-01  0.51100000000E-03 0.  1.
         11    1    4    4    0    0 -0.72833626535E-01 -0.53246813681E-01  0.36272642270E-01  0.97241585856E-01  0.51100000000E-03 0. -1.
</event>
<event>
 8    1  0.1208168E+005  0.1043930E+01  0.7957747E-01            NaN
         13   -1    0    0    0    0  0.00000000000E+00  0.00000000000E+00  0.74505805969E-08  0.10566000000E+00  0.10566000000E+00 0. -1.
     999900   -1    0    0    0    0 -0.00000000000E+00 -0.00000000000E+00 -0.74505805969E-08  0.93827000000E+00  0.93827000000E+00 0. -1.
     999902    2    1    2    0    0 -0.16955783403E-01  0.16948084629E-01  0.89503628707E-02  0.10183400575E+01  0.10180184809E+01 0.  0.
     999903    2    3    3    0    0 -0.69294568690E-01  0.96157251761E-01 -0.52359184932E-01  0.13111274654E+00  0.20027824194E-01 0.  0.
         14    1    1    2    0    0  0.16955783403E-01 -0.16948084629E-01 -0.89503628707E-02  0.25589942535E-01  0.00000000000E+00 0.  1.
     999901    1    3    3    0    0  0.52338785286E-01 -0.79209167131E-01  0.61309547803E-01  0.88722731093E+00  0.88000000000E+00 0. -1.
        -11    1    4    4    0    0 -0.44204735016E-01  0.44760769222E-01 -0.30054388846E-01  0.69721678616E-01  0.51100000000E-03 0.  1.
         11    1    4    4    0    0 -0.25089833674E-01  0.51396482539E-01 -0.22304796087E-01  0.61391067922E-01  0.51100000000E-03 0. -1.
</event>
<event>
 8    1  0.1208168E+005  0.1043930E+01  0.7957747E-01            NaN
         13   -1    0    0    0    0  0.00000000000E+00  0.00000000000E+00  0.74505805969E-08  0.10566000000E+00  0.10566000000E+00 0.  1.
     999900   -1    0    0    0    0 -0.00000000000E+00 -0.00000000000E+00 -0.74505805969E-08  0.93827000000E+00  0.93827000000E+00 0.  1.
     999902    2    1    2    0    0 -0.14333300758E-01  0.17517566465E-01 -0.17043769277E-01  0.10155962972E+01  0.10152009851E+01 0.  0.
     999903    2    3    3    0    0 -0.82105309849E-01  0.92729519375E-01 -0.35396356794E-01  0.12960154517E+00  0.14269294592E-01 0.  0.
         14    1    1    2    0    0  0.14333300758E-01 -0.17517566465E-01  0.17043769277E-01  0.28333702841E-01  0.00000000000E+00 0.  1.
     999901    1    3    3    0    0  0.67772009091E-01 -0.75211952910E-01  0.18352587517E-01  0.88599475199E+00  0.88000000000E+00 0. -1.
        -11    1    4    4    0    0 -0.56769658459E-01  0.69449040443E-01 -0.31020736960E-01  0.94913173915E-01  0.51100000000E-03 0. -1.
         11    1    4    4    0    0 -0.25335651390E-01  0.23280478932E-01 -0.43756198338E-02  0.34688371259E-01  0.51100000000E-03 0.  1.
</event>
<event>
 7    1  0.1208168E+005  0.1043930E+01  0.7957747E-01            NaN
         13   -1    0    0    0    0  0.00000000000E+00  0.00000000000E+00  0.74505805969E-08  0.10566000000E+00  0.10566000000E+00 0.  1.
     999900   -1    0    0    0    0 -0.00000000000E+00 -0.00000000000E+00 -0.74505805969E-08  0.93827000000E+00  0.93827000000E+00 0.  1.
     999902    2    1    2    0    0 -0.18887278036E-01  0.71307088858E-02  0.10913096867E-01  0.10209806653E+01  0.10207227081E+01 0.  0.
         14    1    1    2    0    0  0.18887278036E-01 -0.71307088858E-02 -0.10913096867E-01  0.22949334719E-01  0.00000000000E+00 0. -1.
     999901    1    3    3    0    0 -0.13374074026E+00 -0.27945755508E-01  0.29940861526E-01  0.89104657906E+00  0.88000000000E+00 0.  1.
        -11    1    3    3    0    0  0.61705707216E-01  0.39634763494E-01 -0.12952294849E-03  0.73340211872E-01  0.51100000000E-03 0. -1.
         11    1    3    3    0    0  0.53147755012E-01 -0.45582991002E-02 -0.18898241711E-01  0.56593874353E-01  0.51100000000E-03 0.  1.
</event>
<event>
 8    1  0.1208168E+005  0.1043930E+01  0.7957747E-01            NaN
         13   -1    0    0    0    0  0.00000000000E+00  0.00000000000E+00  0.74505805969E-08  0.10566000000E+00  0.10566000000E+00 0.  1.
     999900   -1    0    0    0    0 -0.00000000000E+00 -0.00000000000E+00 -0.74505805969E-08  0.93827000000E+00  0.93827000000E+00 0. -1.
     999902    2    1    2    0    0 -0.88689743510E-02 -0.17258137982E-01  0.15237061382E-01  0.10192587602E+01  0.10189601318E+01 0.  0.
     999903    2    3    3    0    0  0.69569500823E-01  0.94661785021E-01 -0.43374200516E-01  0.12678246162E+00  0.19791470758E-01 0.  0.
         14    1    1    2    0    0  0.88689743510E-02  0.17258137982E-01 -0.15237061382E-01  0.24671239778E-01  0.00000000000E+00 0. -1.
     999901    1    3    3    0    0 -0.78438475174E-01 -0.11191992300E+00  0.58611261898E-01  0.89247629861E+00  0.88000000000E+00 0.  1.
        -11    1    4    4    0    0  0.16324445031E-01  0.19387537807E-01 -0.11652631154E-02  0.25376821844E-01  0.51100000000E-03 0.  1.
         11    1    4    4    0    0  0.53245055792E-01  0.75274247214E-01 -0.42208937401E-01  0.10140563977E+00  0.51100000000E-03 0. -1.
</event>
<event>
 8    1  0.1208168E+005  0.1043930E+01  0.7957747E-01            NaN
         13   -1    0    0    0    0  0.00000000000E+00  0.00000000000E+00  0.74505805969E-08  0.10566000000E+00  0.10566000000E+00 0. -1.
     999900   -1    0    0    0    0 -0.00000000000E+00 -0.00000000000E+00 -0.74505805969E-08  0.93827000000E+00  0.93827000000E+00 0. -1.
     999902    2    1    2    0    0  0.16824943093E-01  0.10303237923E-01 -0.24571228496E-02  0.10240485294E+01  0.10238555160E+01 0.  0.
     999903    2    3    3    0    0 -0.48829116216E-01  0.67348479677E-01  0.10249985351E+00  0.13355395780E+00  0.20256835127E-01 0.  0.
         14    1    1    2    0    0 -0.16824943093E-01 -0.10303237923E-01  0.24571228496E-02  0.19881470632E-01  0.00000000000E+00 0. -1.
     999901    1    3    3    0    0  0.65654059309E-01 -0.57045241754E-01 -0.10495697636E+00  0.89049457157E+00  0.88000000000E+00 0.  1.
        -11    1    4    4    0    0 -0.28382233568E-01  0.22554736979E-01  0.46968380946E-01  0.59334284121E-01  0.51100000000E-03 0.  1.
         11    1    4    4    0    0 -0.20446882648E-01  0.44793742698E-01  0.55531472560E-01  0.74219673676E-01  0.51100000000E-03 0. -1.
</event>
<event>
 8    1  0.1208168E+005  0.1043930E+01  0.7957747E-01            NaN
         13   -1    0    0    0    0  0.00000000000E+00  0.00000000000E+00  0.74505805969E-08  0.10566000000E+00  0.10566000000E+00 0.  1.
     999900   -1    0    0    0    0 -0.00000000000E+00 -0.00000000000E+00 -0.74505805969E-08  0.93827000000E+00  0.93827000000E+00 0. -1.
     999902    2    1    2    0    0  0.22649102417E-01  0.27281242784E-02 -0.71777301239E-02  0.10200146428E+01  0.10197342434E+01 0.  0.
     999903    2    3    3    0    0 -0.30911436232E-01  0.69759510058E-01  0.10364616685E+00  0.12892324783E+00  0.75345732874E-02 0.  0.
         14    1    1    2    0    0 -0.22649102417E-01 -0.27281242784E-02  0.71777301239E-02  0.23915357244E-01  0.00000000000E+00 0. -1.
     999901    1    3    3    0    0  0.53560538649E-01 -0.67031385780E-01 -0.11082389697E+00  0.89109139493E+00  0.88000000000E+00 0.  1.
        -11    1    4    4    0    0 -0.32660917468E-02  0.95654376069E-02  0.17997652679E-01  0.20648040460E-01  0.51100000000E-03 0.  1.
         11    1    4    4    0    0 -0.27645344485E-01  0.60194072451E-01  0.85648514167E-01  0.10827520737E+00  0.51100000000E-03 0. -1.
</event>
<event>
 8    1  0.1208168E+005  0.1043930E+01  0.7957747E-01            NaN
         13   -1    0    0    0    0  0.00000000000E+00  0.00000000000E+00  0.74505805969E-08  0.10566000000E+00  0.10566000000E+00 0. -1.
     999900   -1    0    0    0    0 -0.00000000000E+00 -0.00000000000E+00 -0.74505805969E-08  0.93827000000E+00  0.93827000000E+00 0.  1.
     999902    2    1    2    0    0  0.40118804321E-02  0.23291995587E-01  0.33029827112E-02  0.10200653412E+01  0.10197861435E+01 0.  0.
     999903    2    3    3    0    0 -0.99184065320E-02 -0.12307253984E-01 -0.12710953581E+00  0.12963354461E+00  0.19954410654E-01 0.  0.
         14    1    1    2    0    0 -0.40118804321E-02 -0.23291995587E-01 -0.33029827112E-02  0.23864658762E-01  0.00000000000E+00 0.  1.
     999901    1    3    3    0    0  0.13930286964E-01  0.35599249571E-01  0.13041251852E+00  0.89043179663E+00  0.88000000000E+00 0. -1.
        -11    1    4    4    0    0 -0.42146443291E-02 -0.17298635258E-01 -0.85378104335E-01  0.87216327769E-01  0.51100000000E-03 0.  1.
         11    1    4    4    0    0 -0.57037622029E-02  0.49913812739E-02 -0.41731431476E-01  0.42417216838E-01  0.51100000000E-03 0. -1.
</event>
<event>
 8    1  0.1208168E+005  0.1043930E+01  0.7957747E-01            NaN
         13   -1    0    0    0    0  0.00000000000E+00  0.00000000000E+00  0.74505805969E-08  0.10566000000E+00  0.10566000000E+00 0. -1.
     999900   -1    0    0    0    0 -0.00000000000E+00 -0.00000000000E+00 -0.74505805969E-08  0.93827000000E+00  0.93827000000E+00 0.  1.
     999902    2    1    2    0    0  0.72715117142E-02  0.46779830206E-02 -0.18682094708E-01  0.10233441051E+01  0.10231370281E+01 0.  0.
     999903    2    3    3    0    0 -0.90584157630E-01 -0.71116871437E-01 -0.65004023472E-01  0.13347539954E+00  0.18084805716E-01 0.  0.
         14    1    1    2    0    0 -0.72715117142E-02 -0.46779830206E-02  0.18682094708E-01  0.20585894939E-01  0.00000000000E+00 0. -1.
     999901    1    3    3    0    0  0.97855669344E-01  0.75794854457E-01  0.46321928764E-01  0.88986870552E+00  0.88000000000E+00 0. -1.
        -11    1    4    4    0    0 -0.43066935822E-01 -0.22717624998E-01 -0.29188044831E-01  0.56771951954E-01  0.51100000000E-03 0.  1.
         11    1    4    4    0    0 -0.47517221808E-01 -0.48399246439E-01 -0.35815978641E-01  0.76703447584E-01  0.51100000000E-03 0. -1.
</event>
<event>
 8    1  0.1208168E+005  0.1043930E+01  0.7957747E-01            NaN
         13   -1    0    0    0    0  0.00000000000E+00  0.00000000000E+00  0.74505805969E-08  0.10566000000E+00  0.10566000000E+00 0. -1.
     999900   -1    0    0    0    0 -0.00000000000E+00 -0.00000000000E+00 -0.74505805969E-08  0.93827000000E+00  0.93827000000E+00 0. -1.
     999902    2    1    2    0    0 -0.10857456383E-01 -0.18438171136E-01 -0.11152033709E-01  0.10198007984E+01  0.10195153015E+01 0.  0.
     999903    2    3    3    0    0  0.71886006869E-01 -0.64355581106E-01 -0.84802048089E-01  0.13166836804E+00  0.28912505563E-01 0.  0.
         14    1    1    2    0    0  0.10857456383E-01  0.18438171136E-01  0.11152033709E-01  0.24129201599E-01  0.00000000000E+00 0. -1.
     999901    1    3    3    0    0 -0.82743463252E-01  0.45917409970E-01  0.73650014380E-01  0.88813243037E+00  0.88000000000E+00 0.  1.
        -11    1    4    4    0    0  0.51686212899E-01 -0.27173101434E-01 -0.48301803362E-01  0.75783688050E-01  0.51100000000E-03 0. -1.
         11    1    4    4    0    0  0.20199793971E-01 -0.37182479672E-01 -0.36500244726E-01  0.55884679985E-01  0.51100000000E-03 0.  1.
</event>
<event>
 8    1  0.1208168E+005  0.1043930E+01  0.7957747E-01            NaN
         13   -1    0    0    0    0  0.00000000000E+00  0.00000000000E+00  0.74505805969E-08  0.10566000000E+00  0.10566000000E+00 0. -1.
     999900   -1    0    0    0    0 -0.00000000000E+00 -0.00000000000E+00 -0.74505805969E-08  0.93827000000E+00  0.93827000000E+00 0. -1.
     999902    2    1    2    0    0  0.22116857488E-01  0.10015723063E-01  0.46276925771E-04  0.10196509507E+01  0.10193618538E+01 0.  0.
     999903    2    3    3    0    0  0.71627156997E-01  0.36630790478E-01  0.10229377517E+00  0.13194932150E+00  0.21779407170E-01 0.  0.
         14    1    1    2    0    0 -0.22116857488E-01 -0.10015723063E-01 -0.46276925772E-04  0.24279049305E-01  0.00000000000E+00 0.  1.
     999901    1    3    3    0    0 -0.49510299509E-01 -0.26615067416E-01 -0.10224749824E+00  0.88770162919E+00  0.88000000000E+00 0. -1.
        -11    1    4    4    0    0  0.57301521578E-01  0.19525954444E-01  0.68117212290E-01  0.91131460008E-01  0.51100000000E-03 0. -1.
         11    1    4    4    0    0  0.14325635419E-01  0.17104836035E-01  0.34176562878E-01  0.40817861496E-01  0.51100000000E-03 0.  1.
</event>
<event>
 8    1  0.1208168E+005  0.1043930E+01  0.7957747E-01            NaN
         13   -1    0    0    0    0  0.00000000000E+00  0.00000000000E+00  0.74505805969E-08  0.10566000000E+00  0.10566000000E+00 0. -1.
     999900   -1    0    0    0    0 -0.00000000000E+00 -0.00000000000E+00 -0.74505805969E-08  0.93827000000E+00  0.93827000000E+00 0.  1.
     999902    2    1    2    0    0  0.12313911243E-01 -0.16165168444E-01 -0.11943534057E-01  0.10203589778E+01  0.10200866878E+01 0.  0.
     999903    2    3    3    0    0 -0.11017346676E+00 -0.89303666331E-02  0.63592234859E-01  0.12864088755E+00  0.16928124193E-01 0.  0.
         14    1    1    2    0    0 -0.12313911243E-01  0.16165168444E-01  0.11943534057E-01  0.23571022182E-01  0.00000000000E+00 0. -1.
     999901    1    3    3    0    0  0.12248737800E+00 -0.72348018111E-02 -0.75535768916E-01  0.89171809027E+00  0.88000000000E+00 0.  1.
        -11    1    4    4    0    0 -0.56941633563E-01 -0.87699641069E-02  0.41494074176E-01  0.71001980367E-01  0.51100000000E-03 0. -1.
         11    1    4    4    0    0 -0.53231833198E-01 -0.16040252620E-03  0.22098160682E-01  0.57638907182E-01  0.51100000000E-03 0.  1.
</event>
<event>
 8    1  0.1208168E+005  0.1043930E+01  0.7957747E-01            NaN
         13   -1    0    0    0    0  0.00000000000E+00  0.00000000000E+00  0.74505805969E-08  0.10566000000E+00  0.10566000000E+00 0.  1.
     999900   -1    0    0    0    0 -0.00000000000E+00 -0.00000000000E+00 -0.74505805969E-08  0.93827000000E+00  0.93827000000E+00 0. -1.
     999902    2    1    2    0    0 -0.18978286058E-01 -0.48985221005E-02  0.23586823314E-01  0.10132622793E+01  0.10127980734E+01 0.  0.
     999903    2    3    3    0    0 -0.40960603798E-01 -0.18550907499E-01  0.11780250812E+00  0.12785491247E+00  0.21155152828E-01 0.  0.
         14    1    1    2    0    0  0.18978286058E-01  0.48985221005E-02 -0.23586823314E-01  0.30667720726E-01  0.00000000000E+00 0. -1.
     999901    1    3    3    0    0  0.21982317740E-01  0.13652385398E-01 -0.94215684809E-01  0.88540736680E+00  0.88000000000E+00 0. -1.
        -11    1    4    4    0    0 -0.33632852352E-01 -0.48954767724E-02  0.85999478702E-01  0.92473271318E-01  0.51100000000E-03 0.  1.
         11    1    4    4    0    0 -0.73277514459E-02 -0.13655430726E-01  0.31803029421E-01  0.35381641156E-01  0.51100000000E-03 0. -1.
</event>
<event>
 8    1  0.1208168E+005  0.1043930E+01  0.7957747E-01            NaN
         13   -1    0    0    0    0  0.00000000000E+00  0.00000000000E+00  0.74505805969E-08  0.10566000000E+00  0.10566000000E+00 0.  1.
     999900   -1    0    0    0    0 -0.00000000000E+00 -0.00000000000E+00 -0.74505805969E-08  0.93827000000E+00  0.93827000000E+00 0.  1.
     999902    2    1    2    0    0 -0.22446075055E-01 -0.43574466890E-02 -0.40905360173E-02  0.10207018681E+01  0.10204375323E+01 0.  0.
     999903    2    3    3    0    0 -0.99217956247E-01  0.37964520633E-01 -0.78335558278E-01  0.13323502703E+00  0.18155028703E-01 0.  0.
         14    1    1    2    0    0  0.22446075055E-01  0.43574466890E-02  0.40905360173E-02  0.23228131908E-01  0.00000000000E+00 0.  1.
     999901    1    3    3    0    0  0.76771881192E-01 -0.42321967322E-01  0.74245022261E-01  0.88746684107E+00  0.88000000000E+00 0. -1.
        -11    1    4    4    0    0 -0.32624739356E-01  0.17328869794E-01 -0.18296649878E-01  0.41227319391E-01  0.51100000000E-03 0. -1.
         11    1    4    4    0    0 -0.66593216891E-01  0.20635650838E-01 -0.60038908400E-01  0.92007707636E-01  0.51100000000E-03 0.  1.
</event>
<event>
 8    1  0.1208168E+005  0.1043930E+01  0.7957747E-01            NaN
         13   -1    0    0    0    0  0.00000000000E+00  0.00000000000E+00  0.74505805969E-08  0.10566000000E+00  0.10566000000E+00 0. -1.
     999900   -1    0    0    0    0 -0.00000000000E+00 -0.00000000000E+00 -0.74505805969E-08  0.93827000000E+00  0.93827000000E+00 0. -1.
     999902    2    1    2    0    0 -0.93333457994E-02 -0.65833955007E-02 -0.21031677172E-01  0.10199970962E+01  0.10197162803E+01 0.  0.
     999903    2    3    3    0    0 -0.10773735175E-01  0.12598070871E+00  0.17323589311E-01  0.12924098876E+00  0.20393971992E-01 0.  0.
         14    1    1    2    0    0  0.93333457994E-02  0.65833955007E-02  0.21031677172E-01  0.23932903811E-01  0.00000000000E+00 0. -1.
     999901    1    3    3    0    0  0.14403893759E-02 -0.13256410421E+00 -0.38355266484E-01  0.89075610742E+00  0.88000000000E+00 0. -1.
        -11    1    4    4    0    0 -0.11337198273E-01  0.10728017034E+00  0.21653964197E-01  0.11003055166E+00  0.51100000000E-03 0.  1.
         11    1    4    4    0    0  0.56346309803E-03  0.18700538371E-01 -0.43303748856E-02  0.19210437103E-01  0.51100000000E-03 0. -1.
</event>
<event>
 8    1  0.1208168E+005  0.1043930E+01  0.7957747E-01            NaN
         13   -1    0    0    0    0  0.00000000000E+00  0.00000000000E+00  0.74505805969E-08  0.10566000000E+00  0.10566000000E+00 0.  1.
     999900   -1    0    0    0    0 -0.00000000000E+00 -0.00000000000E+00 -0.74505805969E-08  0.93827000000E+00  0.93827000000E+00 0. -1.
     999902    2    1    2    0    0  0.10467037651E-01  0.19183926921E-01 -0.86646817135E-02  0.10204213072E+01  0.10201504720E+01 0.  0.
     999903    2    3    3    0    0 -0.11156991564E+00 -0.48647455229E-01 -0.38304177907E-01  0.12892110296E+00  0.18412489474E-01 0.  0.
         14    1    1    2    0    0 -0.10467037651E-01 -0.19183926921E-01  0.86646817135E-02  0.23508692828E-01  0.00000000000E+00 0. -1.
     999901    1    3    3    0    0  0.12203695329E+00  0.67831382150E-01  0.29639496193E-01  0.89150020421E+00  0.88000000000E+00 0.  1.
        -11    1    4    4    0    0 -0.38774270394E-01 -0.16985015021E-01 -0.22630901852E-01  0.48003683395E-01  0.51100000000E-03 0.  1.
         11    1    4    4    0    0 -0.72795645242E-01 -0.31662440208E-01 -0.15673276054E-01  0.80917419567E-01  0.51100000000E-03 0. -1.
</event>
<event>
 8    1  0.1208168E+005  0.1043930E+01  0.7957747E-01            NaN
         13   -1    0    0    0    0  0.00000000000E+00  0.00000000000E+00  0.74505805969E-08  0.10566000000E+00  0.10566000000E+00 0.  1.
     999900   -1    0    0    0    0 -0.00000000000E+00 -0.00000000000E+00 -0.74505805969E-08  0.93827000000E+00  0.93827000000E+00 0. -1.
     999902    2    1    2    0    0  0.16168360951E-02  0.74756205673E-02  0.22220633416E-01  0.10204298806E+01  0.10201592452E+01 0.  0.
     999903    2    3    3    0    0  0.17312017495E-01  0.58511423055E-01 -0.11152505095E+00  0.12872426779E+00  0.20218989830E-01 0.  0.
         14    1    1    2    0    0 -0.16168360951E-02 -0.74756205673E-02 -0.22220633416E-01  0.23500119388E-01  0.00000000000E+00 0. -1.
     999901    1    3    3    0    0 -0.15695181399E-01 -0.51035802488E-01  0.13374568437E+00  0.89170561282E+00  0.88000000000E+00 0.  1.
        -11    1    4    4    0    0  0.17267056968E-01  0.42151663594E-01 -0.64757217049E-01  0.79174947307E-01  0.51100000000E-03 0. -1.
         11    1    4    4    0    0  0.44960526793E-04  0.16359759461E-01 -0.46767833904E-01  0.49549320481E-01  0.51100000000E-03 0.  1.
</event>
<event>
 8    1  0.1208168E+005  0.1043930E+01  0.7957747E-01            NaN
         13   -1    0    0    0    0  0.00000000000E+00  0.00000000000E+00  0.74505805969E-08  0.10566000000E+00  0.10566000000E+00 0.  1.
     999900   -1    0    0    0    0 -0.00000000000E+00 -0.00000000000E+00 -0.74505805969E-08  0.93827000000E+00  0.93827000000E+00 0.  1.
     999902    2    1    2    0    0 -0.14689814493E-01 -0.61377283795E-02 -0.18158959282E-01  0.10197802555E+01  0.10194942664E+01 0.  0.
     999903    2    3    3    0    0  0.50745514517E-01  0.13167267171E-01 -0.11892034697E+00  0.13140684163E+00  0.19422279354E-01 0.  0.
         14    1    1    2    0    0  0.14689814493E-01  0.61377283795E-02  0.18158959282E-01  0.24149744547E-01  0.00000000000E+00 0.  1.
     999901    1    3    3    0    0 -0.65435329010E-01 -0.19304995550E-01  0.10076138769E+00  0.88837341382E+00  0.88000000000E+00 0. -1.
        -11    1    4    4    0    0  0.95417253407E-02  0.11103176378E-01 -0.30879171089E-01  0.34177615135E-01  0.51100000000E-03 0. -1.
         11    1    4    4    0    0  0.41203789176E-01  0.20640907922E-02 -0.88041175883E-01  0.97229226497E-01  0.51100000000E-03 0.  1.
</event>
<event>
 8    1  0.1208168E+005  0.1043930E+01  0.7957747E-01            NaN
         13   -1    0    0    0    0  0.00000000000E+00  0.00000000000E+00  0.74505805969E-08  0.10566000000E+00  0.10566000000E+00 0.  1.
     999900   -1    0    0    0    0 -0.00000000000E+00 -0.00000000000E+00 -0.74505805969E-08  0.93827000000E+00  0.93827000000E+00 0.  1.
     999902    2    1    2    0    0  0.13138412195E-01  0.10315565820E-01 -0.14890243944E-01  0.10215525976E+01  0.10213074765E+01 0.  0.
     999903    2    3    3    0    0  0.44999543078E-01  0.42064402410E-01  0.11392966611E+00  0.13103719094E+00  0.19909891039E-01 0.  0.
         14    1    1    2    0    0 -0.13138412195E-01 -0.10315565820E-01  0.14890243944E-01  0.22377402394E-01  0.00000000000E+00 0.  1.
     999901    1    3    3    0    0 -0.31861130884E-01 -0.31748836590E-01 -0.12881991006E+00  0.89051540667E+00  0.88000000000E+00 0.  1.
        -11    1    4    4    0    0  0.35795310137E-01  0.20627368826E-01  0.75984316156E-01  0.86490866542E-01  0.51100000000E-03 0. -1.
         11    1    4    4    0    0  0.92042329413E-02  0.21437033584E-01  0.37945349956E-01  0.44546324396E-01  0.51100000000E-03 0.  1.
</event>
<event>
 8    1  0.1208168E+005  0.1043930E+01  0.7957747E-01            NaN
         13   -1    0    0    0    0  0.00000000000E+00  0.00000000000E+00  0.74505805969E-08  0.10566000000E+00  0.10566000000E+00 0.  1.
     999900   -1    0    0    0    0 -0.00000000000E+00 -0.00000000000E+00 -0.74505805969E-08  0.93827000000E+00  0.93827000000E+00 0.  1.
     999902    2    1    2    0    0  0.22693722735E-01 -0.25010938639E-02 -0.42752795347E-02  0.10207020311E+01  0.10204376991E+01 0.  0.
     999903    2    3    3    0    0 -0.63199864143E-01  0.10687690163E+00 -0.30938641605E-01  0.12938155621E+00  0.19117861066E-01 0.  0.
         14    1    1    2    0    0 -0.22693722735E-01  0.25010938639E-02  0.42752795347E-02  0.23227968857E-01  0.00000000000E+00 0.  1.
     999901    1    3    3    0    0  0.85893586878E-01 -0.10937799550E+00  0.26663362071E-01  0.89132047494E+00  0.88000000000E+00 0. -1.
        -11    1    4    4    0    0 -0.26838541590E-01  0.62299739376E-01 -0.12568759098E-01  0.68991301389E-01  0.51100000000E-03 0. -1.
         11    1    4    4    0    0 -0.36361322552E-01  0.44577162256E-01 -0.18369882507E-01  0.60390254817E-01  0.51100000000E-03 0.  1.
</event>
<event>
 8    1  0.1208168E+005  0.1043930E+01  0.7957747E-01            NaN
         13   -1    0    0    0    0  0.00000000000E+00  0.00000000000E+00  0.74505805969E-08  0.10566000000E+00  0.10566000000E+00 0.  1.
     999900   -1    0    0    0    0 -0.00000000000E+00 -0.00000000000E+00 -0.74505805969E-08  0.93827000000E+00  0.93827000000E+00 0.  1.
     999902    2    1    2    0    0  0.66986644469E-02  0.92205809251E-02 -0.27888425169E-01  0.10138026789E+01  0.10133549310E+01 0.  0.
     999903    2    3    3    0    0 -0.26470905416E-01  0.76695668147E-01 -0.96823477233E-01  0.12791038908E+00  0.20083514284E-01 0.  0.
         14    1    1    2    0    0 -0.66986644469E-02 -0.92205809251E-02  0.27888425169E-01  0.30127321095E-01  0.00000000000E+00 0.  1.
     999901    1    3    3    0    0  0.33169569863E-01 -0.67475087222E-01  0.68935052064E-01  0.88589228982E+00  0.88000000000E+00 0. -1.
        -11    1    4    4    0    0 -0.12910113182E-01  0.50286466542E-01 -0.47667775827E-01  0.70483173261E-01  0.51100000000E-03 0.  1.
         11    1    4    4    0    0 -0.13560792233E-01  0.26409201605E-01 -0.49155701407E-01  0.57427215823E-01  0.51100000000E-03 0. -1.
</event>
<event>
 8    1  0.1208168E+005  0.1043930E+01  0.7957747E-01            NaN
         13   -1    0    0    0    0  0.00000000000E+00  0.00000000000E+00  0.74505805969E-08  0.10566000000E+00  0.10566000000E+00 0. -1.
     999900   -1    0    0    0    0 -0.00000000000E+00 -0.00000000000E+00 -0.74505805969E-08  0.93827000000E+00  0.93827000000E+00 0. -1.
     999902    2    1    2    0    0 -0.12810586046E-01  0.17885945409E-01 -0.97839262247E-02  0.10198521394E+01  0.10195678707E+01 0.  0.
     999903    2    3    3    0    0  0.45858929815E-01  0.13408250703E-02 -0.12087506684E+00  0.13077559905E+00  0.19663068665E-01 0.  0.
         14    1    1    2    0    0  0.12810586046E-01 -0.17885945409E-01  0.97839262247E-02  0.24077860586E-01  0.00000000000E+00 0.  1.
     999901    1    3    3    0    0 -0.58669515861E-01  0.16545120339E-01  0.11109114061E+00  0.88907654036E+00  0.88000000000E+00 0.  1.
        -11    1    4    4    0    0  0.40984771594E-01  0.50009569252E-02 -0.86374844748E-01  0.95737328138E-01  0.51100000000E-03 0.  1.
         11    1    4    4    0    0  0.48741582212E-02 -0.36601318549E-02 -0.34500222089E-01  0.35038270915E-01  0.51100000000E-03 0. -1.
</event>
<event>
 8    1  0.1208168E+005  0.1043930E+01  0.7957747E-01            NaN
         13   -1    0    0    0    0  0.00000000000E+00  0.00000000000E+00  0.74505805969E-08  0.10566000000E+00  0.10566000000E+00 0. -1.
     999900   -1    0    0    0    0 -0.00000000000E+00 -0.00000000000E+00 -0.74505805969E-08  0.93827000000E+00  0.93827000000E+00 0.  1.
     999902    2    1    2    0    0 -0.13939177388E-01 -0.80373652230E-02  0.17427405487E-01  0.10202105066E+01  0.10199347349E+01 0.  0.
     999903    2    3    3    0    0  0.77066083233E-01  0.87549443564E-01  0.53045320169E-01  0.12965594266E+00  0.19818456608E-01 0.  0.
         14    1    1    2    0    0  0.13939177388E-01  0.80373652230E-02 -0.17427405487E-01  0.23719493417E-01  0.00000000000E+00 0. -1.
     999901    1    3    3    0    0 -0.91005260620E-01 -0.95586808787E-01 -0.35617914683E-01  0.89055456392E+00  0.88000000000E+00 0. -1.
        -11    1    4    4    0    0  0.37298742409E-01  0.40287436889E-01  0.14283991322E-01  0.56732418294E-01  0.51100000000E-03 0.  1.
         11    1    4    4    0    0  0.39767340824E-01  0.47262006675E-01  0.38761328848E-01  0.72923524368E-01  0.51100000000E-03 0. -1.
</event>
<event>
 8    1  0.1208168E+005  0.1043930E+01  0.7957747E-01            NaN
         13   -1    0    0    0    0  0.00000000000E+00  0.00000000000E+00  0.74505805969E-08  0.10566000000E+00  0.10566000000E+00 0.  1.
     999900   -1    0    0    0    0 -0.00000000000E+00 -0.00000000000E+00 -0.74505805969E-08  0.93827000000E+00  0.93827000000E+00 0. -1.
     999902    2    1    2    0    0 -0.10379572353E-02  0.16893566899E-01 -0.15945584241E-01  0.10206763634E+01  0.10204114402E+01 0.  0.
     999903    2    3    3    0    0 -0.10974300430E+00 -0.99979782056E-02  0.65677286010E-01  0.12983281070E+00  0.19989153981E-01 0.  0.
         14    1    1    2    0    0  0.10379572353E-02 -0.16893566899E-01  0.15945584241E-01  0.23253636588E-01  0.00000000000E+00 0.  1.
     999901    1    3    3    0    0  0.10870504706E+00  0.26891545104E-01 -0.81622870251E-01  0.89084355271E+00  0.88000000000E+00 0. -1.
        -11    1    4    4    0    0 -0.78353145468E-01 -0.12671975928E-01  0.38472050924E-01  0.88205182399E-01  0.51100000000E-03 0.  1.
         11    1    4    4    0    0 -0.31389858830E-01  0.26739977226E-02  0.27205235086E-01  0.41627628305E-01  0.51100000000E-03 0. -1.
</event>
<event>
 8    1  0.1208168E+005  0.1043930E+01  0.7957747E-01            NaN
         13   -1    0    0    0    0  0.00000000000E+00  0.00000000000E+00  0.74505805969E-08  0.10566000000E+00  0.10566000000E+00 0. -1.
     999900   -1    0    0    0    0 -0.00000000000E+00 -0.00000000000E+00 -0.74505805969E-08  0.93827000000E+00  0.93827000000E+00 0.  1.
     999902    2    1    2    0    0  0.22842070623E-01 -0.24318593083E-02  0.26004597681E-02  0.10208121169E+01  0.10205503130E+01 0.  0.
     999903    2    3    3    0    0 -0.29645807454E-02  0.16479106551E-01 -0.12788417775E+00  0.13061559445E+00  0.20633005141E-01 0.  0.
         14    1    1    2    0    0 -0.22842070623E-01  0.24318593083E-02 -0.26004597681E-02  0.23117883143E-01  0.00000000000E+00 0. -1.
     999901    1    3    3    0    0  0.25806651368E-01 -0.18910965859E-01  0.13048463752E+00  0.89019652241E+00  0.88000000000E+00 0. -1.
        -11    1    4    4    0    0  0.22967011812E-02  0.19970281799E-01 -0.91435353884E-01  0.93620361313E-01  0.51100000000E-03 0.  1.
         11    1    4    4    0    0 -0.52612819267E-02 -0.34911752481E-02 -0.36448823869E-01  0.36995233133E-01  0.51100000000E-03 0. -1.
</event>
<event>
 8    1  0.1208168E+005  0.1043930E+01  0.7957747E-01            NaN
         13   -1    0    0    0    0  0.00000000000E+00  0.00000000000E+00  0.74505805969E-08  0.10566000000E+00  0.10566000000E+00 0. -1.
     999900   -1    0    0    0    0 -0.00000000000E+00 -0.00000000000E+00 -0.74505805969E-08  0.93827000000E+00  0.93827000000E+00 0.  1.
     999902    2    1    2    0    0  0.73868784449E-02 -0.52617039351E-02 -0.21865704548E-01  0.10202580644E+01  0.10199834103E+01 0.  0.
     999903    2    3    3    0    0 -0.11245004981E+00  0.37685865942E-02  0.58682572024E-01  0.12844504563E+00  0.19881386762E-01 0.  0.
         14    1    1    2    0    0 -0.73868784449E-02  0.52617039351E-02  0.21865704548E-01  0.23671935638E-01  0.00000000000E+00 0. -1.
     999901    1    3    3    0    0  0.11983692826E+00 -0.90302905293E-02 -0.80548276572E-01  0.89181301873E+00  0.88000000000E+00 0.  1.
        -11    1    4    4    0    0 -0.61535766231E-01  0.44614587523E-02  0.42847887573E-01  0.75118291583E-01  0.51100000000E-03 0. -1.
         11    1    4    4    0    0 -0.50914283583E-01 -0.69287215813E-03  0.15834684450E-01  0.53326754048E-01  0.51100000000E-03 0.  1.
</event>
<event>
 8    1  0.1208168E+005  0.1043930E+01  0.7957747E-01            NaN
         13   -1    0    0    0    0  0.00000000000E+00  0.00000000000E+00  0.74505805969E-08  0.10566000000E+00  0.10566000000E+00 0. -1.
     999900   -1    0    0    0    0 -0.00000000000E+00 -0.00000000000E+00 -0.74505805969E-08  0.93827000000E+00  0.93827000000E+00 0. -1.
     999902    2    1    2    0    0 -0.85888460723E-02  0.53741312375E-02  0.21283271984E-01  0.10203582536E+01  0.10200859466E+01 0.  0.
     999903    2    3    3    0    0  0.33103840241E-01 -0.22750545463E-01  0.12500927290E+00  0.13284016316E+00  0.20142966023E-01 0.  0.
         14    1    1    2    0    0  0.85888460723E-02 -0.53741312375E-02 -0.21283271984E-01  0.23571746430E-01  0.00000000000E+00 0.  1.
     999901    1    3    3    0    0 -0.41692686314E-01  0.28124676700E-01 -0.10372600092E+00  0.88751809041E+00  0.88000000000E+00 0. -1.
        -11    1    4    4    0    0  0.25606058742E-02 -0.10806062973E-01  0.20711136073E-01  0.23506168932E-01  0.51100000000E-03 0.  1.
         11    1    4    4    0    0  0.30543234367E-01 -0.11944482489E-01  0.10429813683E+00  0.10933399423E+00  0.51100000000E-03 0. -1.
</event>
<event>
 8    1  0.1208168E+005  0.1043930E+01  0.7957747E-01            NaN
         13   -1    0    0    0    0  0.00000000000E+00  0.00000000000E+00  0.74505805969E-08  0.10566000000E+00  0.10566000000E+00 0. -1.
     999900   -1    0    0    0    0 -0.00000000000E+00 -0.00000000000E+00 -0.74505805969E-08  0.93827000000E+00  0.93827000000E+00 0.  1.
     999902    2    1    2    0    0  0.10729599451E-01  0.12686270527E-01 -0.16865663367E-01  0.10202547732E+01  0.10199800419E+01 0.  0.
     999903    2    3    3    0    0 -0.11995298126E-01  0.11036737424E+00  0.65972580223E-01  0.13069297454E+00  0.20085511658E-01 0.  0.
         14    1    1    2    0    0 -0.10729599451E-01 -0.12686270527E-01  0.16865663367E-01  0.23675226822E-01  0.00000000000E+00 0.  1.
     999901    1    3    3    0    0  0.22724897577E-01 -0.97681103717E-01 -0.82838243590E-01  0.88956179864E+00  0.88000000000E+00 0. -1.
        -11    1    4    4    0    0  0.30000087968E-02  0.64136833145E-01  0.38232418445E-01  0.74729594939E-01  0.51100000000E-03 0.  1.
         11    1    4    4    0    0 -0.14995306923E-01  0.46230541099E-01  0.27740161778E-01  0.55963379602E-01  0.51100000000E-03 0. -1.
</event>
<event>
 8    1  0.1208168E+005  0.1043930E+01  0.7957747E-01            NaN
         13   -1    0    0    0    0  0.00000000000E+00  0.00000000000E+00  0.74505805969E-08  0.10566000000E+00  0.10566000000E+00 0. -1.
     999900   -1    0    0    0    0 -0.00000000000E+00 -0.00000000000E+00 -0.74505805969E-08  0.93827000000E+00  0.93827000000E+00 0.  1.
     999902    2    1    2    0    0  0.62924201852E-02 -0.93556252052E-02 -0.20778975079E-01  0.10202891861E+01  0.10200152623E+01 0.  0.
     999903    2    3    3    0    0  0.12827338887E+00 -0.18033301084E-01  0.10452352632E-01  0.13128409357E+00  0.18627917451E-01 0.  0.
         14    1    1    2    0    0 -0.62924201852E-02  0.93556252052E-02  0.20778975079E-01  0.23640813863E-01  0.00000000000E+00 0. -1.
     999901    1    3    3    0    0 -0.12198096869E+00  0.86776758783E-02 -0.31231327711E-01  0.88900509257E+00  0.88000000000E+00 0. -1.
        -11    1    4    4    0    0  0.37373423535E-01 -0.28039435921E-02  0.11177000546E-01  0.39112930709E-01  0.51100000000E-03 0. -1.
         11    1    4    4    0    0  0.90899965335E-01 -0.15229357491E-01 -0.72464791352E-03  0.92171162861E-01  0.51100000000E-03 0.  1.
</event>
<event>
 8    1  0.1208168E+005  0.1043930E+01  0.7957747E-01            NaN
         13   -1    0    0    0    0  0.00000000000E+00  0.00000000000E+00  0.74505805969E-08  0.10566000000E+00  0.10566000000E+00 0.  1.
     999900   -1    0    0    0    0 -0.00000000000E+00 -0.00000000000E+00 -0.74505805969E-08  0.93827000000E+00  0.93827000000E+00 0. -1.
     999902    2    1    2    0    0 -0.11898688494E-01 -0.19000747355E-01 -0.84732316712E-02  0.10199632972E+01  0.10196816782E+01 0.  0.
     999903    2    3    3    0    0  0.70346751376E-01 -0.49732802333E-01 -0.96928731441E-01  0.13118146401E+00  0.19783338025E-01 0.  0.
         14    1    1    2    0    0  0.11898688494E-01  0.19000747355E-01  0.84732316712E-02  0.23966702795E-01  0.00000000000E+00 0. -1.
     999901    1    3    3    0    0 -0.82245439869E-01  0.30732054977E-01  0.88455499769E-01  0.88878183320E+00  0.88000000000E+00 0.  1.
        -11    1    4    4    0    0  0.10989641521E-01 -0.14994354432E-02 -0.18886799522E-01  0.21908739001E-01  0.51100000000E-03 0.  1.
         11    1    4    4    0    0  0.59357109854E-01 -0.48233366889E-01 -0.78041931918E-01  0.10927272501E+00  0.51100000000E-03 0. -1.
</event>
<event>
 8    1  0.1208168E+005  0.1043930E+01  0.7957747E-01            NaN
         13   -1    0    0    0    0  0.00000000000E+00  0.00000000000E+00  0.74505805969E-08  0.10566000000E+00  0.10566000000E+00 0.  1.
     999900   -1    0    0    0    0 -0.00000000000E+00 -0.00000000000E+00 -0.74505805969E-08  0.93827000000E+00  0.93827000000E+00 0.  1.
     999902    2    1    2    0    0 -0.61881767908E-04 -0.16501638261E-01 -0.16787483018E-01  0.10203900875E+01  0.10201185241E+01 0.  0.
     999903    2    3    3    0    0  0.83230217222E-01 -0.90502452248E-02 -0.10076360761E+00  0.13244578377E+00  0.19478321859E-01 0.  0.
         14    1    1    2    0    0  0.61881767908E-04  0.16501638261E-01  0.16787483018E-01  0.23539912505E-01  0.00000000000E+00 0.  1.
     999901    1    3    3    0    0 -0.83292098990E-01 -0.74513930366E-02  0.83976124594E-01  0.88794430372E+00  0.88000000000E+00 0.  1.
        -11    1    4    4    0    0  0.11126486420E-01  0.42811251319E-02 -0.20576954328E-01  0.23786527760E-01  0.51100000000E-03 0.  1.
         11    1    4    4    0    0  0.72103730803E-01 -0.13331370357E-01 -0.80186653284E-01  0.10865925601E+00  0.51100000000E-03 0. -1.
</event>
<event>
 8    1  0.1208168E+005  0.1043930E+01  0.7957747E-01            NaN
         13   -1    0    0    0    0  0.00000000000E+00  0.00000000000E+00  0.74505805969E-08  0.10566000000E+00  0.10566000000E+00 0. -1.
     999900   -1    0    0    0    0 -0.00000000000E+00 -0.00000000000E+00 -0.74505805969E-08  0.93827000000E+00  0.93827000000E+00 0. -1.
     999902    2    1    2    0    0 -0.12094581459E-01 -0.10477781531E-01 -0.16028642260E-01  0.10212809343E+01  0.10210297579E+01 0.  0.
     999903    2    3    3    0    0  0.90235690607E-01 -0.93730055813E-01 -0.27735966367E-02  0.13134940768E+00  0.17809290769E-01 0.  0.
         14    1    1    2    0    0  0.12094581459E-01  0.10477781531E-01  0.16028642260E-01  0.22649065747E-01  0.00000000000E+00 0. -1.
     999901    1    3    3    0    0 -0.10233027207E+00  0.83252274282E-01 -0.13255045623E-01  0.88993152657E+00  0.88000000000E+00 0. -1.
        -11    1    4    4    0    0  0.58535805612E-01 -0.57876533097E-01  0.65878443276E-02  0.82582046692E-01  0.51100000000E-03 0.  1.
         11    1    4    4    0    0  0.31699884995E-01 -0.35853522716E-01 -0.93614409643E-02  0.48767360988E-01  0.51100000000E-03 0. -1.
</event>
<event>
 8    1  0.1208168E+005  0.1043930E+01  0.7957747E-01            NaN
         13   -1    0    0    0    0  0.00000000000E+00  0.00000000000E+00  0.74505805969E-08  0.10566000000E+00  0.10566000000E+00 0. -1.
     999900   -1    0    0    0    0 -0.00000000000E+00 -0.00000000000E+00 -0.74505805969E-08  0.93827000000E+00  0.93827000000E+00 0. -1.
     999902    2    1    2    0    0  0.15434460524E-01  0.14449954801E-01  0.10230367539E-01  0.10204420417E+01  0.10201716896E+01 0.  0.
     999903    2    3    3    0    0 -0.10714113634E+00  0.70979888463E-01  0.86994499625E-03  0.13010051854E+00  0.20199516233E-01 0.  0.
         14    1    1    2    0    0 -0.15434460524E-01 -0.14449954801E-01 -0.10230367539E-01  0.23487958306E-01  0.00000000000E+00 0.  1.
     999901    1    3    3    0    0  0.12257559687E+00 -0.56529933662E-01  0.93604225427E-02  0.89034152316E+00  0.88000000000E+00 0.  1.
        -11    1    4    4    0    0 -0.19559155557E-01  0.65337978093E-02  0.52073761402E-02  0.21275078547E-01  0.51100000000E-03 0. -1.
         11    1    4    4    0    0 -0.87581980787E-01  0.64446090653E-01 -0.43374311440E-02  0.10882543999E+00  0.51100000000E-03 0.  1.
</event>
<event>
 8    1  0.1208168E+005  0.1043930E+01  0.7957747E-01            NaN
         13   -1    0    0    0    0  0.00000000000E+00  0.00000000000E+00  0.74505805969E-08  0.10566000000E+00  0.10566000000E+00 0.  1.
     999900   -1    0    0    0    0 -0.00000000000E+00 -0.00000000000E+00 -0.74505805969E-08  0.93827000000E+00  0.93827000000E+00 0.  1.
     999902    2    1    2    0    0 -0.64637720934E-02 -0.13796947336E-01  0.11827894513E-01  0.10246417861E+01  0.10244602260E+01 0.  0.
     999903    2    3    3    0    0 -0.43689506070E-01 -0.12752519224E+00  0.70285289966E-02  0.13652979834E+00  0.20482627224E-01 0.  0.
         14    1    1    2    0    0  0.64637720934E-02  0.13796947336E-01 -0.11827894513E-01  0.19288213865E-01  0.00000000000E+00 0. -1.
     999901    1    3    3    0    0  0.37225733977E-01  0.11372824490E+00  0.47993655167E-02  0.88811198780E+00  0.88000000000E+00 0. -1.
        -11    1    4    4    0    0 -0.31447800709E-01 -0.11294491004E+00  0.46211166428E-02  0.11733342539E+00  0.51100000000E-03 0. -1.
         11    1    4    4    0    0 -0.12241705361E-01 -0.14580282198E-01  0.24074123538E-02  0.19196372948E-01  0.51100000000E-03 0.  1.
</event>
<event>
 8    1  0.1208168E+005  0.1043930E+01  0.7957747E-01            NaN
         13   -1    0    0    0    0  0.00000000000E+00  0.00000000000E+00  0.74505805969E-08  0.10566000000E+00  0.10566000000E+00 0. -1.
     999900   -1    0    0    0    0 -0.00000000000E+00 -0.00000000000E+00 -0.74505805969E-08  0.93827000000E+00  0.93827000000E+00 0.  1.
     999902    2    1    2    0    0 -0.20029774349E-01  0.48677210659E-02 -0.11784656991E-01  0.10201862701E+01  0.10199099279E+01 0.  0.
     999903    2    3    3    0    0 -0.57438281501E-01  0.74953765645E-01  0.87731367064E-01  0.13102099352E+00  0.23504995401E-01 0.  0.
         14    1    1    2    0    0  0.20029774349E-01 -0.48677210659E-02  0.11784656991E-01  0.23743729893E-01  0.00000000000E+00 0. -1.
     999901    1    3    3    0    0  0.37408507152E-01 -0.70086044579E-01 -0.99516024055E-01  0.88916527659E+00  0.88000000000E+00 0.  1.
        -11    1    4    4    0    0 -0.23652150033E-01  0.26760960817E-01  0.18747751000E-01  0.40339961745E-01  0.51100000000E-03 0. -1.
         11    1    4    4    0    0 -0.33786131469E-01  0.48192804828E-01  0.68983616064E-01  0.90681031771E-01  0.51100000000E-03 0.  1.
</event>
<event>
 8    1  0.1208168E+005  0.1043930E+01  0.7957747E-01            NaN
         13   -1    0    0    0    0  0.00000000000E+00  0.00000000000E+00  0.74505805969E-08  0.10566000000E+00  0.10566000000E+00 0. -1.
     999900   -1    0    0    0    0 -0.00000000000E+00 -0.00000000000E+00 -0.74505805969E-08  0.93827000000E+00  0.93827000000E+00 0. -1.
     999902    2    1    2    0    0 -0.51147560700E-02 -0.21737590575E-01  0.70072153704E-02  0.10205252005E+01  0.10202567815E+01 0.  0.
     999903    2    3    3    0    0  0.79444264453E-01 -0.66182810565E-01  0.80751064183E-01  0.13228888013E+00  0.16972267719E-01 0.  0.
         14    1    1    2    0    0  0.51147560700E-02  0.21737590575E-01 -0.70072153704E-02  0.23404799527E-01  0.00000000000E+00 0.  1.
     999901    1    3    3    0    0 -0.84559020523E-01  0.44445219990E-01 -0.73743848813E-01  0.88823632034E+00  0.88000000000E+00 0. -1.
        -11    1    4    4    0    0  0.44087132320E-01 -0.47317555637E-01  0.48314379476E-01  0.80728970592E-01  0.51100000000E-03 0.  1.
         11    1    4    4    0    0  0.35357132133E-01 -0.18865254928E-01  0.32436684708E-01  0.51559909542E-01  0.51100000000E-03 0. -1.
</event>
<event>
 8    1  0.1208168E+005  0.1043930E+01  0.7957747E-01            NaN
         13   -1    0    0    0    0  0.00000000000E+00  0.00000000000E+00  0.74505805969E-08  0.10566000000E+00  0.10566000000E+00 0.  1.
     999900   -1    0    0    0    0 -0.00000000000E+00 -0.00000000000E+00 -0.74505805969E-08  0.93827000000E+00  0.93827000000E+00 0. -1.
     999902    2    1    2    0    0  0.52776359888E-03  0.23711654500E-01 -0.47891491673E-02  0.10197337804E+01  0.10194466763E+01 0.  0.
     999903    2    3    3    0    0  0.65951670170E-01 -0.27761317457E-01  0.10555897865E+00  0.12894398268E+00  0.19066702701E-01 0.  0.
         14    1    1    2    0    0 -0.52776359888E-03 -0.23711654500E-01  0.47891491673E-02  0.24196219608E-01  0.00000000000E+00 0. -1.
     999901    1    3    3    0    0 -0.65423906571E-01  0.51472971957E-01 -0.11034812781E+00  0.89078979771E+00  0.88000000000E+00 0. -1.
        -11    1    4    4    0    0  0.33714758120E-01 -0.43166528157E-02  0.43942120689E-01  0.55556183259E-01  0.51100000000E-03 0. -1.
         11    1    4    4    0    0  0.32236912050E-01 -0.23444664642E-01  0.61616857957E-01  0.73387799423E-01  0.51100000000E-03 0.  1.
</event>
<event>
 8    1  0.1208168E+005  0.1043930E+01  0.7957747E-01            NaN
         13   -1    0    0    0    0  0.00000000000E+00  0.00000000000E+00  0.74505805969E-08  0.10566000000E+00  0.10566000000E+00 0. -1.
     999900   -1    0    0    0    0 -0.00000000000E+00 -0.00000000000E+00 -0.74505805969E-08  0.93827000000E+00  0.93827000000E+00 0.  1.
     999902    2    1    2    0    0  0.19378519678E-01 -0.42410127945E-02 -0.10193529577E-01  0.10216270572E+01  0.10213835825E+01 0.  0.
     999903    2    3    3    0    0  0.92312267424E-01  0.14856866899E-02  0.93158409337E-01  0.13256364551E+00  0.19257956753E-01 0.  0.
         14    1    1    2    0    0 -0.19378519678E-01  0.42410127945E-02  0.10193529577E-01  0.22302942848E-01  0.00000000000E+00 0. -1.
     999901    1    3    3    0    0 -0.72933747746E-01 -0.57266994845E-02 -0.10335193891E+00  0.88906341164E+00  0.88000000000E+00 0.  1.
        -11    1    4    4    0    0  0.44831166493E-01 -0.80291500095E-02  0.39572405495E-01  0.60336863829E-01  0.51100000000E-03 0. -1.
         11    1    4    4    0    0  0.47481100931E-01  0.95148366994E-02  0.53586003841E-01  0.72226781679E-01  0.51100000000E-03 0.  1.
</event>
<event>
 8    1  0.1208168E+005  0.1043930E+01  0.7957747E-01            NaN
         13   -1    0    0    0    0  0.00000000000E+00  0.00000000000E+00  0.74505805969E-08  0.10566000000E+00  0.10566000000E+00 0.  1.
     999900   -1    0    0    0    0 -0.00000000000E+00 -0.00000000000E+00 -0.74505805969E-08  0.93827000000E+00  0.93827000000E+00 0. -1.
     999902    2    1    2    0    0  0.16451521887E-01 -0.16127204774E-01 -0.18805383026E-02  0.10208155947E+01  0.10205538706E+01 0.  0.
     999903    2    3    3    0    0  0.12447679475E-01  0.67137810671E-01  0.10879153190E+00  0.12997475560E+00  0.19884902173E-01 0.  0.
         14    1    1    2    0    0 -0.16451521887E-01  0.16127204774E-01  0.18805383026E-02  0.23114405260E-01  0.00000000000E+00 0. -1.
     999901    1    3    3    0    0  0.40038424119E-02 -0.83265015445E-01 -0.11067207020E+00  0.89084083914E+00  0.88000000000E+00 0.  1.
        -11    1    4    4    0    0  0.14480315640E-01  0.25782706162E-01  0.49311436981E-01  0.57500490573E-01  0.51100000000E-03 0. -1.
         11    1    4    4    0    0 -0.20326361646E-02  0.41355104509E-01  0.59480094921E-01  0.72474265029E-01  0.51100000000E-03 0.  1.
</event>
<event>
 8    1  0.1208168E+005  0.1043930E+01  0.7957747E-01            NaN
         13   -1    0    0    0    0  0.00000000000E+00  0.00000000000E+00  0.74505805969E-08  0.10566000000E+00  0.10566000000E+00 0. -1.
     999900   -1    0    0    0    0 -0.00000000000E+00 -0.00000000000E+00 -0.74505805969E-08  0.93827000000E+00  0.93827000000E+00 0. -1.
     999902    2    1    2    0    0  0.21768726689E-01  0.72836521436E-02 -0.33557896798E-02  0.10207310695E+01  0.10204674056E+01 0.  0.
     999903    2    3    3    0    0 -0.51272361144E-01  0.85333437154E-02 -0.11790045751E+00  0.13030586596E+00  0.19427502439E-01 0.  0.
         14    1    1    2    0    0 -0.21768726689E-01 -0.72836521436E-02  0.33557896798E-02  0.23198930462E-01  0.00000000000E+00 0.  1.
     999901    1    3    3    0    0  0.73041087833E-01 -0.12496915718E-02  0.11454466783E+00  0.89042520358E+00  0.88000000000E+00 0.  1.
        -11    1    4    4    0    0 -0.31135832154E-01  0.12508115983E-01 -0.86576678998E-01  0.92852977749E-01  0.51100000000E-03 0.  1.
         11    1    4    4    0    0 -0.20136528990E-01 -0.39747722674E-02 -0.31323778507E-01  0.37452888211E-01  0.51100000000E-03 0. -1.
</event>
<event>
 8    1  0.1208168E+005  0.1043930E+01  0.7957747E-01            NaN
         13   -1    0    0    0    0  0.00000000000E+00  0.00000000000E+00  0.74505805969E-08  0.10566000000E+00  0.10566000000E+00 0.  1.
     999900   -1    0    0    0    0 -0.00000000000E+00 -0.00000000000E+00 -0.74505805969E-08  0.93827000000E+00  0.93827000000E+00 0. -1.
     999902    2    1    2    0    0 -0.20312891791E-01  0.13790501237E-03  0.12915362115E-01  0.10198584573E+01  0.10195743395E+01 0.  0.
     999903    2    3    3    0    0 -0.69085790620E-01 -0.10684235793E+00 -0.24954228711E-01  0.13123160745E+00  0.20270307064E-01 0.  0.
         14    1    1    2    0    0  0.20312891791E-01 -0.13790501237E-03 -0.12915362115E-01  0.24071542727E-01  0.00000000000E+00 0. -1.
     999901    1    3    3    0    0  0.48772898829E-01  0.10698026295E+00  0.37869590826E-01  0.88862684982E+00  0.88000000000E+00 0.  1.
        -11    1    4    4    0    0 -0.10656654656E-01 -0.78166644943E-02  0.13092528421E-02  0.13290590516E-01  0.51100000000E-03 0.  1.
         11    1    4    4    0    0 -0.58429135965E-01 -0.99025693439E-01 -0.26263481553E-01  0.11794101693E+00  0.51100000000E-03 0. -1.
</event>
<event>
 8    1  0.1208168E+005  0.1043930E+01  0.7957747E-01            NaN
         13   -1    0    0    0    0  0.00000000000E+00  0.00000000000E+00  0.74505805969E-08  0.10566000000E+00  0.10566000000E+00 0.  1.
     999900   -1    0    0    0    0 -0.00000000000E+00 -0.00000000000E+00 -0.74505805969E-08  0.93827000000E+00  0.93827000000E+00 0. -1.
     999902    2    1    2    0    0 -0.73761316083E-02 -0.21390270788E-01 -0.60948262502E-02  0.10204971617E+01  0.10202280918E+01 0.  0.
     999903    2    3    3    0    0  0.60685992918E-01  0.51372987637E-01  0.99552333695E-01  0.12859567224E+00  0.17441507364E-01 0.  0.
         14    1    1    2    0    0  0.73761316083E-02  0.21390270788E-01  0.60948262502E-02  0.23432838260E-01  0.00000000000E+00 0. -1.
     999901    1    3    3    0    0 -0.68062124526E-01 -0.72763258425E-01 -0.10564715994E+00  0.89190148950E+00  0.88000000000E+00 0. -1.
        -11    1    4    4    0    0  0.31685005680E-01  0.37948847885E-01  0.60493970413E-01  0.78127051768E-01  0.51100000000E-03 0. -1.
         11    1    4    4    0    0  0.29000987238E-01  0.13424139752E-01  0.39058363282E-01  0.50468620470E-01  0.51100000000E-03 0.  1.
</event>
<event>
 8    1  0.1208168E+005  0.1043930E+01  0.7957747E-01            NaN
         13   -1    0    0    0    0  0.00000000000E+00  0.00000000000E+00  0.74505805969E-08  0.10566000000E+00  0.10566000000E+00 0. -1.
     999900   -1    0    0    0    0 -0.00000000000E+00 -0.00000000000E+00 -0.74505805969E-08  0.93827000000E+00  0.93827000000E+00 0.  1.
     999902    2    1    2    0    0 -0.62081372329E-02  0.15442419521E-01  0.16896349677E-01  0.10202130035E+01  0.10199372906E+01 0.  0.
     999903    2    3    3    0    0 -0.65898407602E-01  0.58363275071E-01  0.98112090888E-01  0.13342039823E+00  0.20643359313E-01 0.  0.
         14    1    1    2    0    0  0.62081372329E-02 -0.15442419521E-01 -0.16896349677E-01  0.23716996458E-01  0.00000000000E+00 0.  1.
     999901    1    3    3    0    0  0.59690270369E-01 -0.42920855550E-01 -0.81215741210E-01  0.88679260531E+00  0.88000000000E+00 0.  1.
        -11    1    4    4    0    0 -0.46723668869E-01  0.41843885037E-01  0.54983275553E-01  0.83411232212E-01  0.51100000000E-03 0.  1.
         11    1    4    4    0    0 -0.19174738733E-01  0.16519390034E-01  0.43128815334E-01  0.50009166017E-01  0.51100000000E-03 0. -1.
</event>
<event>
 8    1  0.1208168E+005  0.1043930E+01  0.7957747E-01            NaN
         13   -1    0    0    0    0  0.00000000000E+00  0.00000000000E+00  0.74505805969E-08  0.10566000000E+00  0.10566000000E+00 0. -1.
     999900   -1    0    0    0    0 -0.00000000000E+00 -0.00000000000E+00 -0.74505805969E-08  0.93827000000E+00  0.93827000000E+00 0. -1.
     999902    2    1    2    0    0  0.24313795473E-02  0.18066140281E-01  0.14528087954E-01  0.10206198655E+01  0.10203536384E+01 0.  0.
     999903    2    3    3    0    0  0.12559067147E+00 -0.13724210200E-01  0.29273026773E-01  0.13135261051E+00  0.20862106400E-01 0.  0.
         14    1    1    2    0    0 -0.24313795473E-02 -0.18066140281E-01 -0.14528087954E-01  0.23310134507E-01  0.00000000000E+00 0.  1.
     999901    1    3    3    0    0 -0.12315929193E+00  0.31790350480E-01 -0.14744938819E-01  0.88926725499E+00  0.88000000000E+00 0. -1.
        -11    1    4    4    0    0  0.51232636403E-01 -0.82595319018E-02  0.19163787238E-02  0.51932037592E-01  0.51100000000E-03 0. -1.
         11    1    4    4    0    0  0.74358035070E-01 -0.54646782978E-02  0.27356648050E-01  0.79420572913E-01  0.51100000000E-03 0.  1.
</event>
<event>
 8    1  0.1208168E+005  0.1043930E+01  0.7957747E-01            NaN
         13   -1    0    0    0    0  0.00000000000E+00  0.00000000000E+00  0.74505805969E-08  0.10566000000E+00  0.10566000000E+00 0. -1.
     999900   -1    0    0    0    0 -0.00000000000E+00 -0.00000000000E+00 -0.74505805969E-08  0.93827000000E+00  0.93827000000E+00 0.  1.
     999902    2    1    2    0    0 -0.78844149406E-02  0.12250621277E-01 -0.21232532616E-01  0.10181800066E+01  0.10178543430E+01 0.  0.
     999903    2    3    3    0    0  0.42800430431E-01  0.52200529647E-01 -0.11078781484E+00  0.13128367818E+00  0.20116960458E-01 0.  0.
         14    1    1    2    0    0  0.78844149406E-02 -0.12250621277E-01  0.21232532616E-01  0.25749993436E-01  0.00000000000E+00 0. -1.
     999901    1    3    3    0    0 -0.50684845371E-01 -0.39949908370E-01  0.89555282226E-01  0.88689632839E+00  0.88000000000E+00 0. -1.
        -11    1    4    4    0    0  0.74999145166E-02  0.20521599670E-01 -0.24604635515E-01  0.32909481622E-01  0.51100000000E-03 0. -1.
         11    1    4    4    0    0  0.35300515914E-01  0.31678929977E-01 -0.86183179327E-01  0.98374196557E-01  0.51100000000E-03 0.  1.
</event>
<event>
 8    1  0.1208168E+005  0.1043930E+01  0.7957747E-01            NaN
         13   -1    0    0    0    0  0.00000000000E+00  0.00000000000E+00  0.74505805969E-08  0.10566000000E+00  0.10566000000E+00 0.  1.
     999900   -1    0    0    0    0 -0.00000000000E+00 -0.00000000000E+00 -0.74505805969E-08  0.93827000000E+00  0.93827000000E+00 0. -1.
     999902    2    1    2    0    0 -0.11834807184E-01  0.18435875870E-01 -0.49635622248E-03  0.10220167494E+01  0.10217817994E+01 0.  0.
     999903    2    3    3    0    0  0.11947391322E+00  0.47796765325E-01  0.18229188775E-01  0.13159286841E+00  0.20635720911E-01 0.  0.
         14    1    1    2    0    0  0.11834807184E-01 -0.18435875870E-01  0.49635622248E-03  0.21913250550E-01  0.00000000000E+00 0.  1.
     999901    1    3    3    0    0 -0.13130872041E+00 -0.29360889456E-01 -0.18725544998E-01  0.89042388104E+00  0.88000000000E+00 0. -1.
        -11    1    4    4    0    0  0.29910802326E-01  0.19445983417E-01 -0.10283932840E-02  0.35694832688E-01  0.51100000000E-03 0. -1.
         11    1    4    4    0    0  0.89563110897E-01  0.28350781908E-01  0.19257582059E-01  0.95898035726E-01  0.51100000000E-03 0.  1.
</event>
<event>
 8    1  0.1208168E+005  0.1043930E+01  0.7957747E-01            NaN
         13   -1    0    0    0    0  0.00000000000E+00  0.00000000000E+00  0.74505805969E-08  0.10566000000E+00  0.10566000000E+00 0.  1.
     999900   -1    0    0    0    0 -0.00000000000E+00 -0.00000000000E+00 -0.74505805969E-08  0.93827000000E+00  0.93827000000E+00 0.  1.
     999902    2    1    2    0    0 -0.93307039790E-02  0.46625888067E-02 -0.22735670274E-01  0.10189157546E+01  0.10186086601E+01 0.  0.
     999903    2    3    3    0    0  0.38732506094E-01  0.11488369127E+00 -0.43318524438E-01  0.13050007626E+00  0.21337895785E-01 0.  0.
         14    1    1    2    0    0  0.93307039790E-02 -0.46625888067E-02  0.22735670274E-01  0.25014245420E-01  0.00000000000E+00 0.  1.
     999901    1    3    3    0    0 -0.48063210073E-01 -0.11022110247E+00  0.20582854164E-01  0.88841567832E+00  0.88000000000E+00 0. -1.
        -11    1    4    4    0    0  0.22870521699E-01  0.39303717466E-01 -0.21143498488E-01  0.50151287308E-01  0.51100000000E-03 0. -1.
         11    1    4    4    0    0  0.15861984395E-01  0.75579973808E-01 -0.22175025950E-01  0.80348788956E-01  0.51100000000E-03 0.  1.
</event>
<event>
 8    1  0.1208168E+005  0.1043930E+01  0.7957747E-01            NaN
         13   -1    0    0    0    0  0.00000000000E+00  0.00000000000E+00  0.74505805969E-08  0.10566000000E+00  0.10566000000E+00 0. -1.
     999900   -1    0    0    0    0 -0.00000000000E+00 -0.00000000000E+00 -0.74505805969E-08  0.93827000000E+00  0.93827000000E+00 0. -1.
     999902    2    1    2    0    0 -0.15872308608E-01  0.45855044603E-02  0.17119329302E-01  0.10201386472E+01  0.10198611823E+01 0.  0.
     999903    2    3    3    0    0 -0.94452777579E-01  0.75446203863E-01 -0.47709213770E-01  0.13143235781E+00  0.19617306940E-01 0.  0.
         14    1    1    2    0    0  0.15872308608E-01 -0.45855044603E-02 -0.17119329302E-01  0.23791352788E-01  0.00000000000E+00 0. -1.
     999901    1    3    3    0    0  0.78580468971E-01 -0.70860699403E-01  0.64828543072E-01  0.88870628940E+00  0.88000000000E+00 0.  1.
        -11    1    4    4    0    0 -0.66916162304E-01  0.55411509182E-01 -0.24678919001E-01  0.90318980792E-01  0.51100000000E-03 0.  1.
         11    1    4    4    0    0 -0.27536615276E-01  0.20034694681E-01 -0.23030294769E-01  0.41113377019E-01  0.51100000000E-03 0. -1.
</event>
<event>
 8    1  0.1208168E+005  0.1043930E+01  0.7957747E-01            NaN
         13   -1    0    0    0    0  0.00000000000E+00  0.00000000000E+00  0.74505805969E-08  0.10566000000E+00  0.10566000000E+00 0.  1.
     999900   -1    0    0    0    0 -0.00000000000E+00 -0.00000000000E+00 -0.74505805969E-08  0.93827000000E+00  0.93827000000E+00 0.  1.
     999902    2    1    2    0    0  0.23476190243E-02 -0.23343998604E-01  0.60471532061E-02  0.10197014704E+01  0.10194135898E+01 0.  0.
     999903    2    3    3    0    0  0.71702318632E-01 -0.39408873012E-01 -0.99721584128E-01  0.13051353729E+00  0.19877306295E-01 0.  0.
         14    1    1    2    0    0 -0.23476190243E-02  0.23343998604E-01 -0.60471532061E-02  0.24228529625E-01  0.00000000000E+00 0.  1.
     999901    1    3    3    0    0 -0.69354699607E-01  0.16064874408E-01  0.10576873733E+00  0.88918793309E+00  0.88000000000E+00 0. -1.
        -11    1    4    4    0    0  0.32212273961E-01 -0.10093191986E-01 -0.51890935916E-01  0.61906651254E-01  0.51100000000E-03 0. -1.
         11    1    4    4    0    0  0.39490044670E-01 -0.29315681027E-01 -0.47830648212E-01  0.68606886035E-01  0.51100000000E-03 0.  1.
</event>
<event>
 8    1  0.1208168E+005  0.1043930E+01  0.7957747E-01            NaN
         13   -1    0    0    0    0  0.00000000000E+00  0.00000000000E+00  0.74505805969E-08  0.10566000000E+00  0.10566000000E+00 0.  1.
     999900   -1    0    0    0    0 -0.00000000000E+00 -0.00000000000E+00 -0.74505805969E-08  0.93827000000E+00  0.93827000000E+00 0.  1.
     999902    2    1    2    0    0  0.13913867273E-01 -0.16645377824E-01 -0.10712193179E-01  0.10197346412E+01  0.10194475578E+01 0.  0.
     999903    2    3    3    0    0 -0.12602266879E+00 -0.92689046290E-02 -0.10289924119E-01  0.12864720171E+00  0.21831040482E-01 0.  0.
         14    1    1    2    0    0 -0.13913867273E-01  0.16645377824E-01  0.10712193179E-01  0.24195358813E-01  0.00000000000E+00 0. -1.
     999901    1    3    3    0    0  0.13993653606E+00 -0.73764731947E-02 -0.42226905945E-03  0.89108743948E+00  0.88000000000E+00 0.  1.
        -11    1    4    4    0    0 -0.79486012707E-01 -0.15811001158E-01 -0.99109262724E-02  0.81648646984E-01  0.51100000000E-03 0.  1.
         11    1    4    4    0    0 -0.46536656079E-01  0.65420965294E-02 -0.37899784709E-03  0.46998554727E-01  0.51100000000E-03 0. -1.
</event>
<event>
 8    1  0.1208168E+005  0.1043930E+01  0.7957747E-01            NaN
         13   -1    0    0    0    0  0.00000000000E+00  0.00000000000E+00  0.74505805969E-08  0.10566000000E+00  0.10566000000E+00 0. -1.
     999900   -1    0    0    0    0 -0.00000000000E+00 -0.00000000000E+00 -0.74505805969E-08  0.93827000000E+00  0.93827000000E+00 0.  1.
     999902    2    1    2    0    0  0.23177016427E-01 -0.52053926195E-02 -0.82560500183E-03  0.10201612847E+01  0.10198843537E+01 0.  0.
     999903    2    3    3    0    0 -0.52498324692E-01  0.17021228190E-01  0.11492207220E+00  0.12908423714E+00  0.20245031393E-01 0.  0.
         14    1    1    2    0    0 -0.23177016427E-01  0.52053926195E-02  0.82560500183E-03  0.23768715288E-01  0.00000000000E+00 0.  1.
     999901    1    3    3    0    0  0.75675341120E-01 -0.22226620809E-01 -0.11574767720E+00  0.89107704757E+00  0.88000000000E+00 0.  1.
        -11    1    4    4    0    0 -0.47940337076E-01  0.97750824790E-02  0.86307902316E-01  0.99212616535E-01  0.51100000000E-03 0.  1.
         11    1    4    4    0    0 -0.45579876156E-02  0.72461457108E-02  0.28614169882E-01  0.29871620609E-01  0.51100000000E-03 0. -1.
</event>
<event>
 8    1  0.1208168E+005  0.1043930E+01  0.7957747E-01            NaN
         13   -1    0    0    0    0  0.00000000000E+00  0.00000000000E+00  0.74505805969E-08  0.10566000000E+00  0.10566000000E+00 0. -1.
     999900   -1    0    0    0    0 -0.00000000000E+00 -0.00000000000E+00 -0.74505805969E-08  0.93827000000E+00  0.93827000000E+00 0.  1.
     999902    2    1    2    0    0  0.10586961003E-01  0.19729446776E-01  0.54598308436E-02  0.10208834262E+01  0.10206232533E+01 0.  0.
     999903    2    3    3    0    0  0.12563536574E+00 -0.32548649895E-01  0.10921356991E-01  0.13183957847E+00  0.20463105317E-01 0.  0.
         14    1    1    2    0    0 -0.10586961003E-01 -0.19729446776E-01 -0.54598308436E-02  0.23046573850E-01  0.00000000000E+00 0.  1.
     999901    1    3    3    0    0 -0.11504840474E+00  0.52278096671E-01 -0.54615261474E-02  0.88904384768E+00  0.88000000000E+00 0. -1.
        -11    1    4    4    0    0  0.10275945208E+00 -0.21445932295E-01  0.15133959380E-01  0.10606003419E+00  0.51100000000E-03 0. -1.
         11    1    4    4    0    0  0.22875913657E-01 -0.11102717600E-01 -0.42126023893E-02  0.25779544287E-01  0.51100000000E-03 0.  1.
</event>
<event>
 7    1  0.1208168E+005  0.1043930E+01  0.7957747E-01            NaN
         13   -1    0    0    0    0  0.00000000000E+00  0.00000000000E+00  0.74505805969E-08  0.10566000000E+00  0.10566000000E+00 0.  1.
     999900   -1    0    0    0    0 -0.00000000000E+00 -0.00000000000E+00 -0.74505805969E-08  0.93827000000E+00  0.93827000000E+00 0.  1.
     999902    2    1    2    0    0 -0.17645622095E-01  0.12249053869E-01 -0.58752778637E-02  0.10216605997E+01  0.10214178649E+01 0.  0.
         14    1    1    2    0    0  0.17645622095E-01 -0.12249053869E-01  0.58752778637E-02  0.22269400301E-01  0.00000000000E+00 0.  1.
     999901    1    3    3    0    0 -0.12033630239E+00  0.66758130654E-01  0.35939328835E-01  0.89141971542E+00  0.88000000000E+00 0. -1.
        -11    1    3    3    0    0  0.80140046649E-01 -0.29287395649E-01 -0.44620023962E-01  0.96288038096E-01  0.51100000000E-03 0. -1.
         11    1    3    3    0    0  0.22550633642E-01 -0.25221681136E-01  0.28054172640E-02  0.33952846184E-01  0.51100000000E-03 0.  1.
</event>
<event>
 8    1  0.1443585E+005  0.1043930E+01  0.7957747E-01            NaN
         13   -1    0    0    0    0  0.00000000000E+00  0.00000000000E+00  0.74505805969E-08  0.10566000000E+00  0.10566000000E+00 0.  1.
     999900   -1    0    0    0    0 -0.00000000000E+00 -0.00000000000E+00 -0.74505805969E-08  0.93827000000E+00  0.93827000000E+00 0. -1.
     999902    2    1    2    0    0 -0.20093986292E-03 -0.20726469839E-01  0.13265502322E-01  0.10193210488E+01  0.10190239448E+01 0.  0.
     999903    2    3    3    0    0  0.12944485161E-01  0.46399963546E-01  0.11935197473E+00  0.13031424346E+00  0.20405682134E-01 0.  0.
         14    1    1    2    0    0  0.20093986292E-03  0.20726469839E-01 -0.13265502322E-01  0.24608951230E-01  0.00000000000E+00 0. -1.
     999901    1    3    3    0    0 -0.13145425024E-01 -0.67126433384E-01 -0.10608647241E+00  0.88900680531E+00  0.88000000000E+00 0.  1.
        -11    1    4    4    0    0 -0.13658697408E-02  0.21030985216E-01  0.68931817290E-01  0.72083455072E-01  0.51100000000E-03 0.  1.
         11    1    4    4    0    0  0.14310354902E-01  0.25368978330E-01  0.50420157441E-01  0.58230788388E-01  0.51100000000E-03 0. -1.
</event>
<event>
 8    1  0.1208168E+005  0.1043930E+01  0.7957747E-01            NaN
         13   -1    0    0    0    0  0.00000000000E+00  0.00000000000E+00  0.74505805969E-08  0.10566000000E+00  0.10566000000E+00 0. -1.
     999900   -1    0    0    0    0 -0.00000000000E+00 -0.00000000000E+00 -0.74505805969E-08  0.93827000000E+00  0.93827000000E+00 0.  1.
     999902    2    1    2    0    0  0.87318817593E-02 -0.24956238640E-02 -0.21010976739E-01  0.10210403726E+01  0.10207837712E+01 0.  0.
     999903    2    3    3    0    0  0.11707181132E+00  0.78224182636E-02 -0.60520826423E-01  0.13345655656E+00  0.19516219497E-01 0.  0.
         14    1    1    2    0    0 -0.87318817593E-02  0.24956238640E-02  0.21010976739E-01  0.22889627368E-01  0.00000000000E+00 0. -1.
     999901    1    3    3    0    0 -0.10833992957E+00 -0.10318042128E-01  0.39509849684E-01  0.88758381607E+00  0.88000000000E+00 0. -1.
        -11    1    4    4    0    0  0.23078623034E-01 -0.51156997007E-02 -0.16686354080E-01  0.28939398025E-01  0.51100000000E-03 0. -1.
         11    1    4    4    0    0  0.93993188291E-01  0.12938117964E-01 -0.43834472343E-01  0.10451715853E+00  0.51100000000E-03 0.  1.
</event>
<event>
 8    1  0.1208168E+005  0.1043930E+01  0.7957747E-01            NaN
         13   -1    0    0    0    0  0.00000000000E+00  0.00000000000E+00  0.74505805969E-08  0.10566000000E+00  0.10566000000E+00 0. -1.
     999900   -1    0    0    0    0 -0.00000000000E+00 -0.00000000000E+00 -0.74505805969E-08  0.93827000000E+00  0.93827000000E+00 0.  1.
     999902    2    1    2    0    0 -0.66088200413E-02  0.13828137731E-01 -0.17247175835E-01  0.10208570945E+01  0.10205963200E+01 0.  0.
     999903    2    3    3    0    0  0.33740786351E-01 -0.12061857007E+00 -0.27280239152E-01  0.12967547979E+00  0.19602002515E-01 0.  0.
         14    1    1    2    0    0  0.66088200413E-02 -0.13828137731E-01  0.17247175835E-01  0.23072905533E-01  0.00000000000E+00 0. -1.
     999901    1    3    3    0    0 -0.40349606393E-01  0.13444670780E+00  0.10033063317E-01  0.89118161467E+00  0.88000000000E+00 0.  1.
        -11    1    4    4    0    0  0.57629865576E-03 -0.11955550855E-01  0.24702428571E-02  0.12232356157E-01  0.51100000000E-03 0.  1.
         11    1    4    4    0    0  0.33164487695E-01 -0.10866301921E+00 -0.29750482009E-01  0.11744312364E+00  0.51100000000E-03 0. -1.
</event>
<event>
 8    1  0.1208168E+005  0.1043930E+01  0.7957747E-01            NaN
         13   -1    0    0    0    0  0.00000000000E+00  0.00000000000E+00  0.74505805969E-08  0.10566000000E+00  0.10566000000E+00 0.  1.
     999900   -1    0    0    0    0 -0.00000000000E+00 -0.00000000000E+00 -0.74505805969E-08  0.93827000000E+00  0.93827000000E+00 0.  1.
     999902    2    1    2    0    0  0.21462870357E-01  0.19477748785E-02  0.93959974076E-02  0.10204197172E+01  0.10201488449E+01 0.  0.
     999903    2    3    3    0    0 -0.60711218640E-01  0.87125494308E-01 -0.70320568371E-01  0.12892515430E+00  0.20000231186E-01 0.  0.
         14    1    1    2    0    0 -0.21462870357E-01 -0.19477748785E-02 -0.93959974076E-02  0.23510282819E-01  0.00000000000E+00 0. -1.
     999901    1    3    3    0    0  0.82174088998E-01 -0.85177719429E-01  0.79716565779E-01  0.89149456288E+00  0.88000000000E+00 0. -1.
        -11    1    4    4    0    0 -0.16812527040E-01  0.35871856894E-01 -0.34429996876E-01  0.52489398819E-01  0.51100000000E-03 0. -1.
         11    1    4    4    0    0 -0.43898691601E-01  0.51253637414E-01 -0.35890571495E-01  0.76435755479E-01  0.51100000000E-03 0.  1.
</event>
<event>
 8    1  0.1208168E+005  0.1043930E+01  0.7957747E-01            NaN
         13   -1    0    0    0    0  0.00000000000E+00  0.00000000000E+00  0.74505805969E-08  0.10566000000E+00  0.10566000000E+00 0.  1.
     999900   -1    0    0    0    0 -0.00000000000E+00 -0.00000000000E+00 -0.74505805969E-08  0.93827000000E+00  0.93827000000E+00 0. -1.
     999902    2    1    2    0    0 -0.15752887337E-01  0.20272548854E-01  0.14278618728E-01  0.10145529911E+01  0.10141275872E+01 0.  0.
     999903    2    3    3    0    0  0.78910298117E-01 -0.53064303870E-01  0.77227540245E-01  0.12421486472E+00  0.20556851676E-01 0.  0.
         14    1    1    2    0    0  0.15752887337E-01 -0.20272548854E-01 -0.14278618728E-01  0.29377008855E-01  0.00000000000E+00 0. -1.
     999901    1    3    3    0    0 -0.94663185455E-01  0.73336852723E-01 -0.62948921517E-01  0.89033812643E+00  0.88000000000E+00 0. -1.
        -11    1    4    4    0    0  0.44307554145E-01 -0.37552748524E-01  0.36675709528E-01  0.68693064179E-01  0.51100000000E-03 0.  1.
         11    1    4    4    0    0  0.34602743973E-01 -0.15511555345E-01  0.40551830717E-01  0.55521800540E-01  0.51100000000E-03 0. -1.
</event>
<event>
 8    1  0.1208168E+005  0.1043930E+01  0.7957747E-01            NaN
         13   -1    0    0    0    0  0.00000000000E+00  0.00000000000E+00  0.74505805969E-08  0.10566000000E+00  0.10566000000E+00 0.  1.
     999900   -1    0    0    0    0 -0.00000000000E+00 -0.00000000000E+00 -0.74505805969E-08  0.93827000000E+00  0.93827000000E+00 0. -1.
     999902    2    1    2    0    0 -0.20154586218E-01  0.11195942853E-01 -0.95394017160E-02  0.10189789145E+01  0.10186733881E+01 0.  0.
     999903    2    3    3    0    0  0.64438801734E-01 -0.76987921603E-01  0.74363695083E-01  0.12658204938E+00  0.20336096926E-01 0.  0.
         14    1    1    2    0    0  0.20154586218E-01 -0.11195942853E-01  0.95394017160E-02  0.24951085489E-01  0.00000000000E+00 0. -1.
     999901    1    3    3    0    0 -0.84593387952E-01  0.88183864456E-01 -0.83903096799E-01  0.89239686513E+00  0.88000000000E+00 0. -1.
        -11    1    4    4    0    0  0.30459002161E-01 -0.40007300677E-01  0.49420392716E-01  0.70505115114E-01  0.51100000000E-03 0.  1.
         11    1    4    4    0    0  0.33979799574E-01 -0.36980620926E-01  0.24943302367E-01  0.56076934270E-01  0.51100000000E-03 0. -1.
</event>
<event>
 8    1  0.1208168E+005  0.1043930E+01  0.7957747E-01            NaN
         13   -1    0    0    0    0  0.00000000000E+00  0.00000000000E+00  0.74505805969E-08  0.10566000000E+00  0.10566000000E+00 0.  1.
     999900   -1    0    0    0    0 -0.00000000000E+00 -0.00000000000E+00 -0.74505805969E-08  0.93827000000E+00  0.93827000000E+00 0.  1.
     999902    2    1    2    0    0  0.13853491232E-01 -0.57319972399E-02 -0.14805282934E-01  0.10228593708E+01  0.10226423231E+01 0.  0.
     999903    2    3    3    0    0 -0.85999935029E-01  0.70421529779E-01 -0.68926775300E-01  0.13229819809E+00  0.19918137076E-01 0.  0.
         14    1    1    2    0    0 -0.13853491232E-01  0.57319972399E-02  0.14805282934E-01  0.21070629189E-01  0.00000000000E+00 0.  1.
     999901    1    3    3    0    0  0.99853426261E-01 -0.76153527018E-01  0.54121492366E-01  0.89056117272E+00  0.88000000000E+00 0. -1.
        -11    1    4    4    0    0 -0.26494359248E-01  0.10662483133E-01 -0.16216482243E-01  0.32846233207E-01  0.51100000000E-03 0.  1.
         11    1    4    4    0    0 -0.59505575781E-01  0.59759046645E-01 -0.52710293057E-01  0.99451964888E-01  0.51100000000E-03 0. -1.
</event>
<event>
 8    1  0.1208168E+005  0.1043930E+01  0.7957747E-01            NaN
         13   -1    0    0    0    0  0.00000000000E+00  0.00000000000E+00  0.74505805969E-08  0.10566000000E+00  0.10566000000E+00 0.  1.
     999900   -1    0    0    0    0 -0.00000000000E+00 -0.00000000000E+00 -0.74505805969E-08  0.93827000000E+00  0.93827000000E+00 0. -1.
     999902    2    1    2    0    0 -0.21865947029E-01 -0.70959615281E-02  0.24093479528E-02  0.10208155615E+01  0.10205538366E+01 0.  0.
     999903    2    3    3    0    0 -0.20626439486E-01  0.45301827878E-01  0.12001765071E+00  0.13144568480E+00  0.19900400846E-01 0.  0.
         14    1    1    2    0    0  0.21865947029E-01  0.70959615281E-02 -0.24093479528E-02  0.23114438498E-01  0.00000000000E+00 0.  1.
     999901    1    3    3    0    0 -0.12395075434E-02 -0.52397789406E-01 -0.11760830276E+00  0.88936987671E+00  0.88000000000E+00 0. -1.
        -11    1    4    4    0    0  0.95392946312E-03  0.47005625074E-02  0.29773714107E-01  0.30161903820E-01  0.51100000000E-03 0.  1.
         11    1    4    4    0    0 -0.21580368949E-01  0.40601265370E-01  0.90243936606E-01  0.10128378098E+00  0.51100000000E-03 0. -1.
</event>
<event>
 8    1  0.1208168E+005  0.1043930E+01  0.7957747E-01            NaN
         13   -1    0    0    0    0  0.00000000000E+00  0.00000000000E+00  0.74505805969E-08  0.10566000000E+00  0.10566000000E+00 0.  1.
     999900   -1    0    0    0    0 -0.00000000000E+00 -0.00000000000E+00 -0.74505805969E-08  0.93827000000E+00  0.93827000000E+00 0.  1.
     999902    2    1    2    0    0 -0.43268147604E-02  0.20293862204E-02  0.20083345213E-01  0.10232858607E+01  0.10230775983E+01 0.  0.
     999903    2    3    3    0    0 -0.26711707479E-01  0.50025703222E-01  0.12179652152E+00  0.13584555274E+00  0.20088186718E-01 0.  0.
         14    1    1    2    0    0  0.43268147604E-02 -0.20293862204E-02 -0.20083345213E-01  0.20644139346E-01  0.00000000000E+00 0. -1.
     999901    1    3    3    0    0  0.22384892718E-01 -0.47996317002E-01 -0.10171317631E+00  0.88744030791E+00  0.88000000000E+00 0.  1.
        -11    1    4    4    0    0 -0.96383761648E-02  0.36176294121E-01  0.86553346787E-01  0.94304642051E-01  0.51100000000E-03 0. -1.
         11    1    4    4    0    0 -0.17073331314E-01  0.13849409101E-01  0.35243174737E-01  0.41540910693E-01  0.51100000000E-03 0.  1.
</event>
<event>
 8    1  0.1208168E+005  0.1043930E+01  0.7957747E-01            NaN
         13   -1    0    0    0    0  0.00000000000E+00  0.00000000000E+00  0.74505805969E-08  0.10566000000E+00  0.10566000000E+00 0.  1.
     999900   -1    0    0    0    0 -0.00000000000E+00 -0.00000000000E+00 -0.74505805969E-08  0.93827000000E+00  0.93827000000E+00 0.  1.
     999902    2    1    2    0    0  0.17154813348E-01  0.11256656699E-01  0.11156837962E-01  0.10205745943E+01  0.10203073202E+01 0.  0.
     999903    2    3    3    0    0  0.30238029643E-01  0.55084177914E-01 -0.11298607139E+00  0.13068500336E+00  0.19081736844E-01 0.  0.
         14    1    1    2    0    0 -0.17154813348E-01 -0.11256656699E-01 -0.11156837962E-01  0.23355405677E-01  0.00000000000E+00 0.  1.
     999901    1    3    3    0    0 -0.13083216295E-01 -0.43827521215E-01  0.12414290935E+00  0.88988959096E+00  0.88000000000E+00 0. -1.
        -11    1    4    4    0    0  0.60069847627E-02  0.75532474752E-02 -0.34156142871E-01  0.35497022835E-01  0.51100000000E-03 0.  1.
         11    1    4    4    0    0  0.24231044880E-01  0.47530930439E-01 -0.78829928521E-01  0.95187980523E-01  0.51100000000E-03 0. -1.
</event>
<event>
 8    1  0.1208168E+005  0.1043930E+01  0.7957747E-01            NaN
         13   -1    0    0    0    0  0.00000000000E+00  0.00000000000E+00  0.74505805969E-08  0.10566000000E+00  0.10566000000E+00 0. -1.
     999900   -1    0    0    0    0 -0.00000000000E+00 -0.00000000000E+00 -0.74505805969E-08  0.93827000000E+00  0.93827000000E+00 0.  1.
     999902    2    1    2    0    0  0.16429515991E-01  0.17963685150E-01 -0.16540281740E-02  0.10195300248E+01  0.10192380059E+01 0.  0.
     999903    2    3    3    0    0  0.27993867284E-01 -0.75179400822E-01  0.98823382250E-01  0.12885327161E+00  0.20037609958E-01 0.  0.
         14    1    1    2    0    0 -0.16429515991E-01 -0.17963685150E-01  0.16540281740E-02  0.24399975186E-01  0.00000000000E+00 0.  1.
     999901    1    3    3    0    0 -0.11564351293E-01  0.93143085972E-01 -0.10047741042E+00  0.89067675320E+00  0.88000000000E+00 0.  1.
        -11    1    4    4    0    0 -0.26590861680E-03 -0.20091909770E-01  0.31694822574E-01  0.37531033087E-01  0.51100000000E-03 0.  1.
         11    1    4    4    0    0  0.28259775901E-01 -0.55087491051E-01  0.67128559677E-01  0.91322238527E-01  0.51100000000E-03 0. -1.
</event>
<event>
 8    1  0.1208168E+005  0.1043930E+01  0.7957747E-01            NaN
         13   -1    0    0    0    0  0.00000000000E+00  0.00000000000E+00  0.74505805969E-08  0.10566000000E+00  0.10566000000E+00 0.  1.
     999900   -1    0    0    0    0 -0.00000000000E+00 -0.00000000000E+00 -0.74505805969E-08  0.93827000000E+00  0.93827000000E+00 0. -1.
     999902    2    1    2    0    0 -0.15151508723E-03  0.15813144620E-01  0.18053279294E-01  0.10199300126E+01  0.10196476015E+01 0.  0.
     999903    2    3    3    0    0 -0.75251006503E-01  0.59054398054E-01  0.89848145656E-01  0.13276360073E+00  0.20083537800E-01 0.  0.
         14    1    1    2    0    0  0.15151508723E-03 -0.15813144620E-01 -0.18053279294E-01  0.23999987351E-01  0.00000000000E+00 0. -1.
     999901    1    3    3    0    0  0.75099491416E-01 -0.43241253434E-01 -0.71794866362E-01  0.88716641192E+00  0.88000000000E+00 0. -1.
        -11    1    4    4    0    0 -0.49859992384E-01  0.49628404576E-01  0.60071324111E-01  0.92508499516E-01  0.51100000000E-03 0. -1.
         11    1    4    4    0    0 -0.25391014120E-01  0.94259934773E-02  0.29776821545E-01  0.40255101209E-01  0.51100000000E-03 0.  1.
</event>
<event>
 8    1  0.1208168E+005  0.1043930E+01  0.7957747E-01            NaN
         13   -1    0    0    0    0  0.00000000000E+00  0.00000000000E+00  0.74505805969E-08  0.10566000000E+00  0.10566000000E+00 0.  1.
     999900   -1    0    0    0    0 -0.00000000000E+00 -0.00000000000E+00 -0.74505805969E-08  0.93827000000E+00  0.93827000000E+00 0.  1.
     999902    2    1    2    0    0  0.23035040145E-01 -0.11432297533E-02  0.77026736947E-02  0.10196143419E+01  0.10193243620E+01 0.  0.
     999903    2    3    3    0    0  0.12225467270E+00  0.38180676261E-01  0.31438386737E-01  0.13284814429E+00  0.16009005088E-01 0.  0.
         14    1    1    2    0    0 -0.23035040145E-01  0.11432297533E-02 -0.77026736947E-02  0.24315658141E-01  0.00000000000E+00 0. -1.
     999901    1    3    3    0    0 -0.99219632559E-01 -0.39323906015E-01 -0.23735713043E-01  0.88676619756E+00  0.88000000000E+00 0.  1.
        -11    1    4    4    0    0  0.95116767214E-01  0.22557670238E-01  0.23957502177E-01  0.10064924701E+00  0.51100000000E-03 0.  1.
         11    1    4    4    0    0  0.27137905491E-01  0.15623006023E-01  0.74808845600E-02  0.32198897286E-01  0.51100000000E-03 0. -1.
</event>
<event>
 8    1  0.1208168E+005  0.1043930E+01  0.7957747E-01            NaN
         13   -1    0    0    0    0  0.00000000000E+00  0.00000000000E+00  0.74505805969E-08  0.10566000000E+00  0.10566000000E+00 0.  1.
     999900   -1    0    0    0    0 -0.00000000000E+00 -0.00000000000E+00 -0.74505805969E-08  0.93827000000E+00  0.93827000000E+00 0. -1.
     999902    2    1    2    0    0 -0.22864477513E-01  0.44701473965E-02 -0.67069796460E-02  0.10196864416E+01  0.10193981994E+01 0.  0.
     999903    2    3    3    0    0  0.91274120685E-01  0.79194102538E-01 -0.39169483843E-01  0.12858313484E+00  0.19917407404E-01 0.  0.
         14    1    1    2    0    0  0.22864477513E-01 -0.44701473965E-02  0.67069796460E-02  0.24243558436E-01  0.00000000000E+00 0. -1.
     999901    1    3    3    0    0 -0.11413859820E+00 -0.74723955142E-01  0.32462504197E-01  0.89110330672E+00  0.88000000000E+00 0.  1.
        -11    1    4    4    0    0  0.61822793910E-01  0.43052333705E-01 -0.18464437762E-01  0.77567763066E-01  0.51100000000E-03 0.  1.
         11    1    4    4    0    0  0.29451326775E-01  0.36141768834E-01 -0.20705046081E-01  0.51015371776E-01  0.51100000000E-03 0. -1.
</event>
<event>
 8    1  0.1208168E+005  0.1043930E+01  0.7957747E-01            NaN
         13   -1    0    0    0    0  0.00000000000E+00  0.00000000000E+00  0.74505805969E-08  0.10566000000E+00  0.10566000000E+00 0.  1.
     999900   -1    0    0    0    0 -0.00000000000E+00 -0.00000000000E+00 -0.74505805969E-08  0.93827000000E+00  0.93827000000E+00 0.  1.
     999902    2    1    2    0    0  0.18746876020E-01  0.11757081064E-01 -0.70442613861E-02  0.10207072539E+01  0.10204430422E+01 0.  0.
     999903    2    3    3    0    0  0.63864724449E-01 -0.63098872596E-01  0.92901723844E-01  0.13074757283E+00  0.20100416838E-01 0.  0.
         14    1    1    2    0    0 -0.18746876020E-01 -0.11757081064E-01  0.70442613861E-02  0.23222746051E-01  0.00000000000E+00 0. -1.
     999901    1    3    3    0    0 -0.45117848428E-01  0.74855953661E-01 -0.99945985231E-01  0.88995968111E+00  0.88000000000E+00 0.  1.
        -11    1    4    4    0    0  0.14610076825E-01 -0.94346895122E-02  0.29144651652E-01  0.33943181229E-01  0.51100000000E-03 0. -1.
         11    1    4    4    0    0  0.49254647623E-01 -0.53664183084E-01  0.63757072192E-01  0.96804391606E-01  0.51100000000E-03 0.  1.
</event>
<event>
 8    1  0.1208168E+005  0.1043930E+01  0.7957747E-01            NaN
         13   -1    0    0    0    0  0.00000000000E+00  0.00000000000E+00  0.74505805969E-08  0.10566000000E+00  0.10566000000E+00 0.  1.
     999900   -1    0    0    0    0 -0.00000000000E+00 -0.00000000000E+00 -0.74505805969E-08  0.93827000000E+00  0.93827000000E+00 0.  1.
     999902    2    1    2    0    0  0.56398319061E-02 -0.23182822833E-01  0.20472020473E-02  0.10199833507E+01  0.10197022083E+01 0.  0.
     999903    2    3    3    0    0  0.54999261439E-01  0.99639152799E-01  0.56419440932E-01  0.12842408098E+00  0.18886813712E-01 0.  0.
         14    1    1    2    0    0 -0.56398319061E-02  0.23182822833E-01 -0.20472020473E-02  0.23946649341E-01  0.00000000000E+00 0.  1.
     999901    1    3    3    0    0 -0.49359429533E-01 -0.12282197563E+00 -0.54372238884E-01  0.89155926967E+00  0.88000000000E+00 0.  1.
        -11    1    4    4    0    0  0.40648223696E-01  0.60758746559E-01  0.28565147185E-01  0.78486509209E-01  0.51100000000E-03 0.  1.
         11    1    4    4    0    0  0.14351037743E-01  0.38880406240E-01  0.27854293747E-01  0.49937571776E-01  0.51100000000E-03 0. -1.
</event>
<event>
 8    1  0.1208168E+005  0.1043930E+01  0.7957747E-01            NaN
         13   -1    0    0    0    0  0.00000000000E+00  0.00000000000E+00  0.74505805969E-08  0.10566000000E+00  0.10566000000E+00 0. -1.
     999900   -1    0    0    0    0 -0.00000000000E+00 -0.00000000000E+00 -0.74505805969E-08  0.93827000000E+00  0.93827000000E+00 0.  1.
     999902    2    1    2    0    0  0.22355518282E-01 -0.23922059933E-02 -0.10939246616E-01  0.10189268209E+01  0.10186200015E+01 0.  0.
     999903    2    3    3    0    0  0.12769040203E+00  0.37249008701E-03 -0.29006897184E-01  0.13245656126E+00  0.19959033449E-01 0.  0.
         14    1    1    2    0    0 -0.22355518282E-01  0.23922059933E-02  0.10939246616E-01  0.25003179072E-01  0.00000000000E+00 0.  1.
     999901    1    3    3    0    0 -0.10533488375E+00 -0.27646960803E-02  0.18067650568E-01  0.88647025967E+00  0.88000000000E+00 0. -1.
        -11    1    4    4    0    0  0.92671205885E-01  0.86868630124E-02 -0.17888312689E-01  0.94782207407E-01  0.51100000000E-03 0. -1.
         11    1    4    4    0    0  0.35019196148E-01 -0.83143729254E-02 -0.11118584495E-01  0.37674353852E-01  0.51100000000E-03 0.  1.
</event>
<event>
 8    1  0.1208168E+005  0.1043930E+01  0.7957747E-01            NaN
         13   -1    0    0    0    0  0.00000000000E+00  0.00000000000E+00  0.74505805969E-08  0.10566000000E+00  0.10566000000E+00 0. -1.
     999900   -1    0    0    0    0 -0.00000000000E+00 -0.00000000000E+00 -0.74505805969E-08  0.93827000000E+00  0.93827000000E+00 0. -1.
     999902    2    1    2    0    0  0.22161899573E-01 -0.77434900368E-02 -0.32809637487E-02  0.10202260730E+01  0.10199506674E+01 0.  0.
     999903    2    3    3    0    0 -0.56825454152E-01  0.46028938013E-01 -0.10492586459E+00  0.12923664440E+00  0.18570886400E-01 0.  0.
         14    1    1    2    0    0 -0.22161899573E-01  0.77434900368E-02  0.32809637487E-02  0.23703926969E-01  0.00000000000E+00 0. -1.
     999901    1    3    3    0    0  0.78987353725E-01 -0.53772428049E-01  0.10164490084E+00  0.89098942863E+00  0.88000000000E+00 0.  1.
        -11    1    4    4    0    0 -0.36369018733E-01  0.20295335594E-01 -0.48495606345E-01  0.63927233056E-01  0.51100000000E-03 0.  1.
         11    1    4    4    0    0 -0.20456435420E-01  0.25733602419E-01 -0.56430258244E-01  0.65309411343E-01  0.51100000000E-03 0. -1.
</event>
<event>
 8    1  0.1208168E+005  0.1043930E+01  0.7957747E-01            NaN
         13   -1    0    0    0    0  0.00000000000E+00  0.00000000000E+00  0.74505805969E-08  0.10566000000E+00  0.10566000000E+00 0.  1.
     999900   -1    0    0    0    0 -0.00000000000E+00 -0.00000000000E+00 -0.74505805969E-08  0.93827000000E+00  0.93827000000E+00 0. -1.
     999902    2    1    2    0    0 -0.46321285449E-02 -0.12866540698E-01  0.18852282761E-01  0.10206402372E+01  0.10203744807E+01 0.  0.
     999903    2    3    3    0    0 -0.43486827573E-02 -0.12220002679E+00 -0.44242145501E-01  0.13163247664E+00  0.20444654022E-01 0.  0.
         14    1    1    2    0    0  0.46321285449E-02  0.12866540698E-01 -0.18852282761E-01  0.23289762766E-01  0.00000000000E+00 0. -1.
     999901    1    3    3    0    0 -0.28344578760E-03  0.10933348609E+00  0.63094428262E-01  0.88900776060E+00  0.88000000000E+00 0.  1.
        -11    1    4    4    0    0 -0.83934392462E-02 -0.20452512976E-01 -0.67576980639E-02  0.23123207250E-01  0.51100000000E-03 0. -1.
         11    1    4    4    0    0  0.40447564889E-02 -0.10174751381E+00 -0.37484447437E-01  0.10850926939E+00  0.51100000000E-03 0.  1.
</event>
<event>
 8    1  0.1208168E+005  0.1043930E+01  0.7957747E-01            NaN
         13   -1    0    0    0    0  0.00000000000E+00  0.00000000000E+00  0.74505805969E-08  0.10566000000E+00  0.10566000000E+00 0.  1.
     999900   -1    0    0    0    0 -0.00000000000E+00 -0.00000000000E+00 -0.74505805969E-08  0.93827000000E+00  0.93827000000E+00 0.  1.
     999902    2    1    2    0    0 -0.39892538955E-02 -0.11183867164E-02 -0.23062364584E-01  0.10204984487E+01  0.10202294086E+01 0.  0.
     999903    2    3    3    0    0  0.41293123805E-01  0.10460747407E+00  0.60235487655E-01  0.12911358034E+00  0.19853386373E-01 0.  0.
         14    1    1    2    0    0  0.39892538955E-02  0.11183867164E-02  0.23062364584E-01  0.23431551286E-01  0.00000000000E+00 0.  1.
     999901    1    3    3    0    0 -0.45282377700E-01 -0.10572586079E+00 -0.83297852239E-01  0.89138486837E+00  0.88000000000E+00 0.  1.
        -11    1    4    4    0    0  0.33234542038E-01  0.92512923963E-01  0.58688442069E-01  0.11448917083E+00  0.51100000000E-03 0. -1.
         11    1    4    4    0    0  0.80585817670E-02  0.12094550112E-01  0.15470455860E-02  0.14624409511E-01  0.51100000000E-03 0.  1.
</event>
<event>
 8    1  0.1208168E+005  0.1043930E+01  0.7957747E-01            NaN
         13   -1    0    0    0    0  0.00000000000E+00  0.00000000000E+00  0.74505805969E-08  0.10566000000E+00  0.10566000000E+00 0. -1.
     999900   -1    0    0    0    0 -0.00000000000E+00 -0.00000000000E+00 -0.74505805969E-08  0.93827000000E+00  0.93827000000E+00 0. -1.
     999902    2    1    2    0    0  0.13662823654E-01  0.11645582039E-01 -0.15267904808E-01  0.10203630475E+01  0.10200908526E+01 0.  0.
     999903    2    3    3    0    0  0.60160640729E-01 -0.99602059708E-01 -0.58221675679E-01  0.13110318044E+00  0.16075055608E-01 0.  0.
         14    1    1    2    0    0 -0.13662823654E-01 -0.11645582039E-01  0.15267904808E-01  0.23566952464E-01  0.00000000000E+00 0. -1.
     999901    1    3    3    0    0 -0.46497817076E-01  0.11124764175E+00  0.42953770871E-01  0.88925986709E+00  0.88000000000E+00 0.  1.
        -11    1    4    4    0    0  0.27401051871E-01 -0.51414951362E-01 -0.37352807414E-01  0.69208440308E-01  0.51100000000E-03 0.  1.
         11    1    4    4    0    0  0.32759588858E-01 -0.48187108346E-01 -0.20868868266E-01  0.61894740137E-01  0.51100000000E-03 0. -1.
</event>
<event>
 8    1  0.1208168E+005  0.1043930E+01  0.7957747E-01            NaN
         13   -1    0    0    0    0  0.00000000000E+00  0.00000000000E+00  0.74505805969E-08  0.10566000000E+00  0.10566000000E+00 0.  1.
     999900   -1    0    0    0    0 -0.00000000000E+00 -0.00000000000E+00 -0.74505805969E-08  0.93827000000E+00  0.93827000000E+00 0.  1.
     999902    2    1    2    0    0  0.14105887985E-01 -0.10188865702E-01 -0.15747973350E-01  0.10204611329E+01  0.10201912252E+01 0.  0.
     999903    2    3    3    0    0 -0.48404407399E-02  0.95454072393E-01  0.83303223586E-01  0.12842383916E+00  0.20453498516E-01 0.  0.
         14    1    1    2    0    0 -0.14105887985E-01  0.10188865702E-01  0.15747973350E-01  0.23468867138E-01  0.00000000000E+00 0.  1.
     999901    1    3    3    0    0  0.18946328725E-01 -0.10564293809E+00 -0.99051196936E-01  0.89203729370E+00  0.88000000000E+00 0.  1.
        -11    1    4    4    0    0 -0.97617475902E-02  0.37352056671E-01  0.41448242059E-01  0.56645262329E-01  0.51100000000E-03 0. -1.
         11    1    4    4    0    0  0.49213068503E-02  0.58102015722E-01  0.41854981527E-01  0.71778576830E-01  0.51100000000E-03 0.  1.
</event>
<event>
 8    1  0.1208168E+005  0.1043930E+01  0.7957747E-01            NaN
         13   -1    0    0    0    0  0.00000000000E+00  0.00000000000E+00  0.74505805969E-08  0.10566000000E+00  0.10566000000E+00 0.  1.
     999900   -1    0    0    0    0 -0.00000000000E+00 -0.00000000000E+00 -0.74505805969E-08  0.93827000000E+00  0.93827000000E+00 0. -1.
     999902    2    1    2    0    0  0.15885043390E-01  0.16061136730E-01  0.64367963898E-02  0.10204411289E+01  0.10201707556E+01 0.  0.
     999903    2    3    3    0    0  0.11807021818E+00  0.55123403626E-01  0.20664945951E-01  0.13355324938E+00  0.20742815182E-01 0.  0.
         14    1    1    2    0    0 -0.15885043390E-01 -0.16061136730E-01 -0.64367963898E-02  0.23488871074E-01  0.00000000000E+00 0. -1.
     999901    1    3    3    0    0 -0.10218517479E+00 -0.39062266897E-01 -0.14228149561E-01  0.88688787954E+00  0.88000000000E+00 0. -1.
        -11    1    4    4    0    0  0.12985179638E-01  0.12611853988E-01 -0.10228297333E-02  0.18137834846E-01  0.51100000000E-03 0. -1.
         11    1    4    4    0    0  0.10508503854E+00  0.42511549639E-01  0.21687775685E-01  0.11541541454E+00  0.51100000000E-03 0.  1.
</event>
<event>
 8    1  0.1208168E+005  0.1043930E+01  0.7957747E-01            NaN
         13   -1    0    0    0    0  0.00000000000E+00  0.00000000000E+00  0.74505805969E-08  0.10566000000E+00  0.10566000000E+00 0.  1.
     999900   -1    0    0    0    0 -0.00000000000E+00 -0.00000000000E+00 -0.74505805969E-08  0.93827000000E+00  0.93827000000E+00 0.  1.
     999902    2    1    2    0    0  0.16652397138E-01  0.79288308735E-02  0.14392237841E-01  0.10205354451E+01  0.10202672638E+01 0.  0.
     999903    2    3    3    0    0 -0.85167614580E-02  0.12651722122E+00 -0.27456155611E-01  0.13123910477E+00  0.19766629689E-01 0.  0.
         14    1    1    2    0    0 -0.16652397138E-01 -0.79288308735E-02 -0.14392237841E-01  0.23394554912E-01  0.00000000000E+00 0. -1.
     999901    1    3    3    0    0  0.25169158596E-01 -0.11858839034E+00  0.41848393452E-01  0.88929634032E+00  0.88000000000E+00 0. -1.
        -11    1    4    4    0    0 -0.10922232132E-01  0.55502033109E-01 -0.53456755438E-02  0.56820843025E-01  0.51100000000E-03 0.  1.
         11    1    4    4    0    0  0.24054706745E-02  0.71015188109E-01 -0.22110480067E-01  0.74418261745E-01  0.51100000000E-03 0. -1.
</event>
<event>
 8    1  0.1208168E+005  0.1043930E+01  0.7957747E-01            NaN
         13   -1    0    0    0    0  0.00000000000E+00  0.00000000000E+00  0.74505805969E-08  0.10566000000E+00  0.10566000000E+00 0. -1.
     999900   -1    0    0    0    0 -0.00000000000E+00 -0.00000000000E+00 -0.74505805969E-08  0.93827000000E+00  0.93827000000E+00 0. -1.
     999902    2    1    2    0    0 -0.19213687460E-02 -0.16797501961E-01 -0.97497531889E-02  0.10244132017E+01  0.10242272708E+01 0.  0.
     999903    2    3    3    0    0  0.27932815695E-02 -0.11913094349E+00  0.61490444671E-01  0.13561090252E+00  0.20230125494E-01 0.  0.
         14    1    1    2    0    0  0.19213687460E-02  0.16797501961E-01  0.97497531889E-02  0.19516798334E-01  0.00000000000E+00 0.  1.
     999901    1    3    3    0    0 -0.47146503154E-02  0.10233344153E+00 -0.71240197860E-01  0.88880229915E+00  0.88000000000E+00 0. -1.
        -11    1    4    4    0    0  0.90141209605E-02 -0.10367318911E+00  0.55145795792E-01  0.11777395481E+00  0.51100000000E-03 0. -1.
         11    1    4    4    0    0 -0.62208393911E-02 -0.15457754378E-01  0.63446488789E-02  0.17836947708E-01  0.51100000000E-03 0.  1.
</event>
<event>
 8    1  0.1208168E+005  0.1043930E+01  0.7957747E-01            NaN
         13   -1    0    0    0    0  0.00000000000E+00  0.00000000000E+00  0.74505805969E-08  0.10566000000E+00  0.10566000000E+00 0. -1.
     999900   -1    0    0    0    0 -0.00000000000E+00 -0.00000000000E+00 -0.74505805969E-08  0.93827000000E+00  0.93827000000E+00 0. -1.
     999902    2    1    2    0    0  0.52824552983E-03  0.46924911508E-02  0.23476204145E-01  0.10199835874E+01  0.10197024506E+01 0.  0.
     999903    2    3    3    0    0 -0.11955018035E+00  0.37981736247E-01 -0.26901352973E-01  0.12977861072E+00  0.19594568114E-01 0.  0.
         14    1    1    2    0    0 -0.52824552983E-03 -0.46924911508E-02 -0.23476204145E-01  0.23946412625E-01  0.00000000000E+00 0.  1.
     999901    1    3    3    0    0  0.12007842588E+00 -0.33289245097E-01  0.50377557118E-01  0.89020497665E+00  0.88000000000E+00 0. -1.
        -11    1    4    4    0    0 -0.75262449423E-01  0.14561439628E-01 -0.12714305216E-01  0.77707055634E-01  0.51100000000E-03 0.  1.
         11    1    4    4    0    0 -0.44287730924E-01  0.23420296619E-01 -0.14187047757E-01  0.52071555087E-01  0.51100000000E-03 0. -1.
</event>
<event>
 8    1  0.1208168E+005  0.1043930E+01  0.7957747E-01            NaN
         13   -1    0    0    0    0  0.00000000000E+00  0.00000000000E+00  0.74505805969E-08  0.10566000000E+00  0.10566000000E+00 0. -1.
     999900   -1    0    0    0    0 -0.00000000000E+00 -0.00000000000E+00 -0.74505805969E-08  0.93827000000E+00  0.93827000000E+00 0.  1.
     999902    2    1    2    0    0 -0.15261271006E-01  0.15010818372E-01 -0.10165144024E-01  0.10202327172E+01  0.10199574677E+01 0.  0.
     999903    2    3    3    0    0 -0.96257951376E-01 -0.85933875363E-01 -0.73705305316E-02  0.13076203002E+00  0.19853454000E-01 0.  0.
         14    1    1    2    0    0  0.15261271006E-01 -0.15010818372E-01  0.10165144024E-01  0.23697282839E-01  0.00000000000E+00 0. -1.
     999901    1    3    3    0    0  0.80996680371E-01  0.10094469374E+00 -0.27946134926E-02  0.88947068714E+00  0.88000000000E+00 0. -1.
        -11    1    4    4    0    0 -0.34078173595E-01 -0.42753883121E-01 -0.64229848072E-02  0.55052087084E-01  0.51100000000E-03 0.  1.
         11    1    4    4    0    0 -0.62179777782E-01 -0.43179992242E-01 -0.94754572439E-03  0.75709942933E-01  0.51100000000E-03 0. -1.
</event>
<event>
 8    1  0.1208168E+005  0.1043930E+01  0.7957747E-01            NaN
         13   -1    0    0    0    0  0.00000000000E+00  0.00000000000E+00  0.74505805969E-08  0.10566000000E+00  0.10566000000E+00 0. -1.
     999900   -1    0    0    0    0 -0.00000000000E+00 -0.00000000000E+00 -0.74505805969E-08  0.93827000000E+00  0.93827000000E+00 0.  1.
     999902    2    1    2    0    0  0.48700551385E-02 -0.22481704957E-01 -0.67636127346E-02  0.10199531163E+01  0.10196712551E+01 0.  0.
     999903    2    3    3    0    0  0.47659980268E-01 -0.12091457584E+00  0.19828228301E-01  0.13303308959E+00  0.20318364061E-01 0.  0.
         14    1    1    2    0    0 -0.48700551385E-02  0.22481704957E-01  0.67636127346E-02  0.23976883702E-01  0.00000000000E+00 0.  1.
     999901    1    3    3    0    0 -0.42789925130E-01  0.98432870886E-01 -0.26591841036E-01  0.88692002671E+00  0.88000000000E+00 0.  1.
        -11    1    4    4    0    0  0.82534860205E-02 -0.47578007919E-01  0.70425438322E-02  0.48802104602E-01  0.51100000000E-03 0. -1.
         11    1    4    4    0    0  0.39406494248E-01 -0.73336567925E-01  0.12785684469E-01  0.84230984989E-01  0.51100000000E-03 0.  1.
</event>
<event>
 8    1  0.1208168E+005  0.1043930E+01  0.7957747E-01            NaN
         13   -1    0    0    0    0  0.00000000000E+00  0.00000000000E+00  0.74505805969E-08  0.10566000000E+00  0.10566000000E+00 0. -1.
     999900   -1    0    0    0    0 -0.00000000000E+00 -0.00000000000E+00 -0.74505805969E-08  0.93827000000E+00  0.93827000000E+00 0. -1.
     999902    2    1    2    0    0  0.81289882437E-02 -0.20214819323E-01 -0.90828057359E-02  0.10203245614E+01  0.10200514663E+01 0.  0.
     999903    2    3    3    0    0  0.12157960633E+00 -0.39143744128E-01  0.26929177425E-01  0.13210937924E+00  0.20343896034E-01 0.  0.
         14    1    1    2    0    0 -0.81289882437E-02  0.20214819323E-01  0.90828057359E-02  0.23605438572E-01  0.00000000000E+00 0. -1.
     999901    1    3    3    0    0 -0.11345061809E+00  0.18928924804E-01 -0.36011983161E-01  0.88821518219E+00  0.88000000000E+00 0. -1.
        -11    1    4    4    0    0  0.96854003612E-01 -0.38927831578E-01  0.18720632023E-01  0.10605091830E+00  0.51100000000E-03 0.  1.
         11    1    4    4    0    0  0.24725602721E-01 -0.21591254979E-03  0.82085454015E-02  0.26058460944E-01  0.51100000000E-03 0. -1.
</event>
<event>
 8    1  0.1208168E+005  0.1043930E+01  0.7957747E-01            NaN
         13   -1    0    0    0    0  0.00000000000E+00  0.00000000000E+00  0.74505805969E-08  0.10566000000E+00  0.10566000000E+00 0.  1.
     999900   -1    0    0    0    0 -0.00000000000E+00 -0.00000000000E+00 -0.74505805969E-08  0.93827000000E+00  0.93827000000E+00 0. -1.
     999902    2    1    2    0    0 -0.18355206753E-01  0.58199494847E-02  0.12557839773E-01  0.10209412035E+01  0.10206823483E+01 0.  0.
     999903    2    3    3    0    0  0.91194778160E-01  0.78196181153E-01 -0.43970965250E-01  0.12940599725E+00  0.19527827010E-01 0.  0.
         14    1    1    2    0    0  0.18355206753E-01 -0.58199494847E-02 -0.12557839773E-01  0.22988796548E-01  0.00000000000E+00 0. -1.
     999901    1    3    3    0    0 -0.10954998491E+00 -0.72376231669E-01  0.56528805024E-01  0.89153520620E+00  0.88000000000E+00 0.  1.
        -11    1    4    4    0    0  0.17359764872E-01  0.64868401961E-02 -0.38469366122E-02  0.18934111398E-01  0.51100000000E-03 0. -1.
         11    1    4    4    0    0  0.73835013289E-01  0.71709340957E-01 -0.40124028638E-01  0.11047188585E+00  0.51100000000E-03 0.  1.
</event>
<event>
 8    1  0.1208168E+005  0.1043930E+01  0.7957747E-01            NaN
         13   -1    0    0    0    0  0.00000000000E+00  0.00000000000E+00  0.74505805969E-08  0.10566000000E+00  0.10566000000E+00 0.  1.
     999900   -1    0    0    0    0 -0.00000000000E+00 -0.00000000000E+00 -0.74505805969E-08  0.93827000000E+00  0.93827000000E+00 0. -1.
     999902    2    1    2    0    0 -0.18812065627E-01 -0.14367920629E-01 -0.15399684604E-02  0.10202086497E+01  0.10199328343E+01 0.  0.
     999903    2    3    3    0    0  0.66369888768E-01  0.46612076981E-01  0.97634860760E-01  0.12846307377E+00  0.19812809807E-01 0.  0.
         14    1    1    2    0    0  0.18812065627E-01  0.14367920629E-01  0.15399684604E-02  0.23721350283E-01  0.00000000000E+00 0.  1.
     999901    1    3    3    0    0 -0.85181954395E-01 -0.60979997610E-01 -0.99174829220E-01  0.89174557594E+00  0.88000000000E+00 0. -1.
        -11    1    4    4    0    0  0.43069350616E-01  0.29214702994E-01  0.47288839501E-01  0.70320432990E-01  0.51100000000E-03 0. -1.
         11    1    4    4    0    0  0.23300538152E-01  0.17397373987E-01  0.50346021259E-01  0.58142640785E-01  0.51100000000E-03 0.  1.
</event>
<event>
 8    1  0.1208168E+005  0.1043930E+01  0.7957747E-01            NaN
         13   -1    0    0    0    0  0.00000000000E+00  0.00000000000E+00  0.74505805969E-08  0.10566000000E+00  0.10566000000E+00 0. -1.
     999900   -1    0    0    0    0 -0.00000000000E+00 -0.00000000000E+00 -0.74505805969E-08  0.93827000000E+00  0.93827000000E+00 0. -1.
     999902    2    1    2    0    0 -0.19679836393E-01  0.12292444597E-01 -0.51829688178E-02  0.10201547330E+01  0.10198776475E+01 0.  0.
     999903    2    3    3    0    0  0.54258835509E-01 -0.85009747557E-01 -0.75244026711E-01  0.12895150387E+00  0.28216101502E-01 0.  0.
         14    1    1    2    0    0  0.19679836393E-01 -0.12292444597E-01  0.51829688178E-02  0.23775266989E-01  0.00000000000E+00 0. -1.
     999901    1    3    3    0    0 -0.73938671902E-01  0.97302192154E-01  0.70061057893E-01  0.89120322914E+00  0.88000000000E+00 0.  1.
        -11    1    4    4    0    0  0.10634829183E-01 -0.33932127143E-01 -0.38395979980E-01  0.52335468316E-01  0.51100000000E-03 0.  1.
         11    1    4    4    0    0  0.43624006325E-01 -0.51077620415E-01 -0.36848046730E-01  0.76616035554E-01  0.51100000000E-03 0. -1.
</event>
<event>
 8    1  0.1208168E+005  0.1043930E+01  0.7957747E-01            NaN
         13   -1    0    0    0    0  0.00000000000E+00  0.00000000000E+00  0.74505805969E-08  0.10566000000E+00  0.10566000000E+00 0. -1.
     999900   -1    0    0    0    0 -0.00000000000E+00 -0.00000000000E+00 -0.74505805969E-08  0.93827000000E+00  0.93827000000E+00 0.  1.
     999902    2    1    2    0    0  0.57891407884E-02 -0.18256737744E-01  0.16389384330E-01  0.10187221730E+01  0.10184102470E+01 0.  0.
     999903    2    3    3    0    0 -0.70013653440E-02  0.12435374665E+00  0.15577919330E-01  0.12714940210E+00  0.20283625476E-01 0.  0.
         14    1    1    2    0    0 -0.57891407884E-02  0.18256737744E-01 -0.16389384330E-01  0.25207827016E-01  0.00000000000E+00 0.  1.
     999901    1    3    3    0    0  0.12790506132E-01 -0.14261048439E+00  0.81146500032E-03  0.89157277088E+00  0.88000000000E+00 0. -1.
        -11    1    4    4    0    0 -0.98545160216E-02  0.41620702235E-01  0.11364633818E-01  0.44258449627E-01  0.51100000000E-03 0.  1.
         11    1    4    4    0    0  0.28531506776E-02  0.82733044411E-01  0.42132855122E-02  0.82890952474E-01  0.51100000000E-03 0. -1.
</event>
<event>
 8    1  0.1208168E+005  0.1043930E+01  0.7957747E-01            NaN
         13   -1    0    0    0    0  0.00000000000E+00  0.00000000000E+00  0.74505805969E-08  0.10566000000E+00  0.10566000000E+00 0. -1.
     999900   -1    0    0    0    0 -0.00000000000E+00 -0.00000000000E+00 -0.74505805969E-08  0.93827000000E+00  0.93827000000E+00 0.  1.
     999902    2    1    2    0    0  0.22241576958E-01 -0.91304321225E-02  0.48659691769E-03  0.10198823533E+01  0.10195988060E+01 0.  0.
     999903    2    3    3    0    0  0.11349471738E+00 -0.56391580233E-01  0.35846193497E-01  0.13319692268E+00  0.19884904559E-01 0.  0.
         14    1    1    2    0    0 -0.22241576958E-01  0.91304321225E-02 -0.48659691769E-03  0.24047646723E-01  0.00000000000E+00 0. -1.
     999901    1    3    3    0    0 -0.91253140423E-01  0.47261148110E-01 -0.35359596579E-01  0.88668543059E+00  0.88000000000E+00 0.  1.
        -11    1    4    4    0    0  0.81628483793E-01 -0.35077875008E-01  0.32899558942E-01  0.94743383838E-01  0.51100000000E-03 0.  1.
         11    1    4    4    0    0  0.31866233589E-01 -0.21313705224E-01  0.29466345546E-02  0.38453538845E-01  0.51100000000E-03 0. -1.
</event>
<event>
 8    1  0.1208168E+005  0.1043930E+01  0.7957747E-01            NaN
         13   -1    0    0    0    0  0.00000000000E+00  0.00000000000E+00  0.74505805969E-08  0.10566000000E+00  0.10566000000E+00 0. -1.
     999900   -1    0    0    0    0 -0.00000000000E+00 -0.00000000000E+00 -0.74505805969E-08  0.93827000000E+00  0.93827000000E+00 0.  1.
     999902    2    1    2    0    0  0.20295457428E-01 -0.66449465553E-02  0.10239517686E-01  0.10202464903E+01  0.10199715645E+01 0.  0.
     999903    2    3    3    0    0  0.80862422003E-01 -0.12666293044E-01 -0.10077220679E+00  0.13118619049E+00  0.18857694543E-01 0.  0.
         14    1    1    2    0    0 -0.20295457428E-01  0.66449465553E-02 -0.10239517686E-01  0.23683509651E-01  0.00000000000E+00 0. -1.
     999901    1    3    3    0    0 -0.60566964575E-01  0.60213464882E-02  0.11101172447E+00  0.88906029986E+00  0.88000000000E+00 0. -1.
        -11    1    4    4    0    0  0.75871749855E-01 -0.67800013498E-02 -0.93091051119E-01  0.12028589179E+00  0.51100000000E-03 0.  1.
         11    1    4    4    0    0  0.49906721482E-02 -0.58862916937E-02 -0.76811556674E-02  0.10900298701E-01  0.51100000000E-03 0. -1.
</event>
<event>
 8    1  0.1208168E+005  0.1043930E+01  0.7957747E-01            NaN
         13   -1    0    0    0    0  0.00000000000E+00  0.00000000000E+00  0.74505805969E-08  0.10566000000E+00  0.10566000000E+00 0.  1.
     999900   -1    0    0    0    0 -0.00000000000E+00 -0.00000000000E+00 -0.74505805969E-08  0.93827000000E+00  0.93827000000E+00 0.  1.
     999902    2    1    2    0    0  0.21363290792E-01  0.75774720878E-02 -0.69992405418E-02  0.10202066435E+01  0.10199307809E+01 0.  0.
     999903    2    3    3    0    0  0.32636287292E-01  0.12426080182E+00  0.22164850912E-01  0.13195407572E+00  0.20364757951E-01 0.  0.
         14    1    1    2    0    0 -0.21363290792E-01 -0.75774720878E-02  0.69992405418E-02  0.23723356526E-01  0.00000000000E+00 0. -1.
     999901    1    3    3    0    0 -0.11272996500E-01 -0.11668332973E+00 -0.29164091454E-01  0.88825256775E+00  0.88000000000E+00 0.  1.
        -11    1    4    4    0    0  0.12672284711E-01  0.68216101291E-01  0.20823764392E-01  0.72442484494E-01  0.51100000000E-03 0.  1.
         11    1    4    4    0    0  0.19964002581E-01  0.56044700529E-01  0.13410865205E-02  0.59511591228E-01  0.51100000000E-03 0. -1.
</event>
<event>
 7    1  0.1208168E+005  0.1043930E+01  0.7957747E-01            NaN
         13   -1    0    0    0    0  0.00000000000E+00  0.00000000000E+00  0.74505805969E-08  0.10566000000E+00  0.10566000000E+00 0.  1.
     999900   -1    0    0    0    0 -0.00000000000E+00 -0.00000000000E+00 -0.74505805969E-08  0.93827000000E+00  0.93827000000E+00 0.  1.
     999902    2    1    2    0    0 -0.88490082786E-02  0.17031321960E-01  0.13993533813E-01  0.10201773188E+01  0.10199007657E+01 0.  0.
         14    1    1    2    0    0  0.88490082786E-02 -0.17031321960E-01 -0.13993533813E-01  0.23752681192E-01  0.00000000000E+00 0. -1.
     999901    1    3    3    0    0  0.54290254474E-01 -0.84458763202E-01  0.21437030039E-01  0.88596854384E+00  0.88000000000E+00 0.  1.
        -11    1    3    3    0    0 -0.15040054210E-01  0.60992000500E-01  0.19531065202E-01  0.65787164284E-01  0.51100000000E-03 0.  1.
         11    1    3    3    0    0 -0.48099208543E-01  0.40498084662E-01 -0.26974561429E-01  0.68421610687E-01  0.51100000000E-03 0. -1.
</event>
<event>
 8    1  0.1208168E+005  0.1043930E+01  0.7957747E-01            NaN
         13   -1    0    0    0    0  0.00000000000E+00  0.00000000000E+00  0.74505805969E-08  0.10566000000E+00  0.10566000000E+00 0. -1.
     999900   -1    0    0    0    0 -0.00000000000E+00 -0.00000000000E+00 -0.74505805969E-08  0.93827000000E+00  0.93827000000E+00 0. -1.
     999902    2    1    2    0    0  0.14640537921E-01 -0.17319991258E-01 -0.60458317789E-02  0.10204591771E+01  0.10201892239E+01 0.  0.
     999903    2    3    3    0    0  0.55237693103E-01 -0.11797129517E+00 -0.22583871527E-01  0.13363770644E+00  0.19508359859E-01 0.  0.
         14    1    1    2    0    0 -0.14640537921E-01  0.17319991258E-01  0.60458317789E-02  0.23470822945E-01  0.00000000000E+00 0. -1.
     999901    1    3    3    0    0 -0.40597155182E-01  0.10065130392E+00  0.16538039748E-01  0.88682147062E+00  0.88000000000E+00 0. -1.
        -11    1    4    4    0    0  0.24154993274E-01 -0.30962561481E-01 -0.83679990174E-02  0.40155055000E-01  0.51100000000E-03 0. -1.
         11    1    4    4    0    0  0.31082699829E-01 -0.87008733694E-01 -0.14215872509E-01  0.93482651438E-01  0.51100000000E-03 0.  1.
</event>
<event>
 8    1  0.1208168E+005  0.1043930E+01  0.7957747E-01            NaN
         13   -1    0    0    0    0  0.00000000000E+00  0.00000000000E+00  0.74505805969E-08  0.10566000000E+00  0.10566000000E+00 0.  1.
     999900   -1    0    0    0    0 -0.00000000000E+00 -0.00000000000E+00 -0.74505805969E-08  0.93827000000E+00  0.93827000000E+00 0. -1.
     999902    2    1    2    0    0 -0.94120133837E-02 -0.19577667348E-01 -0.76883707087E-02  0.10208869512E+01  0.10206268588E+01 0.  0.
     999903    2    3    3    0    0  0.89719526203E-01 -0.73669309773E-01 -0.59769436719E-01  0.13214322808E+00  0.20314688679E-01 0.  0.
         14    1    1    2    0    0  0.94120133837E-02  0.19577667348E-01  0.76883707087E-02  0.23043048819E-01  0.00000000000E+00 0.  1.
     999901    1    3    3    0    0 -0.99131539587E-01  0.54091642425E-01  0.52081066011E-01  0.88874372310E+00  0.88000000000E+00 0. -1.
        -11    1    4    4    0    0  0.17654738618E-01 -0.52870683348E-02 -0.77185593742E-02  0.19986999951E-01  0.51100000000E-03 0. -1.
         11    1    4    4    0    0  0.72064787585E-01 -0.68382241438E-01 -0.52050877345E-01  0.11215622813E+00  0.51100000000E-03 0.  1.
</event>
<event>
 8    1  0.1208168E+005  0.1043930E+01  0.7957747E-01            NaN
         13   -1    0    0    0    0  0.00000000000E+00  0.00000000000E+00  0.74505805969E-08  0.10566000000E+00  0.10566000000E+00 0. -1.
     999900   -1    0    0    0    0 -0.00000000000E+00 -0.00000000000E+00 -0.74505805969E-08  0.93827000000E+00  0.93827000000E+00 0.  1.
     999902    2    1    2    0    0 -0.47514158105E-02  0.19303093283E-01  0.12262072161E-01  0.10205731214E+01  0.10203058132E+01 0.  0.
     999903    2    3    3    0    0  0.79153156897E-01  0.18693342767E-01 -0.99486816451E-01  0.12954665538E+00  0.16433075209E-01 0.  0.
         14    1    1    2    0    0  0.47514158105E-02 -0.19303093283E-01 -0.12262072161E-01  0.23356878563E-01  0.00000000000E+00 0.  1.
     999901    1    3    3    0    0 -0.83904572707E-01  0.60975051603E-03  0.11174888861E+00  0.89102646606E+00  0.88000000000E+00 0. -1.
        -11    1    4    4    0    0  0.48684119347E-01  0.19500996048E-01 -0.60891168052E-01  0.80364344029E-01  0.51100000000E-03 0.  1.
         11    1    4    4    0    0  0.30469037550E-01 -0.80765328089E-03 -0.38595648399E-01  0.49182311346E-01  0.51100000000E-03 0. -1.
</event>
<event>
 8    1  0.1208168E+005  0.1043930E+01  0.7957747E-01            NaN
         13   -1    0    0    0    0  0.00000000000E+00  0.00000000000E+00  0.74505805969E-08  0.10566000000E+00  0.10566000000E+00 0. -1.
     999900   -1    0    0    0    0 -0.00000000000E+00 -0.00000000000E+00 -0.74505805969E-08  0.93827000000E+00  0.93827000000E+00 0. -1.
     999902    2    1    2    0    0  0.18002410229E-01 -0.11740829507E-01  0.93802445463E-02  0.10204795663E+01  0.10202100874E+01 0.  0.
     999903    2    3    3    0    0  0.16930176729E-01  0.28084707004E-01 -0.12370564780E+00  0.12958166096E+00  0.20320873752E-01 0.  0.
         14    1    1    2    0    0 -0.18002410229E-01  0.11740829507E-01 -0.93802445463E-02  0.23450433670E-01  0.00000000000E+00 0.  1.
     999901    1    3    3    0    0  0.10722335001E-02 -0.39825536511E-01  0.13308589234E+00  0.89089790536E+00  0.88000000000E+00 0.  1.
        -11    1    4    4    0    0  0.14438301207E-01  0.22369226262E-01 -0.11846396776E+00  0.12142001320E+00  0.51100000000E-03 0. -1.
         11    1    4    4    0    0  0.24918755218E-02  0.57154807415E-02 -0.52416800322E-02  0.81616477676E-02  0.51100000000E-03 0.  1.
</event>
<event>
 8    1  0.1208168E+005  0.1043930E+01  0.7957747E-01            NaN
         13   -1    0    0    0    0  0.00000000000E+00  0.00000000000E+00  0.74505805969E-08  0.10566000000E+00  0.10566000000E+00 0. -1.
     999900   -1    0    0    0    0 -0.00000000000E+00 -0.00000000000E+00 -0.74505805969E-08  0.93827000000E+00  0.93827000000E+00 0. -1.
     999902    2    1    2    0    0  0.35412473677E-02 -0.18103037338E-01 -0.13430413566E-01  0.10211125417E+01  0.10208575740E+01 0.  0.
     999903    2    3    3    0    0 -0.25254095723E-01 -0.50562392415E-01 -0.11967912652E+00  0.13366024975E+00  0.18645218194E-01 0.  0.
         14    1    1    2    0    0 -0.35412473677E-02  0.18103037338E-01  0.13430413566E-01  0.22817458280E-01  0.00000000000E+00 0. -1.
     999901    1    3    3    0    0  0.28795343091E-01  0.32459355077E-01  0.10624871295E+00  0.88745229197E+00  0.88000000000E+00 0.  1.
        -11    1    4    4    0    0 -0.54425620017E-02 -0.20930051755E-01 -0.63901892394E-01  0.67464075775E-01  0.51100000000E-03 0. -1.
         11    1    4    4    0    0 -0.19811533722E-01 -0.29632340661E-01 -0.55777234126E-01  0.66196173977E-01  0.51100000000E-03 0.  1.
</event>
<event>
 8    1  0.1208168E+005  0.1043930E+01  0.7957747E-01            NaN
         13   -1    0    0    0    0  0.00000000000E+00  0.00000000000E+00  0.74505805969E-08  0.10566000000E+00  0.10566000000E+00 0.  1.
     999900   -1    0    0    0    0 -0.00000000000E+00 -0.00000000000E+00 -0.74505805969E-08  0.93827000000E+00  0.93827000000E+00 0. -1.
     999902    2    1    2    0    0  0.22023548721E-01 -0.81388279081E-02 -0.97912703356E-02  0.10184909318E+01  0.10181731836E+01 0.  0.
     999903    2    3    3    0    0  0.52793410217E-01 -0.86971781973E-01  0.78434147167E-01  0.13003995207E+00  0.20180155369E-01 0.  0.
         14    1    1    2    0    0 -0.22023548721E-01  0.81388279081E-02  0.97912703356E-02  0.25439068237E-01  0.00000000000E+00 0.  1.
     999901    1    3    3    0    0 -0.30769861496E-01  0.78832954065E-01 -0.88225417503E-01  0.88845097969E+00  0.88000000000E+00 0. -1.
        -11    1    4    4    0    0  0.14010689999E-01 -0.33455734979E-01  0.38123770531E-01  0.52623840964E-01  0.51100000000E-03 0. -1.
         11    1    4    4    0    0  0.38782720218E-01 -0.53516046994E-01  0.40310376636E-01  0.77416111107E-01  0.51100000000E-03 0.  1.
</event>
<event>
 8    1  0.1208168E+005  0.1043930E+01  0.7957747E-01            NaN
         13   -1    0    0    0    0  0.00000000000E+00  0.00000000000E+00  0.74505805969E-08  0.10566000000E+00  0.10566000000E+00 0. -1.
     999900   -1    0    0    0    0 -0.00000000000E+00 -0.00000000000E+00 -0.74505805969E-08  0.93827000000E+00  0.93827000000E+00 0. -1.
     999902    2    1    2    0    0 -0.12293285990E-01 -0.13867577029E-01 -0.14480688011E-01  0.10204113925E+01  0.10201403262E+01 0.  0.
     999903    2    3    3    0    0  0.11387541329E+00 -0.59610870150E-01 -0.65905894362E-02  0.13020173001E+00  0.19697437311E-01 0.  0.
         14    1    1    2    0    0  0.12293285990E-01  0.13867577029E-01  0.14480688011E-01  0.23518607492E-01  0.00000000000E+00 0. -1.
     999901    1    3    3    0    0 -0.12616869928E+00  0.45743293121E-01 -0.78900985751E-02  0.89020966250E+00  0.88000000000E+00 0. -1.
        -11    1    4    4    0    0  0.10208934773E+00 -0.57859457479E-01 -0.18315480470E-02  0.11736084283E+00  0.51100000000E-03 0. -1.
         11    1    4    4    0    0  0.11786065560E-01 -0.17514126711E-02 -0.47590413892E-02  0.12840887184E-01  0.51100000000E-03 0.  1.
</event>
<event>
 8    1  0.1208168E+005  0.1043930E+01  0.7957747E-01            NaN
         13   -1    0    0    0    0  0.00000000000E+00  0.00000000000E+00  0.74505805969E-08  0.10566000000E+00  0.10566000000E+00 0. -1.
     999900   -1    0    0    0    0 -0.00000000000E+00 -0.00000000000E+00 -0.74505805969E-08  0.93827000000E+00  0.93827000000E+00 0. -1.
     999902    2    1    2    0    0 -0.84974610034E-02 -0.22545173745E-01 -0.26522174351E-02  0.10196910652E+01  0.10194029343E+01 0.  0.
     999903    2    3    3    0    0 -0.87242487151E-01 -0.87955058010E-01 -0.43557931811E-01  0.13281310879E+00  0.19866671826E-01 0.  0.
         14    1    1    2    0    0  0.84974610034E-02  0.22545173745E-01  0.26522174351E-02  0.24238934795E-01  0.00000000000E+00 0.  1.
     999901    1    3    3    0    0  0.78745026148E-01  0.65409884265E-01  0.40905714376E-01  0.88687795641E+00  0.88000000000E+00 0. -1.
        -11    1    4    4    0    0 -0.72637062197E-01 -0.72120579182E-01 -0.27651309947E-01  0.10603007502E+00  0.51100000000E-03 0. -1.
         11    1    4    4    0    0 -0.14605424954E-01 -0.15834478828E-01 -0.15906621864E-01  0.26783033771E-01  0.51100000000E-03 0.  1.
</event>
<event>
 8    1  0.1208168E+005  0.1043930E+01  0.7957747E-01            NaN
         13   -1    0    0    0    0  0.00000000000E+00  0.00000000000E+00  0.74505805969E-08  0.10566000000E+00  0.10566000000E+00 0.  1.
     999900   -1    0    0    0    0 -0.00000000000E+00 -0.00000000000E+00 -0.74505805969E-08  0.93827000000E+00  0.93827000000E+00 0.  1.
     999902    2    1    2    0    0 -0.64576138928E-02  0.13315596999E-01  0.18134548591E-01  0.10205234250E+01  0.10202549648E+01 0.  0.
     999903    2    3    3    0    0  0.64463512123E-01 -0.10188838184E-01 -0.10870571072E+00  0.12829547432E+00  0.19581633449E-01 0.  0.
         14    1    1    2    0    0  0.64576138928E-02 -0.13315596999E-01 -0.18134548591E-01  0.23406575000E-01  0.00000000000E+00 0. -1.
     999901    1    3    3    0    0 -0.70921126016E-01  0.23504435183E-01  0.12684025932E+00  0.89222795068E+00  0.88000000000E+00 0. -1.
        -11    1    4    4    0    0  0.31437587089E-01 -0.59692209477E-03 -0.68578533205E-01  0.75445043148E-01  0.51100000000E-03 0.  1.
         11    1    4    4    0    0  0.33025925034E-01 -0.95919160897E-02 -0.40127177519E-01  0.52850431174E-01  0.51100000000E-03 0. -1.
</event>
<event>
 8    1  0.1208168E+005  0.1043930E+01  0.7957747E-01            NaN
         13   -1    0    0    0    0  0.00000000000E+00  0.00000000000E+00  0.74505805969E-08  0.10566000000E+00  0.10566000000E+00 0.  1.
     999900   -1    0    0    0    0 -0.00000000000E+00 -0.00000000000E+00 -0.74505805969E-08  0.93827000000E+00  0.93827000000E+00 0.  1.
     999902    2    1    2    0    0 -0.52844106455E-02 -0.18538629369E-01  0.11035550123E-01  0.10217176354E+01  0.10214761560E+01 0.  0.
     999903    2    3    3    0    0 -0.11611539662E+00 -0.52107585754E-01  0.35338706800E-01  0.13379814259E+00  0.21333844877E-01 0.  0.
         14    1    1    2    0    0  0.52844106455E-02  0.18538629369E-01 -0.11035550123E-01  0.22212364603E-01  0.00000000000E+00 0. -1.
     999901    1    3    3    0    0  0.11083098597E+00  0.33568956385E-01 -0.24303156677E-01  0.88791949281E+00  0.88000000000E+00 0.  1.
        -11    1    4    4    0    0 -0.63682949882E-01 -0.40088360695E-01  0.20497683452E-01  0.77993659465E-01  0.51100000000E-03 0.  1.
         11    1    4    4    0    0 -0.52432446736E-01 -0.12019225059E-01  0.14841023348E-01  0.55804483124E-01  0.51100000000E-03 0. -1.
</event>
<event>
 8    1  0.1208168E+005  0.1043930E+01  0.7957747E-01            NaN
         13   -1    0    0    0    0  0.00000000000E+00  0.00000000000E+00  0.74505805969E-08  0.10566000000E+00  0.10566000000E+00 0. -1.
     999900   -1    0    0    0    0 -0.00000000000E+00 -0.00000000000E+00 -0.74505805969E-08  0.93827000000E+00  0.93827000000E+00 0. -1.
     999902    2    1    2    0    0 -0.45601412161E-02  0.20902533219E-01 -0.94848190440E-02  0.10205275947E+01  0.10202592312E+01 0.  0.
     999903    2    3    3    0    0 -0.52740551764E-01 -0.21943149758E-02 -0.11943543533E+00  0.13207728409E+00  0.19829395904E-01 0.  0.
         14    1    1    2    0    0  0.45601412161E-02 -0.20902533219E-01  0.94848190440E-02  0.23402405329E-01  0.00000000000E+00 0. -1.
     999901    1    3    3    0    0  0.48180410548E-01  0.23096848194E-01  0.10995061628E+00  0.88845031058E+00  0.88000000000E+00 0.  1.
        -11    1    4    4    0    0 -0.29860292582E-01 -0.43781912476E-02 -0.45104979608E-01  0.54272699750E-01  0.51100000000E-03 0.  1.
         11    1    4    4    0    0 -0.22880259182E-01  0.21838762718E-02 -0.74330455717E-01  0.77804584337E-01  0.51100000000E-03 0. -1.
</event>
<event>
 8    1  0.1208168E+005  0.1043930E+01  0.7957747E-01            NaN
         13   -1    0    0    0    0  0.00000000000E+00  0.00000000000E+00  0.74505805969E-08  0.10566000000E+00  0.10566000000E+00 0. -1.
     999900   -1    0    0    0    0 -0.00000000000E+00 -0.00000000000E+00 -0.74505805969E-08  0.93827000000E+00  0.93827000000E+00 0. -1.
     999902    2    1    2    0    0 -0.10080261327E-01 -0.17760061684E-01  0.13130453296E-01  0.10196516091E+01  0.10193625281E+01 0.  0.
     999903    2    3    3    0    0  0.86618380240E-01  0.22154224408E-01 -0.88833815148E-01  0.12760873485E+00  0.19974710059E-01 0.  0.
         14    1    1    2    0    0  0.10080261327E-01  0.17760061684E-01 -0.13130453296E-01  0.24278390869E-01  0.00000000000E+00 0.  1.
     999901    1    3    3    0    0 -0.96698641567E-01 -0.39914286092E-01  0.10196426844E+00  0.89204287428E+00  0.88000000000E+00 0.  1.
        -11    1    4    4    0    0  0.34494598031E-01  0.47959072346E-04 -0.40159232510E-01  0.52942465660E-01  0.51100000000E-03 0. -1.
         11    1    4    4    0    0  0.52123782209E-01  0.22106265335E-01 -0.48674582638E-01  0.74666269191E-01  0.51100000000E-03 0.  1.
</event>
<event>
 8    1  0.1208168E+005  0.1043930E+01  0.7957747E-01            NaN
         13   -1    0    0    0    0  0.00000000000E+00  0.00000000000E+00  0.74505805969E-08  0.10566000000E+00  0.10566000000E+00 0.  1.
     999900   -1    0    0    0    0 -0.00000000000E+00 -0.00000000000E+00 -0.74505805969E-08  0.93827000000E+00  0.93827000000E+00 0.  1.
     999902    2    1    2    0    0  0.30566653027E-02  0.45629462888E-02  0.23016597717E-01  0.10202672138E+01  0.10199927745E+01 0.  0.
     999903    2    3    3    0    0 -0.11594173508E-01  0.28548701523E-01  0.12837698902E+00  0.13353682883E+00  0.20049441986E-01 0.  0.
         14    1    1    2    0    0 -0.30566653027E-02 -0.45629462888E-02 -0.23016597717E-01  0.23662786228E-01  0.00000000000E+00 0. -1.
     999901    1    3    3    0    0  0.14650838811E-01 -0.23985755235E-01 -0.10536039131E+00  0.88673038495E+00  0.88000000000E+00 0.  1.
        -11    1    4    4    0    0  0.26603319405E-02  0.14964862451E-01  0.35951944062E-01  0.39036237998E-01  0.51100000000E-03 0. -1.
         11    1    4    4    0    0 -0.14254505448E-01  0.13583839072E-01  0.92425044962E-01  0.94500590827E-01  0.51100000000E-03 0.  1.
</event>
<event>
 8    1  0.1208168E+005  0.1043930E+01  0.7957747E-01            NaN
         13   -1    0    0    0    0  0.00000000000E+00  0.00000000000E+00  0.74505805969E-08  0.10566000000E+00  0.10566000000E+00 0. -1.
     999900   -1    0    0    0    0 -0.00000000000E+00 -0.00000000000E+00 -0.74505805969E-08  0.93827000000E+00  0.93827000000E+00 0.  1.
     999902    2    1    2    0    0 -0.92244565014E-02  0.77605823216E-02 -0.20540549947E-01  0.10201133792E+01  0.10198353176E+01 0.  0.
     999903    2    3    3    0    0 -0.11279952029E+00 -0.40538204301E-02 -0.66555413067E-01  0.13276635484E+00  0.21380288409E-01 0.  0.
         14    1    1    2    0    0  0.92244565014E-02 -0.77605823216E-02  0.20540549947E-01  0.23816620831E-01  0.00000000000E+00 0. -1.
     999901    1    3    3    0    0  0.10357506379E+00  0.11814402752E-01  0.46014863121E-01  0.88734702433E+00  0.88000000000E+00 0. -1.
        -11    1    4    4    0    0 -0.32716277698E-01  0.68413548655E-02 -0.25943044441E-01  0.42313846890E-01  0.51100000000E-03 0. -1.
         11    1    4    4    0    0 -0.80083242590E-01 -0.10895175296E-01 -0.40612368627E-01  0.90452507953E-01  0.51100000000E-03 0.  1.
</event>
<event>
 8    1  0.1208168E+005  0.1043930E+01  0.7957747E-01            NaN
         13   -1    0    0    0    0  0.00000000000E+00  0.00000000000E+00  0.74505805969E-08  0.10566000000E+00  0.10566000000E+00 0.  1.
     999900   -1    0    0    0    0 -0.00000000000E+00 -0.00000000000E+00 -0.74505805969E-08  0.93827000000E+00  0.93827000000E+00 0.  1.
     999902    2    1    2    0    0  0.14661716273E-01 -0.43028367807E-02 -0.92217121838E-02  0.10260828629E+01  0.10259276393E+01 0.  0.
     999903    2    3    3    0    0  0.87397227134E-01 -0.95139883169E-01  0.42004441340E-01  0.13694511069E+00  0.17312353071E-01 0.  0.
         14    1    1    2    0    0 -0.14661716273E-01  0.43028367807E-02  0.92217121838E-02  0.17847137138E-01  0.00000000000E+00 0.  1.
     999901    1    3    3    0    0 -0.72735510861E-01  0.90837046388E-01 -0.51226153524E-01  0.88913775217E+00  0.88000000000E+00 0.  1.
        -11    1    4    4    0    0  0.24705708861E-01 -0.38762543922E-01  0.16823086750E-01  0.48950834829E-01  0.51100000000E-03 0.  1.
         11    1    4    4    0    0  0.62691518273E-01 -0.56377339246E-01  0.25181354590E-01  0.87994275858E-01  0.51100000000E-03 0. -1.
</event>
<event>
 8    1  0.1208168E+005  0.1043930E+01  0.7957747E-01            NaN
         13   -1    0    0    0    0  0.00000000000E+00  0.00000000000E+00  0.74505805969E-08  0.10566000000E+00  0.10566000000E+00 0.  1.
     999900   -1    0    0    0    0 -0.00000000000E+00 -0.00000000000E+00 -0.74505805969E-08  0.93827000000E+00  0.93827000000E+00 0.  1.
     999902    2    1    2    0    0 -0.44720730541E-02 -0.19029705993E-01 -0.21953486558E-01  0.10145346820E+01  0.10141087399E+01 0.  0.
     999903    2    3    3    0    0  0.47239396498E-01  0.10700467149E+00 -0.30968708997E-01  0.12400674049E+00  0.27148673058E-01 0.  0.
         14    1    1    2    0    0  0.44720730541E-02  0.19029705993E-01  0.21953486558E-01  0.29395317988E-01  0.00000000000E+00 0.  1.
     999901    1    3    3    0    0 -0.51711469552E-01 -0.12603437748E+00  0.90152224393E-02  0.89052794152E+00  0.88000000000E+00 0. -1.
        -11    1    4    4    0    0  0.34148700550E-01  0.53717129159E-01 -0.26500837090E-01  0.68950846273E-01  0.51100000000E-03 0. -1.
         11    1    4    4    0    0  0.13090695949E-01  0.53287542330E-01 -0.44678719068E-02  0.55055894220E-01  0.51100000000E-03 0.  1.
</event>
<event>
 8    1  0.1208168E+005  0.1043930E+01  0.7957747E-01            NaN
         13   -1    0    0    0    0  0.00000000000E+00  0.00000000000E+00  0.74505805969E-08  0.10566000000E+00  0.10566000000E+00 0. -1.
     999900   -1    0    0    0    0 -0.00000000000E+00 -0.00000000000E+00 -0.74505805969E-08  0.93827000000E+00  0.93827000000E+00 0. -1.
     999902    2    1    2    0    0  0.55849259973E-02  0.13427006138E-01 -0.19018169241E-01  0.10199891008E+01  0.10197080951E+01 0.  0.
     999903    2    3    3    0    0 -0.42145707180E-01 -0.11700013918E+00 -0.29198386217E-01  0.12903843418E+00  0.18250439313E-01 0.  0.
         14    1    1    2    0    0 -0.55849259973E-02 -0.13427006138E-01  0.19018169241E-01  0.23940899179E-01  0.00000000000E+00 0. -1.
     999901    1    3    3    0    0  0.47730633177E-01  0.13042714532E+00  0.10180216976E-01  0.89095066665E+00  0.88000000000E+00 0. -1.
        -11    1    4    4    0    0 -0.38315663069E-01 -0.83069241282E-01 -0.23028294860E-01  0.94335318777E-01  0.51100000000E-03 0.  1.
         11    1    4    4    0    0 -0.38300441108E-02 -0.33930897897E-01 -0.61700913566E-02  0.34703115398E-01  0.51100000000E-03 0. -1.
</event>
<event>
 8    1  0.1208168E+005  0.1043930E+01  0.7957747E-01            NaN
         13   -1    0    0    0    0  0.00000000000E+00  0.00000000000E+00  0.74505805969E-08  0.10566000000E+00  0.10566000000E+00 0. -1.
     999900   -1    0    0    0    0 -0.00000000000E+00 -0.00000000000E+00 -0.74505805969E-08  0.93827000000E+00  0.93827000000E+00 0.  1.
     999902    2    1    2    0    0 -0.22379909634E-01  0.59414115098E-02 -0.58447650478E-02  0.10200485845E+01  0.10197689899E+01 0.  0.
     999903    2    3    3    0    0  0.41430271514E-01  0.94334703486E-01  0.75981300624E-01  0.12955399258E+00  0.19889074120E-01 0.  0.
         14    1    1    2    0    0  0.22379909634E-01 -0.59414115098E-02  0.58447650478E-02  0.23881415461E-01  0.00000000000E+00 0. -1.
     999901    1    3    3    0    0 -0.63810181148E-01 -0.88393291977E-01 -0.81826065672E-01  0.89049459196E+00  0.88000000000E+00 0.  1.
        -11    1    4    4    0    0  0.30098161307E-01  0.84296669868E-01  0.68155956528E-01  0.11250477055E+00  0.51100000000E-03 0. -1.
         11    1    4    4    0    0  0.11332110207E-01  0.10038033618E-01  0.78253440956E-02  0.17049222031E-01  0.51100000000E-03 0.  1.
</event>
<event>
 8    1  0.1208168E+005  0.1043930E+01  0.7957747E-01            NaN
         13   -1    0    0    0    0  0.00000000000E+00  0.00000000000E+00  0.74505805969E-08  0.10566000000E+00  0.10566000000E+00 0. -1.
     999900   -1    0    0    0    0 -0.00000000000E+00 -0.00000000000E+00 -0.74505805969E-08  0.93827000000E+00  0.93827000000E+00 0.  1.
     999902    2    1    2    0    0  0.15296210035E-01  0.18914735998E-01  0.20093404950E-02  0.10195214210E+01  0.10192291936E+01 0.  0.
     999903    2    3    3    0    0 -0.59481243528E-01 -0.76361469300E-01  0.80779224117E-01  0.12774010396E+00  0.20570823674E-01 0.  0.
         14    1    1    2    0    0 -0.15296210035E-01 -0.18914735998E-01 -0.20093404950E-02  0.24408578995E-01  0.00000000000E+00 0.  1.
     999901    1    3    3    0    0  0.74777453563E-01  0.95276205298E-01 -0.78769883622E-01  0.89178131704E+00  0.88000000000E+00 0.  1.
        -11    1    4    4    0    0 -0.26412044223E-01 -0.50288959739E-01  0.48094720837E-01  0.74430765448E-01  0.51100000000E-03 0.  1.
         11    1    4    4    0    0 -0.33069199305E-01 -0.26072509560E-01  0.32684503280E-01  0.53309338517E-01  0.51100000000E-03 0. -1.
</event>
<event>
 8    1  0.1208168E+005  0.1043930E+01  0.7957747E-01            NaN
         13   -1    0    0    0    0  0.00000000000E+00  0.00000000000E+00  0.74505805969E-08  0.10566000000E+00  0.10566000000E+00 0. -1.
     999900   -1    0    0    0    0 -0.00000000000E+00 -0.00000000000E+00 -0.74505805969E-08  0.93827000000E+00  0.93827000000E+00 0.  1.
     999902    2    1    2    0    0  0.11429145586E-01 -0.58458030226E-02 -0.21597055971E-01  0.10188056770E+01  0.10184958398E+01 0.  0.
     999903    2    3    3    0    0  0.56188533897E-01 -0.10597337926E+00  0.44767895166E-01  0.12951762401E+00  0.19574014409E-01 0.  0.
         14    1    1    2    0    0 -0.11429145586E-01  0.58458030226E-02  0.21597055971E-01  0.25124323044E-01  0.00000000000E+00 0. -1.
     999901    1    3    3    0    0 -0.44759388311E-01  0.10012757623E+00 -0.66364951137E-01  0.88928805294E+00  0.88000000000E+00 0. -1.
        -11    1    4    4    0    0  0.30540598299E-01 -0.37217652296E-01  0.18098642551E-01  0.51436405105E-01  0.51100000000E-03 0. -1.
         11    1    4    4    0    0  0.25647935598E-01 -0.68755726961E-01  0.26669252615E-01  0.78081218909E-01  0.51100000000E-03 0.  1.
</event>
<event>
 8    1  0.1208168E+005  0.1043930E+01  0.7957747E-01            NaN
         13   -1    0    0    0    0  0.00000000000E+00  0.00000000000E+00  0.74505805969E-08  0.10566000000E+00  0.10566000000E+00 0. -1.
     999900   -1    0    0    0    0 -0.00000000000E+00 -0.00000000000E+00 -0.74505805969E-08  0.93827000000E+00  0.93827000000E+00 0.  1.
     999902    2    1    2    0    0 -0.15146280829E-01 -0.60196947096E-03  0.18674209752E-01  0.10198780084E+01  0.10195943574E+01 0.  0.
     999903    2    3    3    0    0  0.10625317692E+00 -0.92254104121E-02 -0.65992919713E-01  0.12747635281E+00  0.22810288702E-01 0.  0.
         14    1    1    2    0    0  0.15146280829E-01  0.60196947096E-03 -0.18674209752E-01  0.24051991602E-01  0.00000000000E+00 0.  1.
     999901    1    3    3    0    0 -0.12139945775E+00  0.86234409411E-02  0.84667129465E-01  0.89240165558E+00  0.88000000000E+00 0. -1.
        -11    1    4    4    0    0  0.65484486969E-01 -0.14888975789E-01 -0.48024239680E-01  0.82562027297E-01  0.51100000000E-03 0.  1.
         11    1    4    4    0    0  0.40768689956E-01  0.56635653769E-02 -0.17968680033E-01  0.44914325517E-01  0.51100000000E-03 0. -1.
</event>
<event>
 8    1  0.1208168E+005  0.1043930E+01  0.7957747E-01            NaN
         13   -1    0    0    0    0  0.00000000000E+00  0.00000000000E+00  0.74505805969E-08  0.10566000000E+00  0.10566000000E+00 0.  1.
     999900   -1    0    0    0    0 -0.00000000000E+00 -0.00000000000E+00 -0.74505805969E-08  0.93827000000E+00  0.93827000000E+00 0. -1.
     999902    2    1    2    0    0  0.18292551323E-01 -0.10455496158E-01 -0.57027273862E-02  0.10221021294E+01  0.10218690264E+01 0.  0.
     999903    2    3    3    0    0  0.86945161010E-01 -0.82017775896E-01 -0.59227718783E-01  0.13491597907E+00  0.20199558149E-01 0.  0.
         14    1    1    2    0    0 -0.18292551323E-01  0.10455496158E-01  0.57027273862E-02  0.21827870567E-01  0.00000000000E+00 0. -1.
     999901    1    3    3    0    0 -0.68652609686E-01  0.71562279738E-01  0.53524991396E-01  0.88718615037E+00  0.88000000000E+00 0.  1.
        -11    1    4    4    0    0  0.31940874824E-01 -0.24502899388E-01 -0.10529327468E-01  0.41614173317E-01  0.51100000000E-03 0.  1.
         11    1    4    4    0    0  0.55004286186E-01 -0.57514876509E-01 -0.48698391314E-01  0.93301805750E-01  0.51100000000E-03 0. -1.
</event>
<event>
 8    1  0.1208168E+005  0.1043930E+01  0.7957747E-01            NaN
         13   -1    0    0    0    0  0.00000000000E+00  0.00000000000E+00  0.74505805969E-08  0.10566000000E+00  0.10566000000E+00 0. -1.
     999900   -1    0    0    0    0 -0.00000000000E+00 -0.00000000000E+00 -0.74505805969E-08  0.93827000000E+00  0.93827000000E+00 0.  1.
     999902    2    1    2    0    0 -0.21277768328E-01  0.20220875735E-02 -0.17362347834E-01  0.10163930542E+01  0.10160199590E+01 0.  0.
     999903    2    3    3    0    0  0.67310614510E-01 -0.27418310022E-01 -0.10264168773E+00  0.12735581963E+00  0.20042609205E-01 0.  0.
         14    1    1    2    0    0  0.21277768328E-01 -0.20220875735E-02  0.17362347834E-01  0.27536945827E-01  0.00000000000E+00 0.  1.
     999901    1    3    3    0    0 -0.88588382838E-01  0.29440397596E-01  0.85279339899E-01  0.88903723454E+00  0.88000000000E+00 0. -1.
        -11    1    4    4    0    0  0.21883104563E-01 -0.11113680932E-03 -0.23620739380E-01  0.32203774105E-01  0.51100000000E-03 0.  1.
         11    1    4    4    0    0  0.45427509947E-01 -0.27307173213E-01 -0.79020948352E-01  0.95152045529E-01  0.51100000000E-03 0. -1.
</event>
<event>
 8    1  0.1208168E+005  0.1043930E+01  0.7957747E-01            NaN
         13   -1    0    0    0    0  0.00000000000E+00  0.00000000000E+00  0.74505805969E-08  0.10566000000E+00  0.10566000000E+00 0.  1.
     999900   -1    0    0    0    0 -0.00000000000E+00 -0.00000000000E+00 -0.74505805969E-08  0.93827000000E+00  0.93827000000E+00 0. -1.
     999902    2    1    2    0    0  0.15448668785E-01 -0.78875814398E-02 -0.17138725366E-01  0.10195453488E+01  0.10192537010E+01 0.  0.
     999903    2    3    3    0    0 -0.16562823645E-01  0.90919196707E-01  0.84910175790E-01  0.12758038686E+00  0.22943184213E-01 0.  0.
         14    1    1    2    0    0 -0.15448668785E-01  0.78875814398E-02  0.17138725366E-01  0.24384651225E-01  0.00000000000E+00 0. -1.
     999901    1    3    3    0    0  0.32011492430E-01 -0.98806778147E-01 -0.10204890116E+00  0.89196496191E+00  0.88000000000E+00 0. -1.
        -11    1    4    4    0    0 -0.17733337526E-01  0.67617379711E-01  0.51504569274E-01  0.86830657465E-01  0.51100000000E-03 0.  1.
         11    1    4    4    0    0  0.11705138812E-02  0.23301816997E-01  0.33405606516E-01  0.40749729395E-01  0.51100000000E-03 0. -1.
</event>
<event>
 8    1  0.1208168E+005  0.1043930E+01  0.7957747E-01            NaN
         13   -1    0    0    0    0  0.00000000000E+00  0.00000000000E+00  0.74505805969E-08  0.10566000000E+00  0.10566000000E+00 0.  1.
     999900   -1    0    0    0    0 -0.00000000000E+00 -0.00000000000E+00 -0.74505805969E-08  0.93827000000E+00  0.93827000000E+00 0. -1.
     999902    2    1    2    0    0 -0.10172069906E-01 -0.66366539480E-02 -0.20209071537E-01  0.10203519858E+01  0.10200795323E+01 0.  0.
     999903    2    3    3    0    0  0.75083523030E-01 -0.19422664566E-01 -0.10433501491E+00  0.13214639442E+00  0.23708624845E-01 0.  0.
         14    1    1    2    0    0  0.10172069906E-01  0.66366539480E-02  0.20209071537E-01  0.23578014212E-01  0.00000000000E+00 0.  1.
     999901    1    3    3    0    0 -0.85255592936E-01  0.12786010617E-01  0.84125943372E-01  0.88820559137E+00  0.88000000000E+00 0.  1.
        -11    1    4    4    0    0  0.24051994858E-01 -0.19421378669E-02 -0.50311347010E-01  0.55801103170E-01  0.51100000000E-03 0. -1.
         11    1    4    4    0    0  0.51031528172E-01 -0.17480526699E-01 -0.54023667899E-01  0.76345291247E-01  0.51100000000E-03 0.  1.
</event>
<event>
 8    1  0.1208168E+005  0.1043930E+01  0.7957747E-01            NaN
         13   -1    0    0    0    0  0.00000000000E+00  0.00000000000E+00  0.74505805969E-08  0.10566000000E+00  0.10566000000E+00 0.  1.
     999900   -1    0    0    0    0 -0.00000000000E+00 -0.00000000000E+00 -0.74505805969E-08  0.93827000000E+00  0.93827000000E+00 0.  1.
     999902    2    1    2    0    0 -0.23833426691E-02 -0.10722642719E-01  0.23047474691E-01  0.10183988136E+01  0.10180787308E+01 0.  0.
     999903    2    3    3    0    0 -0.72182573509E-01 -0.32972943842E-01  0.10277168783E+00  0.13176306050E+00  0.22404136875E-01 0.  0.
         14    1    1    2    0    0  0.23833426691E-02  0.10722642719E-01 -0.23047474691E-01  0.25531186396E-01  0.00000000000E+00 0. -1.
     999901    1    3    3    0    0  0.69799230840E-01  0.22250301124E-01 -0.79724213135E-01  0.88663575311E+00  0.88000000000E+00 0.  1.
        -11    1    4    4    0    0 -0.45900415969E-01 -0.19739194372E-01  0.46484896556E-01  0.68246543571E-01  0.51100000000E-03 0.  1.
         11    1    4    4    0    0 -0.26282157540E-01 -0.13233749470E-01  0.56286791271E-01  0.63516516927E-01  0.51100000000E-03 0. -1.
</event>
<event>
 8    1  0.1208168E+005  0.1043930E+01  0.7957747E-01            NaN
         13   -1    0    0    0    0  0.00000000000E+00  0.00000000000E+00  0.74505805969E-08  0.10566000000E+00  0.10566000000E+00 0. -1.
     999900   -1    0    0    0    0 -0.00000000000E+00 -0.00000000000E+00 -0.74505805969E-08  0.93827000000E+00  0.93827000000E+00 0. -1.
     999902    2    1    2    0    0  0.12608931953E-01  0.14851402704E-01 -0.11295343769E-01  0.10214103615E+01  0.10211620794E+01 0.  0.
     999903    2    3    3    0    0 -0.47729993320E-01 -0.11818590134E+00  0.36032310385E-02  0.12924351741E+00  0.21091324771E-01 0.  0.
         14    1    1    2    0    0 -0.12608931953E-01 -0.14851402704E-01  0.11295343769E-01  0.22519638500E-01  0.00000000000E+00 0. -1.
     999901    1    3    3    0    0  0.60338925273E-01  0.13303730404E+00 -0.14898574808E-01  0.89216684409E+00  0.88000000000E+00 0. -1.
        -11    1    4    4    0    0 -0.44850051988E-01 -0.91846086647E-01 -0.16493941156E-02  0.10222628046E+00  0.51100000000E-03 0.  1.
         11    1    4    4    0    0 -0.28799413322E-02 -0.26339814690E-01  0.52526251541E-02  0.27017236942E-01  0.51100000000E-03 0. -1.
</event>
<event>
 8    1  0.1208168E+005  0.1043930E+01  0.7957747E-01            NaN
         13   -1    0    0    0    0  0.00000000000E+00  0.00000000000E+00  0.74505805969E-08  0.10566000000E+00  0.10566000000E+00 0. -1.
     999900   -1    0    0    0    0 -0.00000000000E+00 -0.00000000000E+00 -0.74505805969E-08  0.93827000000E+00  0.93827000000E+00 0.  1.
     999902    2    1    2    0    0 -0.11889468917E-01 -0.21267505224E-01 -0.11097048374E-02  0.10195394753E+01  0.10192476853E+01 0.  0.
     999903    2    3    3    0    0  0.11345671048E+00  0.44158353202E-01 -0.32845939072E-01  0.12768780816E+00  0.20073249071E-01 0.  0.
         14    1    1    2    0    0  0.11889468917E-01  0.21267505224E-01  0.11097048374E-02  0.24390524685E-01  0.00000000000E+00 0.  1.
     999901    1    3    3    0    0 -0.12534617940E+00 -0.65425858426E-01  0.31736234234E-01  0.89185166715E+00  0.88000000000E+00 0. -1.
        -11    1    4    4    0    0  0.48607718327E-01  0.90810566026E-02 -0.16846297717E-01  0.52242078229E-01  0.51100000000E-03 0. -1.
         11    1    4    4    0    0  0.64848992157E-01  0.35077296599E-01 -0.15999641355E-01  0.75445729932E-01  0.51100000000E-03 0.  1.
</event>
<event>
 8    1  0.1208168E+005  0.1043930E+01  0.7957747E-01            NaN
         13   -1    0    0    0    0  0.00000000000E+00  0.00000000000E+00  0.74505805969E-08  0.10566000000E+00  0.10566000000E+00 0. -1.
     999900   -1    0    0    0    0 -0.00000000000E+00 -0.00000000000E+00 -0.74505805969E-08  0.93827000000E+00  0.93827000000E+00 0.  1.
     999902    2    1    2    0    0  0.26658315425E-02  0.23513365218E-01 -0.41894363608E-02  0.10198980134E+01  0.10196148397E+01 0.  0.
     999903    2    3    3    0    0  0.25477531128E-01 -0.12084416899E+00  0.24003498803E-01  0.12739909863E+00  0.20048556171E-01 0.  0.
         14    1    1    2    0    0 -0.26658315425E-02 -0.23513365218E-01  0.41894363608E-02  0.24031986575E-01  0.00000000000E+00 0.  1.
     999901    1    3    3    0    0 -0.22811699585E-01  0.14435753421E+00 -0.28192935164E-01  0.89249891480E+00  0.88000000000E+00 0. -1.
        -11    1    4    4    0    0 -0.17555494315E-02 -0.32018005985E-01  0.87928069517E-02  0.33253710111E-01  0.51100000000E-03 0. -1.
         11    1    4    4    0    0  0.27233080559E-01 -0.88826163008E-01  0.15210691851E-01  0.94145388517E-01  0.51100000000E-03 0.  1.
</event>
<event>
 8    1  0.1208168E+005  0.1043930E+01  0.7957747E-01            NaN
         13   -1    0    0    0    0  0.00000000000E+00  0.00000000000E+00  0.74505805969E-08  0.10566000000E+00  0.10566000000E+00 0. -1.
     999900   -1    0    0    0    0 -0.00000000000E+00 -0.00000000000E+00 -0.74505805969E-08  0.93827000000E+00  0.93827000000E+00 0.  1.
     999902    2    1    2    0    0  0.11972964192E-01  0.14139731696E-01  0.13297556628E-01  0.10211241039E+01  0.10208693975E+01 0.  0.
     999903    2    3    3    0    0 -0.34772486292E-01 -0.10318509878E+00 -0.65485485822E-01  0.12862367211E+00  0.19985238568E-01 0.  0.
         14    1    1    2    0    0 -0.11972964192E-01 -0.14139731696E-01 -0.13297556628E-01  0.22805896085E-01  0.00000000000E+00 0.  1.
     999901    1    3    3    0    0  0.46745450483E-01  0.11732483048E+00  0.78783042450E-01  0.89250043180E+00  0.88000000000E+00 0.  1.
        -11    1    4    4    0    0 -0.12957217785E-01 -0.27909733082E-01 -0.91615785003E-02  0.32109785659E-01  0.51100000000E-03 0.  1.
         11    1    4    4    0    0 -0.21815268506E-01 -0.75275365703E-01 -0.56323907322E-01  0.96513886455E-01  0.51100000000E-03 0. -1.
</event>
<event>
 8    1  0.1208168E+005  0.1043930E+01  0.7957747E-01            NaN
         13   -1    0    0    0    0  0.00000000000E+00  0.00000000000E+00  0.74505805969E-08  0.10566000000E+00  0.10566000000E+00 0. -1.
     999900   -1    0    0    0    0 -0.00000000000E+00 -0.00000000000E+00 -0.74505805969E-08  0.93827000000E+00  0.93827000000E+00 0.  1.
     999902    2    1    2    0    0  0.19687979430E-01  0.45071871849E-02  0.88834440975E-02  0.10218653937E+01  0.10216271512E+01 0.  0.
     999903    2    3    3    0    0 -0.34124608667E-02 -0.82867421390E-01 -0.99170820707E-01  0.13066189470E+00  0.18947945245E-01 0.  0.
         14    1    1    2    0    0 -0.19687979430E-01 -0.45071871849E-02 -0.88834440975E-02  0.22064606260E-01  0.00000000000E+00 0. -1.
     999901    1    3    3    0    0  0.23100440297E-01  0.87374608575E-01  0.10805426480E+00  0.89120349904E+00  0.88000000000E+00 0. -1.
        -11    1    4    4    0    0 -0.71360767715E-02 -0.79307905668E-01 -0.90336258098E-01  0.12042245696E+00  0.51100000000E-03 0. -1.
         11    1    4    4    0    0  0.37236159049E-02 -0.35595157219E-02 -0.88345626089E-02  0.10239437732E-01  0.51100000000E-03 0.  1.
</event>
<event>
 8    1  0.1208168E+005  0.1043930E+01  0.7957747E-01            NaN
         13   -1    0    0    0    0  0.00000000000E+00  0.00000000000E+00  0.74505805969E-08  0.10566000000E+00  0.10566000000E+00 0.  1.
     999900   -1    0    0    0    0 -0.00000000000E+00 -0.00000000000E+00 -0.74505805969E-08  0.93827000000E+00  0.93827000000E+00 0. -1.
     999902    2    1    2    0    0  0.22656064305E-01 -0.84435464158E-04 -0.38982573358E-03  0.10212704249E+01  0.10210190128E+01 0.  0.
     999903    2    3    3    0    0  0.61636280324E-01  0.11578778723E+00 -0.76262609708E-02  0.13278958931E+00  0.19211258367E-01 0.  0.
         14    1    1    2    0    0 -0.22656064305E-01  0.84435464158E-04  0.38982573358E-03  0.22659575089E-01  0.00000000000E+00 0.  1.
     999901    1    3    3    0    0 -0.38980216020E-01 -0.11587222270E+00  0.72364352372E-02  0.88848083560E+00  0.88000000000E+00 0. -1.
        -11    1    4    4    0    0  0.28719723333E-01  0.60308849162E-01  0.52502695215E-02  0.67006016495E-01  0.51100000000E-03 0.  1.
         11    1    4    4    0    0  0.32916556991E-01  0.55478938073E-01 -0.12876530492E-01  0.65783572815E-01  0.51100000000E-03 0. -1.
</event>
<event>
 8    1  0.1208168E+005  0.1043930E+01  0.7957747E-01            NaN
         13   -1    0    0    0    0  0.00000000000E+00  0.00000000000E+00  0.74505805969E-08  0.10566000000E+00  0.10566000000E+00 0. -1.
     999900   -1    0    0    0    0 -0.00000000000E+00 -0.00000000000E+00 -0.74505805969E-08  0.93827000000E+00  0.93827000000E+00 0. -1.
     999902    2    1    2    0    0  0.17493951119E-01  0.15371550901E-01 -0.21873669103E-02  0.10205396713E+01  0.10202715880E+01 0.  0.
     999903    2    3    3    0    0  0.78653913770E-01 -0.10081496908E+00 -0.18644795175E-01  0.13064602855E+00  0.19252538730E-01 0.  0.
         14    1    1    2    0    0 -0.17493951119E-01 -0.15371550901E-01  0.21873669103E-02  0.23390328704E-01  0.00000000000E+00 0. -1.
     999901    1    3    3    0    0 -0.61159962651E-01  0.11618651998E+00  0.16457428264E-01  0.88989364275E+00  0.88000000000E+00 0. -1.
        -11    1    4    4    0    0  0.36251338803E-01 -0.41339929112E-01 -0.17106854600E-01  0.57585196877E-01  0.51100000000E-03 0.  1.
         11    1    4    4    0    0  0.42402574967E-01 -0.59475039964E-01 -0.15379405744E-02  0.73060831673E-01  0.51100000000E-03 0. -1.
</event>
<event>
 8    1  0.1208168E+005  0.1043930E+01  0.7957747E-01            NaN
         13   -1    0    0    0    0  0.00000000000E+00  0.00000000000E+00  0.74505805969E-08  0.10566000000E+00  0.10566000000E+00 0. -1.
     999900   -1    0    0    0    0 -0.00000000000E+00 -0.00000000000E+00 -0.74505805969E-08  0.93827000000E+00  0.93827000000E+00 0.  1.
     999902    2    1    2    0    0  0.62609993783E-02 -0.12638658115E-01  0.19392355731E-01  0.10199508580E+01  0.10196689430E+01 0.  0.
     999903    2    3    3    0    0  0.89370713672E-01  0.30768686687E-01 -0.85274713816E-01  0.12880181451E+00  0.19603419655E-01 0.  0.
         14    1    1    2    0    0 -0.62609993783E-02  0.12638658115E-01 -0.19392355731E-01  0.23979142040E-01  0.00000000000E+00 0.  1.
     999901    1    3    3    0    0 -0.83109714294E-01 -0.43407344802E-01  0.10466706955E+00  0.89114904345E+00  0.88000000000E+00 0. -1.
        -11    1    4    4    0    0  0.17076143959E-01  0.13632474581E-01 -0.14804468661E-01  0.26398342164E-01  0.51100000000E-03 0. -1.
         11    1    4    4    0    0  0.72294569713E-01  0.17136212107E-01 -0.70470245155E-01  0.10240347235E+00  0.51100000000E-03 0.  1.
</event>
<event>
 8    1  0.1208168E+005  0.1043930E+01  0.7957747E-01            NaN
         13   -1    0    0    0    0  0.00000000000E+00  0.00000000000E+00  0.74505805969E-08  0.10566000000E+00  0.10566000000E+00 0.  1.
     999900   -1    0    0    0    0 -0.00000000000E+00 -0.00000000000E+00 -0.74505805969E-08  0.93827000000E+00  0.93827000000E+00 0.  1.
     999902    2    1    2    0    0  0.11954242281E-02 -0.39550844326E-02  0.22936176015E-01  0.10206246379E+01  0.10203585211E+01 0.  0.
     999903    2    3    3    0    0  0.12726075485E+00 -0.24244537436E-01 -0.40658262251E-02  0.13099930238E+00  0.19004972028E-01 0.  0.
         14    1    1    2    0    0 -0.11954242281E-02  0.39550844326E-02 -0.22936176015E-01  0.23305362090E-01  0.00000000000E+00 0. -1.
     999901    1    3    3    0    0 -0.12606533062E+00  0.20289453004E-01  0.27002002240E-01  0.88962533553E+00  0.88000000000E+00 0. -1.
        -11    1    4    4    0    0  0.48598559566E-01 -0.30651792536E-02  0.53545877177E-02  0.48991305824E-01  0.51100000000E-03 0.  1.
         11    1    4    4    0    0  0.78662195282E-01 -0.21179358183E-01 -0.94204139428E-02  0.82007996558E-01  0.51100000000E-03 0. -1.
</event>
<event>
 8    1  0.1208168E+005  0.1043930E+01  0.7957747E-01            NaN
         13   -1    0    0    0    0  0.00000000000E+00  0.00000000000E+00  0.74505805969E-08  0.10566000000E+00  0.10566000000E+00 0. -1.
     999900   -1    0    0    0    0 -0.00000000000E+00 -0.00000000000E+00 -0.74505805969E-08  0.93827000000E+00  0.93827000000E+00 0.  1.
     999902    2    1    2    0    0 -0.21078884378E-01  0.11683477863E-01  0.37812377040E-02  0.10195349025E+01  0.10192430018E+01 0.  0.
     999903    2    3    3    0    0  0.39402243113E-02  0.12284415592E+00  0.42131566394E-01  0.13136070799E+00  0.19348248113E-01 0.  0.
         14    1    1    2    0    0  0.21078884378E-01 -0.11683477863E-01 -0.37812377040E-02  0.24395097462E-01  0.00000000000E+00 0. -1.
     999901    1    3    3    0    0 -0.25019108689E-01 -0.11116067806E+00 -0.38350328690E-01  0.88817419455E+00  0.88000000000E+00 0.  1.
        -11    1    4    4    0    0 -0.14885309892E-02  0.34010056014E-01  0.31334871752E-02  0.34190342166E-01  0.51100000000E-03 0. -1.
         11    1    4    4    0    0  0.54287553005E-02  0.88834099910E-01  0.38998079219E-01  0.97170365826E-01  0.51100000000E-03 0.  1.
</event>
<event>
 8    1  0.1208168E+005  0.1043930E+01  0.7957747E-01            NaN
         13   -1    0    0    0    0  0.00000000000E+00  0.00000000000E+00  0.74505805969E-08  0.10566000000E+00  0.10566000000E+00 0.  1.
     999900   -1    0    0    0    0 -0.00000000000E+00 -0.00000000000E+00 -0.74505805969E-08  0.93827000000E+00  0.93827000000E+00 0.  1.
     999902    2    1    2    0    0 -0.11595494191E-01 -0.16223668612E-01  0.11681689848E-01  0.10208188601E+01  0.10205572107E+01 0.  0.
     999903    2    3    3    0    0 -0.30757559003E-01  0.12301135684E+00 -0.13829671672E-01  0.12930082519E+00  0.21204297415E-01 0.  0.
         14    1    1    2    0    0  0.11595494191E-01  0.16223668612E-01 -0.11681689848E-01  0.23111139878E-01  0.00000000000E+00 0. -1.
     999901    1    3    3    0    0  0.19162064812E-01 -0.13923502545E+00  0.25511361520E-01  0.89151803493E+00  0.88000000000E+00 0.  1.
        -11    1    4    4    0    0 -0.39977226545E-02  0.58762176710E-01 -0.44074040818E-02  0.59064892532E-01  0.51100000000E-03 0.  1.
         11    1    4    4    0    0 -0.26759836349E-01  0.64249180131E-01 -0.94222675898E-02  0.70235932659E-01  0.51100000000E-03 0. -1.
</event>
<event>
 8    1  0.1208168E+005  0.1043930E+01  0.7957747E-01            NaN
         13   -1    0    0    0    0  0.00000000000E+00  0.00000000000E+00  0.74505805969E-08  0.10566000000E+00  0.10566000000E+00 0.  1.
     999900   -1    0    0    0    0 -0.00000000000E+00 -0.00000000000E+00 -0.74505805969E-08  0.93827000000E+00  0.93827000000E+00 0.  1.
     999902    2    1    2    0    0 -0.11104936148E-01 -0.12748093994E-01 -0.16428113617E-01  0.10203563617E+01  0.10200840104E+01 0.  0.
     999903    2    3    3    0    0 -0.95414916377E-01  0.45679246611E-01 -0.76962414943E-01  0.13233252835E+00  0.19952065252E-01 0.  0.
         14    1    1    2    0    0  0.11104936148E-01  0.12748093994E-01  0.16428113617E-01  0.23573638335E-01  0.00000000000E+00 0. -1.
     999901    1    3    3    0    0  0.84309980230E-01 -0.58427340605E-01  0.60534301326E-01  0.88802383331E+00  0.88000000000E+00 0. -1.
        -11    1    4    4    0    0 -0.43325252247E-01  0.10310662620E-01 -0.28485597386E-01  0.52868493693E-01  0.51100000000E-03 0. -1.
         11    1    4    4    0    0 -0.52089664130E-01  0.35368583991E-01 -0.48476817557E-01  0.79464034658E-01  0.51100000000E-03 0.  1.
</event>
<event>
 8    1  0.1208168E+005  0.1043930E+01  0.7957747E-01            NaN
         13   -1    0    0    0    0  0.00000000000E+00  0.00000000000E+00  0.74505805969E-08  0.10566000000E+00  0.10566000000E+00 0.  1.
     999900   -1    0    0    0    0 -0.00000000000E+00 -0.00000000000E+00 -0.74505805969E-08  0.93827000000E+00  0.93827000000E+00 0.  1.
     999902    2    1    2    0    0 -0.12930993146E-01 -0.87633784334E-02 -0.28289442124E-01  0.10116143703E+01  0.10110980834E+01 0.  0.
     999903    2    3    3    0    0  0.77684264713E-01  0.55486034891E-01  0.68873517351E-01  0.11932531808E+00  0.19530107291E-01 0.  0.
         14    1    1    2    0    0  0.12930993146E-01  0.87633784334E-02  0.28289442124E-01  0.32315629670E-01  0.00000000000E+00 0.  1.
     999901    1    3    3    0    0 -0.90615257858E-01 -0.64249413325E-01 -0.97162959475E-01  0.89228905225E+00  0.88000000000E+00 0.  1.
        -11    1    4    4    0    0  0.60050352473E-01  0.33574270700E-01  0.43191191626E-01  0.81234331660E-01  0.51100000000E-03 0.  1.
         11    1    4    4    0    0  0.17633912240E-01  0.21911764191E-01  0.25682325725E-01  0.38090986421E-01  0.51100000000E-03 0. -1.
</event>
<event>
 8    1  0.1208168E+005  0.1043930E+01  0.7957747E-01            NaN
         13   -1    0    0    0    0  0.00000000000E+00  0.00000000000E+00  0.74505805969E-08  0.10566000000E+00  0.10566000000E+00 0. -1.
     999900   -1    0    0    0    0 -0.00000000000E+00 -0.00000000000E+00 -0.74505805969E-08  0.93827000000E+00  0.93827000000E+00 0.  1.
     999902    2    1    2    0    0  0.12664953941E-01  0.19701421513E-01  0.50036431744E-03  0.10205035741E+01  0.10202346530E+01 0.  0.
     999903    2    3    3    0    0 -0.68545743029E-01  0.10454035040E+00  0.37399340100E-01  0.13193486227E+00  0.19516492830E-01 0.  0.
         14    1    1    2    0    0 -0.12664953941E-01 -0.19701421513E-01 -0.50036431744E-03  0.23426425942E-01  0.00000000000E+00 0.  1.
     999901    1    3    3    0    0  0.81210696970E-01 -0.84838928888E-01 -0.36898975783E-01  0.88856871179E+00  0.88000000000E+00 0.  1.
        -11    1    4    4    0    0 -0.35458552261E-01  0.47923761107E-01  0.83072481493E-02  0.60193581883E-01  0.51100000000E-03 0.  1.
         11    1    4    4    0    0 -0.33087190768E-01  0.56616589294E-01  0.29092091951E-01  0.71741280386E-01  0.51100000000E-03 0. -1.
</event>
<event>
 8    1  0.1208168E+005  0.1043930E+01  0.7957747E-01            NaN
         13   -1    0    0    0    0  0.00000000000E+00  0.00000000000E+00  0.74505805969E-08  0.10566000000E+00  0.10566000000E+00 0. -1.
     999900   -1    0    0    0    0 -0.00000000000E+00 -0.00000000000E+00 -0.74505805969E-08  0.93827000000E+00  0.93827000000E+00 0. -1.
     999902    2    1    2    0    0 -0.90018127618E-02  0.20980157248E-01 -0.57363208788E-02  0.10203905648E+01  0.10201190126E+01 0.  0.
     999903    2    3    3    0    0 -0.14986492918E-03  0.57997308056E-01  0.11603095908E+00  0.13119098267E+00  0.19600517008E-01 0.  0.
         14    1    1    2    0    0  0.90018127618E-02 -0.20980157248E-01  0.57363208788E-02  0.23539435175E-01  0.00000000000E+00 0. -1.
     999901    1    3    3    0    0 -0.88519478326E-02 -0.37017150809E-01 -0.12176727996E+00  0.88919958215E+00  0.88000000000E+00 0. -1.
        -11    1    4    4    0    0  0.87988895931E-02  0.38578821840E-01  0.80940708763E-01  0.90096644825E-01  0.51100000000E-03 0. -1.
         11    1    4    4    0    0 -0.89487545223E-02  0.19418486216E-01  0.35090250320E-01  0.41094337845E-01  0.51100000000E-03 0.  1.
</event>
<event>
 8    1  0.1208168E+005  0.1043930E+01  0.7957747E-01            NaN
         13   -1    0    0    0    0  0.00000000000E+00  0.00000000000E+00  0.74505805969E-08  0.10566000000E+00  0.10566000000E+00 0. -1.
     999900   -1    0    0    0    0 -0.00000000000E+00 -0.00000000000E+00 -0.74505805969E-08  0.93827000000E+00  0.93827000000E+00 0.  1.
     999902    2    1    2    0    0  0.10658635113E-01 -0.21668371980E-01 -0.53333233941E-03  0.10197761330E+01  0.10194900452E+01 0.  0.
     999903    2    3    3    0    0 -0.40968511020E-02 -0.21180011434E-01 -0.12772099987E+00  0.13050976930E+00  0.15961484936E-01 0.  0.
         14    1    1    2    0    0 -0.10658635113E-01  0.21668371980E-01  0.53333233941E-03  0.24153866981E-01  0.00000000000E+00 0.  1.
     999901    1    3    3    0    0  0.14755486215E-01 -0.48836054600E-03  0.12718766753E+00  0.88926636372E+00  0.88000000000E+00 0. -1.
        -11    1    4    4    0    0 -0.87884212833E-02 -0.53400576852E-02 -0.47203162345E-01  0.48313064705E-01  0.51100000000E-03 0.  1.
         11    1    4    4    0    0  0.46915701813E-02 -0.15839953749E-01 -0.80517837526E-01  0.82196704595E-01  0.51100000000E-03 0. -1.
</event>
<event>
 8    1  0.1208168E+005  0.1043930E+01  0.7957747E-01            NaN
         13   -1    0    0    0    0  0.00000000000E+00  0.00000000000E+00  0.74505805969E-08  0.10566000000E+00  0.10566000000E+00 0. -1.
     999900   -1    0    0    0    0 -0.00000000000E+00 -0.00000000000E+00 -0.74505805969E-08  0.93827000000E+00  0.93827000000E+00 0. -1.
     999902    2    1    2    0    0  0.27878977956E-02 -0.73518091950E-03 -0.29907308312E-01  0.10138840360E+01  0.10134387393E+01 0.  0.
     999903    2    3    3    0    0  0.94308008376E-01  0.78319683893E-01  0.93381808650E-02  0.12474635780E+00  0.21130045747E-01 0.  0.
         14    1    1    2    0    0 -0.27878977956E-02  0.73518091950E-03  0.29907308312E-01  0.30045964048E-01  0.00000000000E+00 0. -1.
     999901    1    3    3    0    0 -0.91520110580E-01 -0.79054864812E-01 -0.39245489177E-01  0.88913767815E+00  0.88000000000E+00 0.  1.
        -11    1    4    4    0    0  0.43824936269E-01  0.32485531880E-01  0.14240755987E-01  0.56382577739E-01  0.51100000000E-03 0. -1.
         11    1    4    4    0    0  0.50483072107E-01  0.45834152013E-01 -0.49025751223E-02  0.68363780059E-01  0.51100000000E-03 0.  1.
</event>
<event>
 8    1  0.1208168E+005  0.1043930E+01  0.7957747E-01            NaN
         13   -1    0    0    0    0  0.00000000000E+00  0.00000000000E+00  0.74505805969E-08  0.10566000000E+00  0.10566000000E+00 0.  1.
     999900   -1    0    0    0    0 -0.00000000000E+00 -0.00000000000E+00 -0.74505805969E-08  0.93827000000E+00  0.93827000000E+00 0.  1.
     999902    2    1    2    0    0  0.22904706287E-01  0.50490339460E-02 -0.15165993024E-02  0.10204264176E+01  0.10201557015E+01 0.  0.
     999903    2    3    3    0    0  0.35843370847E-01  0.11442526234E-01 -0.12495455711E+00  0.13169405334E+00  0.17720149662E-01 0.  0.
         14    1    1    2    0    0 -0.22904706287E-01 -0.50490339460E-02  0.15165993024E-02  0.23503582436E-01  0.00000000000E+00 0. -1.
     999901    1    3    3    0    0 -0.12938664560E-01 -0.63934922877E-02  0.12343795781E+00  0.88873236422E+00  0.88000000000E+00 0. -1.
        -11    1    4    4    0    0  0.20470360426E-01  0.15508079339E-02 -0.42049466396E-01  0.46795933653E-01  0.51100000000E-03 0.  1.
         11    1    4    4    0    0  0.15373010421E-01  0.98917182998E-02 -0.82905090711E-01  0.84898119691E-01  0.51100000000E-03 0. -1.
</event>
<event>
 8    1  0.1208168E+005  0.1043930E+01  0.7957747E-01            NaN
         13   -1    0    0    0    0  0.00000000000E+00  0.00000000000E+00  0.74505805969E-08  0.10566000000E+00  0.10566000000E+00 0.  1.
     999900   -1    0    0    0    0 -0.00000000000E+00 -0.00000000000E+00 -0.74505805969E-08  0.93827000000E+00  0.93827000000E+00 0. -1.
     999902    2    1    2    0    0  0.26102489644E-02 -0.11263515007E-01  0.22467347433E-01  0.10186621970E+01  0.10183487662E+01 0.  0.
     999903    2    3    3    0    0 -0.11128711303E+00 -0.17455315761E-01  0.62511441148E-01  0.13039732829E+00  0.20156224273E-01 0.  0.
         14    1    1    2    0    0 -0.26102489644E-02  0.11263515007E-01 -0.22467347433E-01  0.25267803043E-01  0.00000000000E+00 0. -1.
     999901    1    3    3    0    0  0.11389736199E+00  0.61918007548E-02 -0.40044093715E-01  0.88826486867E+00  0.88000000000E+00 0.  1.
        -11    1    4    4    0    0 -0.43916906877E-01 -0.95677525150E-02  0.35920057876E-01  0.57539102154E-01  0.51100000000E-03 0.  1.
         11    1    4    4    0    0 -0.67370206149E-01 -0.78875632465E-02  0.26591383272E-01  0.72858226137E-01  0.51100000000E-03 0. -1.
</event>
<event>
 8    1  0.1208168E+005  0.1043930E+01  0.7957747E-01            NaN
         13   -1    0    0    0    0  0.00000000000E+00  0.00000000000E+00  0.74505805969E-08  0.10566000000E+00  0.10566000000E+00 0. -1.
     999900   -1    0    0    0    0 -0.00000000000E+00 -0.00000000000E+00 -0.74505805969E-08  0.93827000000E+00  0.93827000000E+00 0.  1.
     999902    2    1    2    0    0  0.96084997625E-02  0.37431958050E-02 -0.18765493317E-01  0.10225178884E+01  0.10222936729E+01 0.  0.
     999903    2    3    3    0    0 -0.12705035564E+00  0.26699651926E-01 -0.77697644731E-02  0.13160624989E+00  0.20128872006E-01 0.  0.
         14    1    1    2    0    0 -0.96084997625E-02 -0.37431958050E-02  0.18765493317E-01  0.21412111572E-01  0.00000000000E+00 0. -1.
     999901    1    3    3    0    0  0.13665885540E+00 -0.22956456121E-01 -0.10995728844E-01  0.89091163854E+00  0.88000000000E+00 0.  1.
        -11    1    4    4    0    0 -0.56520991047E-01  0.21061331523E-01  0.85926586461E-03  0.60325795256E-01  0.51100000000E-03 0. -1.
         11    1    4    4    0    0 -0.70529364592E-01  0.56383204024E-02 -0.86290303377E-02  0.71280454630E-01  0.51100000000E-03 0.  1.
</event>
<event>
 8    1  0.1208168E+005  0.1043930E+01  0.7957747E-01            NaN
         13   -1    0    0    0    0  0.00000000000E+00  0.00000000000E+00  0.74505805969E-08  0.10566000000E+00  0.10566000000E+00 0.  1.
     999900   -1    0    0    0    0 -0.00000000000E+00 -0.00000000000E+00 -0.74505805969E-08  0.93827000000E+00  0.93827000000E+00 0.  1.
     999902    2    1    2    0    0 -0.16666575808E-01 -0.21874656447E-02  0.15505044954E-01  0.10210615463E+01  0.10208054247E+01 0.  0.
     999903    2    3    3    0    0 -0.85526268961E-01  0.99200940131E-01  0.24581472138E-02  0.13247194041E+00  0.19677482162E-01 0.  0.
         14    1    1    2    0    0  0.16666575808E-01  0.21874656447E-02 -0.15505044954E-01  0.22868453689E-01  0.00000000000E+00 0. -1.
     999901    1    3    3    0    0  0.68859693153E-01 -0.10138840578E+00  0.13046897740E-01  0.88858960590E+00  0.88000000000E+00 0.  1.
        -11    1    4    4    0    0 -0.53637512439E-01  0.47746318053E-01  0.38997164164E-02  0.71917748418E-01  0.51100000000E-03 0. -1.
         11    1    4    4    0    0 -0.31888756522E-01  0.51454622077E-01 -0.14415692026E-02  0.60554191997E-01  0.51100000000E-03 0.  1.
</event>
<event>
 8    1  0.1208168E+005  0.1043930E+01  0.7957747E-01            NaN
         13   -1    0    0    0    0  0.00000000000E+00  0.00000000000E+00  0.74505805969E-08  0.10566000000E+00  0.10566000000E+00 0. -1.
     999900   -1    0    0    0    0 -0.00000000000E+00 -0.00000000000E+00 -0.74505805969E-08  0.93827000000E+00  0.93827000000E+00 0. -1.
     999902    2    1    2    0    0  0.17108443695E-01  0.13119138527E-02  0.16864842226E-01  0.10198708465E+01  0.10195870246E+01 0.  0.
     999903    2    3    3    0    0 -0.17963298432E-01 -0.42470492369E-01 -0.11760102304E+00  0.12789102885E+00  0.19992294204E-01 0.  0.
         14    1    1    2    0    0 -0.17108443695E-01 -0.13119138527E-02 -0.16864842226E-01  0.24059153495E-01  0.00000000000E+00 0.  1.
     999901    1    3    3    0    0  0.35071742127E-01  0.43782406221E-01  0.13446586526E+00  0.89197981766E+00  0.88000000000E+00 0.  1.
        -11    1    4    4    0    0 -0.76992417234E-02 -0.19669889255E-01 -0.29348365526E-01  0.36163110298E-01  0.51100000000E-03 0. -1.
         11    1    4    4    0    0 -0.10264056708E-01 -0.22800603114E-01 -0.88252657510E-01  0.91727918547E-01  0.51100000000E-03 0.  1.
</event>
<event>
 8    1  0.1208168E+005  0.1043930E+01  0.7957747E-01            NaN
         13   -1    0    0    0    0  0.00000000000E+00  0.00000000000E+00  0.74505805969E-08  0.10566000000E+00  0.10566000000E+00 0. -1.
     999900   -1    0    0    0    0 -0.00000000000E+00 -0.00000000000E+00 -0.74505805969E-08  0.93827000000E+00  0.93827000000E+00 0.  1.
     999902    2    1    2    0    0 -0.15151619688E-01 -0.16951682694E-01 -0.88317994935E-02  0.10195387760E+01  0.10192469691E+01 0.  0.
     999903    2    3    3    0    0 -0.79637417326E-01 -0.12556649300E-01 -0.10280309704E+00  0.13217845507E+00  0.20071859508E-01 0.  0.
         14    1    1    2    0    0  0.15151619688E-01  0.16951682694E-01  0.88317994935E-02  0.24391223988E-01  0.00000000000E+00 0.  1.
     999901    1    3    3    0    0  0.64485797638E-01 -0.43950333937E-02  0.93971297547E-01  0.88736032094E+00  0.88000000000E+00 0.  1.
        -11    1    4    4    0    0 -0.34009164070E-01 -0.11493266060E-01 -0.32922424918E-01  0.48712068207E-01  0.51100000000E-03 0.  1.
         11    1    4    4    0    0 -0.45628253256E-01 -0.10633832405E-02 -0.69880672122E-01  0.83466386866E-01  0.51100000000E-03 0. -1.
</event>
<event>
 8    1  0.1208168E+005  0.1043930E+01  0.7957747E-01            NaN
         13   -1    0    0    0    0  0.00000000000E+00  0.00000000000E+00  0.74505805969E-08  0.10566000000E+00  0.10566000000E+00 0. -1.
     999900   -1    0    0    0    0 -0.00000000000E+00 -0.00000000000E+00 -0.74505805969E-08  0.93827000000E+00  0.93827000000E+00 0. -1.
     999902    2    1    2    0    0  0.22583256879E-01  0.81403596242E-03 -0.57327974970E-02  0.10206162463E+01  0.10203499356E+01 0.  0.
     999903    2    3    3    0    0  0.21809061504E-01  0.94654799557E-02 -0.12835777834E+00  0.13207118113E+00  0.20046125568E-01 0.  0.
         14    1    1    2    0    0 -0.22583256879E-01 -0.81403596242E-03  0.57327974970E-02  0.23313753729E-01  0.00000000000E+00 0.  1.
     999901    1    3    3    0    0  0.77419537453E-03 -0.86514439933E-02  0.12262498084E+00  0.88854506514E+00  0.88000000000E+00 0.  1.
        -11    1    4    4    0    0  0.98670422403E-02  0.26129979143E-03 -0.94364368710E-01  0.94880567048E-01  0.51100000000E-03 0. -1.
         11    1    4    4    0    0  0.11942019264E-01  0.92041801643E-02 -0.33993409628E-01  0.37190614081E-01  0.51100000000E-03 0.  1.
</event>
<event>
 8    1  0.1208168E+005  0.1043930E+01  0.7957747E-01            NaN
         13   -1    0    0    0    0  0.00000000000E+00  0.00000000000E+00  0.74505805969E-08  0.10566000000E+00  0.10566000000E+00 0. -1.
     999900   -1    0    0    0    0 -0.00000000000E+00 -0.00000000000E+00 -0.74505805969E-08  0.93827000000E+00  0.93827000000E+00 0.  1.
     999902    2    1    2    0    0 -0.15786293198E-01 -0.52046122811E-02  0.16501938659E-01  0.10205075957E+01  0.10202387681E+01 0.  0.
     999903    2    3    3    0    0  0.44511703409E-01 -0.42419526418E-01 -0.11053179629E+00  0.12856680844E+00  0.23052945129E-01 0.  0.
         14    1    1    2    0    0  0.15786293198E-01  0.52046122811E-02 -0.16501938659E-01  0.23422404262E-01  0.00000000000E+00 0.  1.
     999901    1    3    3    0    0 -0.60297996607E-01  0.37214914137E-01  0.12703373495E+00  0.89194078730E+00  0.88000000000E+00 0. -1.
        -11    1    4    4    0    0  0.19990265759E-01 -0.15470539381E-01 -0.68067392497E-01  0.72611151734E-01  0.51100000000E-03 0. -1.
         11    1    4    4    0    0  0.24521437650E-01 -0.26948987037E-01 -0.42464403795E-01  0.55955656706E-01  0.51100000000E-03 0.  1.
</event>
<event>
 8    1  0.1208168E+005  0.1043930E+01  0.7957747E-01            NaN
         13   -1    0    0    0    0  0.00000000000E+00  0.00000000000E+00  0.74505805969E-08  0.10566000000E+00  0.10566000000E+00 0.  1.
     999900   -1    0    0    0    0 -0.00000000000E+00 -0.00000000000E+00 -0.74505805969E-08  0.93827000000E+00  0.93827000000E+00 0.  1.
     999902    2    1    2    0    0  0.77089940176E-02  0.23560466620E-01  0.31396447626E-02  0.10189423722E+01  0.10186359390E+01 0.  0.
     999903    2    3    3    0    0 -0.88390455478E-01 -0.77907500749E-02 -0.90528984834E-01  0.12821692896E+00  0.19248775823E-01 0.  0.
         14    1    1    2    0    0 -0.77089940176E-02 -0.23560466620E-01 -0.31396447626E-02  0.24987627846E-01  0.00000000000E+00 0. -1.
     999901    1    3    3    0    0  0.96099449496E-01  0.31351216695E-01  0.93668629597E-01  0.89072544319E+00  0.88000000000E+00 0. -1.
        -11    1    4    4    0    0 -0.63425719723E-01 -0.72307341181E-02 -0.76255569901E-01  0.99449879337E-01  0.51100000000E-03 0. -1.
         11    1    4    4    0    0 -0.24964735755E-01 -0.56001595680E-03 -0.14273414933E-01  0.28767049624E-01  0.51100000000E-03 0.  1.
</event>
<event>
 8    1  0.1208168E+005  0.1043930E+01  0.7957747E-01            NaN
         13   -1    0    0    0    0  0.00000000000E+00  0.00000000000E+00  0.74505805969E-08  0.10566000000E+00  0.10566000000E+00 0. -1.
     999900   -1    0    0    0    0 -0.00000000000E+00 -0.00000000000E+00 -0.74505805969E-08  0.93827000000E+00  0.93827000000E+00 0. -1.
     999902    2    1    2    0    0  0.19743147047E-01  0.84302083973E-02  0.10648275670E-01  0.10199665686E+01  0.10196850274E+01 0.  0.
     999903    2    3    3    0    0  0.11912952443E+00 -0.51064554650E-01  0.16877038623E-01  0.13235399754E+00  0.20816193252E-01 0.  0.
         14    1    1    2    0    0 -0.19743147047E-01 -0.84302083973E-02 -0.10648275670E-01  0.23963431384E-01  0.00000000000E+00 0. -1.
     999901    1    3    3    0    0 -0.99386377379E-01  0.59494763047E-01 -0.62287629527E-02  0.88761257107E+00  0.88000000000E+00 0.  1.
        -11    1    4    4    0    0  0.52742069266E-02 -0.76740396697E-02  0.25648724433E-02  0.96720129863E-02  0.51100000000E-03 0.  1.
         11    1    4    4    0    0  0.11385531750E+00 -0.43390514980E-01  0.14312166180E-01  0.12268198456E+00  0.51100000000E-03 0. -1.
</event>
<event>
 8    1  0.1208168E+005  0.1043930E+01  0.7957747E-01            NaN
         13   -1    0    0    0    0  0.00000000000E+00  0.00000000000E+00  0.74505805969E-08  0.10566000000E+00  0.10566000000E+00 0. -1.
     999900   -1    0    0    0    0 -0.00000000000E+00 -0.00000000000E+00 -0.74505805969E-08  0.93827000000E+00  0.93827000000E+00 0. -1.
     999902    2    1    2    0    0  0.15438663738E-01 -0.66885839775E-02 -0.15977347024E-01  0.10207273038E+01  0.10204635533E+01 0.  0.
     999903    2    3    3    0    0  0.11095186645E+00  0.16724299834E-02 -0.71350964195E-01  0.13378936011E+00  0.22260258264E-01 0.  0.
         14    1    1    2    0    0 -0.15438663738E-01  0.66885839775E-02  0.15977347024E-01  0.23202696214E-01  0.00000000000E+00 0. -1.
     999901    1    3    3    0    0 -0.95513202710E-01 -0.83610139609E-02  0.55373617171E-01  0.88693794367E+00  0.88000000000E+00 0.  1.
        -11    1    4    4    0    0  0.37830104905E-01 -0.82782269617E-02 -0.17882183170E-01  0.42657701235E-01  0.51100000000E-03 0. -1.
         11    1    4    4    0    0  0.73121761543E-01  0.99506569451E-02 -0.53468781026E-01  0.91131658880E-01  0.51100000000E-03 0.  1.
</event>
<event>
 8    1  0.1208168E+005  0.1043930E+01  0.7957747E-01            NaN
         13   -1    0    0    0    0  0.00000000000E+00  0.00000000000E+00  0.74505805969E-08  0.10566000000E+00  0.10566000000E+00 0.  1.
     999900   -1    0    0    0    0 -0.00000000000E+00 -0.00000000000E+00 -0.74505805969E-08  0.93827000000E+00  0.93827000000E+00 0. -1.
     999902    2    1    2    0    0 -0.64422682577E-02  0.14585550472E-01 -0.16847574230E-01  0.10207334084E+01  0.10204697983E+01 0.  0.
     999903    2    3    3    0    0  0.95365543894E-01  0.79148557293E-01 -0.40955282999E-01  0.13218718336E+00  0.20905385818E-01 0.  0.
         14    1    1    2    0    0  0.64422682577E-02 -0.14585550472E-01  0.16847574230E-01  0.23196591567E-01  0.00000000000E+00 0.  1.
     999901    1    3    3    0    0 -0.10180781215E+00 -0.64563006821E-01  0.24107708769E-01  0.88854622507E+00  0.88000000000E+00 0.  1.
        -11    1    4    4    0    0  0.54274603275E-01  0.33292842536E-01 -0.26302080733E-01  0.68892717298E-01  0.51100000000E-03 0.  1.
         11    1    4    4    0    0  0.41090940618E-01  0.45855714758E-01 -0.14653202266E-01  0.63294466065E-01  0.51100000000E-03 0. -1.
</event>
<event>
 7    1  0.1208168E+005  0.1043930E+01  0.7957747E-01            NaN
         13   -1    0    0    0    0  0.00000000000E+00  0.00000000000E+00  0.74505805969E-08  0.10566000000E+00  0.10566000000E+00 0.  1.
     999900   -1    0    0    0    0 -0.00000000000E+00 -0.00000000000E+00 -0.74505805969E-08  0.93827000000E+00  0.93827000000E+00 0.  1.
     999903    2    1    2    0    0  0.79137063511E-01 -0.34792513893E-01 -0.61846776663E-01  0.10821802771E+00  0.20320528856E-01 0.  0.
         14    1    1    2    0    0 -0.47733452185E-01  0.16793964651E-01  0.18583067091E-01  0.53905937416E-01  0.00000000000E+00 0.  1.
     999901    1    1    2    0    0 -0.31403611327E-01  0.17998549243E-01  0.43263709573E-01  0.88180603488E+00  0.88000000000E+00 0. -1.
        -11    1    3    3    0    0  0.33906263534E-01 -0.53873307111E-02 -0.29818857859E-01  0.45476185461E-01  0.51100000000E-03 0. -1.
         11    1    3    3    0    0  0.45230799977E-01 -0.29405183182E-01 -0.32027918804E-01  0.62741842247E-01  0.51100000000E-03 0.  1.
</event>
<event>
 8    1  0.1208168E+005  0.1043930E+01  0.7957747E-01            NaN
         13   -1    0    0    0    0  0.00000000000E+00  0.00000000000E+00  0.74505805969E-08  0.10566000000E+00  0.10566000000E+00 0.  1.
     999900   -1    0    0    0    0 -0.00000000000E+00 -0.00000000000E+00 -0.74505805969E-08  0.93827000000E+00  0.93827000000E+00 0. -1.
     999902    2    1    2    0    0 -0.37561304464E-02 -0.22471209577E-01  0.32008489138E-02  0.10209232790E+01  0.10206640155E+01 0.  0.
     999903    2    3    3    0    0 -0.64276382708E-01  0.14719319641E-01 -0.11063494669E+00  0.13075227032E+00  0.22537813137E-01 0.  0.
         14    1    1    2    0    0  0.37561304464E-02  0.22471209577E-01 -0.32008489138E-02  0.23006720964E-01  0.00000000000E+00 0. -1.
     999901    1    3    3    0    0  0.60520252262E-01 -0.37190529218E-01  0.11383579560E+00  0.89017100872E+00  0.88000000000E+00 0.  1.
        -11    1    4    4    0    0 -0.16879959754E-01  0.14410259197E-01 -0.38348498759E-01  0.44310913887E-01  0.51100000000E-03 0.  1.
         11    1    4    4    0    0 -0.47396422954E-01  0.30906044467E-03 -0.72286447927E-01  0.86441356434E-01  0.51100000000E-03 0. -1.
</event>
<event>
 8    1  0.1208168E+005  0.1043930E+01  0.7957747E-01            NaN
         13   -1    0    0    0    0  0.00000000000E+00  0.00000000000E+00  0.74505805969E-08  0.10566000000E+00  0.10566000000E+00 0.  1.
     999900   -1    0    0    0    0 -0.00000000000E+00 -0.00000000000E+00 -0.74505805969E-08  0.93827000000E+00  0.93827000000E+00 0.  1.
     999902    2    1    2    0    0  0.51696458841E-02 -0.55567889340E-02 -0.20616157638E-01  0.10219611790E+01  0.10217250228E+01 0.  0.
     999903    2    3    3    0    0  0.55187460476E-01  0.11268348976E+00  0.32477534518E-01  0.13106192236E+00  0.19473381421E-01 0.  0.
         14    1    1    2    0    0 -0.51696458841E-02  0.55567889340E-02  0.20616157638E-01  0.21968821033E-01  0.00000000000E+00 0.  1.
     999901    1    3    3    0    0 -0.50017814592E-01 -0.11824027870E+00 -0.53093692156E-01  0.89089925661E+00  0.88000000000E+00 0.  1.
        -11    1    4    4    0    0  0.38716390632E-01  0.57800711676E-01  0.20390104587E-01  0.72497576924E-01  0.51100000000E-03 0.  1.
         11    1    4    4    0    0  0.16471069844E-01  0.54882778088E-01  0.12087429931E-01  0.58564345432E-01  0.51100000000E-03 0. -1.
</event>
<event>
 8    1  0.1208168E+005  0.1043930E+01  0.7957747E-01            NaN
         13   -1    0    0    0    0  0.00000000000E+00  0.00000000000E+00  0.74505805969E-08  0.10566000000E+00  0.10566000000E+00 0.  1.
     999900   -1    0    0    0    0 -0.00000000000E+00 -0.00000000000E+00 -0.74505805969E-08  0.93827000000E+00  0.93827000000E+00 0.  1.
     999902    2    1    2    0    0  0.11008573031E-01  0.16858155925E-02 -0.20425598660E-01  0.10206655263E+01  0.10204003532E+01 0.  0.
     999903    2    3    3    0    0 -0.62689030109E-01 -0.10364956199E+00 -0.45674798848E-01  0.13096647576E+00  0.19821309915E-01 0.  0.
         14    1    1    2    0    0 -0.11008573031E-01 -0.16858155925E-02  0.20425598660E-01  0.23264473667E-01  0.00000000000E+00 0.  1.
     999901    1    3    3    0    0  0.73697603140E-01  0.10533537758E+00  0.25249200188E-01  0.88969905057E+00  0.88000000000E+00 0. -1.
        -11    1    4    4    0    0 -0.37505479328E-01 -0.62856704818E-01 -0.17151460773E-01  0.75180183878E-01  0.51100000000E-03 0. -1.
         11    1    4    4    0    0 -0.25183550781E-01 -0.40792857172E-01 -0.28523338075E-01  0.55786291884E-01  0.51100000000E-03 0.  1.
</event>
<event>
 8    1  0.1208168E+005  0.1043930E+01  0.7957747E-01            NaN
         13   -1    0    0    0    0  0.00000000000E+00  0.00000000000E+00  0.74505805969E-08  0.10566000000E+00  0.10566000000E+00 0. -1.
     999900   -1    0    0    0    0 -0.00000000000E+00 -0.00000000000E+00 -0.74505805969E-08  0.93827000000E+00  0.93827000000E+00 0.  1.
     999902    2    1    2    0    0  0.13586752713E-02 -0.10437550936E-01 -0.20509840699E-01  0.10208769734E+01  0.10206166532E+01 0.  0.
     999903    2    3    3    0    0 -0.47997681041E-01  0.16702925164E-01 -0.12149234145E+00  0.13331282319E+00  0.20716049358E-01 0.  0.
         14    1    1    2    0    0 -0.13586752713E-02  0.10437550936E-01  0.20509840699E-01  0.23053026559E-01  0.00000000000E+00 0. -1.
     999901    1    3    3    0    0  0.49356356312E-01 -0.27140476100E-01  0.10098250075E+00  0.88756415025E+00  0.88000000000E+00 0. -1.
        -11    1    4    4    0    0 -0.38452924737E-01  0.20311148034E-01 -0.10769198951E+00  0.11614213655E+00  0.51100000000E-03 0. -1.
         11    1    4    4    0    0 -0.95447563037E-02 -0.36082228696E-02 -0.13800351941E-01  0.17170686645E-01  0.51100000000E-03 0.  1.
</event>
<event>
 8    1  0.1208168E+005  0.1043930E+01  0.7957747E-01            NaN
         13   -1    0    0    0    0  0.00000000000E+00  0.00000000000E+00  0.74505805969E-08  0.10566000000E+00  0.10566000000E+00 0.  1.
     999900   -1    0    0    0    0 -0.00000000000E+00 -0.00000000000E+00 -0.74505805969E-08  0.93827000000E+00  0.93827000000E+00 0. -1.
     999902    2    1    2    0    0  0.23429906267E-01 -0.36309847089E-02 -0.29400635830E-02  0.10200388190E+01  0.10197589929E+01 0.  0.
     999903    2    3    3    0    0 -0.10779476094E-01  0.12212278836E+00 -0.37834789390E-01  0.12975687757E+00  0.19370168999E-01 0.  0.
         14    1    1    2    0    0 -0.23429906267E-01  0.36309847089E-02  0.29400635830E-02  0.23891181040E-01  0.00000000000E+00 0.  1.
     999901    1    3    3    0    0  0.34209382361E-01 -0.12575377306E+00  0.34894725807E-01  0.89028194139E+00  0.88000000000E+00 0. -1.
        -11    1    4    4    0    0  0.82226889275E-03  0.64357517854E-01 -0.12246765426E-01  0.65519543763E-01  0.51100000000E-03 0. -1.
         11    1    4    4    0    0 -0.11601744987E-01  0.57765270501E-01 -0.25588023964E-01  0.64237333804E-01  0.51100000000E-03 0.  1.
</event>
<event>
 8    1  0.1208168E+005  0.1043930E+01  0.7957747E-01            NaN
         13   -1    0    0    0    0  0.00000000000E+00  0.00000000000E+00  0.74505805969E-08  0.10566000000E+00  0.10566000000E+00 0.  1.
     999900   -1    0    0    0    0 -0.00000000000E+00 -0.00000000000E+00 -0.74505805969E-08  0.93827000000E+00  0.93827000000E+00 0. -1.
     999902    2    1    2    0    0 -0.15040877696E-01  0.16665930944E-01  0.22988902488E-02  0.10213630739E+01  0.10211137364E+01 0.  0.
     999903    2    3    3    0    0 -0.43067252107E-01  0.20677891603E-01 -0.12167472677E+00  0.13222246007E+00  0.19891616503E-01 0.  0.
         14    1    1    2    0    0  0.15040877696E-01 -0.16665930944E-01 -0.22988902488E-02  0.22566926075E-01  0.00000000000E+00 0. -1.
     999901    1    3    3    0    0  0.28026374411E-01 -0.40119606586E-02  0.12397361702E+00  0.88914061386E+00  0.88000000000E+00 0.  1.
        -11    1    4    4    0    0 -0.27713198899E-01  0.82377902040E-02 -0.48890856918E-01  0.56801932994E-01  0.51100000000E-03 0.  1.
         11    1    4    4    0    0 -0.15354053207E-01  0.12440101399E-01 -0.72783869852E-01  0.75420527075E-01  0.51100000000E-03 0. -1.
</event>
<event>
 8    1  0.1208168E+005  0.1043930E+01  0.7957747E-01            NaN
         13   -1    0    0    0    0  0.00000000000E+00  0.00000000000E+00  0.74505805969E-08  0.10566000000E+00  0.10566000000E+00 0.  1.
     999900   -1    0    0    0    0 -0.00000000000E+00 -0.00000000000E+00 -0.74505805969E-08  0.93827000000E+00  0.93827000000E+00 0.  1.
     999902    2    1    2    0    0 -0.20468300442E-02 -0.22045347487E-01 -0.11139597091E-01  0.10191453781E+01  0.10188439646E+01 0.  0.
     999903    2    3    3    0    0  0.70343349075E-01  0.89857123572E-01  0.51551172354E-01  0.12690514497E+00  0.20613176174E-01 0.  0.
         14    1    1    2    0    0  0.20468300442E-02  0.22045347487E-01  0.11139597091E-01  0.24784621894E-01  0.00000000000E+00 0. -1.
     999901    1    3    3    0    0 -0.72390179119E-01 -0.11190247106E+00 -0.62690769445E-01  0.89224023314E+00  0.88000000000E+00 0.  1.
        -11    1    4    4    0    0  0.27152665803E-01  0.40138028515E-01  0.11451045903E-01  0.49796748554E-01  0.51100000000E-03 0.  1.
         11    1    4    4    0    0  0.43190683272E-01  0.49719095057E-01  0.40100126451E-01  0.77108396411E-01  0.51100000000E-03 0. -1.
</event>
<event>
 8    1  0.1208168E+005  0.1043930E+01  0.7957747E-01            NaN
         13   -1    0    0    0    0  0.00000000000E+00  0.00000000000E+00  0.74505805969E-08  0.10566000000E+00  0.10566000000E+00 0. -1.
     999900   -1    0    0    0    0 -0.00000000000E+00 -0.00000000000E+00 -0.74505805969E-08  0.93827000000E+00  0.93827000000E+00 0. -1.
     999902    2    1    2    0    0 -0.37360111596E-02  0.13551506078E-01 -0.20624116510E-01  0.10189709279E+01  0.10186652034E+01 0.  0.
     999903    2    3    3    0    0 -0.46514748503E-01 -0.42259602652E-01  0.10834941031E+00  0.12679433620E+00  0.19690432516E-01 0.  0.
         14    1    1    2    0    0  0.37360111596E-02 -0.13551506078E-01  0.20624116510E-01  0.24959072062E-01  0.00000000000E+00 0. -1.
     999901    1    3    3    0    0  0.42778737343E-01  0.55811108730E-01 -0.12897352682E+00  0.89217659174E+00  0.88000000000E+00 0. -1.
        -11    1    4    4    0    0 -0.32582477433E-01 -0.18559334122E-01  0.72388471601E-01  0.81525570593E-01  0.51100000000E-03 0.  1.
         11    1    4    4    0    0 -0.13932271069E-01 -0.23700268530E-01  0.35960938711E-01  0.45268765606E-01  0.51100000000E-03 0. -1.
</event>
<event>
 8    1  0.1208168E+005  0.1043930E+01  0.7957747E-01            NaN
         13   -1    0    0    0    0  0.00000000000E+00  0.00000000000E+00  0.74505805969E-08  0.10566000000E+00  0.10566000000E+00 0. -1.
     999900   -1    0    0    0    0 -0.00000000000E+00 -0.00000000000E+00 -0.74505805969E-08  0.93827000000E+00  0.93827000000E+00 0.  1.
     999902    2    1    2    0    0  0.19310267839E-01 -0.66453936285E-02 -0.12649838745E-01  0.10199077994E+01  0.10196248591E+01 0.  0.
     999903    2    3    3    0    0  0.60381853729E-01  0.90900612642E-01 -0.70943613266E-01  0.13165093192E+00  0.19750493011E-01 0.  0.
         14    1    1    2    0    0 -0.19310267839E-01  0.66453936285E-02  0.12649838745E-01  0.24022200582E-01  0.00000000000E+00 0. -1.
     999901    1    3    3    0    0 -0.41071585890E-01 -0.97546006271E-01  0.58293774520E-01  0.88825686750E+00  0.88000000000E+00 0. -1.
        -11    1    4    4    0    0  0.42548815275E-01  0.54389310510E-01 -0.53824703093E-01  0.87555459928E-01  0.51100000000E-03 0. -1.
         11    1    4    4    0    0  0.17833038455E-01  0.36511302132E-01 -0.17118910172E-01  0.44095471994E-01  0.51100000000E-03 0.  1.
</event>
<event>
 8    1  0.1208168E+005  0.1043930E+01  0.7957747E-01            NaN
         13   -1    0    0    0    0  0.00000000000E+00  0.00000000000E+00  0.74505805969E-08  0.10566000000E+00  0.10566000000E+00 0. -1.
     999900   -1    0    0    0    0 -0.00000000000E+00 -0.00000000000E+00 -0.74505805969E-08  0.93827000000E+00  0.93827000000E+00 0.  1.
     999902    2    1    2    0    0 -0.38657519161E-02 -0.16016243311E-02  0.24113721483E-01  0.10194559157E+01  0.10191620986E+01 0.  0.
     999903    2    3    3    0    0  0.86448555067E-02 -0.12624324608E+00 -0.18828049483E-01  0.12954803010E+00  0.20398675163E-01 0.  0.
         14    1    1    2    0    0  0.38657519161E-02  0.16016243311E-02 -0.24113721483E-01  0.24474084296E-01  0.00000000000E+00 0.  1.
     999901    1    3    3    0    0 -0.12510607423E-01  0.12464162175E+00  0.42941770966E-01  0.88990788561E+00  0.88000000000E+00 0. -1.
        -11    1    4    4    0    0 -0.97059638886E-03 -0.70279960101E-01 -0.19825827391E-02  0.70316474631E-01  0.51100000000E-03 0.  1.
         11    1    4    4    0    0  0.96154518956E-02 -0.55963285975E-01 -0.16845466744E-01  0.59231555468E-01  0.51100000000E-03 0. -1.
</event>
<event>
 8    1  0.1208168E+005  0.1043930E+01  0.7957747E-01            NaN
         13   -1    0    0    0    0  0.00000000000E+00  0.00000000000E+00  0.74505805969E-08  0.10566000000E+00  0.10566000000E+00 0. -1.
     999900   -1    0    0    0    0 -0.00000000000E+00 -0.00000000000E+00 -0.74505805969E-08  0.93827000000E+00  0.93827000000E+00 0. -1.
     999902    2    1    2    0    0 -0.27491054779E-02  0.14164735297E-01 -0.18580209956E-01  0.10204050875E+01  0.10201338741E+01 0.  0.
     999903    2    3    3    0    0  0.29389783189E-01  0.10899138113E+00 -0.68026239758E-01  0.13334820611E+00  0.20280391028E-01 0.  0.
         14    1    1    2    0    0  0.27491054779E-02 -0.14164735297E-01  0.18580209956E-01  0.23524912518E-01  0.00000000000E+00 0. -1.
     999901    1    3    3    0    0 -0.32138888667E-01 -0.94826645836E-01  0.49446029801E-01  0.88705688137E+00  0.88000000000E+00 0.  1.
        -11    1    4    4    0    0  0.67298242405E-02  0.60724074133E-01 -0.40870495108E-01  0.73507565631E-01  0.51100000000E-03 0.  1.
         11    1    4    4    0    0  0.22659958948E-01  0.48267307000E-01 -0.27155744650E-01  0.59840640480E-01  0.51100000000E-03 0. -1.
</event>
<event>
 8    1  0.1208168E+005  0.1043930E+01  0.7957747E-01            NaN
         13   -1    0    0    0    0  0.00000000000E+00  0.00000000000E+00  0.74505805969E-08  0.10566000000E+00  0.10566000000E+00 0.  1.
     999900   -1    0    0    0    0 -0.00000000000E+00 -0.00000000000E+00 -0.74505805969E-08  0.93827000000E+00  0.93827000000E+00 0. -1.
     999902    2    1    2    0    0 -0.14011141125E-01  0.84841396180E-03  0.21095137515E-01  0.10185915567E+01  0.10182763489E+01 0.  0.
     999903    2    3    3    0    0  0.73884529046E-01 -0.88438637354E-01 -0.51083255214E-01  0.12679138472E+00  0.13646980164E-01 0.  0.
         14    1    1    2    0    0  0.14011141125E-01 -0.84841396180E-03 -0.21095137515E-01  0.25338443296E-01  0.00000000000E+00 0. -1.
     999901    1    3    3    0    0 -0.87895670171E-01  0.89287051316E-01  0.72178392728E-01  0.89180017198E+00  0.88000000000E+00 0.  1.
        -11    1    4    4    0    0  0.65166228310E-01 -0.71398801629E-01 -0.45539355029E-01  0.10685747594E+00  0.51100000000E-03 0. -1.
         11    1    4    4    0    0  0.87183007363E-02 -0.17039835725E-01 -0.55439001841E-02  0.19933908787E-01  0.51100000000E-03 0.  1.
</event>
<event>
 8    1  0.1208168E+005  0.1043930E+01  0.7957747E-01            NaN
         13   -1    0    0    0    0  0.00000000000E+00  0.00000000000E+00  0.74505805969E-08  0.10566000000E+00  0.10566000000E+00 0. -1.
     999900   -1    0    0    0    0 -0.00000000000E+00 -0.00000000000E+00 -0.74505805969E-08  0.93827000000E+00  0.93827000000E+00 0.  1.
     999902    2    1    2    0    0  0.16893548299E-01  0.77696762368E-02 -0.85898459880E-02  0.10234471951E+01  0.10232422078E+01 0.  0.
     999903    2    3    3    0    0  0.86134250152E-01 -0.96386762872E-01 -0.19022064647E-01  0.13454243653E+00  0.32098460679E-01 0.  0.
         14    1    1    2    0    0 -0.16893548299E-01 -0.77696762368E-02  0.85898459880E-02  0.20482804912E-01  0.00000000000E+00 0. -1.
     999901    1    3    3    0    0 -0.69240701853E-01  0.10415643911E+00  0.10432218659E-01  0.88890475856E+00  0.88000000000E+00 0. -1.
        -11    1    4    4    0    0  0.16448306321E-01 -0.20491193798E-01  0.89726100521E-02  0.27770571766E-01  0.51100000000E-03 0.  1.
         11    1    4    4    0    0  0.69685943831E-01 -0.75895569074E-01 -0.27994674699E-01  0.10677186476E+00  0.51100000000E-03 0. -1.
</event>
<event>
 8    1  0.1208168E+005  0.1043930E+01  0.7957747E-01            NaN
         13   -1    0    0    0    0  0.00000000000E+00  0.00000000000E+00  0.74505805969E-08  0.10566000000E+00  0.10566000000E+00 0. -1.
     999900   -1    0    0    0    0 -0.00000000000E+00 -0.00000000000E+00 -0.74505805969E-08  0.93827000000E+00  0.93827000000E+00 0. -1.
     999902    2    1    2    0    0  0.23288080463E-01 -0.11688022725E-02  0.52405317967E-02  0.10200309631E+01  0.10197509508E+01 0.  0.
     999903    2    3    3    0    0  0.72705346270E-01  0.69190314502E-02 -0.10749882725E+00  0.13142664043E+00  0.19570988270E-01 0.  0.
         14    1    1    2    0    0 -0.23288080463E-01  0.11688022725E-02 -0.52405317967E-02  0.23899036882E-01  0.00000000000E+00 0. -1.
     999901    1    3    3    0    0 -0.49417265808E-01 -0.80878337226E-02  0.11273935905E+00  0.88860432268E+00  0.88000000000E+00 0.  1.
        -11    1    4    4    0    0  0.23466995882E-01  0.97324539990E-02 -0.27471004003E-01  0.37421086816E-01  0.51100000000E-03 0.  1.
         11    1    4    4    0    0  0.49238350388E-01 -0.28134225488E-02 -0.80027823252E-01  0.94005553617E-01  0.51100000000E-03 0. -1.
</event>
<event>
 8    1  0.1208168E+005  0.1043930E+01  0.7957747E-01            NaN
         13   -1    0    0    0    0  0.00000000000E+00  0.00000000000E+00  0.74505805969E-08  0.10566000000E+00  0.10566000000E+00 0. -1.
     999900   -1    0    0    0    0 -0.00000000000E+00 -0.00000000000E+00 -0.74505805969E-08  0.93827000000E+00  0.93827000000E+00 0.  1.
     999902    2    1    2    0    0 -0.77039309382E-02 -0.47486202518E-02 -0.21639727399E-01  0.10204741319E+01  0.10202045266E+01 0.  0.
     999903    2    3    3    0    0 -0.10882411786E+00  0.67742317922E-01  0.17374302042E-01  0.13086617173E+00  0.19808540182E-01 0.  0.
         14    1    1    2    0    0  0.77039309382E-02  0.47486202518E-02  0.21639727399E-01  0.23455868095E-01  0.00000000000E+00 0. -1.
     999901    1    3    3    0    0  0.10112018693E+00 -0.72490938174E-01 -0.39014029441E-01  0.88960796018E+00  0.88000000000E+00 0.  1.
        -11    1    4    4    0    0 -0.82833086542E-01  0.41175724960E-01  0.11038477603E-01  0.93160451163E-01  0.51100000000E-03 0. -1.
         11    1    4    4    0    0 -0.25991031323E-01  0.26566592962E-01  0.63358244383E-02  0.37705720563E-01  0.51100000000E-03 0.  1.
</event>
<event>
 8    1  0.1208168E+005  0.1043930E+01  0.7957747E-01            NaN
         13   -1    0    0    0    0  0.00000000000E+00  0.00000000000E+00  0.74505805969E-08  0.10566000000E+00  0.10566000000E+00 0. -1.
     999900   -1    0    0    0    0 -0.00000000000E+00 -0.00000000000E+00 -0.74505805969E-08  0.93827000000E+00  0.93827000000E+00 0.  1.
     999902    2    1    2    0    0 -0.19686812725E-01  0.25226260559E-02  0.12936166626E-01  0.10202386800E+01  0.10199635707E+01 0.  0.
     999903    2    3    3    0    0  0.32382178273E-01 -0.36095245654E-01  0.12053896972E+00  0.13131748939E+00  0.19056955931E-01 0.  0.
         14    1    1    2    0    0  0.19686812725E-01 -0.25226260559E-02 -0.12936166626E-01  0.23691320023E-01  0.00000000000E+00 0.  1.
     999901    1    3    3    0    0 -0.52068990997E-01  0.38617871710E-01 -0.10760280310E+00  0.88892119059E+00  0.88000000000E+00 0.  1.
        -11    1    4    4    0    0  0.10144453145E-01 -0.10103057727E-02  0.18173865042E-01  0.20844211161E-01  0.51100000000E-03 0.  1.
         11    1    4    4    0    0  0.22237725128E-01 -0.35084939881E-01  0.10236510468E+00  0.11047327823E+00  0.51100000000E-03 0. -1.
</event>
<event>
 8    1  0.1208168E+005  0.1043930E+01  0.7957747E-01            NaN
         13   -1    0    0    0    0  0.00000000000E+00  0.00000000000E+00  0.74505805969E-08  0.10566000000E+00  0.10566000000E+00 0. -1.
     999900   -1    0    0    0    0 -0.00000000000E+00 -0.00000000000E+00 -0.74505805969E-08  0.93827000000E+00  0.93827000000E+00 0.  1.
     999902    2    1    2    0    0 -0.22553274003E-01 -0.38040742977E-02  0.35827256680E-02  0.10207792533E+01  0.10205166960E+01 0.  0.
     999903    2    3    3    0    0  0.52228258684E-01 -0.42748178666E-01  0.10967741605E+00  0.13040573380E+00  0.20526130485E-01 0.  0.
         14    1    1    2    0    0  0.22553274003E-01  0.38040742977E-02 -0.35827256680E-02  0.23150746699E-01  0.00000000000E+00 0.  1.
     999901    1    3    3    0    0 -0.74781532686E-01  0.38944104368E-01 -0.10609469038E+00  0.89037351950E+00  0.88000000000E+00 0.  1.
        -11    1    4    4    0    0  0.36030421762E-01 -0.38708158792E-01  0.73390445095E-01  0.90459556718E-01  0.51100000000E-03 0. -1.
         11    1    4    4    0    0  0.16197836922E-01 -0.40400198740E-02  0.36286970957E-01  0.39946177085E-01  0.51100000000E-03 0.  1.
</event>
<event>
 8    1  0.1208168E+005  0.1043930E+01  0.7957747E-01            NaN
         13   -1    0    0    0    0  0.00000000000E+00  0.00000000000E+00  0.74505805969E-08  0.10566000000E+00  0.10566000000E+00 0. -1.
     999900   -1    0    0    0    0 -0.00000000000E+00 -0.00000000000E+00 -0.74505805969E-08  0.93827000000E+00  0.93827000000E+00 0.  1.
     999902    2    1    2    0    0  0.66719580584E-02 -0.11569423681E-01  0.19555394404E-01  0.10202492053E+01  0.10199743432E+01 0.  0.
     999903    2    3    3    0    0 -0.38641234230E-01 -0.97711200342E-01 -0.74256843046E-01  0.12992655197E+00  0.18061188040E-01 0.  0.
         14    1    1    2    0    0 -0.66719580584E-02  0.11569423681E-01 -0.19555394404E-01  0.23680794728E-01  0.00000000000E+00 0.  1.
     999901    1    3    3    0    0  0.45313192288E-01  0.86141776661E-01  0.93812237450E-01  0.89032265330E+00  0.88000000000E+00 0. -1.
        -11    1    4    4    0    0 -0.20053101900E-01 -0.28698864143E-01 -0.21465377775E-01  0.41070369647E-01  0.51100000000E-03 0.  1.
         11    1    4    4    0    0 -0.18588132330E-01 -0.69012336199E-01 -0.52791465271E-01  0.88856182327E-01  0.51100000000E-03 0. -1.
</event>
<event>
 8    1  0.1208168E+005  0.1043930E+01  0.7957747E-01            NaN
         13   -1    0    0    0    0  0.00000000000E+00  0.00000000000E+00  0.74505805969E-08  0.10566000000E+00  0.10566000000E+00 0.  1.
     999900   -1    0    0    0    0 -0.00000000000E+00 -0.00000000000E+00 -0.74505805969E-08  0.93827000000E+00  0.93827000000E+00 0. -1.
     999902    2    1    2    0    0 -0.14868691180E-01  0.18922654515E-01  0.44612387768E-02  0.10194545535E+01  0.10191607033E+01 0.  0.
     999903    2    3    3    0    0  0.15752787088E-01  0.21308169933E-02 -0.12649824868E+00  0.12907821276E+00  0.20166492249E-01 0.  0.
         14    1    1    2    0    0  0.14868691180E-01 -0.18922654515E-01 -0.44612387768E-02  0.24475446527E-01  0.00000000000E+00 0. -1.
     999901    1    3    3    0    0 -0.30621478268E-01  0.16791837521E-01  0.13095948746E+00  0.89037634071E+00  0.88000000000E+00 0.  1.
        -11    1    4    4    0    0  0.19727700004E-02  0.96074123814E-02 -0.41655625488E-01  0.42797738842E-01  0.51100000000E-03 0. -1.
         11    1    4    4    0    0  0.13780017087E-01 -0.74765953881E-02 -0.84842623190E-01  0.86280473923E-01  0.51100000000E-03 0.  1.
</event>
<event>
 8    1  0.1208168E+005  0.1043930E+01  0.7957747E-01            NaN
         13   -1    0    0    0    0  0.00000000000E+00  0.00000000000E+00  0.74505805969E-08  0.10566000000E+00  0.10566000000E+00 0. -1.
     999900   -1    0    0    0    0 -0.00000000000E+00 -0.00000000000E+00 -0.74505805969E-08  0.93827000000E+00  0.93827000000E+00 0.  1.
     999902    2    1    2    0    0 -0.11693446610E-01  0.16930961975E-01  0.86853403253E-02  0.10215955131E+01  0.10213513417E+01 0.  0.
     999903    2    3    3    0    0  0.95153587792E-01 -0.13714859731E-01 -0.84442606247E-01  0.12972765881E+00  0.21363732410E-01 0.  0.
         14    1    1    2    0    0  0.11693446610E-01 -0.16930961975E-01 -0.86853403253E-02  0.22334486867E-01  0.00000000000E+00 0.  1.
     999901    1    3    3    0    0 -0.10684703440E+00  0.30645821707E-01  0.93127946573E-01  0.89186785433E+00  0.88000000000E+00 0. -1.
        -11    1    4    4    0    0  0.31284542689E-01 -0.89472710482E-02 -0.40956645058E-01  0.52311415254E-01  0.51100000000E-03 0.  1.
         11    1    4    4    0    0  0.63869045103E-01 -0.47675886832E-02 -0.43485961189E-01  0.77416243553E-01  0.51100000000E-03 0. -1.
</event>
<event>
 8    1  0.1208168E+005  0.1043930E+01  0.7957747E-01            NaN
         13   -1    0    0    0    0  0.00000000000E+00  0.00000000000E+00  0.74505805969E-08  0.10566000000E+00  0.10566000000E+00 0.  1.
     999900   -1    0    0    0    0 -0.00000000000E+00 -0.00000000000E+00 -0.74505805969E-08  0.93827000000E+00  0.93827000000E+00 0.  1.
     999902    2    1    2    0    0 -0.44219941102E-02  0.10307369548E-01 -0.21196796264E-01  0.10199487559E+01  0.10196667909E+01 0.  0.
     999903    2    3    3    0    0  0.82101577986E-01 -0.96529069446E-01 -0.16587025114E-01  0.12926272632E+00  0.19369890462E-01 0.  0.
         14    1    1    2    0    0  0.44219941102E-02 -0.10307369548E-01  0.21196796264E-01  0.23981244145E-01  0.00000000000E+00 0.  1.
     999901    1    3    3    0    0 -0.86523572097E-01  0.10683643899E+00 -0.46097711497E-02  0.89068602954E+00  0.88000000000E+00 0. -1.
        -11    1    4    4    0    0  0.58478311523E-01 -0.56102367432E-01 -0.60439673423E-02  0.81264870715E-01  0.51100000000E-03 0. -1.
         11    1    4    4    0    0  0.23623266464E-01 -0.40426702014E-01 -0.10543057772E-01  0.47997855601E-01  0.51100000000E-03 0.  1.
</event>
<event>
 8    1  0.1208168E+005  0.1043930E+01  0.7957747E-01            NaN
         13   -1    0    0    0    0  0.00000000000E+00  0.00000000000E+00  0.74505805969E-08  0.10566000000E+00  0.10566000000E+00 0. -1.
     999900   -1    0    0    0    0 -0.00000000000E+00 -0.00000000000E+00 -0.74505805969E-08  0.93827000000E+00  0.93827000000E+00 0.  1.
     999902    2    1    2    0    0 -0.22041647241E-01 -0.65821052199E-02 -0.44934486620E-02  0.10204917961E+01  0.10202226014E+01 0.  0.
     999903    2    3    3    0    0  0.11772907529E-01  0.12784365024E+00 -0.55577722963E-02  0.12964116852E+00  0.17127273101E-01 0.  0.
         14    1    1    2    0    0  0.22041647241E-01  0.65821052199E-02  0.44934486620E-02  0.23438203922E-01  0.00000000000E+00 0. -1.
     999901    1    3    3    0    0 -0.33814554770E-01 -0.13442575546E+00  0.10643236343E-02  0.89085062756E+00  0.88000000000E+00 0. -1.
        -11    1    4    4    0    0 -0.59720663602E-03  0.77811205897E-01 -0.65476665512E-02  0.78090162487E-01  0.51100000000E-03 0. -1.
         11    1    4    4    0    0  0.12370114165E-01  0.50032444338E-01  0.98989425494E-03  0.51551006028E-01  0.51100000000E-03 0.  1.
</event>
<event>
 8    1  0.1208168E+005  0.1043930E+01  0.7957747E-01            NaN
         13   -1    0    0    0    0  0.00000000000E+00  0.00000000000E+00  0.74505805969E-08  0.10566000000E+00  0.10566000000E+00 0. -1.
     999900   -1    0    0    0    0 -0.00000000000E+00 -0.00000000000E+00 -0.74505805969E-08  0.93827000000E+00  0.93827000000E+00 0. -1.
     999902    2    1    2    0    0 -0.18042206077E-01  0.10312718885E-01 -0.12387953942E-01  0.10197363071E+01  0.10194492637E+01 0.  0.
     999903    2    3    3    0    0 -0.43495582572E-01 -0.11177560264E+00  0.43555508475E-01  0.12918417301E+00  0.20144904819E-01 0.  0.
         14    1    1    2    0    0  0.18042206077E-01 -0.10312718885E-01  0.12387953942E-01  0.24193692851E-01  0.00000000000E+00 0. -1.
     999901    1    3    3    0    0  0.25453376496E-01  0.12208832152E+00 -0.55943462416E-01  0.89055213414E+00  0.88000000000E+00 0. -1.
        -11    1    4    4    0    0 -0.85691890990E-02 -0.41000974861E-01  0.22257689841E-01  0.47436028706E-01  0.51100000000E-03 0. -1.
         11    1    4    4    0    0 -0.34926393473E-01 -0.70774627776E-01  0.21297818634E-01  0.81748144306E-01  0.51100000000E-03 0.  1.
</event>
<event>
 8    1  0.1208168E+005  0.1043930E+01  0.7957747E-01            NaN
         13   -1    0    0    0    0  0.00000000000E+00  0.00000000000E+00  0.74505805969E-08  0.10566000000E+00  0.10566000000E+00 0. -1.
     999900   -1    0    0    0    0 -0.00000000000E+00 -0.00000000000E+00 -0.74505805969E-08  0.93827000000E+00  0.93827000000E+00 0.  1.
     999902    2    1    2    0    0  0.35524414071E-02  0.79201873439E-02  0.23421897788E-01  0.10189513190E+01  0.10186451080E+01 0.  0.
     999903    2    3    3    0    0 -0.74752979291E-01  0.90317511747E-01 -0.49576548149E-01  0.12864247874E+00  0.18595493211E-01 0.  0.
         14    1    1    2    0    0 -0.35524414071E-02 -0.79201873439E-02 -0.23421897788E-01  0.24978680980E-01  0.00000000000E+00 0.  1.
     999901    1    3    3    0    0  0.78305420698E-01 -0.82397324403E-01  0.72998445937E-01  0.89030884028E+00  0.88000000000E+00 0.  1.
        -11    1    4    4    0    0 -0.29379091254E-01  0.39660020698E-01 -0.11428120203E-01  0.50664694779E-01  0.51100000000E-03 0. -1.
         11    1    4    4    0    0 -0.45373888037E-01  0.50657491049E-01 -0.38148427947E-01  0.77977783956E-01  0.51100000000E-03 0.  1.
</event>
<event>
 8    1  0.1208168E+005  0.1043930E+01  0.7957747E-01            NaN
         13   -1    0    0    0    0  0.00000000000E+00  0.00000000000E+00  0.74505805969E-08  0.10566000000E+00  0.10566000000E+00 0. -1.
     999900   -1    0    0    0    0 -0.00000000000E+00 -0.00000000000E+00 -0.74505805969E-08  0.93827000000E+00  0.93827000000E+00 0. -1.
     999902    2    1    2    0    0  0.56807132433E-02  0.23199304291E-01 -0.78932300843E-03  0.10200322751E+01  0.10197522940E+01 0.  0.
     999903    2    3    3    0    0  0.40565892209E-01 -0.90239062491E-01  0.79768647003E-01  0.12841866752E+00  0.18429246117E-01 0.  0.
         14    1    1    2    0    0 -0.56807132433E-02 -0.23199304291E-01  0.78932300843E-03  0.23897724857E-01  0.00000000000E+00 0. -1.
     999901    1    3    3    0    0 -0.34885178966E-01  0.11343836678E+00 -0.80557970011E-01  0.89161360762E+00  0.88000000000E+00 0. -1.
        -11    1    4    4    0    0  0.24686461255E-01 -0.41088733748E-01  0.47662730191E-01  0.67599573820E-01  0.51100000000E-03 0. -1.
         11    1    4    4    0    0  0.15879430954E-01 -0.49150328743E-01  0.32105916812E-01  0.60819093699E-01  0.51100000000E-03 0.  1.
</event>
<event>
 8    1  0.1208168E+005  0.1043930E+01  0.7957747E-01            NaN
         13   -1    0    0    0    0  0.00000000000E+00  0.00000000000E+00  0.74505805969E-08  0.10566000000E+00  0.10566000000E+00 0.  1.
     999900   -1    0    0    0    0 -0.00000000000E+00 -0.00000000000E+00 -0.74505805969E-08  0.93827000000E+00  0.93827000000E+00 0. -1.
     999902    2    1    2    0    0  0.17527831949E-01  0.11736810493E-01 -0.99251059994E-02  0.10206172279E+01  0.10203509399E+01 0.  0.
     999903    2    3    3    0    0  0.73919963358E-01 -0.82466745069E-01 -0.68567250569E-01  0.13185782094E+00  0.20496147598E-01 0.  0.
         14    1    1    2    0    0 -0.17527831949E-01 -0.11736810493E-01  0.99251059994E-02  0.23312772089E-01  0.00000000000E+00 0. -1.
     999901    1    3    3    0    0 -0.56392131409E-01  0.94203555562E-01  0.58642144570E-01  0.88875940697E+00  0.88000000000E+00 0. -1.
        -11    1    4    4    0    0  0.29186891730E-01 -0.19395390653E-01 -0.17337794911E-01  0.39101356509E-01  0.51100000000E-03 0. -1.
         11    1    4    4    0    0  0.44733071628E-01 -0.63071354416E-01 -0.51229455658E-01  0.92756464428E-01  0.51100000000E-03 0.  1.
</event>
<event>
 8    1  0.1208168E+005  0.1043930E+01  0.7957747E-01            NaN
         13   -1    0    0    0    0  0.00000000000E+00  0.00000000000E+00  0.74505805969E-08  0.10566000000E+00  0.10566000000E+00 0.  1.
     999900   -1    0    0    0    0 -0.00000000000E+00 -0.00000000000E+00 -0.74505805969E-08  0.93827000000E+00  0.93827000000E+00 0. -1.
     999902    2    1    2    0    0  0.20179007317E-02  0.25602569741E-01 -0.26753997078E-02  0.10181090538E+01  0.10177815699E+01 0.  0.
     999903    2    3    3    0    0 -0.89263335696E-01  0.91026118108E-01 -0.20581370563E-01  0.13079111267E+00  0.20712920155E-01 0.  0.
         14    1    1    2    0    0 -0.20179007317E-02 -0.25602569741E-01  0.26753997078E-02  0.25820946232E-01  0.00000000000E+00 0. -1.
     999901    1    3    3    0    0  0.91281236428E-01 -0.65423548367E-01  0.17905970855E-01  0.88731794110E+00  0.88000000000E+00 0. -1.
        -11    1    4    4    0    0 -0.15265575975E-01  0.24592007403E-01 -0.10668937689E-01  0.30852746885E-01  0.51100000000E-03 0.  1.
         11    1    4    4    0    0 -0.73997759721E-01  0.66434110705E-01 -0.99124328741E-02  0.99938365783E-01  0.51100000000E-03 0. -1.
</event>
<event>
 8    1  0.1208168E+005  0.1043930E+01  0.7957747E-01            NaN
         13   -1    0    0    0    0  0.00000000000E+00  0.00000000000E+00  0.74505805969E-08  0.10566000000E+00  0.10566000000E+00 0. -1.
     999900   -1    0    0    0    0 -0.00000000000E+00 -0.00000000000E+00 -0.74505805969E-08  0.93827000000E+00  0.93827000000E+00 0.  1.
     999902    2    1    2    0    0  0.10901433636E-01  0.96263418731E-03  0.20551318496E-01  0.10206464304E+01  0.10203808168E+01 0.  0.
     999903    2    3    3    0    0 -0.11112876648E+00  0.14018671719E-01 -0.59803507104E-01  0.12850365719E+00  0.19763718082E-01 0.  0.
         14    1    1    2    0    0 -0.10901433636E-01 -0.96263418731E-03 -0.20551318496E-01  0.23283569568E-01  0.00000000000E+00 0.  1.
     999901    1    3    3    0    0  0.12203020012E+00 -0.13056037531E-01  0.80354825600E-01  0.89214277325E+00  0.88000000000E+00 0. -1.
        -11    1    4    4    0    0 -0.95017472053E-01  0.16944859843E-01 -0.45285577721E-01  0.10661375587E+00  0.51100000000E-03 0. -1.
         11    1    4    4    0    0 -0.16111294427E-01 -0.29261881248E-02 -0.14517929382E-01  0.21889901316E-01  0.51100000000E-03 0.  1.
</event>
<event>
 8    1  0.1208168E+005  0.1043930E+01  0.7957747E-01            NaN
         13   -1    0    0    0    0  0.00000000000E+00  0.00000000000E+00  0.74505805969E-08  0.10566000000E+00  0.10566000000E+00 0. -1.
     999900   -1    0    0    0    0 -0.00000000000E+00 -0.00000000000E+00 -0.74505805969E-08  0.93827000000E+00  0.93827000000E+00 0.  1.
     999902    2    1    2    0    0 -0.26360234781E-02  0.48994292198E-02 -0.23380982557E-01  0.10198962035E+01  0.10196129867E+01 0.  0.
     999903    2    3    3    0    0  0.98753459743E-01 -0.61001841593E-01  0.50857919948E-01  0.12852971358E+00  0.21445017178E-01 0.  0.
         14    1    1    2    0    0  0.26360234781E-02 -0.48994292198E-02  0.23380982557E-01  0.24033796450E-01  0.00000000000E+00 0. -1.
     999901    1    3    3    0    0 -0.10138948322E+00  0.65901270813E-01 -0.74238902505E-01  0.89136648997E+00  0.88000000000E+00 0.  1.
        -11    1    4    4    0    0  0.65058304323E-01 -0.49601801842E-01  0.29124955066E-01  0.86841498352E-01  0.51100000000E-03 0.  1.
         11    1    4    4    0    0  0.33695155420E-01 -0.11400039751E-01  0.21732964882E-01  0.41688215225E-01  0.51100000000E-03 0. -1.
</event>
<event>
 8    1  0.1208168E+005  0.1043930E+01  0.7957747E-01            NaN
         13   -1    0    0    0    0  0.00000000000E+00  0.00000000000E+00  0.74505805969E-08  0.10566000000E+00  0.10566000000E+00 0.  1.
     999900   -1    0    0    0    0 -0.00000000000E+00 -0.00000000000E+00 -0.74505805969E-08  0.93827000000E+00  0.93827000000E+00 0. -1.
     999902    2    1    2    0    0 -0.19839752124E-01 -0.95185347154E-02  0.11098809240E-01  0.10192844764E+01  0.10189864778E+01 0.  0.
     999903    2    3    3    0    0  0.37423139058E-01  0.59284420464E-01 -0.10451919603E+00  0.12721922738E+00  0.18583208262E-01 0.  0.
         14    1    1    2    0    0  0.19839752124E-01  0.95185347154E-02 -0.11098809240E-01  0.24645523610E-01  0.00000000000E+00 0.  1.
     999901    1    3    3    0    0 -0.57262891182E-01 -0.68802955179E-01  0.11561800527E+00  0.89206524901E+00  0.88000000000E+00 0.  1.
        -11    1    4    4    0    0  0.31303073383E-01  0.51322806965E-01 -0.75523877909E-01  0.96529944439E-01  0.51100000000E-03 0. -1.
         11    1    4    4    0    0  0.61200656744E-02  0.79616134986E-02 -0.28995318123E-01  0.30689282941E-01  0.51100000000E-03 0.  1.
</event>
<event>
 8    1  0.1208168E+005  0.1043930E+01  0.7957747E-01            NaN
         13   -1    0    0    0    0  0.00000000000E+00  0.00000000000E+00  0.74505805969E-08  0.10566000000E+00  0.10566000000E+00 0. -1.
     999900   -1    0    0    0    0 -0.00000000000E+00 -0.00000000000E+00 -0.74505805969E-08  0.93827000000E+00  0.93827000000E+00 0. -1.
     999902    2    1    2    0    0 -0.22534018743E-01 -0.72760948378E-03  0.36981084469E-02  0.10210829559E+01  0.10208273191E+01 0.  0.
     999903    2    3    3    0    0  0.17370224737E-01 -0.48988810971E-01  0.11890958776E+00  0.13136660946E+00  0.20397737970E-01 0.  0.
         14    1    1    2    0    0  0.22534018743E-01  0.72760948378E-03 -0.36981084469E-02  0.22847044062E-01  0.00000000000E+00 0. -1.
     999901    1    3    3    0    0 -0.39904243481E-01  0.48261201488E-01 -0.11521147931E+00  0.88971634647E+00  0.88000000000E+00 0.  1.
        -11    1    4    4    0    0  0.65290786017E-02 -0.12463115559E-01  0.14452024356E-01  0.20176229723E-01  0.51100000000E-03 0. -1.
         11    1    4    4    0    0  0.10841146136E-01 -0.36525695412E-01  0.10445756340E+00  0.11119037974E+00  0.51100000000E-03 0.  1.
</event>
<event>
 8    1  0.1208168E+005  0.1043930E+01  0.7957747E-01            NaN
         13   -1    0    0    0    0  0.00000000000E+00  0.00000000000E+00  0.74505805969E-08  0.10566000000E+00  0.10566000000E+00 0. -1.
     999900   -1    0    0    0    0 -0.00000000000E+00 -0.00000000000E+00 -0.74505805969E-08  0.93827000000E+00  0.93827000000E+00 0. -1.
     999902    2    1    2    0    0  0.12501900938E-01 -0.86696073578E-02 -0.18084344387E-01  0.10202973292E+01  0.10200235962E+01 0.  0.
     999903    2    3    3    0    0 -0.10065661662E+00  0.46147820320E-01 -0.65413616490E-01  0.13010080004E+00  0.19644367104E-01 0.  0.
         14    1    1    2    0    0 -0.12501900938E-01  0.86696073578E-02  0.18084344387E-01  0.23632670834E-01  0.00000000000E+00 0. -1.
     999901    1    3    3    0    0  0.11315851756E+00 -0.54817427678E-01  0.47329272102E-01  0.89019652913E+00  0.88000000000E+00 0.  1.
        -11    1    4    4    0    0 -0.43101093361E-01  0.24734552185E-01 -0.19340892708E-01  0.53327606101E-01  0.51100000000E-03 0. -1.
         11    1    4    4    0    0 -0.57555523258E-01  0.21413268135E-01 -0.46072723782E-01  0.76773193938E-01  0.51100000000E-03 0.  1.
</event>
<event>
 8    1  0.1208168E+005  0.1043930E+01  0.7957747E-01            NaN
         13   -1    0    0    0    0  0.00000000000E+00  0.00000000000E+00  0.74505805969E-08  0.10566000000E+00  0.10566000000E+00 0. -1.
     999900   -1    0    0    0    0 -0.00000000000E+00 -0.00000000000E+00 -0.74505805969E-08  0.93827000000E+00  0.93827000000E+00 0.  1.
     999902    2    1    2    0    0 -0.14062673685E-01  0.15953705079E-01  0.10701214399E-01  0.10201225330E+01  0.10198446876E+01 0.  0.
     999903    2    3    3    0    0 -0.29618026235E-01  0.12791188669E+00  0.24833484115E-02  0.13285473983E+00  0.20137940287E-01 0.  0.
         14    1    1    2    0    0  0.14062673685E-01 -0.15953705079E-01 -0.10701214399E-01  0.23807467033E-01  0.00000000000E+00 0.  1.
     999901    1    3    3    0    0  0.15555352549E-01 -0.11195818162E+00  0.82178659875E-02  0.88726779314E+00  0.88000000000E+00 0.  1.
        -11    1    4    4    0    0 -0.29291080375E-01  0.10339094150E+00 -0.38207622379E-02  0.10752912870E+00  0.51100000000E-03 0.  1.
         11    1    4    4    0    0 -0.32694585920E-03  0.24520945192E-01  0.63041106494E-02  0.25325611123E-01  0.51100000000E-03 0. -1.
</event>
<event>
 8    1  0.1208168E+005  0.1043930E+01  0.7957747E-01            NaN
         13   -1    0    0    0    0  0.00000000000E+00  0.00000000000E+00  0.74505805969E-08  0.10566000000E+00  0.10566000000E+00 0.  1.
     999900   -1    0    0    0    0 -0.00000000000E+00 -0.00000000000E+00 -0.74505805969E-08  0.93827000000E+00  0.93827000000E+00 0.  1.
     999902    2    1    2    0    0 -0.67772555752E-02 -0.22861803412E-01 -0.73320267200E-02  0.10189830189E+01  0.10186775942E+01 0.  0.
     999903    2    3    3    0    0  0.85973409433E-01  0.33161857123E-01  0.85961342601E-01  0.12744222393E+00  0.19000845276E-01 0.  0.
         14    1    1    2    0    0  0.67772555752E-02  0.22861803412E-01  0.73320267200E-02  0.24946981064E-01  0.00000000000E+00 0.  1.
     999901    1    3    3    0    0 -0.92750665008E-01 -0.56023660535E-01 -0.93293369321E-01  0.89154079501E+00  0.88000000000E+00 0.  1.
        -11    1    4    4    0    0  0.19934744753E-01  0.10297486571E-01  0.11129748282E-01  0.25051241404E-01  0.51100000000E-03 0.  1.
         11    1    4    4    0    0  0.66038664680E-01  0.22864370553E-01  0.74831594320E-01  0.10239098253E+00  0.51100000000E-03 0. -1.
</event>
<event>
 8    1  0.1208168E+005  0.1043930E+01  0.7957747E-01            NaN
         13   -1    0    0    0    0  0.00000000000E+00  0.00000000000E+00  0.74505805969E-08  0.10566000000E+00  0.10566000000E+00 0. -1.
     999900   -1    0    0    0    0 -0.00000000000E+00 -0.00000000000E+00 -0.74505805969E-08  0.93827000000E+00  0.93827000000E+00 0. -1.
     999902    2    1    2    0    0  0.22484812211E-01  0.27074096567E-02 -0.67171358172E-02  0.10203076216E+01  0.10200341298E+01 0.  0.
     999903    2    3    3    0    0  0.11660431245E+00  0.61400545657E-01  0.78351531463E-03  0.13331290668E+00  0.20127704901E-01 0.  0.
         14    1    1    2    0    0 -0.22484812211E-01 -0.27074096567E-02  0.67171358172E-02  0.23622378390E-01  0.00000000000E+00 0. -1.
     999901    1    3    3    0    0 -0.94119500235E-01 -0.58693136001E-01 -0.75006511318E-02  0.88699471493E+00  0.88000000000E+00 0.  1.
        -11    1    4    4    0    0  0.93398516080E-01  0.42775919538E-01 -0.55782406862E-02  0.10288070756E+00  0.51100000000E-03 0. -1.
         11    1    4    4    0    0  0.23205796366E-01  0.18624626120E-01  0.63617560009E-02  0.30432199124E-01  0.51100000000E-03 0.  1.
</event>
<event>
 8    1  0.1208168E+005  0.1043930E+01  0.7957747E-01            NaN
         13   -1    0    0    0    0  0.00000000000E+00  0.00000000000E+00  0.74505805969E-08  0.10566000000E+00  0.10566000000E+00 0.  1.
     999900   -1    0    0    0    0 -0.00000000000E+00 -0.00000000000E+00 -0.74505805969E-08  0.93827000000E+00  0.93827000000E+00 0. -1.
     999902    2    1    2    0    0 -0.12722507024E-01 -0.22445928551E-02  0.19302676701E-01  0.10207029961E+01  0.10204386863E+01 0.  0.
     999903    2    3    3    0    0  0.11741348132E+00  0.80603836196E-02 -0.47836738504E-01  0.12854310625E+00  0.19597990546E-01 0.  0.
         14    1    1    2    0    0  0.12722507024E-01  0.22445928551E-02 -0.19302676701E-01  0.23227003894E-01  0.00000000000E+00 0. -1.
     999901    1    3    3    0    0 -0.13013598834E+00 -0.10304976475E-01  0.67139415204E-01  0.89215988986E+00  0.88000000000E+00 0. -1.
        -11    1    4    4    0    0  0.39598985328E-01 -0.39630671899E-02 -0.92681401527E-02  0.40864961561E-01  0.51100000000E-03 0. -1.
         11    1    4    4    0    0  0.77814495990E-01  0.12023450809E-01 -0.38568598351E-01  0.87678144684E-01  0.51100000000E-03 0.  1.
</event>
<event>
 8    1  0.1208168E+005  0.1043930E+01  0.7957747E-01            NaN
         13   -1    0    0    0    0  0.00000000000E+00  0.00000000000E+00  0.74505805969E-08  0.10566000000E+00  0.10566000000E+00 0.  1.
     999900   -1    0    0    0    0 -0.00000000000E+00 -0.00000000000E+00 -0.74505805969E-08  0.93827000000E+00  0.93827000000E+00 0. -1.
     999902    2    1    2    0    0  0.14540276085E-01 -0.11573391496E-01  0.14768609930E-01  0.10201923746E+01  0.10199161762E+01 0.  0.
     999903    2    3    3    0    0 -0.76770622873E-01 -0.30778793151E-01  0.99825835945E-01  0.13118098020E+00  0.20054660275E-01 0.  0.
         14    1    1    2    0    0 -0.14540276085E-01  0.11573391496E-01 -0.14768609930E-01  0.23737625379E-01  0.00000000000E+00 0. -1.
     999901    1    3    3    0    0  0.91310898958E-01  0.19205401655E-01 -0.85057226015E-01  0.88901139443E+00  0.88000000000E+00 0. -1.
        -11    1    4    4    0    0 -0.54689236381E-01 -0.17158806140E-01  0.55310298231E-01  0.79654424959E-01  0.51100000000E-03 0. -1.
         11    1    4    4    0    0 -0.22081386492E-01 -0.13619987012E-01  0.44515537714E-01  0.51526555237E-01  0.51100000000E-03 0.  1.
</event>
<event>
 8    1  0.1208168E+005  0.1043930E+01  0.7957747E-01            NaN
         13   -1    0    0    0    0  0.00000000000E+00  0.00000000000E+00  0.74505805969E-08  0.10566000000E+00  0.10566000000E+00 0.  1.
     999900   -1    0    0    0    0 -0.00000000000E+00 -0.00000000000E+00 -0.74505805969E-08  0.93827000000E+00  0.93827000000E+00 0. -1.
     999902    2    1    2    0    0 -0.21164171704E-01 -0.10182330640E-01  0.74346278774E-02  0.10192951525E+01  0.10189974152E+01 0.  0.
     999903    2    3    3    0    0  0.40062630178E-01  0.10923985060E+00 -0.47947492285E-01  0.12739966651E+00  0.19833146840E-01 0.  0.
         14    1    1    2    0    0  0.21164171704E-01  0.10182330640E-01 -0.74346278774E-02  0.24634847531E-01  0.00000000000E+00 0.  1.
     999901    1    3    3    0    0 -0.61226801882E-01 -0.11942218124E+00  0.55382120162E-01  0.89189548596E+00  0.88000000000E+00 0. -1.
        -11    1    4    4    0    0  0.33316996140E-01  0.70216012875E-01 -0.25086489145E-01  0.81669478720E-01  0.51100000000E-03 0.  1.
         11    1    4    4    0    0  0.67456340378E-02  0.39023837729E-01 -0.22861003140E-01  0.45730187789E-01  0.51100000000E-03 0. -1.
</event>
<event>
 8    1  0.1208168E+005  0.1043930E+01  0.7957747E-01            NaN
         13   -1    0    0    0    0  0.00000000000E+00  0.00000000000E+00  0.74505805969E-08  0.10566000000E+00  0.10566000000E+00 0.  1.
     999900   -1    0    0    0    0 -0.00000000000E+00 -0.00000000000E+00 -0.74505805969E-08  0.93827000000E+00  0.93827000000E+00 0. -1.
     999902    2    1    2    0    0  0.20947253397E-01  0.63489836613E-02  0.68994600042E-02  0.10209800639E+01  0.10207220931E+01 0.  0.
     999903    2    3    3    0    0  0.11437498691E+00  0.10802807924E-01 -0.64312700978E-01  0.13316265598E+00  0.19945705052E-01 0.  0.
         14    1    1    2    0    0 -0.20947253397E-01 -0.63489836613E-02 -0.68994600042E-02  0.22949936095E-01  0.00000000000E+00 0.  1.
     999901    1    3    3    0    0 -0.93427733518E-01 -0.44538242631E-02  0.71212160982E-01  0.88781740792E+00  0.88000000000E+00 0.  1.
        -11    1    4    4    0    0  0.90718524961E-01  0.12587502274E-01 -0.42650274493E-01  0.10103268293E+00  0.51100000000E-03 0.  1.
         11    1    4    4    0    0  0.23656461954E-01 -0.17846943493E-02 -0.21662426485E-01  0.32129973052E-01  0.51100000000E-03 0. -1.
</event>
<event>
 8    1  0.1208168E+005  0.1043930E+01  0.7957747E-01            NaN
         13   -1    0    0    0    0  0.00000000000E+00  0.00000000000E+00  0.74505805969E-08  0.10566000000E+00  0.10566000000E+00 0. -1.
     999900   -1    0    0    0    0 -0.00000000000E+00 -0.00000000000E+00 -0.74505805969E-08  0.93827000000E+00  0.93827000000E+00 0.  1.
     999902    2    1    2    0    0  0.22112136113E-01 -0.24718891912E-02 -0.61921521851E-02  0.10208345557E+01  0.10205732656E+01 0.  0.
     999903    2    3    3    0    0  0.11175735456E+00 -0.62144396389E-01  0.33067121175E-01  0.13340097290E+00  0.18728394677E-01 0.  0.
         14    1    1    2    0    0 -0.22112136113E-01  0.24718891912E-02  0.61921521851E-02  0.23095444320E-01  0.00000000000E+00 0.  1.
     999901    1    3    3    0    0 -0.89645218444E-01  0.59672507198E-01 -0.39259273360E-01  0.88743358278E+00  0.88000000000E+00 0. -1.
        -11    1    4    4    0    0  0.28332877052E-01 -0.16003023755E-01  0.15619411294E-03  0.32544342195E-01  0.51100000000E-03 0. -1.
         11    1    4    4    0    0  0.83424477505E-01 -0.46141372634E-01  0.32910927062E-01  0.10085663070E+00  0.51100000000E-03 0.  1.
</event>
<event>
 8    1  0.1208168E+005  0.1043930E+01  0.7957747E-01            NaN
         13   -1    0    0    0    0  0.00000000000E+00  0.00000000000E+00  0.74505805969E-08  0.10566000000E+00  0.10566000000E+00 0.  1.
     999900   -1    0    0    0    0 -0.00000000000E+00 -0.00000000000E+00 -0.74505805969E-08  0.93827000000E+00  0.93827000000E+00 0.  1.
     999902    2    1    2    0    0  0.15009193495E-01 -0.99225382171E-02 -0.14832253247E-01  0.10206120157E+01  0.10203456073E+01 0.  0.
     999903    2    3    3    0    0  0.10306912020E+00  0.68226032785E-01 -0.42835664565E-01  0.13232943632E+00  0.19953708145E-01 0.  0.
         14    1    1    2    0    0 -0.15009193495E-01  0.99225382171E-02  0.14832253247E-01  0.23317984270E-01  0.00000000000E+00 0. -1.
     999901    1    3    3    0    0 -0.88059926706E-01 -0.78148571002E-01  0.28003411318E-01  0.88828257941E+00  0.88000000000E+00 0. -1.
        -11    1    4    4    0    0  0.24357328374E-01  0.12963083933E-01 -0.18168791636E-01  0.33040688569E-01  0.51100000000E-03 0. -1.
         11    1    4    4    0    0  0.78711791827E-01  0.55262948852E-01 -0.24666872929E-01  0.99288747749E-01  0.51100000000E-03 0.  1.
</event>
<event>
 8    1  0.1208168E+005  0.1043930E+01  0.7957747E-01            NaN
         13   -1    0    0    0    0  0.00000000000E+00  0.00000000000E+00  0.74505805969E-08  0.10566000000E+00  0.10566000000E+00 0.  1.
     999900   -1    0    0    0    0 -0.00000000000E+00 -0.00000000000E+00 -0.74505805969E-08  0.93827000000E+00  0.93827000000E+00 0.  1.
     999902    2    1    2    0    0 -0.13872564362E-01  0.16451269100E-01  0.11183667495E-01  0.10196778513E+01  0.10193894024E+01 0.  0.
     999903    2    3    3    0    0 -0.37640040447E-03  0.10141276999E+00  0.83151397643E-01  0.13255894314E+00  0.19313903818E-01 0.  0.
         14    1    1    2    0    0  0.13872564362E-01 -0.16451269100E-01 -0.11183667495E-01  0.24252148680E-01  0.00000000000E+00 0. -1.
     999901    1    3    3    0    0 -0.13496163957E-01 -0.84961500891E-01 -0.71967730148E-01  0.88711890818E+00  0.88000000000E+00 0. -1.
        -11    1    4    4    0    0  0.53382221106E-02  0.69373990757E-01  0.65364944668E-01  0.95467713502E-01  0.51100000000E-03 0.  1.
         11    1    4    4    0    0 -0.57146225151E-02  0.32038779234E-01  0.17786452975E-01  0.37091229633E-01  0.51100000000E-03 0. -1.
</event>
<event>
 8    1  0.1208168E+005  0.1043930E+01  0.7957747E-01            NaN
         13   -1    0    0    0    0  0.00000000000E+00  0.00000000000E+00  0.74505805969E-08  0.10566000000E+00  0.10566000000E+00 0.  1.
     999900   -1    0    0    0    0 -0.00000000000E+00 -0.00000000000E+00 -0.74505805969E-08  0.93827000000E+00  0.93827000000E+00 0.  1.
     999902    2    1    2    0    0 -0.51281892828E-02 -0.23694473001E-01  0.27134407919E-03  0.10196854129E+01  0.10193971460E+01 0.  0.
     999903    2    3    3    0    0  0.64303732827E-01  0.44716900137E-01 -0.10004904282E+00  0.12863822682E+00  0.20085099413E-01 0.  0.
         14    1    1    2    0    0  0.51281892828E-02  0.23694473001E-01 -0.27134407919E-03  0.24244587101E-01  0.00000000000E+00 0.  1.
     999901    1    3    3    0    0 -0.69431922110E-01 -0.68411373138E-01  0.10032038690E+00  0.89104718607E+00  0.88000000000E+00 0. -1.
        -11    1    4    4    0    0  0.59161697131E-01  0.38861941755E-01 -0.78418809626E-01  0.10564150580E+00  0.51100000000E-03 0. -1.
         11    1    4    4    0    0  0.51420356966E-02  0.58549583816E-02 -0.21630233193E-01  0.22996721021E-01  0.51100000000E-03 0.  1.
</event>
<event>
 8    1  0.1208168E+005  0.1043930E+01  0.7957747E-01            NaN
         13   -1    0    0    0    0  0.00000000000E+00  0.00000000000E+00  0.74505805969E-08  0.10566000000E+00  0.10566000000E+00 0.  1.
     999900   -1    0    0    0    0 -0.00000000000E+00 -0.00000000000E+00 -0.74505805969E-08  0.93827000000E+00  0.93827000000E+00 0. -1.
     999902    2    1    2    0    0 -0.15955446144E-01 -0.14252041450E-01  0.98352338747E-02  0.10203836888E+01  0.10201119760E+01 0.  0.
     999903    2    3    3    0    0 -0.48191786721E-01  0.11713472872E+00 -0.18773907833E-01  0.12958621009E+00  0.19928202386E-01 0.  0.
         14    1    1    2    0    0  0.15955446144E-01  0.14252041450E-01 -0.98352338747E-02  0.23546311229E-01  0.00000000000E+00 0.  1.
     999901    1    3    3    0    0  0.32236340577E-01 -0.13138677017E+00  0.28609141708E-01  0.89079747868E+00  0.88000000000E+00 0.  1.
        -11    1    4    4    0    0 -0.35969932311E-01  0.85933547861E-01 -0.48203908782E-02  0.93284017750E-01  0.51100000000E-03 0.  1.
         11    1    4    4    0    0 -0.12221854410E-01  0.31201180863E-01 -0.13953516955E-01  0.36302192342E-01  0.51100000000E-03 0. -1.
</event>
<event>
 8    1  0.1208168E+005  0.1043930E+01  0.7957747E-01            NaN
         13   -1    0    0    0    0  0.00000000000E+00  0.00000000000E+00  0.74505805969E-08  0.10566000000E+00  0.10566000000E+00 0.  1.
     999900   -1    0    0    0    0 -0.00000000000E+00 -0.00000000000E+00 -0.74505805969E-08  0.93827000000E+00  0.93827000000E+00 0. -1.
     999902    2    1    2    0    0 -0.11486047063E-01 -0.19342527088E-01  0.68836485365E-02  0.10204045404E+01  0.10201333143E+01 0.  0.
     999903    2    3    3    0    0 -0.85254137278E-01  0.94728210326E-01  0.15854919015E-01  0.12993592898E+00  0.19755136747E-01 0.  0.
         14    1    1    2    0    0  0.11486047063E-01  0.19342527088E-01 -0.68836485365E-02  0.23525459580E-01  0.00000000000E+00 0. -1.
     999901    1    3    3    0    0  0.73768090215E-01 -0.11407073741E+00 -0.89712704788E-02  0.89046861144E+00  0.88000000000E+00 0.  1.
        -11    1    4    4    0    0 -0.31773754774E-01  0.49793112528E-01  0.56187529190E-02  0.59335967617E-01  0.51100000000E-03 0. -1.
         11    1    4    4    0    0 -0.53480382504E-01  0.44935097798E-01  0.10236166096E-01  0.70599961361E-01  0.51100000000E-03 0.  1.
</event>
<event>
 8    1  0.1208168E+005  0.1043930E+01  0.7957747E-01            NaN
         13   -1    0    0    0    0  0.00000000000E+00  0.00000000000E+00  0.74505805969E-08  0.10566000000E+00  0.10566000000E+00 0.  1.
     999900   -1    0    0    0    0 -0.00000000000E+00 -0.00000000000E+00 -0.74505805969E-08  0.93827000000E+00  0.93827000000E+00 0. -1.
     999902    2    1    2    0    0  0.54513007973E-02 -0.22596746127E-01 -0.14800804503E-02  0.10206379358E+01  0.10203721261E+01 0.  0.
     999903    2    3    3    0    0  0.52740573700E-01  0.93209961107E-01  0.69360748210E-01  0.12897326130E+00  0.18802227903E-01 0.  0.
         14    1    1    2    0    0 -0.54513007973E-02  0.22596746127E-01  0.14800804503E-02  0.23292064186E-01  0.00000000000E+00 0.  1.
     999901    1    3    3    0    0 -0.47289272903E-01 -0.11580670723E+00 -0.70840828661E-01  0.89166467451E+00  0.88000000000E+00 0. -1.
        -11    1    4    4    0    0  0.32210895249E-01  0.44320393836E-01  0.26888628377E-01  0.61033585340E-01  0.51100000000E-03 0. -1.
         11    1    4    4    0    0  0.20529678451E-01  0.48889567271E-01  0.42472119834E-01  0.67939675959E-01  0.51100000000E-03 0.  1.
</event>
<event>
 8    1  0.1208168E+005  0.1043930E+01  0.7957747E-01            NaN
         13   -1    0    0    0    0  0.00000000000E+00  0.00000000000E+00  0.74505805969E-08  0.10566000000E+00  0.10566000000E+00 0.  1.
     999900   -1    0    0    0    0 -0.00000000000E+00 -0.00000000000E+00 -0.74505805969E-08  0.93827000000E+00  0.93827000000E+00 0. -1.
     999902    2    1    2    0    0  0.12910777719E-01  0.67692010552E-02 -0.18025239236E-01  0.10207476896E+01  0.10204844077E+01 0.  0.
     999903    2    3    3    0    0  0.19393466026E-01 -0.10246555537E+00 -0.78222743448E-01  0.13192937481E+00  0.20279688958E-01 0.  0.
         14    1    1    2    0    0 -0.12910777719E-01 -0.67692010552E-02  0.18025239236E-01  0.23182310363E-01  0.00000000000E+00 0.  1.
     999901    1    3    3    0    0 -0.64826883076E-02  0.10923475642E+00  0.60197504212E-01  0.88881831483E+00  0.88000000000E+00 0.  1.
        -11    1    4    4    0    0  0.13703013545E-01 -0.71524631471E-01 -0.42481028590E-01  0.84311591127E-01  0.51100000000E-03 0. -1.
         11    1    4    4    0    0  0.56904524816E-02 -0.30940923896E-01 -0.35741714857E-01  0.47617783683E-01  0.51100000000E-03 0.  1.
</event>
<event>
 8    1  0.1208168E+005  0.1043930E+01  0.7957747E-01            NaN
         13   -1    0    0    0    0  0.00000000000E+00  0.00000000000E+00  0.74505805969E-08  0.10566000000E+00  0.10566000000E+00 0. -1.
     999900   -1    0    0    0    0 -0.00000000000E+00 -0.00000000000E+00 -0.74505805969E-08  0.93827000000E+00  0.93827000000E+00 0. -1.
     999902    2    1    2    0    0  0.17557411918E-01 -0.84237440564E-03  0.15262476679E-01  0.10206509214E+01  0.10203854114E+01 0.  0.
     999903    2    3    3    0    0 -0.80567093947E-01  0.41625046720E-01 -0.88292460392E-01  0.12815132724E+00  0.20087383370E-01 0.  0.
         14    1    1    2    0    0 -0.17557411918E-01  0.84237440564E-03 -0.15262476679E-01  0.23279078639E-01  0.00000000000E+00 0.  1.
     999901    1    3    3    0    0  0.98124505865E-01 -0.42467421126E-01  0.10355493707E+00  0.89249959412E+00  0.88000000000E+00 0.  1.
        -11    1    4    4    0    0 -0.36788340111E-01  0.30180824994E-01 -0.43306884170E-01  0.64342921157E-01  0.51100000000E-03 0. -1.
         11    1    4    4    0    0 -0.43778753835E-01  0.11444221726E-01 -0.44985576222E-01  0.63808406086E-01  0.51100000000E-03 0.  1.
</event>
<event>
 8    1  0.1208168E+005  0.1043930E+01  0.7957747E-01            NaN
         13   -1    0    0    0    0  0.00000000000E+00  0.00000000000E+00  0.74505805969E-08  0.10566000000E+00  0.10566000000E+00 0.  1.
     999900   -1    0    0    0    0 -0.00000000000E+00 -0.00000000000E+00 -0.74505805969E-08  0.93827000000E+00  0.93827000000E+00 0. -1.
     999902    2    1    2    0    0  0.17290407242E-01 -0.12192059724E-01  0.12369651003E-01  0.10194225977E+01  0.10191279703E+01 0.  0.
     999903    2    3    3    0    0 -0.66157656311E-01  0.90466756420E-01 -0.56057739627E-01  0.12690664844E+00  0.20043895353E-01 0.  0.
         14    1    1    2    0    0 -0.17290407242E-01  0.12192059724E-01 -0.12369651003E-01  0.24507402328E-01  0.00000000000E+00 0.  1.
     999901    1    3    3    0    0  0.83448063553E-01 -0.10265881614E+00  0.68427390631E-01  0.89251594923E+00  0.88000000000E+00 0.  1.
        -11    1    4    4    0    0 -0.24553594504E-01  0.44989169948E-01 -0.33680549297E-01  0.61331435150E-01  0.51100000000E-03 0. -1.
         11    1    4    4    0    0 -0.41604061807E-01  0.45477586472E-01 -0.22377190331E-01  0.65575213292E-01  0.51100000000E-03 0.  1.
</event>
<event>
 8    1  0.1208168E+005  0.1043930E+01  0.7957747E-01            NaN
         13   -1    0    0    0    0  0.00000000000E+00  0.00000000000E+00  0.74505805969E-08  0.10566000000E+00  0.10566000000E+00 0.  1.
     999900   -1    0    0    0    0 -0.00000000000E+00 -0.00000000000E+00 -0.74505805969E-08  0.93827000000E+00  0.93827000000E+00 0.  1.
     999902    2    1    2    0    0 -0.18193352336E-01 -0.14694269331E-01  0.21389423151E-02  0.10204460758E+01  0.10201758177E+01 0.  0.
     999903    2    3    3    0    0 -0.16479227086E-01  0.10934885207E+00  0.64313593325E-01  0.12957272825E+00  0.20594107056E-01 0.  0.
         14    1    1    2    0    0  0.18193352336E-01  0.14694269331E-01 -0.21389423151E-02  0.23483924175E-01  0.00000000000E+00 0.  1.
     999901    1    3    3    0    0 -0.17141252498E-02 -0.12404312140E+00 -0.62174651010E-01  0.89087334758E+00  0.88000000000E+00 0.  1.
        -11    1    4    4    0    0 -0.85612691615E-02  0.23358647563E-01  0.22831368432E-01  0.33770612241E-01  0.51100000000E-03 0.  1.
         11    1    4    4    0    0 -0.79179579250E-02  0.85990204506E-01  0.41482224893E-01  0.95802116009E-01  0.51100000000E-03 0. -1.
</event>
<event>
 8    1  0.1208168E+005  0.1043930E+01  0.7957747E-01            NaN
         13   -1    0    0    0    0  0.00000000000E+00  0.00000000000E+00  0.74505805969E-08  0.10566000000E+00  0.10566000000E+00 0.  1.
     999900   -1    0    0    0    0 -0.00000000000E+00 -0.00000000000E+00 -0.74505805969E-08  0.93827000000E+00  0.93827000000E+00 0.  1.
     999902    2    1    2    0    0 -0.16009197094E-01  0.12640959464E-01  0.11033857004E-01  0.10207387463E+01  0.10204752589E+01 0.  0.
     999903    2    3    3    0    0  0.87608743498E-01 -0.39333864039E-01  0.85442277676E-01  0.13002292576E+00  0.19573799122E-01 0.  0.
         14    1    1    2    0    0  0.16009197094E-01 -0.12640959464E-01 -0.11033857004E-01  0.23191253699E-01  0.00000000000E+00 0. -1.
     999901    1    3    3    0    0 -0.10361794059E+00  0.51974823503E-01 -0.74408420672E-01  0.89071582054E+00  0.88000000000E+00 0.  1.
        -11    1    4    4    0    0  0.50785218682E-01 -0.29258412453E-01  0.41536957704E-01  0.71838521088E-01  0.51100000000E-03 0.  1.
         11    1    4    4    0    0  0.36823524816E-01 -0.10075451586E-01  0.43905319972E-01  0.58184404675E-01  0.51100000000E-03 0. -1.
</event>
<event>
 8    1  0.1208168E+005  0.1043930E+01  0.7957747E-01            NaN
         13   -1    0    0    0    0  0.00000000000E+00  0.00000000000E+00  0.74505805969E-08  0.10566000000E+00  0.10566000000E+00 0.  1.
     999900   -1    0    0    0    0 -0.00000000000E+00 -0.00000000000E+00 -0.74505805969E-08  0.93827000000E+00  0.93827000000E+00 0. -1.
     999902    2    1    2    0    0 -0.91845507516E-03 -0.21188099908E-01 -0.14977994895E-01  0.10179661893E+01  0.10176350245E+01 0.  0.
     999903    2    3    3    0    0 -0.27772355901E-01 -0.10850998049E+00  0.62430834317E-01  0.12985675362E+00  0.20480424049E-01 0.  0.
         14    1    1    2    0    0  0.91845507516E-03  0.21188099908E-01  0.14977994895E-01  0.25963810747E-01  0.00000000000E+00 0. -1.
     999901    1    3    3    0    0  0.26853900826E-01  0.87321880583E-01 -0.77408829212E-01  0.88810943563E+00  0.88000000000E+00 0. -1.
        -11    1    4    4    0    0 -0.18969639402E-01 -0.67942427839E-01  0.27905808476E-01  0.75861821672E-01  0.51100000000E-03 0.  1.
         11    1    4    4    0    0 -0.88027164991E-02 -0.40567552652E-01  0.34525025841E-01  0.53994931949E-01  0.51100000000E-03 0. -1.
</event>
<event>
 8    1  0.1208168E+005  0.1043930E+01  0.7957747E-01            NaN
         13   -1    0    0    0    0  0.00000000000E+00  0.00000000000E+00  0.74505805969E-08  0.10566000000E+00  0.10566000000E+00 0.  1.
     999900   -1    0    0    0    0 -0.00000000000E+00 -0.00000000000E+00 -0.74505805969E-08  0.93827000000E+00  0.93827000000E+00 0. -1.
     999902    2    1    2    0    0 -0.22533401517E-01  0.52526736070E-02  0.56006422570E-02  0.10201242873E+01  0.10198464833E+01 0.  0.
     999903    2    3    3    0    0 -0.10456047451E+00 -0.64021563581E-01  0.46508228176E-01  0.13265553222E+00  0.20070413708E-01 0.  0.
         14    1    1    2    0    0  0.22533401517E-01 -0.52526736070E-02 -0.56006422570E-02  0.23805712710E-01  0.00000000000E+00 0. -1.
     999901    1    3    3    0    0  0.82027072996E-01  0.69274237188E-01 -0.40907585919E-01  0.88746875507E+00  0.88000000000E+00 0.  1.
        -11    1    4    4    0    0 -0.16402111489E-01 -0.80858450298E-02 -0.15484332080E-03  0.18294678149E-01  0.51100000000E-03 0.  1.
         11    1    4    4    0    0 -0.88158363024E-01 -0.55935718551E-01  0.46663071497E-01  0.11436085407E+00  0.51100000000E-03 0. -1.
</event>
<event>
 8    1  0.1208168E+005  0.1043930E+01  0.7957747E-01            NaN
         13   -1    0    0    0    0  0.00000000000E+00  0.00000000000E+00  0.74505805969E-08  0.10566000000E+00  0.10566000000E+00 0.  1.
     999900   -1    0    0    0    0 -0.00000000000E+00 -0.00000000000E+00 -0.74505805969E-08  0.93827000000E+00  0.93827000000E+00 0.  1.
     999902    2    1    2    0    0  0.88377038765E-02 -0.17631016189E-01  0.13600379887E-01  0.10199732040E+01  0.10196918205E+01 0.  0.
     999903    2    3    3    0    0  0.14694629614E-01 -0.12364376100E+00  0.42786902499E-01  0.13311083658E+00  0.19597551260E-01 0.  0.
         14    1    1    2    0    0 -0.88377038765E-02  0.17631016189E-01 -0.13600379887E-01  0.23956796004E-01  0.00000000000E+00 0. -1.
     999901    1    3    3    0    0 -0.58569257376E-02  0.10601274481E+00 -0.29186522612E-01  0.88686236742E+00  0.88000000000E+00 0.  1.
        -11    1    4    4    0    0  0.91619517892E-02 -0.72934362937E-01  0.15011260656E-01  0.75026406852E-01  0.51100000000E-03 0. -1.
         11    1    4    4    0    0  0.55326778249E-02 -0.50709398062E-01  0.27775641844E-01  0.58084429726E-01  0.51100000000E-03 0.  1.
</event>
<event>
 7    1  0.1208168E+005  0.1043930E+01  0.7957747E-01            NaN
         13   -1    0    0    0    0  0.00000000000E+00  0.00000000000E+00  0.74505805969E-08  0.10566000000E+00  0.10566000000E+00 0.  1.
     999900   -1    0    0    0    0 -0.00000000000E+00 -0.00000000000E+00 -0.74505805969E-08  0.93827000000E+00  0.93827000000E+00 0. -1.
     999903    2    1    2    0    0 -0.37095266377E-01 -0.41621098060E-01 -0.84573464375E-01  0.10308037290E+00  0.19092349517E-01 0.  0.
         14    1    1    2    0    0  0.51597294521E-01 -0.29671134123E-02 -0.15451756589E-01  0.53942945281E-01  0.00000000000E+00 0.  1.
     999901    1    1    2    0    0 -0.14502028144E-01  0.44588211473E-01  0.10002522096E+00  0.88690668182E+00  0.88000000000E+00 0.  1.
        -11    1    3    3    0    0 -0.77415981997E-02 -0.21999586956E-01 -0.28711338564E-01  0.36993462288E-01  0.51100000000E-03 0.  1.
         11    1    3    3    0    0 -0.29353668177E-01 -0.19621511104E-01 -0.55862125811E-01  0.66086910614E-01  0.51100000000E-03 0. -1.
</event>
<event>
 8    1  0.1208168E+005  0.1043930E+01  0.7957747E-01            NaN
         13   -1    0    0    0    0  0.00000000000E+00  0.00000000000E+00  0.74505805969E-08  0.10566000000E+00  0.10566000000E+00 0. -1.
     999900   -1    0    0    0    0 -0.00000000000E+00 -0.00000000000E+00 -0.74505805969E-08  0.93827000000E+00  0.93827000000E+00 0.  1.
     999902    2    1    2    0    0  0.12849147789E-01  0.17698810041E-01 -0.91219994307E-02  0.10202327565E+01  0.10199575080E+01 0.  0.
     999903    2    3    3    0    0  0.36630419299E-01 -0.27779241312E-01 -0.12157138028E+00  0.13159409806E+00  0.20589615700E-01 0.  0.
         14    1    1    2    0    0 -0.12849147789E-01 -0.17698810041E-01  0.91219994307E-02  0.23697243497E-01  0.00000000000E+00 0. -1.
     999901    1    3    3    0    0 -0.23781271510E-01  0.45478051353E-01  0.11244938085E+00  0.88863865844E+00  0.88000000000E+00 0. -1.
        -11    1    4    4    0    0  0.25141388903E-01 -0.88066813088E-02 -0.82095751457E-01  0.86311184675E-01  0.51100000000E-03 0. -1.
         11    1    4    4    0    0  0.11489030396E-01 -0.18972560004E-01 -0.39475628822E-01  0.45282913383E-01  0.51100000000E-03 0.  1.
</event>
<event>
 8    1  0.1208168E+005  0.1043930E+01  0.7957747E-01            NaN
         13   -1    0    0    0    0  0.00000000000E+00  0.00000000000E+00  0.74505805969E-08  0.10566000000E+00  0.10566000000E+00 0.  1.
     999900   -1    0    0    0    0 -0.00000000000E+00 -0.00000000000E+00 -0.74505805969E-08  0.93827000000E+00  0.93827000000E+00 0.  1.
     999902    2    1    2    0    0  0.12472217465E-01 -0.17825459277E-01 -0.97217716742E-02  0.10201011089E+01  0.10198227573E+01 0.  0.
     999903    2    3    3    0    0 -0.11635072840E+00 -0.53412254115E-01  0.79711862686E-02  0.12983440048E+00  0.20076624459E-01 0.  0.
         14    1    1    2    0    0 -0.12472217465E-01  0.17825459277E-01  0.97217716742E-02  0.23828891107E-01  0.00000000000E+00 0.  1.
     999901    1    3    3    0    0  0.12882294586E+00  0.35586794838E-01 -0.17692957943E-01  0.89026670841E+00  0.88000000000E+00 0.  1.
        -11    1    4    4    0    0 -0.88499824727E-01 -0.30900203433E-01  0.44425802071E-02  0.93845826699E-01  0.51100000000E-03 0. -1.
         11    1    4    4    0    0 -0.27850903669E-01 -0.22512050682E-01  0.35286060615E-02  0.35988573781E-01  0.51100000000E-03 0.  1.
</event>
<event>
 8    1  0.1208168E+005  0.1043930E+01  0.7957747E-01            NaN
         13   -1    0    0    0    0  0.00000000000E+00  0.00000000000E+00  0.74505805969E-08  0.10566000000E+00  0.10566000000E+00 0.  1.
     999900   -1    0    0    0    0 -0.00000000000E+00 -0.00000000000E+00 -0.74505805969E-08  0.93827000000E+00  0.93827000000E+00 0.  1.
     999902    2    1    2    0    0  0.22180058180E-01 -0.83015529221E-02  0.16682800400E-02  0.10201886032E+01  0.10199123160E+01 0.  0.
     999903    2    3    3    0    0 -0.31089776535E-01  0.12268599646E+00 -0.11758205804E-01  0.12879885464E+00  0.20795711630E-01 0.  0.
         14    1    1    2    0    0 -0.22180058180E-01  0.83015529221E-02 -0.16682800400E-02  0.23741396759E-01  0.00000000000E+00 0. -1.
     999901    1    3    3    0    0  0.53269834715E-01 -0.13098754938E+00  0.13426485844E-01  0.89138974860E+00  0.88000000000E+00 0. -1.
        -11    1    4    4    0    0  0.39007409749E-03  0.32228669983E-01  0.49199028381E-03  0.32238835309E-01  0.51100000000E-03 0.  1.
         11    1    4    4    0    0 -0.31479850633E-01  0.90457326473E-01 -0.12250196087E-01  0.96560019334E-01  0.51100000000E-03 0. -1.
</event>
<event>
 8    1  0.1208168E+005  0.1043930E+01  0.7957747E-01            NaN
         13   -1    0    0    0    0  0.00000000000E+00  0.00000000000E+00  0.74505805969E-08  0.10566000000E+00  0.10566000000E+00 0.  1.
     999900   -1    0    0    0    0 -0.00000000000E+00 -0.00000000000E+00 -0.74505805969E-08  0.93827000000E+00  0.93827000000E+00 0. -1.
     999902    2    1    2    0    0 -0.28412599731E-02  0.22719628025E-01  0.44824314297E-02  0.10205987667E+01  0.10203320519E+01 0.  0.
     999903    2    3    3    0    0 -0.67725774431E-01  0.10736044508E+00 -0.36318913564E-01  0.13322127212E+00  0.17770711102E-01 0.  0.
         14    1    1    2    0    0  0.28412599731E-02 -0.22719628025E-01 -0.44824314297E-02  0.23331233301E-01  0.00000000000E+00 0. -1.
     999901    1    3    3    0    0  0.64884514458E-01 -0.84640817056E-01  0.40801344993E-01  0.88737749458E+00  0.88000000000E+00 0.  1.
        -11    1    4    4    0    0 -0.43664915386E-01  0.66209503748E-01 -0.13824588942E-01  0.80509028081E-01  0.51100000000E-03 0.  1.
         11    1    4    4    0    0 -0.24060859046E-01  0.41150941333E-01 -0.22494324622E-01  0.52712244041E-01  0.51100000000E-03 0. -1.
</event>
<event>
 8    1  0.1208168E+005  0.1043930E+01  0.7957747E-01            NaN
         13   -1    0    0    0    0  0.00000000000E+00  0.00000000000E+00  0.74505805969E-08  0.10566000000E+00  0.10566000000E+00 0. -1.
     999900   -1    0    0    0    0 -0.00000000000E+00 -0.00000000000E+00 -0.74505805969E-08  0.93827000000E+00  0.93827000000E+00 0.  1.
     999902    2    1    2    0    0  0.50020653586E-02 -0.20752411949E-01 -0.10348602103E-01  0.10202070823E+01  0.10199312300E+01 0.  0.
     999903    2    3    3    0    0  0.90798607494E-01 -0.95236249423E-01 -0.43811479677E-02  0.13288273392E+00  0.18008225607E-01 0.  0.
         14    1    1    2    0    0 -0.50020653586E-02  0.20752411949E-01  0.10348602103E-01  0.23722917718E-01  0.00000000000E+00 0.  1.
     999901    1    3    3    0    0 -0.85796542136E-01  0.74483837473E-01 -0.59674541355E-02  0.88732434836E+00  0.88000000000E+00 0.  1.
        -11    1    4    4    0    0  0.38753388616E-01 -0.53074862137E-01  0.52734353016E-03  0.65721422172E-01  0.51100000000E-03 0.  1.
         11    1    4    4    0    0  0.52045218878E-01 -0.42161387286E-01 -0.49084914979E-02  0.67161311748E-01  0.51100000000E-03 0. -1.
</event>
<event>
 8    1  0.1208168E+005  0.1043930E+01  0.7957747E-01            NaN
         13   -1    0    0    0    0  0.00000000000E+00  0.00000000000E+00  0.74505805969E-08  0.10566000000E+00  0.10566000000E+00 0. -1.
     999900   -1    0    0    0    0 -0.00000000000E+00 -0.00000000000E+00 -0.74505805969E-08  0.93827000000E+00  0.93827000000E+00 0. -1.
     999902    2    1    2    0    0 -0.61692918639E-02  0.15098234291E-01 -0.17704292910E-01  0.10198580489E+01  0.10195739214E+01 0.  0.
     999903    2    3    3    0    0  0.87974377737E-01  0.25629057852E-01 -0.92295088978E-01  0.13163638987E+00  0.20332632486E-01 0.  0.
         14    1    1    2    0    0  0.61692918639E-02 -0.15098234291E-01  0.17704292910E-01  0.24071951068E-01  0.00000000000E+00 0. -1.
     999901    1    3    3    0    0 -0.94143669600E-01 -0.10530823562E-01  0.74590796068E-01  0.88822165906E+00  0.88000000000E+00 0.  1.
        -11    1    4    4    0    0  0.66232355285E-01  0.27753498481E-01 -0.74249199305E-01  0.10329659376E+00  0.51100000000E-03 0.  1.
         11    1    4    4    0    0  0.21742022452E-01 -0.21244406286E-02 -0.18045889673E-01  0.28339796106E-01  0.51100000000E-03 0. -1.
</event>
<event>
 8    1  0.1208168E+005  0.1043930E+01  0.7957747E-01            NaN
         13   -1    0    0    0    0  0.00000000000E+00  0.00000000000E+00  0.74505805969E-08  0.10566000000E+00  0.10566000000E+00 0. -1.
     999900   -1    0    0    0    0 -0.00000000000E+00 -0.00000000000E+00 -0.74505805969E-08  0.93827000000E+00  0.93827000000E+00 0. -1.
     999902    2    1    2    0    0  0.82295091929E-02  0.26098948708E-02  0.20631819256E-01  0.10215646621E+01  0.10213198082E+01 0.  0.
     999903    2    3    3    0    0 -0.12835118322E+00  0.50981942450E-02  0.16184894072E-01  0.13101412884E+00  0.20068217169E-01 0.  0.
         14    1    1    2    0    0 -0.82295091929E-02 -0.26098948708E-02 -0.20631819256E-01  0.22365337883E-01  0.00000000000E+00 0.  1.
     999901    1    3    3    0    0  0.13658069242E+00 -0.24882993742E-02  0.44469251839E-02  0.89055053328E+00  0.88000000000E+00 0. -1.
        -11    1    4    4    0    0 -0.46056508807E-01  0.49353376696E-02  0.15061447892E-01  0.48710038955E-01  0.51100000000E-03 0.  1.
         11    1    4    4    0    0 -0.82294674417E-01  0.16285657540E-03  0.11234461804E-02  0.82304089886E-01  0.51100000000E-03 0. -1.
</event>
<event>
 8    1  0.1208168E+005  0.1043930E+01  0.7957747E-01            NaN
         13   -1    0    0    0    0  0.00000000000E+00  0.00000000000E+00  0.74505805969E-08  0.10566000000E+00  0.10566000000E+00 0. -1.
     999900   -1    0    0    0    0 -0.00000000000E+00 -0.00000000000E+00 -0.74505805969E-08  0.93827000000E+00  0.93827000000E+00 0. -1.
     999902    2    1    2    0    0  0.20296662412E-01 -0.12779974191E-01  0.26395912976E-02  0.10198001494E+01  0.10195146370E+01 0.  0.
     999903    2    3    3    0    0 -0.87059041973E-01  0.83207480252E-01 -0.35809976759E-01  0.12726599999E+00  0.20285925117E-01 0.  0.
         14    1    1    2    0    0 -0.20296662412E-01  0.12779974191E-01 -0.26395912976E-02  0.24129850551E-01  0.00000000000E+00 0. -1.
     999901    1    3    3    0    0  0.10735570438E+00 -0.95987454443E-01  0.38449568057E-01  0.89253414946E+00  0.88000000000E+00 0. -1.
        -11    1    4    4    0    0 -0.33018682661E-01  0.27145543721E-01 -0.22365171841E-01  0.48244958089E-01  0.51100000000E-03 0. -1.
         11    1    4    4    0    0 -0.54040359312E-01  0.56061936531E-01 -0.13444804918E-01  0.79021041896E-01  0.51100000000E-03 0.  1.
</event>
<event>
 8    1  0.1208168E+005  0.1043930E+01  0.7957747E-01            NaN
         13   -1    0    0    0    0  0.00000000000E+00  0.00000000000E+00  0.74505805969E-08  0.10566000000E+00  0.10566000000E+00 0.  1.
     999900   -1    0    0    0    0 -0.00000000000E+00 -0.00000000000E+00 -0.74505805969E-08  0.93827000000E+00  0.93827000000E+00 0.  1.
     999902    2    1    2    0    0  0.62565879383E-02  0.95880502879E-02  0.21391718627E-01  0.10196672461E+01  0.10193785418E+01 0.  0.
     999903    2    3    3    0    0  0.13053717337E-01  0.63756827252E-01  0.11441416052E+00  0.13308186834E+00  0.19617619494E-01 0.  0.
         14    1    1    2    0    0 -0.62565879383E-02 -0.95880502879E-02 -0.21391718627E-01  0.24262753900E-01  0.00000000000E+00 0. -1.
     999901    1    3    3    0    0 -0.67971293990E-02 -0.54168776965E-01 -0.93022441895E-01  0.88658537776E+00  0.88000000000E+00 0.  1.
        -11    1    4    4    0    0 -0.50881899937E-02  0.12844006395E-01  0.20543966668E-01  0.24762347730E-01  0.51100000000E-03 0.  1.
         11    1    4    4    0    0  0.18141907331E-01  0.50912820858E-01  0.93870193855E-01  0.10831952061E+00  0.51100000000E-03 0. -1.
</event>
<event>
 8    1  0.1208168E+005  0.1043930E+01  0.7957747E-01            NaN
         13   -1    0    0    0    0  0.00000000000E+00  0.00000000000E+00  0.74505805969E-08  0.10566000000E+00  0.10566000000E+00 0.  1.
     999900   -1    0    0    0    0 -0.00000000000E+00 -0.00000000000E+00 -0.74505805969E-08  0.93827000000E+00  0.93827000000E+00 0. -1.
     999902    2    1    2    0    0 -0.21403754826E-01  0.28541521325E-02  0.81205175868E-02  0.10208603292E+01  0.10205996287E+01 0.  0.
     999903    2    3    3    0    0 -0.10912627703E+00 -0.73326183807E-01  0.12335942250E-03  0.13318773245E+00  0.21299842412E-01 0.  0.
         14    1    1    2    0    0  0.21403754826E-01 -0.28541521325E-02 -0.81205175868E-02  0.23069670802E-01  0.00000000000E+00 0.  1.
     999901    1    3    3    0    0  0.87722522203E-01  0.76180335939E-01  0.79971581643E-02  0.88767259675E+00  0.88000000000E+00 0.  1.
        -11    1    4    4    0    0 -0.25920298991E-01 -0.19595283585E-01  0.90612504656E-02  0.33737285302E-01  0.51100000000E-03 0.  1.
         11    1    4    4    0    0 -0.83205978037E-01 -0.53730900222E-01 -0.89378910431E-02  0.99450447144E-01  0.51100000000E-03 0. -1.
</event>
<event>
 8    1  0.1208168E+005  0.1043930E+01  0.7957747E-01            NaN
         13   -1    0    0    0    0  0.00000000000E+00  0.00000000000E+00  0.74505805969E-08  0.10566000000E+00  0.10566000000E+00 0.  1.
     999900   -1    0    0    0    0 -0.00000000000E+00 -0.00000000000E+00 -0.74505805969E-08  0.93827000000E+00  0.93827000000E+00 0. -1.
     999902    2    1    2    0    0 -0.20826562613E-01 -0.61547179665E-02 -0.10034145215E-01  0.10200069915E+01  0.10197264106E+01 0.  0.
     999903    2    3    3    0    0  0.89135233538E-01 -0.36877500421E-01 -0.84000138252E-01  0.12955404270E+00  0.20571505976E-01 0.  0.
         14    1    1    2    0    0  0.20826562613E-01  0.61547179665E-02  0.10034145215E-01  0.23923008459E-01  0.00000000000E+00 0. -1.
     999901    1    3    3    0    0 -0.10996179615E+00  0.30722782455E-01  0.73965993036E-01  0.89045294884E+00  0.88000000000E+00 0.  1.
        -11    1    4    4    0    0  0.25290763617E-01 -0.18673907218E-01 -0.34932601570E-01  0.46998779862E-01  0.51100000000E-03 0. -1.
         11    1    4    4    0    0  0.63844469921E-01 -0.18203593203E-01 -0.49067536682E-01  0.82555262837E-01  0.51100000000E-03 0.  1.
</event>
<event>
 8    1  0.1208168E+005  0.1043930E+01  0.7957747E-01            NaN
         13   -1    0    0    0    0  0.00000000000E+00  0.00000000000E+00  0.74505805969E-08  0.10566000000E+00  0.10566000000E+00 0. -1.
     999900   -1    0    0    0    0 -0.00000000000E+00 -0.00000000000E+00 -0.74505805969E-08  0.93827000000E+00  0.93827000000E+00 0.  1.
     999902    2    1    2    0    0  0.25998786718E-02  0.18364257773E-02  0.23097456210E-01  0.10206142476E+01  0.10203478907E+01 0.  0.
     999903    2    3    3    0    0 -0.80214311130E-01 -0.85451412997E-01  0.57164090769E-01  0.13177348993E+00  0.18979981052E-01 0.  0.
         14    1    1    2    0    0 -0.25998786718E-02 -0.18364257773E-02 -0.23097456210E-01  0.23315752446E-01  0.00000000000E+00 0.  1.
     999901    1    3    3    0    0  0.82814189802E-01  0.87287838774E-01 -0.34066634559E-01  0.88884075763E+00  0.88000000000E+00 0.  1.
        -11    1    4    4    0    0 -0.71943095797E-01 -0.78982165926E-01  0.57353429744E-01  0.12125868460E+00  0.51100000000E-03 0. -1.
         11    1    4    4    0    0 -0.82712153330E-02 -0.64692470711E-02 -0.18933897455E-03  0.10514805324E-01  0.51100000000E-03 0.  1.
</event>
<event>
 8    1  0.1208168E+005  0.1043930E+01  0.7957747E-01            NaN
         13   -1    0    0    0    0  0.00000000000E+00  0.00000000000E+00  0.74505805969E-08  0.10566000000E+00  0.10566000000E+00 0.  1.
     999900   -1    0    0    0    0 -0.00000000000E+00 -0.00000000000E+00 -0.74505805969E-08  0.93827000000E+00  0.93827000000E+00 0.  1.
     999902    2    1    2    0    0 -0.40090638602E-02 -0.14743157945E-02  0.24078362365E-01  0.10194756807E+01  0.10191823437E+01 0.  0.
     999903    2    3    3    0    0  0.68374204892E-01  0.41225661717E-01  0.10315235345E+00  0.13194240143E+00  0.19844450003E-01 0.  0.
         14    1    1    2    0    0  0.40090638602E-02  0.14743157945E-02 -0.24078362365E-01  0.24454319338E-01  0.00000000000E+00 0. -1.
     999901    1    3    3    0    0 -0.72383268752E-01 -0.42699977512E-01 -0.79073991080E-01  0.88753327923E+00  0.88000000000E+00 0.  1.
        -11    1    4    4    0    0  0.34214939855E-01  0.24194272920E-01  0.38753841855E-01  0.57080174587E-01  0.51100000000E-03 0.  1.
         11    1    4    4    0    0  0.34159265037E-01  0.17031388798E-01  0.64398511590E-01  0.74862226845E-01  0.51100000000E-03 0. -1.
</event>
<event>
 8    1  0.1208168E+005  0.1043930E+01  0.7957747E-01            NaN
         13   -1    0    0    0    0  0.00000000000E+00  0.00000000000E+00  0.74505805969E-08  0.10566000000E+00  0.10566000000E+00 0. -1.
     999900   -1    0    0    0    0 -0.00000000000E+00 -0.00000000000E+00 -0.74505805969E-08  0.93827000000E+00  0.93827000000E+00 0. -1.
     999902    2    1    2    0    0  0.12760591596E-01 -0.17064036706E-02  0.19529404434E-01  0.10205389301E+01  0.10202708296E+01 0.  0.
     999903    2    3    3    0    0  0.91976487294E-01 -0.75963487207E-01  0.55537299259E-01  0.13313494037E+00  0.20258211517E-01 0.  0.
         14    1    1    2    0    0 -0.12760591596E-01  0.17064036706E-02 -0.19529404434E-01  0.23391069854E-01  0.00000000000E+00 0.  1.
     999901    1    3    3    0    0 -0.79215895698E-01  0.74257083537E-01 -0.36007894825E-01  0.88740398978E+00  0.88000000000E+00 0. -1.
        -11    1    4    4    0    0  0.56261614930E-01 -0.36501737160E-01  0.23800768082E-01  0.71165186802E-01  0.51100000000E-03 0. -1.
         11    1    4    4    0    0  0.35714872364E-01 -0.39461750047E-01  0.31736531177E-01  0.61969753565E-01  0.51100000000E-03 0.  1.
</event>
<event>
 8    1  0.1208168E+005  0.1043930E+01  0.7957747E-01            NaN
         13   -1    0    0    0    0  0.00000000000E+00  0.00000000000E+00  0.74505805969E-08  0.10566000000E+00  0.10566000000E+00 0. -1.
     999900   -1    0    0    0    0 -0.00000000000E+00 -0.00000000000E+00 -0.74505805969E-08  0.93827000000E+00  0.93827000000E+00 0. -1.
     999902    2    1    2    0    0 -0.19030390838E-01  0.12838300086E-01  0.67891234077E-02  0.10199911211E+01  0.10197101634E+01 0.  0.
     999903    2    3    3    0    0  0.77876403631E-01  0.92561879703E-01 -0.42376309173E-01  0.12973047631E+00  0.20045176200E-01 0.  0.
         14    1    1    2    0    0  0.19030390838E-01 -0.12838300086E-01 -0.67891234077E-02  0.23938878862E-01  0.00000000000E+00 0.  1.
     999901    1    3    3    0    0 -0.96906794469E-01 -0.79723579618E-01  0.49165432580E-01  0.89026064482E+00  0.88000000000E+00 0.  1.
        -11    1    4    4    0    0  0.36690973955E-01  0.58305659092E-01 -0.27019075504E-01  0.74000466310E-01  0.51100000000E-03 0.  1.
         11    1    4    4    0    0  0.41185429676E-01  0.34256220611E-01 -0.15357233669E-01  0.55730010004E-01  0.51100000000E-03 0. -1.
</event>
<event>
 8    1  0.1208168E+005  0.1043930E+01  0.7957747E-01            NaN
         13   -1    0    0    0    0  0.00000000000E+00  0.00000000000E+00  0.74505805969E-08  0.10566000000E+00  0.10566000000E+00 0.  1.
     999900   -1    0    0    0    0 -0.00000000000E+00 -0.00000000000E+00 -0.74505805969E-08  0.93827000000E+00  0.93827000000E+00 0.  1.
     999902    2    1    2    0    0 -0.16034231903E-01 -0.27390714419E-02  0.18900138938E-01  0.10189937943E+01  0.10186886366E+01 0.  0.
     999903    2    3    3    0    0  0.93751965661E-01  0.58878845896E-01  0.64175602068E-01  0.12888164150E+00  0.15356433719E-01 0.  0.
         14    1    1    2    0    0  0.16034231903E-01  0.27390714419E-02 -0.18900138938E-01  0.24936205745E-01  0.00000000000E+00 0. -1.
     999901    1    3    3    0    0 -0.10978619756E+00 -0.61617917338E-01 -0.45275463130E-01  0.89011215275E+00  0.88000000000E+00 0.  1.
        -11    1    4    4    0    0  0.40876536585E-01  0.17811068864E-01  0.29673320599E-01  0.53562043404E-01  0.51100000000E-03 0.  1.
         11    1    4    4    0    0  0.52875429076E-01  0.41067777032E-01  0.34502281469E-01  0.75319598100E-01  0.51100000000E-03 0. -1.
</event>
<event>
 8    1  0.1208168E+005  0.1043930E+01  0.7957747E-01            NaN
         13   -1    0    0    0    0  0.00000000000E+00  0.00000000000E+00  0.74505805969E-08  0.10566000000E+00  0.10566000000E+00 0. -1.
     999900   -1    0    0    0    0 -0.00000000000E+00 -0.00000000000E+00 -0.74505805969E-08  0.93827000000E+00  0.93827000000E+00 0. -1.
     999902    2    1    2    0    0  0.22106341818E-02 -0.55832129655E-03 -0.23163320913E-01  0.10206547328E+01  0.10203893108E+01 0.  0.
     999903    2    3    3    0    0  0.56647836407E-01 -0.96174996520E-01  0.62752367875E-01  0.12965110593E+00  0.20320981019E-01 0.  0.
         14    1    1    2    0    0 -0.22106341818E-02  0.55832129655E-03  0.23163320913E-01  0.23275267171E-01  0.00000000000E+00 0. -1.
     999901    1    3    3    0    0 -0.54437202225E-01  0.95616675224E-01 -0.85915688789E-01  0.89100362690E+00  0.88000000000E+00 0. -1.
        -11    1    4    4    0    0  0.40607480267E-01 -0.83211014354E-01  0.48046387074E-01  0.10431565940E+00  0.51100000000E-03 0.  1.
         11    1    4    4    0    0  0.16040356140E-01 -0.12963982166E-01  0.14705980802E-01  0.25335446533E-01  0.51100000000E-03 0. -1.
</event>
<event>
 8    1  0.1208168E+005  0.1043930E+01  0.7957747E-01            NaN
         13   -1    0    0    0    0  0.00000000000E+00  0.00000000000E+00  0.74505805969E-08  0.10566000000E+00  0.10566000000E+00 0.  1.
     999900   -1    0    0    0    0 -0.00000000000E+00 -0.00000000000E+00 -0.74505805969E-08  0.93827000000E+00  0.93827000000E+00 0. -1.
     999902    2    1    2    0    0  0.83285534252E-02  0.16464454875E-01  0.15794893999E-01  0.10196416951E+01  0.10193523751E+01 0.  0.
     999903    2    3    3    0    0 -0.11072824625E+00  0.91204482669E-02  0.64826030753E-01  0.13024161174E+00  0.20409215378E-01 0.  0.
         14    1    1    2    0    0 -0.83285534252E-02 -0.16464454875E-01 -0.15794893999E-01  0.24288304859E-01  0.00000000000E+00 0. -1.
     999901    1    3    3    0    0  0.11905679967E+00  0.73440066077E-02 -0.49031136754E-01  0.88940008340E+00  0.88000000000E+00 0.  1.
        -11    1    4    4    0    0 -0.90677793933E-01  0.20658626147E-02  0.45349729037E-01  0.10140803294E+00  0.51100000000E-03 0. -1.
         11    1    4    4    0    0 -0.20050452313E-01  0.70545856523E-02  0.19476301716E-01  0.28833578797E-01  0.51100000000E-03 0.  1.
</event>
<event>
 8    1  0.1208168E+005  0.1043930E+01  0.7957747E-01            NaN
         13   -1    0    0    0    0  0.00000000000E+00  0.00000000000E+00  0.74505805969E-08  0.10566000000E+00  0.10566000000E+00 0.  1.
     999900   -1    0    0    0    0 -0.00000000000E+00 -0.00000000000E+00 -0.74505805969E-08  0.93827000000E+00  0.93827000000E+00 0.  1.
     999902    2    1    2    0    0  0.14138146112E-01 -0.85416257765E-02 -0.10906290386E-01  0.10241362203E+01  0.10239449223E+01 0.  0.
     999903    2    3    3    0    0  0.16338882448E-01  0.10952520013E+00  0.70071752799E-01  0.13256341779E+00  0.20007015084E-01 0.  0.
         14    1    1    2    0    0 -0.14138146112E-01  0.85416257765E-02  0.10906290386E-01  0.19793779739E-01  0.00000000000E+00 0.  1.
     999901    1    3    3    0    0 -0.22007363363E-02 -0.11806682591E+00 -0.80978043185E-01  0.89157280247E+00  0.88000000000E+00 0.  1.
        -11    1    4    4    0    0  0.64638716600E-02  0.81226360940E-01  0.42818370657E-01  0.92049863309E-01  0.51100000000E-03 0. -1.
         11    1    4    4    0    0  0.98750107884E-02  0.28298839194E-01  0.27253382142E-01  0.40513554485E-01  0.51100000000E-03 0.  1.
</event>
<event>
 8    1  0.1208168E+005  0.1043930E+01  0.7957747E-01            NaN
         13   -1    0    0    0    0  0.00000000000E+00  0.00000000000E+00  0.74505805969E-08  0.10566000000E+00  0.10566000000E+00 0. -1.
     999900   -1    0    0    0    0 -0.00000000000E+00 -0.00000000000E+00 -0.74505805969E-08  0.93827000000E+00  0.93827000000E+00 0. -1.
     999902    2    1    2    0    0  0.11878419569E-01 -0.19939294113E-01 -0.20248865975E-02  0.10206325223E+01  0.10203665876E+01 0.  0.
     999903    2    3    3    0    0 -0.90238627812E-01 -0.85800172650E-01  0.36001206096E-01  0.13146913439E+00  0.21985606203E-01 0.  0.
         14    1    1    2    0    0 -0.11878419569E-01  0.19939294113E-01  0.20248865975E-02  0.23297477694E-01  0.00000000000E+00 0.  1.
     999901    1    3    3    0    0  0.10211704738E+00  0.65860878537E-01 -0.38026092693E-01  0.88916338792E+00  0.88000000000E+00 0.  1.
        -11    1    4    4    0    0 -0.80745208456E-01 -0.82902614641E-01  0.36954313314E-01  0.12148462700E+00  0.51100000000E-03 0. -1.
         11    1    4    4    0    0 -0.94934193565E-02 -0.28975580097E-02 -0.95310721786E-03  0.99845073923E-02  0.51100000000E-03 0.  1.
</event>
<event>
 8    1  0.1208168E+005  0.1043930E+01  0.7957747E-01            NaN
         13   -1    0    0    0    0  0.00000000000E+00  0.00000000000E+00  0.74505805969E-08  0.10566000000E+00  0.10566000000E+00 0.  1.
     999900   -1    0    0    0    0 -0.00000000000E+00 -0.00000000000E+00 -0.74505805969E-08  0.93827000000E+00  0.93827000000E+00 0. -1.
     999902    2    1    2    0    0  0.20043224523E-01  0.67181933472E-02  0.11229865736E-01  0.10199931068E+01  0.10197121962E+01 0.  0.
     999903    2    3    3    0    0  0.10129097794E+00 -0.19337245143E-01  0.81579931920E-01  0.13307190675E+00  0.20470852744E-01 0.  0.
         14    1    1    2    0    0 -0.20043224523E-01 -0.67181933472E-02 -0.11229865736E-01  0.23936893189E-01  0.00000000000E+00 0. -1.
     999901    1    3    3    0    0 -0.81247753415E-01  0.26055438490E-01 -0.70350066184E-01  0.88692120006E+00  0.88000000000E+00 0. -1.
        -11    1    4    4    0    0  0.51824169230E-01 -0.20093108250E-01  0.40703158233E-01  0.68894743825E-01  0.51100000000E-03 0. -1.
         11    1    4    4    0    0  0.49466808707E-01  0.75586310735E-03  0.40876773687E-01  0.64177162922E-01  0.51100000000E-03 0.  1.
</event>
<event>
 8    1  0.1208168E+005  0.1043930E+01  0.7957747E-01            NaN
         13   -1    0    0    0    0  0.00000000000E+00  0.00000000000E+00  0.74505805969E-08  0.10566000000E+00  0.10566000000E+00 0.  1.
     999900   -1    0    0    0    0 -0.00000000000E+00 -0.00000000000E+00 -0.74505805969E-08  0.93827000000E+00  0.93827000000E+00 0. -1.
     999902    2    1    2    0    0  0.11495316807E-01  0.11825762274E-01 -0.17499125633E-01  0.10198839949E+01  0.10196004868E+01 0.  0.
     999903    2    3    3    0    0  0.12318258096E+00  0.24427528836E-01 -0.37246906781E-01  0.13251551208E+00  0.20059323554E-01 0.  0.
         14    1    1    2    0    0 -0.11495316807E-01 -0.11825762274E-01  0.17499125633E-01  0.24046005069E-01  0.00000000000E+00 0. -1.
     999901    1    3    3    0    0 -0.11168726415E+00 -0.12601766562E-01  0.19747781149E-01  0.88736848285E+00  0.88000000000E+00 0. -1.
        -11    1    4    4    0    0  0.91220924897E-01  0.89591871551E-02 -0.26715136249E-01  0.95475042809E-01  0.51100000000E-03 0. -1.
         11    1    4    4    0    0  0.31961656060E-01  0.15468341681E-01 -0.10531770532E-01  0.37040469274E-01  0.51100000000E-03 0.  1.
</event>
<event>
 8    1  0.1208168E+005  0.1043930E+01  0.7957747E-01            NaN
         13   -1    0    0    0    0  0.00000000000E+00  0.00000000000E+00  0.74505805969E-08  0.10566000000E+00  0.10566000000E+00 0. -1.
     999900   -1    0    0    0    0 -0.00000000000E+00 -0.00000000000E+00 -0.74505805969E-08  0.93827000000E+00  0.93827000000E+00 0.  1.
     999902    2    1    2    0    0 -0.16650250985E-01  0.11131147439E-01  0.38288730615E-02  0.10235389831E+01  0.10233358473E+01 0.  0.
     999903    2    3    3    0    0 -0.41426873637E-01 -0.93929084449E-01 -0.81840344325E-01  0.13281413885E+00  0.20072238429E-01 0.  0.
         14    1    1    2    0    0  0.16650250985E-01 -0.11131147439E-01 -0.38288730615E-02  0.20391016897E-01  0.00000000000E+00 0. -1.
     999901    1    3    3    0    0  0.24776622652E-01  0.10506023189E+00  0.85669217386E-01  0.89072484425E+00  0.88000000000E+00 0. -1.
        -11    1    4    4    0    0 -0.15330972184E-01 -0.15260706540E-01 -0.14875309315E-01  0.26257643086E-01  0.51100000000E-03 0. -1.
         11    1    4    4    0    0 -0.26095901453E-01 -0.78668377910E-01 -0.66965035010E-01  0.10655649577E+00  0.51100000000E-03 0.  1.
</event>
<event>
 8    1  0.1208168E+005  0.1043930E+01  0.7957747E-01            NaN
         13   -1    0    0    0    0  0.00000000000E+00  0.00000000000E+00  0.74505805969E-08  0.10566000000E+00  0.10566000000E+00 0.  1.
     999900   -1    0    0    0    0 -0.00000000000E+00 -0.00000000000E+00 -0.74505805969E-08  0.93827000000E+00  0.93827000000E+00 0. -1.
     999902    2    1    2    0    0  0.16858446823E-01  0.10539151771E-01 -0.13716467410E-01  0.10197758611E+01  0.10194897667E+01 0.  0.
     999903    2    3    3    0    0  0.10029932050E+00  0.67743083175E-01  0.48226644793E-01  0.13181661746E+00  0.20018300611E-01 0.  0.
         14    1    1    2    0    0 -0.16858446823E-01 -0.10539151771E-01  0.13716467410E-01  0.24154138932E-01  0.00000000000E+00 0. -1.
     999901    1    3    3    0    0 -0.83440873673E-01 -0.57203931404E-01 -0.61943112203E-01  0.88795924361E+00  0.88000000000E+00 0. -1.
        -11    1    4    4    0    0  0.43831463022E-01  0.28525233739E-01  0.31522021181E-01  0.61063778550E-01  0.51100000000E-03 0. -1.
         11    1    4    4    0    0  0.56467857475E-01  0.39217849435E-01  0.16704623612E-01  0.70752838905E-01  0.51100000000E-03 0.  1.
</event>
<event>
 8    1  0.1208168E+005  0.1043930E+01  0.7957747E-01            NaN
         13   -1    0    0    0    0  0.00000000000E+00  0.00000000000E+00  0.74505805969E-08  0.10566000000E+00  0.10566000000E+00 0.  1.
     999900   -1    0    0    0    0 -0.00000000000E+00 -0.00000000000E+00 -0.74505805969E-08  0.93827000000E+00  0.93827000000E+00 0.  1.
     999902    2    1    2    0    0  0.43629388912E-02 -0.18666972885E-02 -0.20378524657E-01  0.10230062321E+01  0.10227922306E+01 0.  0.
     999903    2    3    3    0    0  0.76929837053E-01 -0.59693728760E-01 -0.91817494862E-01  0.13524869387E+00  0.19499121743E-01 0.  0.
         14    1    1    2    0    0 -0.43629388912E-02  0.18666972885E-02  0.20378524657E-01  0.20923767866E-01  0.00000000000E+00 0.  1.
     999901    1    3    3    0    0 -0.72566898162E-01  0.57827031472E-01  0.71438970206E-01  0.88775753826E+00  0.88000000000E+00 0. -1.
        -11    1    4    4    0    0  0.47713387281E-01 -0.24748638346E-01 -0.49323277966E-01  0.72952788131E-01  0.51100000000E-03 0.  1.
         11    1    4    4    0    0  0.29216449773E-01 -0.34945090414E-01 -0.42494216897E-01  0.62295905741E-01  0.51100000000E-03 0. -1.
</event>
<event>
 8    1  0.1208168E+005  0.1043930E+01  0.7957747E-01            NaN
         13   -1    0    0    0    0  0.00000000000E+00  0.00000000000E+00  0.74505805969E-08  0.10566000000E+00  0.10566000000E+00 0. -1.
     999900   -1    0    0    0    0 -0.00000000000E+00 -0.00000000000E+00 -0.74505805969E-08  0.93827000000E+00  0.93827000000E+00 0. -1.
     999902    2    1    2    0    0  0.17893949270E-01 -0.13742086826E-01  0.10366724847E-01  0.10191004339E+01  0.10187979127E+01 0.  0.
     999903    2    3    3    0    0 -0.91096132852E-01  0.83223827372E-01 -0.11269246109E-01  0.12682842278E+00  0.27087673451E-01 0.  0.
         14    1    1    2    0    0 -0.17893949270E-01  0.13742086826E-01 -0.10366724847E-01  0.24829566144E-01  0.00000000000E+00 0.  1.
     999901    1    3    3    0    0  0.10899008212E+00 -0.96965914198E-01  0.21635970957E-01  0.89227201108E+00  0.88000000000E+00 0.  1.
        -11    1    4    4    0    0 -0.33822941946E-01  0.48470310850E-01 -0.90609660499E-02  0.59797363341E-01  0.51100000000E-03 0. -1.
         11    1    4    4    0    0 -0.57273190906E-01  0.34753516523E-01 -0.22082800595E-02  0.67031059436E-01  0.51100000000E-03 0.  1.
</event>
<event>
 8    1  0.1208168E+005  0.1043930E+01  0.7957747E-01            NaN
         13   -1    0    0    0    0  0.00000000000E+00  0.00000000000E+00  0.74505805969E-08  0.10566000000E+00  0.10566000000E+00 0. -1.
     999900   -1    0    0    0    0 -0.00000000000E+00 -0.00000000000E+00 -0.74505805969E-08  0.93827000000E+00  0.93827000000E+00 0. -1.
     999902    2    1    2    0    0 -0.16857104003E-01 -0.17301167376E-01  0.26058627660E-02  0.10196342623E+01  0.10193447631E+01 0.  0.
     999903    2    3    3    0    0 -0.80389188411E-01  0.57354120550E-01  0.82469505289E-01  0.13059661456E+00  0.22412935428E-01 0.  0.
         14    1    1    2    0    0  0.16857104003E-01  0.17301167376E-01 -0.26058627660E-02  0.24295737665E-01  0.00000000000E+00 0.  1.
     999901    1    3    3    0    0  0.63532084409E-01 -0.74655287925E-01 -0.79863642523E-01  0.88903764778E+00  0.88000000000E+00 0. -1.
        -11    1    4    4    0    0 -0.65372759804E-02  0.88157061679E-02  0.18432969431E-01  0.21458987290E-01  0.51100000000E-03 0. -1.
         11    1    4    4    0    0 -0.73851912431E-01  0.48538414382E-01  0.64036535858E-01  0.10913762727E+00  0.51100000000E-03 0.  1.
</event>
<event>
 8    1  0.1208168E+005  0.1043930E+01  0.7957747E-01            NaN
         13   -1    0    0    0    0  0.00000000000E+00  0.00000000000E+00  0.74505805969E-08  0.10566000000E+00  0.10566000000E+00 0. -1.
     999900   -1    0    0    0    0 -0.00000000000E+00 -0.00000000000E+00 -0.74505805969E-08  0.93827000000E+00  0.93827000000E+00 0. -1.
     999902    2    1    2    0    0  0.45653111341E-02 -0.17180481855E-01 -0.11292292887E-01  0.10228699216E+01  0.10226530935E+01 0.  0.
     999903    2    3    3    0    0 -0.10556700676E+00 -0.48599957915E-01  0.60489486680E-01  0.13255035271E+00  0.20106446211E-01 0.  0.
         14    1    1    2    0    0 -0.45653111341E-02  0.17180481855E-01  0.11292292887E-01  0.21060078375E-01  0.00000000000E+00 0.  1.
     999901    1    3    3    0    0  0.11013231789E+00  0.31419476060E-01 -0.71781779567E-01  0.89031956892E+00  0.88000000000E+00 0. -1.
        -11    1    4    4    0    0 -0.53146939718E-01 -0.14973628466E-01  0.22702619834E-01  0.59703239604E-01  0.51100000000E-03 0. -1.
         11    1    4    4    0    0 -0.52420067037E-01 -0.33626329450E-01  0.37786866845E-01  0.72847113103E-01  0.51100000000E-03 0.  1.
</event>
<event>
 8    1  0.1208168E+005  0.1043930E+01  0.7957747E-01            NaN
         13   -1    0    0    0    0  0.00000000000E+00  0.00000000000E+00  0.74505805969E-08  0.10566000000E+00  0.10566000000E+00 0. -1.
     999900   -1    0    0    0    0 -0.00000000000E+00 -0.00000000000E+00 -0.74505805969E-08  0.93827000000E+00  0.93827000000E+00 0. -1.
     999902    2    1    2    0    0 -0.61332313553E-02 -0.12310248385E-01 -0.19225156178E-01  0.10202917815E+01  0.10200179185E+01 0.  0.
     999903    2    3    3    0    0 -0.40537632321E-01 -0.12275526755E+00  0.17575560626E-01  0.13195847820E+00  0.19798593166E-01 0.  0.
         14    1    1    2    0    0  0.61332313553E-02  0.12310248385E-01  0.19225156178E-01  0.23638218466E-01  0.00000000000E+00 0. -1.
     999901    1    3    3    0    0  0.34404400965E-01  0.11044501916E+00 -0.36800716803E-01  0.88833330334E+00  0.88000000000E+00 0. -1.
        -11    1    4    4    0    0 -0.34212666980E-01 -0.11791415706E+00  0.15906223091E-01  0.12380437824E+00  0.51100000000E-03 0.  1.
         11    1    4    4    0    0 -0.63249653410E-02 -0.48411104919E-02  0.16693375349E-02  0.81540999605E-02  0.51100000000E-03 0. -1.
</event>
<event>
 8    1  0.1208168E+005  0.1043930E+01  0.7957747E-01            NaN
         13   -1    0    0    0    0  0.00000000000E+00  0.00000000000E+00  0.74505805969E-08  0.10566000000E+00  0.10566000000E+00 0. -1.
     999900   -1    0    0    0    0 -0.00000000000E+00 -0.00000000000E+00 -0.74505805969E-08  0.93827000000E+00  0.93827000000E+00 0. -1.
     999902    2    1    2    0    0  0.21855110032E-01 -0.22893665418E-03  0.98156425855E-02  0.10199707620E+01  0.10196893204E+01 0.  0.
     999903    2    3    3    0    0 -0.28700686821E-01  0.13127455764E-01 -0.12285997476E+00  0.12849047547E+00  0.20473626218E-01 0.  0.
         14    1    1    2    0    0 -0.21855110032E-01  0.22893665418E-03 -0.98156425855E-02  0.23959238007E-01  0.00000000000E+00 0.  1.
     999901    1    3    3    0    0  0.50555796853E-01 -0.13356392418E-01  0.13267561735E+00  0.89148028652E+00  0.88000000000E+00 0.  1.
        -11    1    4    4    0    0 -0.69839573959E-02  0.14219844315E-01 -0.53804825249E-01  0.56090997267E-01  0.51100000000E-03 0. -1.
         11    1    4    4    0    0 -0.21716729425E-01 -0.10923885508E-02 -0.69055149511E-01  0.72399478207E-01  0.51100000000E-03 0.  1.
</event>
<event>
 8    1  0.1208168E+005  0.1043930E+01  0.7957747E-01            NaN
         13   -1    0    0    0    0  0.00000000000E+00  0.00000000000E+00  0.74505805969E-08  0.10566000000E+00  0.10566000000E+00 0.  1.
     999900   -1    0    0    0    0 -0.00000000000E+00 -0.00000000000E+00 -0.74505805969E-08  0.93827000000E+00  0.93827000000E+00 0.  1.
     999902    2    1    2    0    0 -0.91276287499E-02  0.22029433725E-01  0.22057293763E-02  0.10199826661E+01  0.10197015075E+01 0.  0.
     999903    2    3    3    0    0 -0.91926518565E-02  0.93188754446E-01 -0.91030787381E-01  0.13220076657E+00  0.20537517539E-01 0.  0.
         14    1    1    2    0    0  0.91276287499E-02 -0.22029433725E-01 -0.22057293763E-02  0.23947333858E-01  0.00000000000E+00 0. -1.
     999901    1    3    3    0    0  0.65023106630E-04 -0.71159320721E-01  0.93236516757E-01  0.88778189957E+00  0.88000000000E+00 0. -1.
        -11    1    4    4    0    0 -0.11947123032E-01  0.43902686841E-01 -0.34189936355E-01  0.56915661549E-01  0.51100000000E-03 0.  1.
         11    1    4    4    0    0  0.27544711752E-02  0.49286067605E-01 -0.56840851026E-01  0.75285105019E-01  0.51100000000E-03 0. -1.
</event>
<event>
 8    1  0.1208168E+005  0.1043930E+01  0.7957747E-01            NaN
         13   -1    0    0    0    0  0.00000000000E+00  0.00000000000E+00  0.74505805969E-08  0.10566000000E+00  0.10566000000E+00 0. -1.
     999900   -1    0    0    0    0 -0.00000000000E+00 -0.00000000000E+00 -0.74505805969E-08  0.93827000000E+00  0.93827000000E+00 0.  1.
     999902    2    1    2    0    0 -0.21896045043E-01  0.92251742044E-02 -0.17738154289E-01  0.10142789841E+01  0.10138454886E+01 0.  0.
     999903    2    3    3    0    0 -0.73146267317E-01  0.38069051972E-01  0.91547456302E-01  0.12557098971E+00  0.24238555270E-01 0.  0.
         14    1    1    2    0    0  0.21896045043E-01 -0.92251742044E-02  0.17738154289E-01  0.29651015922E-01  0.00000000000E+00 0. -1.
     999901    1    3    3    0    0  0.51250222274E-01 -0.28843877767E-01 -0.10928561059E+00  0.88870799437E+00  0.88000000000E+00 0.  1.
        -11    1    4    4    0    0 -0.70188040969E-01  0.34929831629E-01  0.92363186096E-01  0.12115144861E+00  0.51100000000E-03 0.  1.
         11    1    4    4    0    0 -0.29582263474E-02  0.31392203421E-02 -0.81572979459E-03  0.44195411048E-02  0.51100000000E-03 0. -1.
</event>
<event>
 8    1  0.1208168E+005  0.1043930E+01  0.7957747E-01            NaN
         13   -1    0    0    0    0  0.00000000000E+00  0.00000000000E+00  0.74505805969E-08  0.10566000000E+00  0.10566000000E+00 0.  1.
     999900   -1    0    0    0    0 -0.00000000000E+00 -0.00000000000E+00 -0.74505805969E-08  0.93827000000E+00  0.93827000000E+00 0.  1.
     999902    2    1    2    0    0  0.79976064547E-02 -0.16617635181E-01 -0.15661927500E-01  0.10197348872E+01  0.10194478097E+01 0.  0.
     999903    2    3    3    0    0 -0.71040806001E-01  0.10423975785E+00 -0.86063699932E-02  0.12793706207E+00  0.19521757431E-01 0.  0.
         14    1    1    2    0    0 -0.79976064547E-02  0.16617635181E-01  0.15661927500E-01  0.24195112751E-01  0.00000000000E+00 0.  1.
     999901    1    3    3    0    0  0.79038412455E-01 -0.12085739303E+00 -0.70555575066E-02  0.89179782517E+00  0.88000000000E+00 0. -1.
        -11    1    4    4    0    0 -0.48666606024E-01  0.54550123203E-01 -0.66053584018E-02  0.73403313031E-01  0.51100000000E-03 0. -1.
         11    1    4    4    0    0 -0.22374199976E-01  0.49689634650E-01 -0.20010115914E-02  0.54533749043E-01  0.51100000000E-03 0.  1.
</event>
<event>
 8    1  0.1208168E+005  0.1043930E+01  0.7957747E-01            NaN
         13   -1    0    0    0    0  0.00000000000E+00  0.00000000000E+00  0.74505805969E-08  0.10566000000E+00  0.10566000000E+00 0.  1.
     999900   -1    0    0    0    0 -0.00000000000E+00 -0.00000000000E+00 -0.74505805969E-08  0.93827000000E+00  0.93827000000E+00 0.  1.
     999902    2    1    2    0    0 -0.20619534638E-01 -0.12268228589E-01  0.30098959538E-03  0.10199348914E+01  0.10196525965E+01 0.  0.
     999903    2    3    3    0    0 -0.63116981509E-02 -0.85841499678E-01 -0.97295696143E-01  0.13137265191E+00  0.19588787131E-01 0.  0.
         14    1    1    2    0    0  0.20619534638E-01  0.12268228589E-01 -0.30098959538E-03  0.23995108587E-01  0.00000000000E+00 0. -1.
     999901    1    3    3    0    0 -0.14307836487E-01  0.73573271089E-01  0.97596685738E-01  0.88856223950E+00  0.88000000000E+00 0. -1.
        -11    1    4    4    0    0  0.45117362573E-02 -0.52988449733E-01 -0.52025258244E-01  0.74397716266E-01  0.51100000000E-03 0.  1.
         11    1    4    4    0    0 -0.10823434408E-01 -0.32853049945E-01 -0.45270437899E-01  0.56974935644E-01  0.51100000000E-03 0. -1.
</event>
<event>
 8    1  0.1208168E+005  0.1043930E+01  0.7957747E-01            NaN
         13   -1    0    0    0    0  0.00000000000E+00  0.00000000000E+00  0.74505805969E-08  0.10566000000E+00  0.10566000000E+00 0. -1.
     999900   -1    0    0    0    0 -0.00000000000E+00 -0.00000000000E+00 -0.74505805969E-08  0.93827000000E+00  0.93827000000E+00 0. -1.
     999902    2    1    2    0    0  0.16242600644E-01  0.98896309202E-02  0.13215557869E-01  0.10207723264E+01  0.10205096102E+01 0.  0.
     999903    2    3    3    0    0 -0.56645776264E-01 -0.70904914293E-01 -0.88331633058E-01  0.12827453595E+00  0.20386964833E-01 0.  0.
         14    1    1    2    0    0 -0.16242600644E-01 -0.98896309202E-02 -0.13215557869E-01  0.23157673571E-01  0.00000000000E+00 0.  1.
     999901    1    3    3    0    0  0.72888376908E-01  0.80794545213E-01  0.10154719093E+00  0.89249779048E+00  0.88000000000E+00 0. -1.
        -11    1    4    4    0    0 -0.26667952345E-01 -0.18008187276E-01 -0.32123111263E-01  0.45471198461E-01  0.51100000000E-03 0.  1.
         11    1    4    4    0    0 -0.29977823919E-01 -0.52896727017E-01 -0.56208521795E-01  0.82803337489E-01  0.51100000000E-03 0. -1.
</event>
<event>
 8    1  0.1208168E+005  0.1043930E+01  0.7957747E-01            NaN
         13   -1    0    0    0    0  0.00000000000E+00  0.00000000000E+00  0.74505805969E-08  0.10566000000E+00  0.10566000000E+00 0. -1.
     999900   -1    0    0    0    0 -0.00000000000E+00 -0.00000000000E+00 -0.74505805969E-08  0.93827000000E+00  0.93827000000E+00 0. -1.
     999902    2    1    2    0    0  0.17442269685E-01  0.15226302308E-01  0.51254513462E-02  0.10202162212E+01  0.10199405839E+01 0.  0.
     999903    2    3    3    0    0 -0.10196305129E+00 -0.64024933791E-02 -0.74998203838E-01  0.12828279565E+00  0.19856720086E-01 0.  0.
         14    1    1    2    0    0 -0.17442269685E-01 -0.15226302308E-01 -0.51254513462E-02  0.23713778805E-01  0.00000000000E+00 0. -1.
     999901    1    3    3    0    0  0.11940532097E+00  0.21628795687E-01  0.80123655184E-01  0.89193342554E+00  0.88000000000E+00 0.  1.
        -11    1    4    4    0    0 -0.59027701759E-01  0.18908639374E-02 -0.52886681822E-01  0.79278667852E-01  0.51100000000E-03 0. -1.
         11    1    4    4    0    0 -0.42935349527E-01 -0.82933573165E-02 -0.22111522016E-01  0.49004127800E-01  0.51100000000E-03 0.  1.
</event>
<event>
 8    1  0.1208168E+005  0.1043930E+01  0.7957747E-01            NaN
         13   -1    0    0    0    0  0.00000000000E+00  0.00000000000E+00  0.74505805969E-08  0.10566000000E+00  0.10566000000E+00 0. -1.
     999900   -1    0    0    0    0 -0.00000000000E+00 -0.00000000000E+00 -0.74505805969E-08  0.93827000000E+00  0.93827000000E+00 0.  1.
     999902    2    1    2    0    0  0.22221737980E-02  0.15353992673E-01  0.19627580780E-01  0.10189115053E+01  0.10186043052E+01 0.  0.
     999903    2    3    3    0    0 -0.82726489143E-01  0.28846365569E-01 -0.90879268632E-01  0.12783907101E+00  0.20199054383E-01 0.  0.
         14    1    1    2    0    0 -0.22221737980E-02 -0.15353992673E-01 -0.19627580780E-01  0.25018494653E-01  0.00000000000E+00 0.  1.
     999901    1    3    3    0    0  0.84948662941E-01 -0.13492372896E-01  0.11050684941E+00  0.89107243433E+00  0.88000000000E+00 0. -1.
        -11    1    4    4    0    0 -0.10360070035E-01  0.10824650633E-01 -0.19593357262E-01  0.24671134596E-01  0.51100000000E-03 0. -1.
         11    1    4    4    0    0 -0.72366419109E-01  0.18021714937E-01 -0.71285911370E-01  0.10316793642E+00  0.51100000000E-03 0.  1.
</event>
<event>
 8    1  0.1208168E+005  0.1043930E+01  0.7957747E-01            NaN
         13   -1    0    0    0    0  0.00000000000E+00  0.00000000000E+00  0.74505805969E-08  0.10566000000E+00  0.10566000000E+00 0. -1.
     999900   -1    0    0    0    0 -0.00000000000E+00 -0.00000000000E+00 -0.74505805969E-08  0.93827000000E+00  0.93827000000E+00 0.  1.
     999902    2    1    2    0    0  0.18537584514E-01 -0.12932866702E-01  0.80449933202E-02  0.10199378555E+01  0.10196556311E+01 0.  0.
     999903    2    3    3    0    0 -0.34135679041E-01 -0.86314350422E-01 -0.88932946395E-01  0.13001424324E+00  0.19473644193E-01 0.  0.
         14    1    1    2    0    0 -0.18537584514E-01  0.12932866702E-01 -0.80449933202E-02  0.23992144512E-01  0.00000000000E+00 0.  1.
     999901    1    3    3    0    0  0.52673263555E-01  0.73381483720E-01  0.96977939716E-01  0.88992361225E+00  0.88000000000E+00 0.  1.
        -11    1    4    4    0    0 -0.18298037552E-01 -0.47398405048E-01 -0.35241427735E-01  0.61835639635E-01  0.51100000000E-03 0. -1.
         11    1    4    4    0    0 -0.15837641489E-01 -0.38915945375E-01 -0.53691518661E-01  0.68178603605E-01  0.51100000000E-03 0.  1.
</event>
<event>
 8    1  0.1208168E+005  0.1043930E+01  0.7957747E-01            NaN
         13   -1    0    0    0    0  0.00000000000E+00  0.00000000000E+00  0.74505805969E-08  0.10566000000E+00  0.10566000000E+00 0.  1.
     999900   -1    0    0    0    0 -0.00000000000E+00 -0.00000000000E+00 -0.74505805969E-08  0.93827000000E+00  0.93827000000E+00 0.  1.
     999902    2    1    2    0    0  0.80324516726E-02 -0.20031053385E-01 -0.98354472628E-02  0.10202129301E+01  0.10199372154E+01 0.  0.
     999903    2    3    3    0    0 -0.47741342835E-01 -0.95336355258E-01  0.74002397891E-01  0.13127514328E+00  0.19711719847E-01 0.  0.
         14    1    1    2    0    0 -0.80324516726E-02  0.20031053385E-01  0.98354472628E-02  0.23717069854E-01  0.00000000000E+00 0.  1.
     999901    1    3    3    0    0  0.55773794507E-01  0.75305301873E-01 -0.83837845154E-01  0.88893778687E+00  0.88000000000E+00 0.  1.
        -11    1    4    4    0    0 -0.14166666411E-01 -0.21285212181E-01  0.27728128914E-01  0.37720882133E-01  0.51100000000E-03 0.  1.
         11    1    4    4    0    0 -0.33574676424E-01 -0.74051143077E-01  0.46274268977E-01  0.93554261144E-01  0.51100000000E-03 0. -1.
</event>
<event>
 7    1  0.1208168E+005  0.1043930E+01  0.7957747E-01            NaN
         13   -1    0    0    0    0  0.00000000000E+00  0.00000000000E+00  0.74505805969E-08  0.10566000000E+00  0.10566000000E+00 0. -1.
     999900   -1    0    0    0    0 -0.00000000000E+00 -0.00000000000E+00 -0.74505805969E-08  0.93827000000E+00  0.93827000000E+00 0. -1.
     999903    2    1    2    0    0 -0.43583917897E-01 -0.81731631212E-02 -0.93094881173E-01  0.10495984220E+00  0.19584511234E-01 0.  0.
         14    1    1    2    0    0 -0.13365255353E-01 -0.86882861119E-02 -0.43614245549E-01  0.46436179656E-01  0.00000000000E+00 0.  1.
     999901    1    1    2    0    0  0.56949173250E-01  0.16861449233E-01  0.13670912672E+00  0.89253397814E+00  0.88000000000E+00 0.  1.
        -11    1    3    3    0    0 -0.14316492175E-02  0.27702774204E-02 -0.16927068686E-01  0.17219489881E-01  0.51100000000E-03 0. -1.
         11    1    3    3    0    0 -0.42152268679E-01 -0.10943440542E-01 -0.76167812487E-01  0.87740352323E-01  0.51100000000E-03 0.  1.
</event>
<event>
 8    1  0.1208168E+005  0.1043930E+01  0.7957747E-01            NaN
         13   -1    0    0    0    0  0.00000000000E+00  0.00000000000E+00  0.74505805969E-08  0.10566000000E+00  0.10566000000E+00 0. -1.
     999900   -1    0    0    0    0 -0.00000000000E+00 -0.00000000000E+00 -0.74505805969E-08  0.93827000000E+00  0.93827000000E+00 0.  1.
     999902    2    1    2    0    0 -0.74752129272E-02  0.43682112355E-02 -0.21843063841E-01  0.10204336276E+01  0.10201630795E+01 0.  0.
     999903    2    3    3    0    0  0.65192163956E-02  0.12726612375E+00  0.21450207428E-01  0.13072915516E+00  0.19769526389E-01 0.  0.
         14    1    1    2    0    0  0.74752129272E-02 -0.43682112355E-02  0.21843063841E-01  0.23496372394E-01  0.00000000000E+00 0. -1.
     999901    1    3    3    0    0 -0.13994429323E-01 -0.12289791251E+00 -0.43293271268E-01  0.88970447245E+00  0.88000000000E+00 0.  1.
        -11    1    4    4    0    0  0.10945317158E-01  0.59573338666E-01  0.41271932385E-02  0.60713075137E-01  0.51100000000E-03 0. -1.
         11    1    4    4    0    0 -0.44261007626E-02  0.67692785084E-01  0.17323014189E-01  0.70016080024E-01  0.51100000000E-03 0.  1.
</event>
<event>
 8    1  0.1208168E+005  0.1043930E+01  0.7957747E-01            NaN
         13   -1    0    0    0    0  0.00000000000E+00  0.00000000000E+00  0.74505805969E-08  0.10566000000E+00  0.10566000000E+00 0.  1.
     999900   -1    0    0    0    0 -0.00000000000E+00 -0.00000000000E+00 -0.74505805969E-08  0.93827000000E+00  0.93827000000E+00 0.  1.
     999902    2    1    2    0    0  0.19561064973E-01 -0.10202579751E-01 -0.83173663195E-02  0.10203523309E+01  0.10200798855E+01 0.  0.
     999903    2    3    3    0    0 -0.82123883755E-02  0.12472637925E+00  0.24035028724E-01  0.12904774429E+00  0.21249110527E-01 0.  0.
         14    1    1    2    0    0 -0.19561064973E-01  0.10202579751E-01  0.83173663195E-02  0.23577669074E-01  0.00000000000E+00 0.  1.
     999901    1    3    3    0    0  0.27773453348E-01 -0.13492895900E+00 -0.32352395044E-01  0.89130458663E+00  0.88000000000E+00 0.  1.
        -11    1    4    4    0    0  0.54915495644E-02  0.12992099523E-01  0.43294719311E-02  0.14763374101E-01  0.51100000000E-03 0. -1.
         11    1    4    4    0    0 -0.13703937940E-01  0.11173427973E+00  0.19705556793E-01  0.11428437019E+00  0.51100000000E-03 0.  1.
</event>
<event>
 8    1  0.1208168E+005  0.1043930E+01  0.7957747E-01            NaN
         13   -1    0    0    0    0  0.00000000000E+00  0.00000000000E+00  0.74505805969E-08  0.10566000000E+00  0.10566000000E+00 0. -1.
     999900   -1    0    0    0    0 -0.00000000000E+00 -0.00000000000E+00 -0.74505805969E-08  0.93827000000E+00  0.93827000000E+00 0.  1.
     999902    2    1    2    0    0  0.15339594518E-01  0.16056474045E-01 -0.21083483722E-03  0.10217228397E+01  0.10214814747E+01 0.  0.
     999903    2    3    3    0    0 -0.24464647060E-01  0.62956296272E-01  0.11215620560E+00  0.13244767261E+00  0.20033904469E-01 0.  0.
         14    1    1    2    0    0 -0.15339594518E-01 -0.16056474045E-01  0.21083483722E-03  0.22207160334E-01  0.00000000000E+00 0. -1.
     999901    1    3    3    0    0  0.39804241579E-01 -0.46899822226E-01 -0.11236704044E+00  0.88927516706E+00  0.88000000000E+00 0. -1.
        -11    1    4    4    0    0  0.31892488266E-02  0.63970844499E-02  0.15752213635E-01  0.17305702902E-01  0.51100000000E-03 0. -1.
         11    1    4    4    0    0 -0.27653895887E-01  0.56559211822E-01  0.96403991966E-01  0.11514196970E+00  0.51100000000E-03 0.  1.
</event>
<event>
 8    1  0.1208168E+005  0.1043930E+01  0.7957747E-01            NaN
         13   -1    0    0    0    0  0.00000000000E+00  0.00000000000E+00  0.74505805969E-08  0.10566000000E+00  0.10566000000E+00 0. -1.
     999900   -1    0    0    0    0 -0.00000000000E+00 -0.00000000000E+00 -0.74505805969E-08  0.93827000000E+00  0.93827000000E+00 0. -1.
     999902    2    1    2    0    0 -0.18434404414E-01 -0.17726856145E-03  0.15578375319E-01  0.10197940420E+01  0.10195083833E+01 0.  0.
     999903    2    3    3    0    0 -0.18624910086E-01 -0.12688452501E+00 -0.12303568743E-01  0.13028172173E+00  0.19374706507E-01 0.  0.
         14    1    1    2    0    0  0.18434404414E-01  0.17726856145E-03 -0.15578375319E-01  0.24135957984E-01  0.00000000000E+00 0.  1.
     999901    1    3    3    0    0  0.19050567211E-03  0.12670725645E+00  0.27881944062E-01  0.88951232028E+00  0.88000000000E+00 0. -1.
        -11    1    4    4    0    0 -0.11854960129E-01 -0.28075215427E-01 -0.57950560897E-02  0.31025821455E-01  0.51100000000E-03 0. -1.
         11    1    4    4    0    0 -0.67699499573E-02 -0.98809309581E-01 -0.65085126534E-02  0.99255900279E-01  0.51100000000E-03 0.  1.
</event>
<event>
 8    1  0.1208168E+005  0.1043930E+01  0.7957747E-01            NaN
         13   -1    0    0    0    0  0.00000000000E+00  0.00000000000E+00  0.74505805969E-08  0.10566000000E+00  0.10566000000E+00 0.  1.
     999900   -1    0    0    0    0 -0.00000000000E+00 -0.00000000000E+00 -0.74505805969E-08  0.93827000000E+00  0.93827000000E+00 0. -1.
     999902    2    1    2    0    0 -0.15650591059E-01 -0.97095378203E-02  0.16585106585E-01  0.10191452893E+01  0.10188438736E+01 0.  0.
     999903    2    3    3    0    0  0.61472820016E-01 -0.10690513660E+00  0.36998295316E-01  0.13020676315E+00  0.19424507253E-01 0.  0.
         14    1    1    2    0    0  0.15650591059E-01  0.97095378203E-02 -0.16585106585E-01  0.24784710723E-01  0.00000000000E+00 0. -1.
     999901    1    3    3    0    0 -0.77123411075E-01  0.97195598778E-01 -0.20413188731E-01  0.88893852613E+00  0.88000000000E+00 0. -1.
        -11    1    4    4    0    0  0.32807456933E-02 -0.19587598426E-01  0.46976425357E-02  0.20414854171E-01  0.51100000000E-03 0.  1.
         11    1    4    4    0    0  0.58192074323E-01 -0.87317538172E-01  0.32300652780E-01  0.10979190898E+00  0.51100000000E-03 0. -1.
</event>
<event>
 8    1  0.1208168E+005  0.1043930E+01  0.7957747E-01            NaN
         13   -1    0    0    0    0  0.00000000000E+00  0.00000000000E+00  0.74505805969E-08  0.10566000000E+00  0.10566000000E+00 0.  1.
     999900   -1    0    0    0    0 -0.00000000000E+00 -0.00000000000E+00 -0.74505805969E-08  0.93827000000E+00  0.93827000000E+00 0. -1.
     999902    2    1    2    0    0 -0.12400394182E-01 -0.13052979557E-01 -0.13866346565E-01  0.10212050001E+01  0.10209521177E+01 0.  0.
     999903    2    3    3    0    0  0.13584948964E-01 -0.12478196881E+00 -0.40392816417E-01  0.13336365244E+00  0.19979829719E-01 0.  0.
         14    1    1    2    0    0  0.12400394182E-01  0.13052979557E-01  0.13866346565E-01  0.22724999852E-01  0.00000000000E+00 0.  1.
     999901    1    3    3    0    0 -0.25985343146E-01  0.11172898925E+00  0.26526469852E-01  0.88784134771E+00  0.88000000000E+00 0.  1.
        -11    1    4    4    0    0  0.12665218466E-01 -0.33606670925E-01 -0.11247888516E-01  0.37637643477E-01  0.51100000000E-03 0. -1.
         11    1    4    4    0    0  0.91973049810E-03 -0.91175297884E-01 -0.29144927901E-01  0.95726008962E-01  0.51100000000E-03 0.  1.
</event>
<event>
 8    1  0.1208168E+005  0.1043930E+01  0.7957747E-01            NaN
         13   -1    0    0    0    0  0.00000000000E+00  0.00000000000E+00  0.74505805969E-08  0.10566000000E+00  0.10566000000E+00 0.  1.
     999900   -1    0    0    0    0 -0.00000000000E+00 -0.00000000000E+00 -0.74505805969E-08  0.93827000000E+00  0.93827000000E+00 0. -1.
     999902    2    1    2    0    0 -0.18341343635E-01 -0.69996856663E-02  0.13831992453E-01  0.10199149110E+01  0.10196321401E+01 0.  0.
     999903    2    3    3    0    0 -0.33854928062E-01 -0.11307902273E+00 -0.52995035385E-01  0.13089334279E+00  0.19788175137E-01 0.  0.
         14    1    1    2    0    0  0.18341343635E-01  0.69996856663E-02 -0.13831992453E-01  0.24015089027E-01  0.00000000000E+00 0. -1.
     999901    1    3    3    0    0  0.15513584427E-01  0.10607933706E+00  0.66827027838E-01  0.88902156819E+00  0.88000000000E+00 0.  1.
        -11    1    4    4    0    0 -0.13163990193E-01 -0.74117945052E-01 -0.37764111487E-01  0.84220838597E-01  0.51100000000E-03 0. -1.
         11    1    4    4    0    0 -0.20690937870E-01 -0.38961077674E-01 -0.15230923898E-01  0.46672504188E-01  0.51100000000E-03 0.  1.
</event>
<event>
 8    1  0.1208168E+005  0.1043930E+01  0.7957747E-01            NaN
         13   -1    0    0    0    0  0.00000000000E+00  0.00000000000E+00  0.74505805969E-08  0.10566000000E+00  0.10566000000E+00 0. -1.
     999900   -1    0    0    0    0 -0.00000000000E+00 -0.00000000000E+00 -0.74505805969E-08  0.93827000000E+00  0.93827000000E+00 0. -1.
     999902    2    1    2    0    0  0.12076987862E-01 -0.19201530428E-01 -0.34265918759E-02  0.10209889028E+01  0.10207311330E+01 0.  0.
     999903    2    3    3    0    0 -0.94457738567E-01 -0.81333512382E-01  0.36700956825E-01  0.13148328101E+00  0.20087019242E-01 0.  0.
         14    1    1    2    0    0 -0.12076987862E-01  0.19201530428E-01  0.34265918759E-02  0.22941097151E-01  0.00000000000E+00 0.  1.
     999901    1    3    3    0    0  0.10653472643E+00  0.62131981953E-01 -0.40127548701E-01  0.88950562184E+00  0.88000000000E+00 0. -1.
        -11    1    4    4    0    0 -0.25503312876E-01 -0.33266006085E-01  0.16370221102E-01  0.45003237533E-01  0.51100000000E-03 0.  1.
         11    1    4    4    0    0 -0.68954425691E-01 -0.48067506296E-01  0.20330735722E-01  0.86480043478E-01  0.51100000000E-03 0. -1.
</event>
<event>
 8    1  0.1208168E+005  0.1043930E+01  0.7957747E-01            NaN
         13   -1    0    0    0    0  0.00000000000E+00  0.00000000000E+00  0.74505805969E-08  0.10566000000E+00  0.10566000000E+00 0.  1.
     999900   -1    0    0    0    0 -0.00000000000E+00 -0.00000000000E+00 -0.74505805969E-08  0.93827000000E+00  0.93827000000E+00 0. -1.
     999902    2    1    2    0    0  0.18493382285E-01  0.37036864168E-02  0.12887158014E-01  0.10210870290E+01  0.10208314844E+01 0.  0.
     999903    2    3    3    0    0  0.10513386366E+00  0.76659075649E-01 -0.20371211345E-01  0.13320461509E+00  0.19968476732E-01 0.  0.
         14    1    1    2    0    0 -0.18493382285E-01 -0.37036864168E-02 -0.12887158014E-01  0.22842970978E-01  0.00000000000E+00 0. -1.
     999901    1    3    3    0    0 -0.86640481375E-01 -0.72955389232E-01  0.33258369359E-01  0.88788241393E+00  0.88000000000E+00 0. -1.
        -11    1    4    4    0    0  0.15349314427E-01  0.19180886572E-01  0.48103831740E-03  0.24576419225E-01  0.51100000000E-03 0.  1.
         11    1    4    4    0    0  0.89784549233E-01  0.57478189077E-01 -0.20852249662E-01  0.10862819587E+00  0.51100000000E-03 0. -1.
</event>
<event>
 7    1  0.1208168E+005  0.1043930E+01  0.7957747E-01            NaN
         13   -1    0    0    0    0  0.00000000000E+00  0.00000000000E+00  0.74505805969E-08  0.10566000000E+00  0.10566000000E+00 0.  1.
     999900   -1    0    0    0    0 -0.00000000000E+00 -0.00000000000E+00 -0.74505805969E-08  0.93827000000E+00  0.93827000000E+00 0. -1.
     999903    2    1    2    0    0 -0.71646927870E-01 -0.68860121271E-01 -0.32337258473E-01  0.10632593001E+00  0.19608838104E-01 0.  0.
         14    1    1    2    0    0 -0.62540161865E-02  0.45478035700E-01  0.28138014004E-01  0.53843405182E-01  0.00000000000E+00 0. -1.
     999901    1    1    2    0    0  0.77900944057E-01  0.23382085572E-01  0.41992444700E-02  0.88376066481E+00  0.88000000000E+00 0.  1.
        -11    1    3    3    0    0 -0.42991676067E-01 -0.27941547242E-01 -0.18140695193E-01  0.54390810036E-01  0.51100000000E-03 0.  1.
         11    1    3    3    0    0 -0.28655251803E-01 -0.40918574030E-01 -0.14196563281E-01  0.51935119972E-01  0.51100000000E-03 0. -1.
</event>
<event>
 8    1  0.1208168E+005  0.1043930E+01  0.7957747E-01            NaN
         13   -1    0    0    0    0  0.00000000000E+00  0.00000000000E+00  0.74505805969E-08  0.10566000000E+00  0.10566000000E+00 0.  1.
     999900   -1    0    0    0    0 -0.00000000000E+00 -0.00000000000E+00 -0.74505805969E-08  0.93827000000E+00  0.93827000000E+00 0. -1.
     999902    2    1    2    0    0 -0.13656290133E-01 -0.12211154297E-01  0.15803976097E-01  0.10197355335E+01  0.10194484715E+01 0.  0.
     999903    2    3    3    0    0 -0.27472770793E-01 -0.59853393254E-01  0.11360602500E+00  0.13292894869E+00  0.20654168214E-01 0.  0.
         14    1    1    2    0    0  0.13656290133E-01  0.12211154297E-01 -0.15803976097E-01  0.24194466515E-01  0.00000000000E+00 0.  1.
     999901    1    3    3    0    0  0.13816480660E-01  0.47642238957E-01 -0.97802048900E-01  0.88680658480E+00  0.88000000000E+00 0. -1.
        -11    1    4    4    0    0 -0.19161346611E-01 -0.49983360285E-01  0.74447963631E-01  0.91696531664E-01  0.51100000000E-03 0. -1.
         11    1    4    4    0    0 -0.83114241819E-02 -0.98700329692E-02  0.39158061366E-01  0.41232417024E-01  0.51100000000E-03 0.  1.
</event>
<event>
 8    1  0.1208168E+005  0.1043930E+01  0.7957747E-01            NaN
         13   -1    0    0    0    0  0.00000000000E+00  0.00000000000E+00  0.74505805969E-08  0.10566000000E+00  0.10566000000E+00 0. -1.
     999900   -1    0    0    0    0 -0.00000000000E+00 -0.00000000000E+00 -0.74505805969E-08  0.93827000000E+00  0.93827000000E+00 0.  1.
     999902    2    1    2    0    0  0.21298292375E-01  0.27401116907E-02 -0.97894968718E-02  0.10203300059E+01  0.10200570383E+01 0.  0.
     999903    2    3    3    0    0  0.19974995038E-01  0.42041623838E-01  0.11969247941E+00  0.12998628460E+00  0.20090943117E-01 0.  0.
         14    1    1    2    0    0 -0.21298292375E-01 -0.27401116907E-02  0.97894968718E-02  0.23599994050E-01  0.00000000000E+00 0.  1.
     999901    1    3    3    0    0  0.13232973366E-02 -0.39301512147E-01 -0.12948197628E+00  0.89034372135E+00  0.88000000000E+00 0. -1.
        -11    1    4    4    0    0  0.76061722781E-02  0.86075736309E-03  0.16739991458E-01  0.18414211767E-01  0.51100000000E-03 0. -1.
         11    1    4    4    0    0  0.12368822760E-01  0.41180866475E-01  0.10295248795E+00  0.11157207283E+00  0.51100000000E-03 0.  1.
</event>
<event>
 8    1  0.1208168E+005  0.1043930E+01  0.7957747E-01            NaN
         13   -1    0    0    0    0  0.00000000000E+00  0.00000000000E+00  0.74505805969E-08  0.10566000000E+00  0.10566000000E+00 0. -1.
     999900   -1    0    0    0    0 -0.00000000000E+00 -0.00000000000E+00 -0.74505805969E-08  0.93827000000E+00  0.93827000000E+00 0.  1.
     999902    2    1    2    0    0 -0.67623516320E-02  0.16279531251E-01 -0.15318611070E-01  0.10205759343E+01  0.10203086912E+01 0.  0.
     999903    2    3    3    0    0 -0.11677487123E+00  0.71589082080E-02  0.54815178139E-01  0.13091044181E+00  0.21100225169E-01 0.  0.
         14    1    1    2    0    0  0.67623516320E-02 -0.16279531251E-01  0.15318611070E-01  0.23354065652E-01  0.00000000000E+00 0. -1.
     999901    1    3    3    0    0  0.11001251960E+00  0.91206230431E-02 -0.70133789209E-01  0.88966549254E+00  0.88000000000E+00 0.  1.
        -11    1    4    4    0    0 -0.25757698433E-01  0.32253201135E-02  0.30899574508E-02  0.26147096903E-01  0.51100000000E-03 0. -1.
         11    1    4    4    0    0 -0.91017172795E-01  0.39335880945E-02  0.51725220688E-01  0.10476334490E+00  0.51100000000E-03 0.  1.
</event>
<event>
 8    1  0.1208168E+005  0.1043930E+01  0.7957747E-01            NaN
         13   -1    0    0    0    0  0.00000000000E+00  0.00000000000E+00  0.74505805969E-08  0.10566000000E+00  0.10566000000E+00 0. -1.
     999900   -1    0    0    0    0 -0.00000000000E+00 -0.00000000000E+00 -0.74505805969E-08  0.93827000000E+00  0.93827000000E+00 0.  1.
     999902    2    1    2    0    0 -0.17397113189E-02  0.18293119047E-03  0.23347548174E-01  0.10205170108E+01  0.10202484017E+01 0.  0.
     999903    2    3    3    0    0  0.90720874877E-01 -0.36082594198E-01  0.87438956867E-01  0.13261394342E+00  0.20215243470E-01 0.  0.
         14    1    1    2    0    0  0.17397113189E-02 -0.18293119047E-03 -0.23347548174E-01  0.23412989237E-01  0.00000000000E+00 0.  1.
     999901    1    3    3    0    0 -0.92460586196E-01  0.36265525388E-01 -0.64091408693E-01  0.88790306734E+00  0.88000000000E+00 0.  1.
        -11    1    4    4    0    0  0.16416590252E-01 -0.40283963680E-02  0.25969063161E-01  0.30990091566E-01  0.51100000000E-03 0. -1.
         11    1    4    4    0    0  0.74304284625E-01 -0.32054197830E-01  0.61469893706E-01  0.10162385185E+00  0.51100000000E-03 0.  1.
</event>
<event>
 8    1  0.1208168E+005  0.1043930E+01  0.7957747E-01            NaN
         13   -1    0    0    0    0  0.00000000000E+00  0.00000000000E+00  0.74505805969E-08  0.10566000000E+00  0.10566000000E+00 0. -1.
     999900   -1    0    0    0    0 -0.00000000000E+00 -0.00000000000E+00 -0.74505805969E-08  0.93827000000E+00  0.93827000000E+00 0. -1.
     999902    2    1    2    0    0 -0.10423729094E-01  0.21665357810E-01  0.49501309108E-02  0.10193831946E+01  0.10190876076E+01 0.  0.
     999903    2    3    3    0    0 -0.12359304674E+00  0.33716346219E-01  0.19470549217E-01  0.13193552671E+00  0.24816279260E-01 0.  0.
         14    1    1    2    0    0  0.10423729094E-01 -0.21665357810E-01 -0.49501309108E-02  0.24546805358E-01  0.00000000000E+00 0.  1.
     999901    1    3    3    0    0  0.11316931764E+00 -0.12050988409E-01 -0.14520418306E-01  0.88744766794E+00  0.88000000000E+00 0.  1.
        -11    1    4    4    0    0 -0.33830328661E-01  0.20216765766E-01  0.10044437801E-01  0.40673831969E-01  0.51100000000E-03 0. -1.
         11    1    4    4    0    0 -0.89762718076E-01  0.13499580453E-01  0.94261114164E-02  0.91261694737E-01  0.51100000000E-03 0.  1.
</event>
<event>
 8    1  0.1208168E+005  0.1043930E+01  0.7957747E-01            NaN
         13   -1    0    0    0    0  0.00000000000E+00  0.00000000000E+00  0.74505805969E-08  0.10566000000E+00  0.10566000000E+00 0. -1.
     999900   -1    0    0    0    0 -0.00000000000E+00 -0.00000000000E+00 -0.74505805969E-08  0.93827000000E+00  0.93827000000E+00 0.  1.
     999902    2    1    2    0    0 -0.23789250549E-02  0.15967725394E-01  0.13561108820E-01  0.10228460912E+01  0.10226287670E+01 0.  0.
     999903    2    3    3    0    0  0.13008590601E+00 -0.40522273627E-02 -0.13471430231E-01  0.13229654840E+00  0.19548242791E-01 0.  0.
         14    1    1    2    0    0  0.23789250549E-02 -0.15967725394E-01 -0.13561108820E-01  0.21083908819E-01  0.00000000000E+00 0.  1.
     999901    1    3    3    0    0 -0.13246483107E+00  0.20019952756E-01  0.27032539051E-01  0.89054954278E+00  0.88000000000E+00 0. -1.
        -11    1    4    4    0    0  0.11018416929E+00 -0.79796751511E-02 -0.16765749300E-01  0.11173888244E+00  0.51100000000E-03 0. -1.
         11    1    4    4    0    0  0.19901736719E-01  0.39274477884E-02  0.32943190686E-02  0.20557665960E-01  0.51100000000E-03 0.  1.
</event>
<event>
 8    1  0.1208168E+005  0.1043930E+01  0.7957747E-01            NaN
         13   -1    0    0    0    0  0.00000000000E+00  0.00000000000E+00  0.74505805969E-08  0.10566000000E+00  0.10566000000E+00 0.  1.
     999900   -1    0    0    0    0 -0.00000000000E+00 -0.00000000000E+00 -0.74505805969E-08  0.93827000000E+00  0.93827000000E+00 0. -1.
     999902    2    1    2    0    0 -0.20219216384E-01 -0.11715877936E-01 -0.25394605374E-02  0.10204240993E+01  0.10201533292E+01 0.  0.
     999903    2    3    3    0    0 -0.68355937646E-01  0.58623658949E-01  0.93072171951E-01  0.13115114985E+00  0.20710560507E-01 0.  0.
         14    1    1    2    0    0  0.20219216384E-01  0.11715877936E-01  0.25394605374E-02  0.23505900680E-01  0.00000000000E+00 0. -1.
     999901    1    3    3    0    0  0.48136721263E-01 -0.70339536884E-01 -0.95611632488E-01  0.88927294946E+00  0.88000000000E+00 0.  1.
        -11    1    4    4    0    0 -0.43236529382E-01  0.45008995408E-01  0.73945093402E-01  0.96764379293E-01  0.51100000000E-03 0.  1.
         11    1    4    4    0    0 -0.25119408264E-01  0.13614663541E-01  0.19127078549E-01  0.34386770562E-01  0.51100000000E-03 0. -1.
</event>
<event>
 8    1  0.1208168E+005  0.1043930E+01  0.7957747E-01            NaN
         13   -1    0    0    0    0  0.00000000000E+00  0.00000000000E+00  0.74505805969E-08  0.10566000000E+00  0.10566000000E+00 0. -1.
     999900   -1    0    0    0    0 -0.00000000000E+00 -0.00000000000E+00 -0.74505805969E-08  0.93827000000E+00  0.93827000000E+00 0.  1.
     999902    2    1    2    0    0  0.16133716425E-01  0.54917798414E-02 -0.15956313128E-01  0.10205834718E+01  0.10203164031E+01 0.  0.
     999903    2    3    3    0    0 -0.82207948862E-01 -0.35190937220E-01  0.89814134460E-01  0.12788332381E+00  0.17059215714E-01 0.  0.
         14    1    1    2    0    0 -0.16133716425E-01 -0.54917798414E-02  0.15956313128E-01  0.23346528225E-01  0.00000000000E+00 0. -1.
     999901    1    3    3    0    0  0.98341665287E-01  0.40682717061E-01 -0.10577044759E+00  0.89270014797E+00  0.88000000000E+00 0.  1.
        -11    1    4    4    0    0 -0.11089584984E-01  0.87859399228E-03  0.13581602339E-01  0.17563367150E-01  0.51100000000E-03 0. -1.
         11    1    4    4    0    0 -0.71118363877E-01 -0.36069531212E-01  0.76232532121E-01  0.11031995666E+00  0.51100000000E-03 0.  1.
</event>
<event>
 8    1  0.1208168E+005  0.1043930E+01  0.7957747E-01            NaN
         13   -1    0    0    0    0  0.00000000000E+00  0.00000000000E+00  0.74505805969E-08  0.10566000000E+00  0.10566000000E+00 0.  1.
     999900   -1    0    0    0    0 -0.00000000000E+00 -0.00000000000E+00 -0.74505805969E-08  0.93827000000E+00  0.93827000000E+00 0. -1.
     999902    2    1    2    0    0 -0.15121660390E-01 -0.55078763366E-02  0.16396580034E-01  0.10209550321E+01  0.10206964918E+01 0.  0.
     999903    2    3    3    0    0  0.86664243290E-01 -0.88876976198E-01 -0.32477071566E-01  0.12983247550E+00  0.19796554096E-01 0.  0.
         14    1    1    2    0    0  0.15121660390E-01  0.55078763366E-02 -0.16396580034E-01  0.22974967933E-01  0.00000000000E+00 0. -1.
     999901    1    3    3    0    0 -0.10178590368E+00  0.83369099862E-01  0.48873651600E-01  0.89112255657E+00  0.88000000000E+00 0. -1.
        -11    1    4    4    0    0  0.78450045108E-01 -0.71826140322E-01 -0.23751102485E-01  0.10898522836E+00  0.51100000000E-03 0.  1.
         11    1    4    4    0    0  0.82141981819E-02 -0.17050835876E-01 -0.87259690804E-02  0.20847247138E-01  0.51100000000E-03 0. -1.
</event>
<event>
 8    1  0.1208168E+005  0.1043930E+01  0.7957747E-01            NaN
         13   -1    0    0    0    0  0.00000000000E+00  0.00000000000E+00  0.74505805969E-08  0.10566000000E+00  0.10566000000E+00 0. -1.
     999900   -1    0    0    0    0 -0.00000000000E+00 -0.00000000000E+00 -0.74505805969E-08  0.93827000000E+00  0.93827000000E+00 0. -1.
     999902    2    1    2    0    0 -0.81425688163E-02  0.15509918230E-01  0.16957081324E-01  0.10195496473E+01  0.10192581036E+01 0.  0.
     999903    2    3    3    0    0  0.11997331648E+00  0.44416512484E-01  0.84368166369E-02  0.12976210740E+00  0.20015029206E-01 0.  0.
         14    1    1    2    0    0  0.81425688163E-02 -0.15509918230E-01 -0.16957081324E-01  0.24380352694E-01  0.00000000000E+00 0.  1.
     999901    1    3    3    0    0 -0.12811588530E+00 -0.28906594254E-01  0.85202646875E-02  0.88978753990E+00  0.88000000000E+00 0. -1.
        -11    1    4    4    0    0  0.66815551146E-01  0.34555208013E-01  0.13818193859E-02  0.75236632179E-01  0.51100000000E-03 0.  1.
         11    1    4    4    0    0  0.53157765334E-01  0.98613044711E-02  0.70549972511E-02  0.54525475224E-01  0.51100000000E-03 0. -1.
</event>
<event>
 8    1  0.1208168E+005  0.1043930E+01  0.7957747E-01            NaN
         13   -1    0    0    0    0  0.00000000000E+00  0.00000000000E+00  0.74505805969E-08  0.10566000000E+00  0.10566000000E+00 0.  1.
     999900   -1    0    0    0    0 -0.00000000000E+00 -0.00000000000E+00 -0.74505805969E-08  0.93827000000E+00  0.93827000000E+00 0. -1.
     999902    2    1    2    0    0 -0.32015791438E-02 -0.18911724914E-01 -0.11668613829E-01  0.10214787195E+01  0.10212319591E+01 0.  0.
     999903    2    3    3    0    0 -0.76691847652E-01 -0.65190757243E-01  0.82773285490E-01  0.13217458661E+00  0.22073292188E-01 0.  0.
         14    1    1    2    0    0  0.32015791438E-02  0.18911724914E-01  0.11668613829E-01  0.22451280519E-01  0.00000000000E+00 0.  1.
     999901    1    3    3    0    0  0.73490268508E-01  0.46279032329E-01 -0.94441899319E-01  0.88930413287E+00  0.88000000000E+00 0. -1.
        -11    1    4    4    0    0 -0.53900076869E-01 -0.36983847386E-01  0.42467641135E-01  0.77953735758E-01  0.51100000000E-03 0.  1.
         11    1    4    4    0    0 -0.22791770782E-01 -0.28206909856E-01  0.40305644355E-01  0.54220850850E-01  0.51100000000E-03 0. -1.
</event>
<event>
 8    1  0.1208168E+005  0.1043930E+01  0.7957747E-01            NaN
         13   -1    0    0    0    0  0.00000000000E+00  0.00000000000E+00  0.74505805969E-08  0.10566000000E+00  0.10566000000E+00 0. -1.
     999900   -1    0    0    0    0 -0.00000000000E+00 -0.00000000000E+00 -0.74505805969E-08  0.93827000000E+00  0.93827000000E+00 0. -1.
     999902    2    1    2    0    0 -0.53834110804E-02 -0.22783457793E-01  0.56588262760E-02  0.10198449553E+01  0.10195605149E+01 0.  0.
     999903    2    3    3    0    0 -0.39674603017E-01 -0.12440976316E+00 -0.15915155586E-01  0.13307033427E+00  0.20063857864E-01 0.  0.
         14    1    1    2    0    0  0.53834110804E-02  0.22783457793E-01 -0.56588262760E-02  0.24085044710E-01  0.00000000000E+00 0.  1.
     999901    1    3    3    0    0  0.34291191937E-01  0.10162630537E+00  0.21573981862E-01  0.88677462102E+00  0.88000000000E+00 0.  1.
        -11    1    4    4    0    0 -0.18098175604E-01 -0.67875144121E-01  0.93265789275E-03  0.70254609254E-01  0.51100000000E-03 0. -1.
         11    1    4    4    0    0 -0.21576427413E-01 -0.56534619037E-01 -0.16847813479E-01  0.62815725019E-01  0.51100000000E-03 0.  1.
</event>
<event>
 8    1  0.1208168E+005  0.1043930E+01  0.7957747E-01            NaN
         13   -1    0    0    0    0  0.00000000000E+00  0.00000000000E+00  0.74505805969E-08  0.10566000000E+00  0.10566000000E+00 0. -1.
     999900   -1    0    0    0    0 -0.00000000000E+00 -0.00000000000E+00 -0.74505805969E-08  0.93827000000E+00  0.93827000000E+00 0. -1.
     999902    2    1    2    0    0  0.10528554553E-01  0.21325144781E-01  0.36220996230E-02  0.10198731534E+01  0.10195893866E+01 0.  0.
     999903    2    3    3    0    0 -0.10300841447E+00 -0.71595785611E-01 -0.10026696522E-01  0.12762249792E+00  0.21219739944E-01 0.  0.
         14    1    1    2    0    0 -0.10528554553E-01 -0.21325144781E-01 -0.36220996230E-02  0.24056846563E-01  0.00000000000E+00 0.  1.
     999901    1    3    3    0    0  0.11353696902E+00  0.92920930392E-01  0.13648796145E-01  0.89225065552E+00  0.88000000000E+00 0.  1.
        -11    1    4    4    0    0 -0.28173872440E-01 -0.29204293493E-01  0.27247463141E-02  0.40673618110E-01  0.51100000000E-03 0.  1.
         11    1    4    4    0    0 -0.74834542026E-01 -0.42391492119E-01 -0.12751442836E-01  0.86948879807E-01  0.51100000000E-03 0. -1.
</event>
<event>
 8    1  0.1208168E+005  0.1043930E+01  0.7957747E-01            NaN
         13   -1    0    0    0    0  0.00000000000E+00  0.00000000000E+00  0.74505805969E-08  0.10566000000E+00  0.10566000000E+00 0. -1.
     999900   -1    0    0    0    0 -0.00000000000E+00 -0.00000000000E+00 -0.74505805969E-08  0.93827000000E+00  0.93827000000E+00 0. -1.
     999902    2    1    2    0    0  0.15036131558E-01 -0.10439264460E-01  0.14989617724E-01  0.10202709186E+01  0.10199965662E+01 0.  0.
     999903    2    3    3    0    0  0.92201651376E-01  0.37926193580E-01  0.85375492181E-01  0.13277561925E+00  0.20021231913E-01 0.  0.
         14    1    1    2    0    0 -0.15036131558E-01  0.10439264460E-01 -0.14989617724E-01  0.23659081433E-01  0.00000000000E+00 0.  1.
     999901    1    3    3    0    0 -0.77165519818E-01 -0.48365458040E-01 -0.70385874456E-01  0.88749529931E+00  0.88000000000E+00 0. -1.
        -11    1    4    4    0    0  0.72560761225E-01  0.36616705130E-01  0.74628000000E-01  0.11034240649E+00  0.51100000000E-03 0. -1.
         11    1    4    4    0    0  0.19640890151E-01  0.13094884494E-02  0.10747492181E-01  0.22433212768E-01  0.51100000000E-03 0.  1.
</event>
<event>
 8    1  0.1208168E+005  0.1043930E+01  0.7957747E-01            NaN
         13   -1    0    0    0    0  0.00000000000E+00  0.00000000000E+00  0.74505805969E-08  0.10566000000E+00  0.10566000000E+00 0. -1.
     999900   -1    0    0    0    0 -0.00000000000E+00 -0.00000000000E+00 -0.74505805969E-08  0.93827000000E+00  0.93827000000E+00 0.  1.
     999902    2    1    2    0    0 -0.21930447771E-01  0.98560071574E-02  0.22566610668E-02  0.10197809227E+01  0.10194949496E+01 0.  0.
     999903    2    3    3    0    0  0.51391282276E-01  0.36006553384E-01 -0.11080067152E+00  0.12913964381E+00  0.21510997480E-01 0.  0.
         14    1    1    2    0    0  0.21930447771E-01 -0.98560071574E-02 -0.22566610668E-02  0.24149077326E-01  0.00000000000E+00 0. -1.
     999901    1    3    3    0    0 -0.73321730047E-01 -0.26150546226E-01  0.11305733259E+00  0.89064127886E+00  0.88000000000E+00 0. -1.
        -11    1    4    4    0    0  0.18424233455E-01  0.22059086871E-01 -0.34857670989E-01  0.45181567478E-01  0.51100000000E-03 0.  1.
         11    1    4    4    0    0  0.32967048820E-01  0.13947466513E-01 -0.75943000535E-01  0.83958076331E-01  0.51100000000E-03 0. -1.
</event>
<event>
 8    1  0.1208168E+005  0.1043930E+01  0.7957747E-01            NaN
         13   -1    0    0    0    0  0.00000000000E+00  0.00000000000E+00  0.74505805969E-08  0.10566000000E+00  0.10566000000E+00 0. -1.
     999900   -1    0    0    0    0 -0.00000000000E+00 -0.00000000000E+00 -0.74505805969E-08  0.93827000000E+00  0.93827000000E+00 0.  1.
     999902    2    1    2    0    0 -0.55056147607E-02  0.23330661356E-01 -0.31154342016E-02  0.10197569265E+01  0.10194703780E+01 0.  0.
     999903    2    3    3    0    0 -0.20234652606E-01 -0.38191499434E-01  0.11971059994E+00  0.12897740522E+00  0.20892858231E-01 0.  0.
         14    1    1    2    0    0  0.55056147607E-02 -0.23330661356E-01  0.31154342016E-02  0.24173073521E-01  0.00000000000E+00 0. -1.
     999901    1    3    3    0    0  0.14729037845E-01  0.61522160790E-01 -0.12282603414E+00  0.89077952125E+00  0.88000000000E+00 0. -1.
        -11    1    4    4    0    0  0.12166096247E-02 -0.17677693280E-01  0.35340944177E-01  0.39537633149E-01  0.51100000000E-03 0. -1.
         11    1    4    4    0    0 -0.21451262231E-01 -0.20513806154E-01  0.84369655763E-01  0.89439772075E-01  0.51100000000E-03 0.  1.
</event>
<event>
 8    1  0.1208168E+005  0.1043930E+01  0.7957747E-01            NaN
         13   -1    0    0    0    0  0.00000000000E+00  0.00000000000E+00  0.74505805969E-08  0.10566000000E+00  0.10566000000E+00 0.  1.
     999900   -1    0    0    0    0 -0.00000000000E+00 -0.00000000000E+00 -0.74505805969E-08  0.93827000000E+00  0.93827000000E+00 0. -1.
     999902    2    1    2    0    0 -0.23819488705E-01  0.76673958461E-02 -0.26778811868E-02  0.10187639902E+01  0.10184531112E+01 0.  0.
     999903    2    3    3    0    0  0.61489638290E-01 -0.25227067225E-01  0.10671498268E+00  0.12728965434E+00  0.19929576924E-01 0.  0.
         14    1    1    2    0    0  0.23819488705E-01 -0.76673958461E-02  0.26778811868E-02  0.25166009793E-01  0.00000000000E+00 0. -1.
     999901    1    3    3    0    0 -0.85309126995E-01  0.32894463071E-01 -0.10939286386E+00  0.89147433587E+00  0.88000000000E+00 0. -1.
        -11    1    4    4    0    0  0.45368167882E-01 -0.24079180594E-01  0.67111126421E-01  0.84511786193E-01  0.51100000000E-03 0.  1.
         11    1    4    4    0    0  0.16121470408E-01 -0.11478866313E-02  0.39603856255E-01  0.42777868145E-01  0.51100000000E-03 0. -1.
</event>
<event>
 8    1  0.1208168E+005  0.1043930E+01  0.7957747E-01            NaN
         13   -1    0    0    0    0  0.00000000000E+00  0.00000000000E+00  0.74505805969E-08  0.10566000000E+00  0.10566000000E+00 0.  1.
     999900   -1    0    0    0    0 -0.00000000000E+00 -0.00000000000E+00 -0.74505805969E-08  0.93827000000E+00  0.93827000000E+00 0.  1.
     999902    2    1    2    0    0  0.51556612229E-02  0.22343695459E-01 -0.56886206850E-02  0.10203041249E+01  0.10200305512E+01 0.  0.
     999903    2    3    3    0    0  0.81442706188E-01 -0.19342233214E-01  0.97558975411E-01  0.13001344428E+00  0.19460360575E-01 0.  0.
         14    1    1    2    0    0 -0.51556612229E-02 -0.22343695459E-01  0.56886206850E-02  0.23625875110E-01  0.00000000000E+00 0.  1.
     999901    1    3    3    0    0 -0.76287044966E-01  0.41685928672E-01 -0.10324759610E+00  0.89029068061E+00  0.88000000000E+00 0. -1.
        -11    1    4    4    0    0  0.69093516986E-01 -0.90579599982E-02  0.82384881391E-01  0.10790500698E+00  0.51100000000E-03 0.  1.
         11    1    4    4    0    0  0.12349189202E-01 -0.10284273216E-01  0.15174094021E-01  0.22108437301E-01  0.51100000000E-03 0. -1.
</event>
<event>
 8    1  0.1208168E+005  0.1043930E+01  0.7957747E-01            NaN
         13   -1    0    0    0    0  0.00000000000E+00  0.00000000000E+00  0.74505805969E-08  0.10566000000E+00  0.10566000000E+00 0. -1.
     999900   -1    0    0    0    0 -0.00000000000E+00 -0.00000000000E+00 -0.74505805969E-08  0.93827000000E+00  0.93827000000E+00 0. -1.
     999902    2    1    2    0    0 -0.10542074878E-02  0.25016046201E-01 -0.24817340584E-02  0.10187690595E+01  0.10184583073E+01 0.  0.
     999903    2    3    3    0    0 -0.12186736363E+00 -0.33293916756E-02  0.37544773389E-01  0.12916161586E+00  0.20257685865E-01 0.  0.
         14    1    1    2    0    0  0.10542074878E-02 -0.25016046201E-01  0.24817340584E-02  0.25160940461E-01  0.00000000000E+00 0. -1.
     999901    1    3    3    0    0  0.12081315614E+00  0.28345437876E-01 -0.40026507448E-01  0.88960744368E+00  0.88000000000E+00 0.  1.
        -11    1    4    4    0    0 -0.33729566156E-01 -0.37115895430E-02  0.19676288206E-01  0.39228522386E-01  0.51100000000E-03 0. -1.
         11    1    4    4    0    0 -0.88137797473E-01  0.38219786741E-03  0.17868485184E-01  0.89933093477E-01  0.51100000000E-03 0.  1.
</event>
<event>
 8    1  0.1208168E+005  0.1043930E+01  0.7957747E-01            NaN
         13   -1    0    0    0    0  0.00000000000E+00  0.00000000000E+00  0.74505805969E-08  0.10566000000E+00  0.10566000000E+00 0. -1.
     999900   -1    0    0    0    0 -0.00000000000E+00 -0.00000000000E+00 -0.74505805969E-08  0.93827000000E+00  0.93827000000E+00 0. -1.
     999902    2    1    2    0    0  0.16533312937E-01 -0.73246116103E-02  0.16161104079E-01  0.10196775433E+01  0.10193890870E+01 0.  0.
     999903    2    3    3    0    0  0.35359132705E-01  0.42919769121E-01  0.11800679588E+00  0.13218024513E+00  0.21298790588E-01 0.  0.
         14    1    1    2    0    0 -0.16533312937E-01  0.73246116103E-02 -0.16161104079E-01  0.24252456720E-01  0.00000000000E+00 0. -1.
     999901    1    3    3    0    0 -0.18825819767E-01 -0.50244380732E-01 -0.10184569181E+00  0.88749729815E+00  0.88000000000E+00 0. -1.
        -11    1    4    4    0    0  0.27502936883E-01  0.17281551089E-01  0.58658430396E-01  0.67053233500E-01  0.51100000000E-03 0. -1.
         11    1    4    4    0    0  0.78561958212E-02  0.25638218032E-01  0.59348365489E-01  0.65127011630E-01  0.51100000000E-03 0.  1.
</event>
<event>
 8    1  0.1208168E+005  0.1043930E+01  0.7957747E-01            NaN
         13   -1    0    0    0    0  0.00000000000E+00  0.00000000000E+00  0.74505805969E-08  0.10566000000E+00  0.10566000000E+00 0.  1.
     999900   -1    0    0    0    0 -0.00000000000E+00 -0.00000000000E+00 -0.74505805969E-08  0.93827000000E+00  0.93827000000E+00 0. -1.
     999902    2    1    2    0    0  0.20154076271E-01  0.25159176659E-03 -0.10916817187E-01  0.10210078058E+01  0.10207504654E+01 0.  0.
     999903    2    3    3    0    0  0.68052409197E-01  0.15190231427E-01 -0.11255583706E+00  0.13373788994E+00  0.18844978680E-01 0.  0.
         14    1    1    2    0    0 -0.20154076271E-01 -0.25159176659E-03  0.10916817187E-01  0.22922194185E-01  0.00000000000E+00 0.  1.
     999901    1    3    3    0    0 -0.47898332925E-01 -0.14938639661E-01  0.10163901987E+00  0.88726991587E+00  0.88000000000E+00 0. -1.
        -11    1    4    4    0    0  0.66802281945E-01  0.14598631883E-01 -0.10028986504E+00  0.12138361947E+00  0.51100000000E-03 0.  1.
         11    1    4    4    0    0  0.12501272515E-02  0.59159954386E-03 -0.12265972024E-01  0.12354270470E-01  0.51100000000E-03 0. -1.
</event>
<event>
 8    1  0.1208168E+005  0.1043930E+01  0.7957747E-01            NaN
         13   -1    0    0    0    0  0.00000000000E+00  0.00000000000E+00  0.74505805969E-08  0.10566000000E+00  0.10566000000E+00 0.  1.
     999900   -1    0    0    0    0 -0.00000000000E+00 -0.00000000000E+00 -0.74505805969E-08  0.93827000000E+00  0.93827000000E+00 0.  1.
     999902    2    1    2    0    0 -0.11256732538E-01 -0.19628111293E-01 -0.26422711877E-02  0.10211493420E+01  0.10208952054E+01 0.  0.
     999903    2    3    3    0    0 -0.40755885125E-01  0.11755220720E+00 -0.30560157937E-01  0.12959561500E+00  0.19532961469E-01 0.  0.
         14    1    1    2    0    0  0.11256732538E-01  0.19628111293E-01  0.26422711877E-02  0.22780657966E-01  0.00000000000E+00 0.  1.
     999901    1    3    3    0    0  0.29499152588E-01 -0.13718031850E+00  0.27917886750E-01  0.89155372703E+00  0.88000000000E+00 0. -1.
        -11    1    4    4    0    0 -0.17550869718E-01  0.64515965545E-01 -0.75108204038E-02  0.67283106217E-01  0.51100000000E-03 0.  1.
         11    1    4    4    0    0 -0.23205015407E-01  0.53036241657E-01 -0.23049337533E-01  0.62312508784E-01  0.51100000000E-03 0. -1.
</event>
<event>
 8    1  0.1208168E+005  0.1043930E+01  0.7957747E-01            NaN
         13   -1    0    0    0    0  0.00000000000E+00  0.00000000000E+00  0.74505805969E-08  0.10566000000E+00  0.10566000000E+00 0. -1.
     999900   -1    0    0    0    0 -0.00000000000E+00 -0.00000000000E+00 -0.74505805969E-08  0.93827000000E+00  0.93827000000E+00 0. -1.
     999902    2    1    2    0    0 -0.17387486551E-01 -0.15927672473E-01 -0.53158554248E-02  0.10197582446E+01  0.10194717278E+01 0.  0.
     999903    2    3    3    0    0 -0.97039373085E-01  0.84148988706E-01 -0.11377256473E-01  0.13049084855E+00  0.20018175772E-01 0.  0.
         14    1    1    2    0    0  0.17387486551E-01  0.15927672473E-01  0.53158554248E-02  0.24171755374E-01  0.00000000000E+00 0. -1.
     999901    1    3    3    0    0  0.79651886534E-01 -0.10007666118E+00  0.60614010484E-02  0.88926739608E+00  0.88000000000E+00 0.  1.
        -11    1    4    4    0    0 -0.37131198059E-01  0.20866451121E-01 -0.75806796896E-02  0.43265026029E-01  0.51100000000E-03 0. -1.
         11    1    4    4    0    0 -0.59908175026E-01  0.63282537585E-01 -0.37965767836E-02  0.87225822521E-01  0.51100000000E-03 0.  1.
</event>
<event>
 8    1  0.1208168E+005  0.1043930E+01  0.7957747E-01            NaN
         13   -1    0    0    0    0  0.00000000000E+00  0.00000000000E+00  0.74505805969E-08  0.10566000000E+00  0.10566000000E+00 0. -1.
     999900   -1    0    0    0    0 -0.00000000000E+00 -0.00000000000E+00 -0.74505805969E-08  0.93827000000E+00  0.93827000000E+00 0. -1.
     999902    2    1    2    0    0 -0.27442293188E-01  0.10749350136E-01 -0.10624054181E-02  0.10144383624E+01  0.10140095830E+01 0.  0.
     999903    2    3    3    0    0 -0.11796979046E+00  0.47552755735E-01  0.92174083329E-02  0.12896933809E+00  0.19235215413E-01 0.  0.
         14    1    1    2    0    0  0.27442293188E-01 -0.10749350136E-01  0.10624054181E-02  0.29491637612E-01  0.00000000000E+00 0.  1.
     999901    1    3    3    0    0  0.90527497268E-01 -0.36803405600E-01 -0.10279813751E-01  0.88546902430E+00  0.88000000000E+00 0. -1.
        -11    1    4    4    0    0 -0.37327103384E-01  0.24426781892E-01  0.59916655413E-02  0.45012681520E-01  0.51100000000E-03 0.  1.
         11    1    4    4    0    0 -0.80642687072E-01  0.23125973843E-01  0.32257427916E-02  0.83956656567E-01  0.51100000000E-03 0. -1.
</event>
<event>
 8    1  0.1208168E+005  0.1043930E+01  0.7957747E-01            NaN
         13   -1    0    0    0    0  0.00000000000E+00  0.00000000000E+00  0.74505805969E-08  0.10566000000E+00  0.10566000000E+00 0.  1.
     999900   -1    0    0    0    0 -0.00000000000E+00 -0.00000000000E+00 -0.74505805969E-08  0.93827000000E+00  0.93827000000E+00 0.  1.
     999902    2    1    2    0    0  0.14002532241E-01  0.73144039144E-02 -0.17728543236E-01  0.10201839970E+01  0.10199076012E+01 0.  0.
     999903    2    3    3    0    0  0.94180520794E-01  0.87105493447E-01 -0.28003295185E-01  0.13288433039E+00  0.20413800139E-01 0.  0.
         14    1    1    2    0    0 -0.14002532241E-01 -0.73144039144E-02  0.17728543236E-01  0.23746003013E-01  0.00000000000E+00 0.  1.
     999901    1    3    3    0    0 -0.80177988552E-01 -0.79791089533E-01  0.10274751949E-01  0.88729966660E+00  0.88000000000E+00 0.  1.
        -11    1    4    4    0    0  0.72246054241E-01  0.61724879837E-01 -0.28902186291E-01  0.99322961282E-01  0.51100000000E-03 0. -1.
         11    1    4    4    0    0  0.21934466552E-01  0.25380613610E-01  0.89889110545E-03  0.33561369108E-01  0.51100000000E-03 0.  1.
</event>
<event>
 8    1  0.1208168E+005  0.1043930E+01  0.7957747E-01            NaN
         13   -1    0    0    0    0  0.00000000000E+00  0.00000000000E+00  0.74505805969E-08  0.10566000000E+00  0.10566000000E+00 0.  1.
     999900   -1    0    0    0    0 -0.00000000000E+00 -0.00000000000E+00 -0.74505805969E-08  0.93827000000E+00  0.93827000000E+00 0. -1.
     999902    2    1    2    0    0  0.21804116872E-01  0.53933128538E-02 -0.57265486093E-02  0.10207502525E+01  0.10204870294E+01 0.  0.
     999903    2    3    3    0    0  0.27873756180E-01 -0.35925656089E-01 -0.12272313782E+00  0.13202515460E+00  0.17380271597E-01 0.  0.
         14    1    1    2    0    0 -0.21804116872E-01 -0.53933128538E-02  0.57265486093E-02  0.23179747520E-01  0.00000000000E+00 0.  1.
     999901    1    3    3    0    0 -0.60696393075E-02  0.41318968943E-01  0.11699658921E+00  0.88872509788E+00  0.88000000000E+00 0.  1.
        -11    1    4    4    0    0  0.25004205924E-01 -0.21407227846E-01 -0.71694300884E-01  0.78891150443E-01  0.51100000000E-03 0.  1.
         11    1    4    4    0    0  0.28695502551E-02 -0.14518428243E-01 -0.51028836939E-01  0.53134004156E-01  0.51100000000E-03 0. -1.
</event>
<event>
 8    1  0.1208168E+005  0.1043930E+01  0.7957747E-01            NaN
         13   -1    0    0    0    0  0.00000000000E+00  0.00000000000E+00  0.74505805969E-08  0.10566000000E+00  0.10566000000E+00 0.  1.
     999900   -1    0    0    0    0 -0.00000000000E+00 -0.00000000000E+00 -0.74505805969E-08  0.93827000000E+00  0.93827000000E+00 0.  1.
     999902    2    1    2    0    0  0.93029931980E-02 -0.23986847074E-02 -0.21332365993E-01  0.10205340771E+01  0.10202658640E+01 0.  0.
     999903    2    3    3    0    0 -0.75796415345E-01  0.14499389286E-01 -0.10546309766E+00  0.13227429849E+00  0.20462067438E-01 0.  0.
         14    1    1    2    0    0 -0.93029931980E-02  0.23986847074E-02  0.21332365993E-01  0.23395922928E-01  0.00000000000E+00 0.  1.
     999901    1    3    3    0    0  0.85099408543E-01 -0.16898073993E-01  0.84130731667E-01  0.88825977858E+00  0.88000000000E+00 0. -1.
        -11    1    4    4    0    0 -0.12156404787E-01  0.25926451918E-02 -0.32100036842E-01  0.34426348524E-01  0.51100000000E-03 0. -1.
         11    1    4    4    0    0 -0.63640010558E-01  0.11906744094E-01 -0.73363060818E-01  0.97847949965E-01  0.51100000000E-03 0.  1.
</event>
<event>
 8    1  0.1208168E+005  0.1043930E+01  0.7957747E-01            NaN
         13   -1    0    0    0    0  0.00000000000E+00  0.00000000000E+00  0.74505805969E-08  0.10566000000E+00  0.10566000000E+00 0. -1.
     999900   -1    0    0    0    0 -0.00000000000E+00 -0.00000000000E+00 -0.74505805969E-08  0.93827000000E+00  0.93827000000E+00 0.  1.
     999902    2    1    2    0    0  0.11467060455E-01  0.68269456434E-03 -0.11806270528E-01  0.10274573690E+01  0.10273253124E+01 0.  0.
     999903    2    3    3    0    0 -0.70862393245E-01 -0.11210202127E+00  0.21380740736E-01  0.13582969517E+00  0.20105423813E-01 0.  0.
         14    1    1    2    0    0 -0.11467060455E-01 -0.68269456434E-03  0.11806270528E-01  0.16472630971E-01  0.00000000000E+00 0. -1.
     999901    1    3    3    0    0  0.82329453700E-01  0.11278471583E+00 -0.33187011263E-01  0.89162767386E+00  0.88000000000E+00 0. -1.
        -11    1    4    4    0    0 -0.35609315986E-01 -0.46509376719E-01  0.85277224693E-03  0.58584416437E-01  0.51100000000E-03 0. -1.
         11    1    4    4    0    0 -0.35253077258E-01 -0.65592644551E-01  0.20527968489E-01  0.77245278734E-01  0.51100000000E-03 0.  1.
</event>
<event>
 8    1  0.1208168E+005  0.1043930E+01  0.7957747E-01            NaN
         13   -1    0    0    0    0  0.00000000000E+00  0.00000000000E+00  0.74505805969E-08  0.10566000000E+00  0.10566000000E+00 0. -1.
     999900   -1    0    0    0    0 -0.00000000000E+00 -0.00000000000E+00 -0.74505805969E-08  0.93827000000E+00  0.93827000000E+00 0.  1.
     999902    2    1    2    0    0 -0.21932804764E-02  0.26283654638E-02  0.23657289136E-01  0.10200263159E+01  0.10197461934E+01 0.  0.
     999903    2    3    3    0    0  0.75785379114E-01  0.68207148277E-01  0.81822864705E-01  0.13224003402E+00  0.19920006188E-01 0.  0.
         14    1    1    2    0    0  0.21932804764E-02 -0.26283654638E-02 -0.23657289136E-01  0.23903684099E-01  0.00000000000E+00 0.  1.
     999901    1    3    3    0    0 -0.77978659591E-01 -0.65578782813E-01 -0.58165575569E-01  0.88778628188E+00  0.88000000000E+00 0. -1.
        -11    1    4    4    0    0  0.11059034045E-01  0.20037804172E-01  0.22455506723E-01  0.32067533944E-01  0.51100000000E-03 0.  1.
         11    1    4    4    0    0  0.64726345069E-01  0.48169344105E-01  0.59367357983E-01  0.10017250008E+00  0.51100000000E-03 0. -1.
</event>
<event>
 8    1  0.1208168E+005  0.1043930E+01  0.7957747E-01            NaN
         13   -1    0    0    0    0  0.00000000000E+00  0.00000000000E+00  0.74505805969E-08  0.10566000000E+00  0.10566000000E+00 0. -1.
     999900   -1    0    0    0    0 -0.00000000000E+00 -0.00000000000E+00 -0.74505805969E-08  0.93827000000E+00  0.93827000000E+00 0.  1.
     999902    2    1    2    0    0  0.17137981055E-01 -0.14168105232E-01 -0.15183902198E-01  0.10170042412E+01  0.10166477414E+01 0.  0.
     999903    2    3    3    0    0  0.17848479413E-01  0.93327830662E-01  0.79596506652E-01  0.12541060791E+00  0.19067367702E-01 0.  0.
         14    1    1    2    0    0 -0.17137981055E-01  0.14168105232E-01  0.15183902198E-01  0.26925758791E-01  0.00000000000E+00 0. -1.
     999901    1    3    3    0    0 -0.71049835726E-03 -0.10749593589E+00 -0.94780408850E-01  0.89159363330E+00  0.88000000000E+00 0.  1.
        -11    1    4    4    0    0  0.24245185789E-02  0.58106339144E-01  0.52694437272E-01  0.78480505729E-01  0.51100000000E-03 0.  1.
         11    1    4    4    0    0  0.15423960834E-01  0.35221491518E-01  0.26902069380E-01  0.46930102178E-01  0.51100000000E-03 0. -1.
</event>
<event>
 8    1  0.1208168E+005  0.1043930E+01  0.7957747E-01            NaN
         13   -1    0    0    0    0  0.00000000000E+00  0.00000000000E+00  0.74505805969E-08  0.10566000000E+00  0.10566000000E+00 0.  1.
     999900   -1    0    0    0    0 -0.00000000000E+00 -0.00000000000E+00 -0.74505805969E-08  0.93827000000E+00  0.93827000000E+00 0. -1.
     999902    2    1    2    0    0 -0.87917522095E-02 -0.12981522091E-01 -0.17886238470E-01  0.10201448713E+01  0.10198675532E+01 0.  0.
     999903    2    3    3    0    0 -0.12696478515E+00  0.25198992000E-01  0.50581571904E-02  0.13112908812E+00  0.20352074393E-01 0.  0.
         14    1    1    2    0    0  0.87917522095E-02  0.12981522091E-01  0.17886238470E-01  0.23785128743E-01  0.00000000000E+00 0.  1.
     999901    1    3    3    0    0  0.11817303294E+00 -0.38180514091E-01 -0.22944395660E-01  0.88901578313E+00  0.88000000000E+00 0.  1.
        -11    1    4    4    0    0 -0.75257621166E-01  0.47372111302E-02  0.20246957020E-02  0.75435477241E-01  0.51100000000E-03 0. -1.
         11    1    4    4    0    0 -0.51707163982E-01  0.20461780869E-01  0.30334614883E-02  0.55693610882E-01  0.51100000000E-03 0.  1.
</event>
<event>
 8    1  0.1208168E+005  0.1043930E+01  0.7957747E-01            NaN
         13   -1    0    0    0    0  0.00000000000E+00  0.00000000000E+00  0.74505805969E-08  0.10566000000E+00  0.10566000000E+00 0. -1.
     999900   -1    0    0    0    0 -0.00000000000E+00 -0.00000000000E+00 -0.74505805969E-08  0.93827000000E+00  0.93827000000E+00 0. -1.
     999902    2    1    2    0    0 -0.19208739841E-01  0.23920436847E-02 -0.13445859878E-01  0.10203611921E+01  0.10200889538E+01 0.  0.
     999903    2    3    3    0    0  0.70382307995E-01 -0.84774468524E-01 -0.67631730037E-01  0.12987780355E+00  0.12402143198E-01 0.  0.
         14    1    1    2    0    0  0.19208739841E-01 -0.23920436847E-02  0.13445859878E-01  0.23568807927E-01  0.00000000000E+00 0. -1.
     999901    1    3    3    0    0 -0.89591047836E-01  0.87166512209E-01  0.54185870159E-01  0.89048338852E+00  0.88000000000E+00 0. -1.
        -11    1    4    4    0    0  0.51616126194E-01 -0.57541526274E-01 -0.52897706496E-01  0.93667925154E-01  0.51100000000E-03 0.  1.
         11    1    4    4    0    0  0.18766181802E-01 -0.27232942250E-01 -0.14734023541E-01  0.36209878400E-01  0.51100000000E-03 0. -1.
</event>
<event>
 8    1  0.1208168E+005  0.1043930E+01  0.7957747E-01            NaN
         13   -1    0    0    0    0  0.00000000000E+00  0.00000000000E+00  0.74505805969E-08  0.10566000000E+00  0.10566000000E+00 0.  1.
     999900   -1    0    0    0    0 -0.00000000000E+00 -0.00000000000E+00 -0.74505805969E-08  0.93827000000E+00  0.93827000000E+00 0.  1.
     999902    2    1    2    0    0  0.93817606703E-02  0.16598369799E-01  0.15432608221E-01  0.10194006561E+01  0.10191054946E+01 0.  0.
     999903    2    3    3    0    0 -0.11363041608E+00  0.22808213495E-01  0.55227149415E-01  0.12993218380E+00  0.20006206410E-01 0.  0.
         14    1    1    2    0    0 -0.93817606703E-02 -0.16598369799E-01 -0.15432608221E-01  0.24529343851E-01  0.00000000000E+00 0.  1.
     999901    1    3    3    0    0  0.12301217675E+00 -0.62098436964E-02 -0.39794541194E-01  0.88946847234E+00  0.88000000000E+00 0.  1.
        -11    1    4    4    0    0 -0.73273296759E-01  0.22948033887E-01  0.30638611424E-01  0.82671481831E-01  0.51100000000E-03 0. -1.
         11    1    4    4    0    0 -0.40357119318E-01 -0.13982039224E-03  0.24588537992E-01  0.47260701973E-01  0.51100000000E-03 0.  1.
</event>
<event>
 8    1  0.1208168E+005  0.1043930E+01  0.7957747E-01            NaN
         13   -1    0    0    0    0  0.00000000000E+00  0.00000000000E+00  0.74505805969E-08  0.10566000000E+00  0.10566000000E+00 0.  1.
     999900   -1    0    0    0    0 -0.00000000000E+00 -0.00000000000E+00 -0.74505805969E-08  0.93827000000E+00  0.93827000000E+00 0. -1.
     999902    2    1    2    0    0  0.11845838396E-01 -0.20799951450E-01 -0.12277242655E-02  0.10199619134E+01  0.10196802615E+01 0.  0.
     999903    2    3    3    0    0 -0.11291088355E+00 -0.38138987113E-01  0.47081803584E-01  0.12968179328E+00  0.19930411894E-01 0.  0.
         14    1    1    2    0    0 -0.11845838396E-01  0.20799951450E-01  0.12277242655E-02  0.23968086585E-01  0.00000000000E+00 0.  1.
     999901    1    3    3    0    0  0.12475672194E+00  0.17339035663E-01 -0.48309527849E-01  0.89028012014E+00  0.88000000000E+00 0.  1.
        -11    1    4    4    0    0 -0.31288799759E-01 -0.11493810859E-01  0.23015623467E-01  0.40510205171E-01  0.51100000000E-03 0.  1.
         11    1    4    4    0    0 -0.81622083787E-01 -0.26645176255E-01  0.24066180117E-01  0.89171588109E-01  0.51100000000E-03 0. -1.
</event>
<event>
 8    1  0.1208168E+005  0.1043930E+01  0.7957747E-01            NaN
         13   -1    0    0    0    0  0.00000000000E+00  0.00000000000E+00  0.74505805969E-08  0.10566000000E+00  0.10566000000E+00 0. -1.
     999900   -1    0    0    0    0 -0.00000000000E+00 -0.00000000000E+00 -0.74505805969E-08  0.93827000000E+00  0.93827000000E+00 0. -1.
     999902    2    1    2    0    0 -0.22864369972E-01  0.51561411112E-02  0.88405427910E-02  0.10188796427E+01  0.10185716498E+01 0.  0.
     999903    2    3    3    0    0 -0.11429388243E+00 -0.59128278540E-01  0.19734347207E-01  0.13174351032E+00  0.20190670307E-01 0.  0.
         14    1    1    2    0    0  0.22864369972E-01 -0.51561411112E-02 -0.88405427910E-02  0.25050357328E-01  0.00000000000E+00 0.  1.
     999901    1    3    3    0    0  0.91429512454E-01  0.64284419651E-01 -0.10893804416E-01  0.88713613236E+00  0.88000000000E+00 0. -1.
        -11    1    4    4    0    0 -0.19369393190E-01 -0.19029788441E-01  0.26184552567E-02  0.27284128528E-01  0.51100000000E-03 0. -1.
         11    1    4    4    0    0 -0.94924489237E-01 -0.40098490100E-01  0.17115891950E-01  0.10445938179E+00  0.51100000000E-03 0.  1.
</event>
<event>
 8    1  0.1208168E+005  0.1043930E+01  0.7957747E-01            NaN
         13   -1    0    0    0    0  0.00000000000E+00  0.00000000000E+00  0.74505805969E-08  0.10566000000E+00  0.10566000000E+00 0. -1.
     999900   -1    0    0    0    0 -0.00000000000E+00 -0.00000000000E+00 -0.74505805969E-08  0.93827000000E+00  0.93827000000E+00 0. -1.
     999902    2    1    2    0    0  0.13984270599E-01  0.10731615970E-01  0.16169728547E-01  0.10200095584E+01  0.10197290384E+01 0.  0.
     999903    2    3    3    0    0 -0.42201340607E-01  0.11021323384E+00 -0.50744700938E-01  0.13010453196E+00  0.20597439169E-01 0.  0.
         14    1    1    2    0    0 -0.13984270599E-01 -0.10731615970E-01 -0.16169728547E-01  0.23920441609E-01  0.00000000000E+00 0.  1.
     999901    1    3    3    0    0  0.56185611205E-01 -0.99481617869E-01  0.66914429484E-01  0.88990502643E+00  0.88000000000E+00 0.  1.
        -11    1    4    4    0    0 -0.30080298597E-01  0.49964723977E-01 -0.23525885342E-01  0.62889000691E-01  0.51100000000E-03 0.  1.
         11    1    4    4    0    0 -0.12121042010E-01  0.60248509861E-01 -0.27218815595E-01  0.67215531266E-01  0.51100000000E-03 0. -1.
</event>
<event>
 8    1  0.1208168E+005  0.1043930E+01  0.7957747E-01            NaN
         13   -1    0    0    0    0  0.00000000000E+00  0.00000000000E+00  0.74505805969E-08  0.10566000000E+00  0.10566000000E+00 0. -1.
     999900   -1    0    0    0    0 -0.00000000000E+00 -0.00000000000E+00 -0.74505805969E-08  0.93827000000E+00  0.93827000000E+00 0. -1.
     999902    2    1    2    0    0  0.15868327140E-01  0.15638095845E-01 -0.85479097261E-02  0.10200674643E+01  0.10197883168E+01 0.  0.
     999903    2    3    3    0    0 -0.49111244513E-01 -0.10807256644E+00  0.42446877344E-01  0.12758377204E+00  0.19603253243E-01 0.  0.
         14    1    1    2    0    0 -0.15868327140E-01 -0.15638095845E-01  0.85479097261E-02  0.23862535669E-01  0.00000000000E+00 0.  1.
     999901    1    3    3    0    0  0.64979571653E-01  0.12371066228E+00 -0.50994787070E-01  0.89248369229E+00  0.88000000000E+00 0. -1.
        -11    1    4    4    0    0 -0.27331069655E-01 -0.41325539218E-01  0.11567228398E-01  0.50880737553E-01  0.51100000000E-03 0.  1.
         11    1    4    4    0    0 -0.21780174858E-01 -0.66747027221E-01  0.30879648945E-01  0.76703034488E-01  0.51100000000E-03 0. -1.
</event>
<event>
 8    1  0.1208168E+005  0.1043930E+01  0.7957747E-01            NaN
         13   -1    0    0    0    0  0.00000000000E+00  0.00000000000E+00  0.74505805969E-08  0.10566000000E+00  0.10566000000E+00 0. -1.
     999900   -1    0    0    0    0 -0.00000000000E+00 -0.00000000000E+00 -0.74505805969E-08  0.93827000000E+00  0.93827000000E+00 0. -1.
     999902    2    1    2    0    0 -0.16875181709E-02 -0.24627415436E-01 -0.32539244213E-02  0.10190312986E+01  0.10187270695E+01 0.  0.
     999903    2    3    3    0    0  0.29687207726E-01 -0.84453805027E-01  0.93577377770E-01  0.13114624329E+00  0.20708356087E-01 0.  0.
         14    1    1    2    0    0  0.16875181709E-02  0.24627415436E-01  0.32539244213E-02  0.24898701427E-01  0.00000000000E+00 0. -1.
     999901    1    3    3    0    0 -0.31374725897E-01  0.59826389591E-01 -0.96831302191E-01  0.88788505529E+00  0.88000000000E+00 0. -1.
        -11    1    4    4    0    0  0.77765282775E-02 -0.37465605131E-01  0.52667171813E-01  0.65101751648E-01  0.51100000000E-03 0.  1.
         11    1    4    4    0    0  0.21910679448E-01 -0.46988199896E-01  0.40910205957E-01  0.66044491639E-01  0.51100000000E-03 0. -1.
</event>
<event>
 8    1  0.1208168E+005  0.1043930E+01  0.7957747E-01            NaN
         13   -1    0    0    0    0  0.00000000000E+00  0.00000000000E+00  0.74505805969E-08  0.10566000000E+00  0.10566000000E+00 0.  1.
     999900   -1    0    0    0    0 -0.00000000000E+00 -0.00000000000E+00 -0.74505805969E-08  0.93827000000E+00  0.93827000000E+00 0.  1.
     999902    2    1    2    0    0 -0.14613129521E-01 -0.12260064820E-01 -0.15092435633E-01  0.10196064650E+01  0.10193162949E+01 0.  0.
     999903    2    3    3    0    0 -0.52603248971E-01  0.11573063911E+00 -0.14882124999E-01  0.12953629148E+00  0.19937164712E-01 0.  0.
         14    1    1    2    0    0  0.14613129521E-01  0.12260064820E-01  0.15092435633E-01  0.24323535047E-01  0.00000000000E+00 0. -1.
     999901    1    3    3    0    0  0.37990119450E-01 -0.12799070393E+00 -0.21031063480E-03  0.89007017347E+00  0.88000000000E+00 0.  1.
        -11    1    4    4    0    0 -0.29829646037E-01  0.58406905977E-01 -0.17219228879E-01  0.67808092531E-01  0.51100000000E-03 0. -1.
         11    1    4    4    0    0 -0.22773602935E-01  0.57323733130E-01  0.23371038805E-02  0.61728198954E-01  0.51100000000E-03 0.  1.
</event>
<event>
 8    1  0.1208168E+005  0.1043930E+01  0.7957747E-01            NaN
         13   -1    0    0    0    0  0.00000000000E+00  0.00000000000E+00  0.74505805969E-08  0.10566000000E+00  0.10566000000E+00 0.  1.
     999900   -1    0    0    0    0 -0.00000000000E+00 -0.00000000000E+00 -0.74505805969E-08  0.93827000000E+00  0.93827000000E+00 0. -1.
     999902    2    1    2    0    0 -0.26272035546E-02 -0.11062170796E-01 -0.21013285424E-01  0.10200379096E+01  0.10197580620E+01 0.  0.
     999903    2    3    3    0    0  0.12765050642E-01 -0.12469799946E+00  0.32301070929E-01  0.13099772844E+00  0.20112386408E-01 0.  0.
         14    1    1    2    0    0  0.26272035546E-02  0.11062170796E-01  0.21013285424E-01  0.23892090439E-01  0.00000000000E+00 0.  1.
     999901    1    3    3    0    0 -0.15392254197E-01  0.11363582866E+00 -0.53314356354E-01  0.88904018112E+00  0.88000000000E+00 0. -1.
        -11    1    4    4    0    0  0.10911929297E-01 -0.62552148768E-01  0.25588902695E-01  0.68460898172E-01  0.51100000000E-03 0.  1.
         11    1    4    4    0    0  0.18531213458E-02 -0.62145850693E-01  0.67121682346E-02  0.62536830272E-01  0.51100000000E-03 0. -1.
</event>
<event>
 8    1  0.1208168E+005  0.1043930E+01  0.7957747E-01            NaN
         13   -1    0    0    0    0  0.00000000000E+00  0.00000000000E+00  0.74505805969E-08  0.10566000000E+00  0.10566000000E+00 0.  1.
     999900   -1    0    0    0    0 -0.00000000000E+00 -0.00000000000E+00 -0.74505805969E-08  0.93827000000E+00  0.93827000000E+00 0.  1.
     999902    2    1    2    0    0  0.13938308980E-01 -0.18828900420E-01  0.59934349252E-02  0.10197489080E+01  0.10194621671E+01 0.  0.
     999903    2    3    3    0    0 -0.61613636145E-01  0.29928779493E-01 -0.10631582585E+00  0.12806579286E+00  0.20144986329E-01 0.  0.
         14    1    1    2    0    0 -0.13938308980E-01  0.18828900420E-01 -0.59934349252E-02  0.24181092003E-01  0.00000000000E+00 0.  1.
     999901    1    3    3    0    0  0.75551945125E-01 -0.48757679913E-01  0.11230926078E+00  0.89168311514E+00  0.88000000000E+00 0. -1.
        -11    1    4    4    0    0 -0.75409506401E-02 -0.25349717797E-02 -0.82816651196E-02  0.11495177973E-01  0.51100000000E-03 0. -1.
         11    1    4    4    0    0 -0.54072685505E-01  0.32463751273E-01 -0.98034160730E-01  0.11657061489E+00  0.51100000000E-03 0.  1.
</event>
<event>
 8    1  0.1208168E+005  0.1043930E+01  0.7957747E-01            NaN
         13   -1    0    0    0    0  0.00000000000E+00  0.00000000000E+00  0.74505805969E-08  0.10566000000E+00  0.10566000000E+00 0.  1.
     999900   -1    0    0    0    0 -0.00000000000E+00 -0.00000000000E+00 -0.74505805969E-08  0.93827000000E+00  0.93827000000E+00 0.  1.
     999902    2    1    2    0    0  0.42692475550E-02 -0.17172785899E-01 -0.15034050218E-01  0.10207103162E+01  0.10204461749E+01 0.  0.
     999903    2    3    3    0    0  0.11621651648E+00 -0.43413352844E-01 -0.43128959333E-01  0.13278572351E+00  0.19517769512E-01 0.  0.
         14    1    1    2    0    0 -0.42692475550E-02  0.17172785899E-01  0.15034050218E-01  0.23219683809E-01  0.00000000000E+00 0.  1.
     999901    1    3    3    0    0 -0.11194726892E+00  0.26240566946E-01  0.28094909114E-01  0.88792459268E+00  0.88000000000E+00 0. -1.
        -11    1    4    4    0    0  0.68081052307E-01 -0.25798358346E-01 -0.15075116432E-01  0.74351228860E-01  0.51100000000E-03 0.  1.
         11    1    4    4    0    0  0.48135464172E-01 -0.17614994499E-01 -0.28053842901E-01  0.58434494648E-01  0.51100000000E-03 0. -1.
</event>
<event>
 8    1  0.1208168E+005  0.1043930E+01  0.7957747E-01            NaN
         13   -1    0    0    0    0  0.00000000000E+00  0.00000000000E+00  0.74505805969E-08  0.10566000000E+00  0.10566000000E+00 0. -1.
     999900   -1    0    0    0    0 -0.00000000000E+00 -0.00000000000E+00 -0.74505805969E-08  0.93827000000E+00  0.93827000000E+00 0.  1.
     999902    2    1    2    0    0  0.70314769193E-02  0.20080161251E-01 -0.87447807035E-02  0.10209272668E+01  0.10206680942E+01 0.  0.
     999903    2    3    3    0    0 -0.45415014000E-01 -0.99032720983E-01  0.65131916330E-01  0.12829280666E+00  0.18624564275E-01 0.  0.
         14    1    1    2    0    0 -0.70314769193E-02 -0.20080161251E-01  0.87447807035E-02  0.23002733166E-01  0.00000000000E+00 0. -1.
     999901    1    3    3    0    0  0.52446490919E-01  0.11911288223E+00 -0.73876697033E-01  0.89263446017E+00  0.88000000000E+00 0.  1.
        -11    1    4    4    0    0 -0.14976678751E-01 -0.20927076142E-01  0.84147129749E-02  0.27079732969E-01  0.51100000000E-03 0. -1.
         11    1    4    4    0    0 -0.30438335249E-01 -0.78105644841E-01  0.56717203355E-01  0.10121307369E+00  0.51100000000E-03 0.  1.
</event>
<event>
 8    1  0.1208168E+005  0.1043930E+01  0.7957747E-01            NaN
         13   -1    0    0    0    0  0.00000000000E+00  0.00000000000E+00  0.74505805969E-08  0.10566000000E+00  0.10566000000E+00 0. -1.
     999900   -1    0    0    0    0 -0.00000000000E+00 -0.00000000000E+00 -0.74505805969E-08  0.93827000000E+00  0.93827000000E+00 0. -1.
     999902    2    1    2    0    0 -0.16835292615E-01  0.10216888850E-01  0.11996933537E-01  0.10208705484E+01  0.10206100814E+01 0.  0.
     999903    2    3    3    0    0 -0.83726263119E-01 -0.68447201974E-01 -0.71143436634E-01  0.13094090942E+00  0.19723757017E-01 0.  0.
         14    1    1    2    0    0  0.16835292615E-01 -0.10216888850E-01 -0.11996933537E-01  0.23059451631E-01  0.00000000000E+00 0.  1.
     999901    1    3    3    0    0  0.66890970504E-01  0.78664090825E-01  0.83140370172E-01  0.88992963894E+00  0.88000000000E+00 0.  1.
        -11    1    4    4    0    0 -0.35187150828E-01 -0.37345773326E-01 -0.42173355535E-01  0.66420594749E-01  0.51100000000E-03 0.  1.
         11    1    4    4    0    0 -0.48539112291E-01 -0.31101428648E-01 -0.28970081099E-01  0.64520314676E-01  0.51100000000E-03 0. -1.
</event>
<event>
 8    1  0.1208168E+005  0.1043930E+01  0.7957747E-01            NaN
         13   -1    0    0    0    0  0.00000000000E+00  0.00000000000E+00  0.74505805969E-08  0.10566000000E+00  0.10566000000E+00 0. -1.
     999900   -1    0    0    0    0 -0.00000000000E+00 -0.00000000000E+00 -0.74505805969E-08  0.93827000000E+00  0.93827000000E+00 0.  1.
     999902    2    1    2    0    0  0.41568960678E-02  0.21435615487E-01 -0.69297640286E-02  0.10210217695E+01  0.10207647460E+01 0.  0.
     999903    2    3    3    0    0  0.23218733194E-01 -0.87956520992E-01 -0.90847799415E-01  0.13008280983E+00  0.19818062414E-01 0.  0.
         14    1    1    2    0    0 -0.41568960678E-02 -0.21435615487E-01  0.69297640286E-02  0.22908230524E-01  0.00000000000E+00 0. -1.
     999901    1    3    3    0    0 -0.19061837126E-01  0.10939213648E+00  0.83918035386E-01  0.89093895965E+00  0.88000000000E+00 0.  1.
        -11    1    4    4    0    0  0.24324526017E-01 -0.75085840887E-01 -0.84673501919E-01  0.11575590316E+00  0.51100000000E-03 0.  1.
         11    1    4    4    0    0 -0.11057928235E-02 -0.12870680105E-01 -0.61742974956E-02  0.14326906669E-01  0.51100000000E-03 0. -1.
</event>
<event>
 8    1  0.1208168E+005  0.1043930E+01  0.7957747E-01            NaN
         13   -1    0    0    0    0  0.00000000000E+00  0.00000000000E+00  0.74505805969E-08  0.10566000000E+00  0.10566000000E+00 0. -1.
     999900   -1    0    0    0    0 -0.00000000000E+00 -0.00000000000E+00 -0.74505805969E-08  0.93827000000E+00  0.93827000000E+00 0.  1.
     999902    2    1    2    0    0  0.16563304016E-01  0.16736764898E-01  0.25794610397E-02  0.10202421137E+01  0.10199670850E+01 0.  0.
     999903    2    3    3    0    0 -0.16043650095E-01 -0.12389411513E+00 -0.44783240938E-02  0.12845174021E+00  0.29540543401E-01 0.  0.
         14    1    1    2    0    0 -0.16563304016E-01 -0.16736764898E-01 -0.25794610397E-02  0.23687886322E-01  0.00000000000E+00 0.  1.
     999901    1    3    3    0    0  0.32606954111E-01  0.14063088003E+00  0.70577851335E-02  0.89179037347E+00  0.88000000000E+00 0.  1.
        -11    1    4    4    0    0 -0.58106898678E-02 -0.65924191515E-01 -0.16859507417E-01  0.68295440953E-01  0.51100000000E-03 0. -1.
         11    1    4    4    0    0 -0.10232960227E-01 -0.57969923616E-01  0.12381183323E-01  0.60156299259E-01  0.51100000000E-03 0.  1.
</event>
<event>
 8    1  0.1208168E+005  0.1043930E+01  0.7957747E-01            NaN
         13   -1    0    0    0    0  0.00000000000E+00  0.00000000000E+00  0.74505805969E-08  0.10566000000E+00  0.10566000000E+00 0. -1.
     999900   -1    0    0    0    0 -0.00000000000E+00 -0.00000000000E+00 -0.74505805969E-08  0.93827000000E+00  0.93827000000E+00 0.  1.
     999902    2    1    2    0    0 -0.19666595057E-01 -0.12771204577E-01 -0.51569181193E-02  0.10199201597E+01  0.10196375139E+01 0.  0.
     999903    2    3    3    0    0 -0.12032037056E+00 -0.53891744320E-01 -0.28681535767E-02  0.13322555625E+00  0.18960771491E-01 0.  0.
         14    1    1    2    0    0  0.19666595057E-01  0.12771204577E-01  0.51569181193E-02  0.24009840316E-01  0.00000000000E+00 0.  1.
     999901    1    3    3    0    0  0.10065377551E+00  0.41120539742E-01 -0.22887645426E-02  0.88669460343E+00  0.88000000000E+00 0.  1.
        -11    1    4    4    0    0 -0.63287560299E-01 -0.21529430690E-01  0.56883346772E-02  0.67092845721E-01  0.51100000000E-03 0. -1.
         11    1    4    4    0    0 -0.57032810264E-01 -0.32362313629E-01 -0.85564882539E-02  0.66132710532E-01  0.51100000000E-03 0.  1.
</event>
<event>
 8    1  0.1208168E+005  0.1043930E+01  0.7957747E-01            NaN
         13   -1    0    0    0    0  0.00000000000E+00  0.00000000000E+00  0.74505805969E-08  0.10566000000E+00  0.10566000000E+00 0. -1.
     999900   -1    0    0    0    0 -0.00000000000E+00 -0.00000000000E+00 -0.74505805969E-08  0.93827000000E+00  0.93827000000E+00 0. -1.
     999902    2    1    2    0    0  0.47056584733E-02 -0.14969032681E-01 -0.18646681936E-01  0.10195596510E+01  0.10192683494E+01 0.  0.
     999903    2    3    3    0    0 -0.10586442928E+00 -0.51048835193E-01 -0.54468557334E-01  0.13118433441E+00  0.20718226154E-01 0.  0.
         14    1    1    2    0    0 -0.47056584733E-02  0.14969032681E-01  0.18646681936E-01  0.24370348957E-01  0.00000000000E+00 0. -1.
     999901    1    3    3    0    0  0.11057008775E+00  0.36079802512E-01  0.35821875398E-01  0.88837531664E+00  0.88000000000E+00 0. -1.
        -11    1    4    4    0    0 -0.19034313989E-01 -0.11665952742E-01 -0.21659138623E-02  0.22435504592E-01  0.51100000000E-03 0. -1.
         11    1    4    4    0    0 -0.86830115286E-01 -0.39382882451E-01 -0.52302643472E-01  0.10874882981E+00  0.51100000000E-03 0.  1.
</event>
<event>
 8    1  0.1208168E+005  0.1043930E+01  0.7957747E-01            NaN
         13   -1    0    0    0    0  0.00000000000E+00  0.00000000000E+00  0.74505805969E-08  0.10566000000E+00  0.10566000000E+00 0.  1.
     999900   -1    0    0    0    0 -0.00000000000E+00 -0.00000000000E+00 -0.74505805969E-08  0.93827000000E+00  0.93827000000E+00 0. -1.
     999902    2    1    2    0    0 -0.88612582811E-02 -0.75818647093E-02  0.20814100774E-01  0.10200713881E+01  0.10197923335E+01 0.  0.
     999903    2    3    3    0    0  0.88865247105E-01 -0.83492247189E-01 -0.38616783065E-01  0.12942842598E+00  0.19810957399E-01 0.  0.
         14    1    1    2    0    0  0.88612582811E-02  0.75818647093E-02 -0.20814100774E-01  0.23858611900E-01  0.00000000000E+00 0. -1.
     999901    1    3    3    0    0 -0.97726505386E-01  0.75910382480E-01  0.59430883839E-01  0.89064296212E+00  0.88000000000E+00 0. -1.
        -11    1    4    4    0    0  0.60771841333E-01 -0.62670214065E-01 -0.35762980966E-01  0.94339940421E-01  0.51100000000E-03 0. -1.
         11    1    4    4    0    0  0.28093405772E-01 -0.20822033124E-01 -0.28538020990E-02  0.35088485557E-01  0.51100000000E-03 0.  1.
</event>
<event>
 8    1  0.1208168E+005  0.1043930E+01  0.7957747E-01            NaN
         13   -1    0    0    0    0  0.00000000000E+00  0.00000000000E+00  0.74505805969E-08  0.10566000000E+00  0.10566000000E+00 0.  1.
     999900   -1    0    0    0    0 -0.00000000000E+00 -0.00000000000E+00 -0.74505805969E-08  0.93827000000E+00  0.93827000000E+00 0. -1.
     999902    2    1    2    0    0 -0.17554351060E-01 -0.15107376181E-01 -0.17256408997E-02  0.10207057477E+01  0.10204415013E+01 0.  0.
     999903    2    3    3    0    0 -0.38932777905E-02  0.94959364286E-01  0.85824545785E-01  0.12943342827E+00  0.18834044081E-01 0.  0.
         14    1    1    2    0    0  0.17554351060E-01  0.15107376181E-01  0.17256408997E-02  0.23224252253E-01  0.00000000000E+00 0.  1.
     999901    1    3    3    0    0 -0.13661073269E-01 -0.11006674047E+00 -0.87550186685E-01  0.89127231948E+00  0.88000000000E+00 0. -1.
        -11    1    4    4    0    0 -0.82199573561E-02  0.41976443025E-01  0.29374676944E-01  0.51891446641E-01  0.51100000000E-03 0.  1.
         11    1    4    4    0    0  0.43266795656E-02  0.52982921261E-01  0.56449868841E-01  0.77541981627E-01  0.51100000000E-03 0. -1.
</event>
<event>
 8    1  0.1208168E+005  0.1043930E+01  0.7957747E-01            NaN
         13   -1    0    0    0    0  0.00000000000E+00  0.00000000000E+00  0.74505805969E-08  0.10566000000E+00  0.10566000000E+00 0.  1.
     999900   -1    0    0    0    0 -0.00000000000E+00 -0.00000000000E+00 -0.74505805969E-08  0.93827000000E+00  0.93827000000E+00 0.  1.
     999902    2    1    2    0    0 -0.87405096454E-02  0.22166673239E-01 -0.43145443301E-03  0.10200984230E+01  0.10198200079E+01 0.  0.
     999903    2    3    3    0    0  0.95778669110E-02  0.45629691853E-02  0.12838476516E+00  0.13035740910E+00  0.19946176588E-01 0.  0.
         14    1    1    2    0    0  0.87405096454E-02 -0.22166673239E-01  0.43145443301E-03  0.23831577041E-01  0.00000000000E+00 0.  1.
     999901    1    3    3    0    0 -0.18318376556E-01  0.17603704053E-01 -0.12881621959E+00  0.88974101386E+00  0.88000000000E+00 0.  1.
        -11    1    4    4    0    0 -0.59566192958E-02  0.12978115641E-02  0.50545829922E-01  0.50914709778E-01  0.51100000000E-03 0. -1.
         11    1    4    4    0    0  0.15534486207E-01  0.32651576212E-02  0.77838935234E-01  0.79442699321E-01  0.51100000000E-03 0.  1.
</event>
<event>
 8    1  0.1208168E+005  0.1043930E+01  0.7957747E-01            NaN
         13   -1    0    0    0    0  0.00000000000E+00  0.00000000000E+00  0.74505805969E-08  0.10566000000E+00  0.10566000000E+00 0.  1.
     999900   -1    0    0    0    0 -0.00000000000E+00 -0.00000000000E+00 -0.74505805969E-08  0.93827000000E+00  0.93827000000E+00 0. -1.
     999902    2    1    2    0    0  0.12090797376E-01 -0.20106000865E-01  0.59449463963E-02  0.10197270861E+01  0.10194398213E+01 0.  0.
     999903    2    3    3    0    0 -0.83036266368E-01  0.31207319270E-01  0.91483672436E-01  0.12899756000E+00  0.20054671636E-01 0.  0.
         14    1    1    2    0    0 -0.12090797376E-01  0.20106000865E-01 -0.59449463963E-02  0.24202913866E-01  0.00000000000E+00 0. -1.
     999901    1    3    3    0    0  0.95127063744E-01 -0.51313320135E-01 -0.85538726039E-01  0.89072952614E+00  0.88000000000E+00 0. -1.
        -11    1    4    4    0    0 -0.13284975884E-01  0.11274720549E-01  0.25784984333E-01  0.31124531253E-01  0.51100000000E-03 0.  1.
         11    1    4    4    0    0 -0.69751290484E-01  0.19932598721E-01  0.65698688103E-01  0.97873028744E-01  0.51100000000E-03 0. -1.
</event>
<event>
 8    1  0.1208168E+005  0.1043930E+01  0.7957747E-01            NaN
         13   -1    0    0    0    0  0.00000000000E+00  0.00000000000E+00  0.74505805969E-08  0.10566000000E+00  0.10566000000E+00 0. -1.
     999900   -1    0    0    0    0 -0.00000000000E+00 -0.00000000000E+00 -0.74505805969E-08  0.93827000000E+00  0.93827000000E+00 0.  1.
     999902    2    1    2    0    0  0.20665894999E-01  0.43296839952E-02  0.13094810156E-01  0.10190844887E+01  0.10187815741E+01 0.  0.
     999903    2    3    3    0    0  0.81453212655E-01 -0.65702100760E-01  0.77417965422E-01  0.13187706245E+00  0.21133535758E-01 0.  0.
         14    1    1    2    0    0 -0.20665894999E-01 -0.43296839952E-02 -0.13094810156E-01  0.24845511317E-01  0.00000000000E+00 0.  1.
     999901    1    3    3    0    0 -0.60787317656E-01  0.70031784756E-01 -0.64323155266E-01  0.88720742624E+00  0.88000000000E+00 0. -1.
        -11    1    4    4    0    0  0.46529831727E-01 -0.25038495883E-01  0.43500190621E-01  0.68443255487E-01  0.51100000000E-03 0. -1.
         11    1    4    4    0    0  0.34923380928E-01 -0.40663604877E-01  0.33917774800E-01  0.63433806960E-01  0.51100000000E-03 0.  1.
</event>
<event>
 8    1  0.1208168E+005  0.1043930E+01  0.7957747E-01            NaN
         13   -1    0    0    0    0  0.00000000000E+00  0.00000000000E+00  0.74505805969E-08  0.10566000000E+00  0.10566000000E+00 0.  1.
     999900   -1    0    0    0    0 -0.00000000000E+00 -0.00000000000E+00 -0.74505805969E-08  0.93827000000E+00  0.93827000000E+00 0. -1.
     999902    2    1    2    0    0  0.16019649816E-01 -0.12428768405E-01 -0.12043976218E-01  0.10203469377E+01  0.10200743661E+01 0.  0.
     999903    2    3    3    0    0  0.88995701849E-02  0.11832131233E+00  0.45956871192E-01  0.12876947194E+00  0.19758734621E-01 0.  0.
         14    1    1    2    0    0 -0.16019649816E-01  0.12428768405E-01  0.12043976218E-01  0.23583062299E-01  0.00000000000E+00 0. -1.
     999901    1    3    3    0    0  0.71200796313E-02 -0.13075008073E+00 -0.58000847410E-01  0.89157746576E+00  0.88000000000E+00 0.  1.
        -11    1    4    4    0    0  0.14594437378E-01  0.66048434443E-01  0.27890515687E-01  0.73167856885E-01  0.51100000000E-03 0.  1.
         11    1    4    4    0    0 -0.56948671931E-02  0.52272877887E-01  0.18066355504E-01  0.55601615059E-01  0.51100000000E-03 0. -1.
</event>
<event>
 8    1  0.1208168E+005  0.1043930E+01  0.7957747E-01            NaN
         13   -1    0    0    0    0  0.00000000000E+00  0.00000000000E+00  0.74505805969E-08  0.10566000000E+00  0.10566000000E+00 0. -1.
     999900   -1    0    0    0    0 -0.00000000000E+00 -0.00000000000E+00 -0.74505805969E-08  0.93827000000E+00  0.93827000000E+00 0. -1.
     999902    2    1    2    0    0 -0.11311844004E-01 -0.15649110817E-01 -0.15076487587E-01  0.10194319804E+01  0.10191375814E+01 0.  0.
     999903    2    3    3    0    0 -0.10203322250E+00  0.72078411137E-01  0.26880329826E-01  0.12943936185E+00  0.20637839499E-01 0.  0.
         14    1    1    2    0    0  0.11311844004E-01  0.15649110817E-01  0.15076487587E-01  0.24498019554E-01  0.00000000000E+00 0. -1.
     999901    1    3    3    0    0  0.90721378497E-01 -0.87727521954E-01 -0.41956817412E-01  0.88999261859E+00  0.88000000000E+00 0. -1.
        -11    1    4    4    0    0 -0.68701743704E-01  0.36409698995E-01  0.18118649173E-01  0.79838226043E-01  0.51100000000E-03 0.  1.
         11    1    4    4    0    0 -0.33331478796E-01  0.35668712142E-01  0.87616806523E-02  0.49601135809E-01  0.51100000000E-03 0. -1.
</event>
<event>
 8    1  0.1208168E+005  0.1043930E+01  0.7957747E-01            NaN
         13   -1    0    0    0    0  0.00000000000E+00  0.00000000000E+00  0.74505805969E-08  0.10566000000E+00  0.10566000000E+00 0. -1.
     999900   -1    0    0    0    0 -0.00000000000E+00 -0.00000000000E+00 -0.74505805969E-08  0.93827000000E+00  0.93827000000E+00 0. -1.
     999902    2    1    2    0    0  0.13570014434E-02 -0.20029358296E-01 -0.13711921936E-01  0.10196188205E+01  0.10193289487E+01 0.  0.
     999903    2    3    3    0    0  0.73417242197E-01  0.95318292478E-01 -0.41714217888E-01  0.12873056294E+00  0.18863020121E-01 0.  0.
         14    1    1    2    0    0 -0.13570014434E-02  0.20029358296E-01  0.13711921936E-01  0.24311179524E-01  0.00000000000E+00 0. -1.
     999901    1    3    3    0    0 -0.72060240753E-01 -0.11534765077E+00  0.28002295952E-01  0.89088825754E+00  0.88000000000E+00 0.  1.
        -11    1    4    4    0    0  0.39941967121E-01  0.36668956807E-01 -0.19960853833E-01  0.57781224784E-01  0.51100000000E-03 0.  1.
         11    1    4    4    0    0  0.33475275076E-01  0.58649335671E-01 -0.21753364055E-01  0.70949338156E-01  0.51100000000E-03 0. -1.
</event>
<event>
 8    1  0.1208168E+005  0.1043930E+01  0.7957747E-01            NaN
         13   -1    0    0    0    0  0.00000000000E+00  0.00000000000E+00  0.74505805969E-08  0.10566000000E+00  0.10566000000E+00 0. -1.
     999900   -1    0    0    0    0 -0.00000000000E+00 -0.00000000000E+00 -0.74505805969E-08  0.93827000000E+00  0.93827000000E+00 0. -1.
     999902    2    1    2    0    0 -0.14027556331E-01 -0.16831756263E-01  0.41148484749E-02  0.10216362266E+01  0.10213929543E+01 0.  0.
     999903    2    3    3    0    0 -0.85763169175E-01 -0.82654642377E-01 -0.59022787036E-01  0.13401862225E+00  0.17034982460E-01 0.  0.
         14    1    1    2    0    0  0.14027556331E-01  0.16831756263E-01 -0.41148484749E-02  0.22293773424E-01  0.00000000000E+00 0.  1.
     999901    1    3    3    0    0  0.71735612844E-01  0.65822886114E-01  0.63137635511E-01  0.88761760432E+00  0.88000000000E+00 0.  1.
        -11    1    4    4    0    0 -0.51372195879E-01 -0.57650172479E-01 -0.31695776145E-01  0.83471721216E-01  0.51100000000E-03 0.  1.
         11    1    4    4    0    0 -0.34390973296E-01 -0.25004469898E-01 -0.27327010891E-01  0.50546901036E-01  0.51100000000E-03 0. -1.
</event>
<event>
 8    1  0.1208168E+005  0.1043930E+01  0.7957747E-01            NaN
         13   -1    0    0    0    0  0.00000000000E+00  0.00000000000E+00  0.74505805969E-08  0.10566000000E+00  0.10566000000E+00 0. -1.
     999900   -1    0    0    0    0 -0.00000000000E+00 -0.00000000000E+00 -0.74505805969E-08  0.93827000000E+00  0.93827000000E+00 0.  1.
     999902    2    1    2    0    0 -0.23728972037E-02 -0.16422983931E-01  0.15548517220E-01  0.10211901357E+01  0.10209369186E+01 0.  0.
     999903    2    3    3    0    0  0.16243772671E-01 -0.61111055424E-01 -0.11251483266E+00  0.13060390979E+00  0.19984304776E-01 0.  0.
         14    1    1    2    0    0  0.23728972037E-02  0.16422983931E-01 -0.15548517220E-01  0.22739864337E-01  0.00000000000E+00 0.  1.
     999901    1    3    3    0    0 -0.18616669875E-01  0.44688071493E-01  0.12806334988E+00  0.89058622587E+00  0.88000000000E+00 0. -1.
        -11    1    4    4    0    0  0.18895376382E-01 -0.33084246132E-01 -0.62037214499E-01  0.72804393374E-01  0.51100000000E-03 0.  1.
         11    1    4    4    0    0 -0.26516037105E-02 -0.28026809292E-01 -0.50477618165E-01  0.57799516416E-01  0.51100000000E-03 0. -1.
</event>
<event>
 8    1  0.1208168E+005  0.1043930E+01  0.7957747E-01            NaN
         13   -1    0    0    0    0  0.00000000000E+00  0.00000000000E+00  0.74505805969E-08  0.10566000000E+00  0.10566000000E+00 0.  1.
     999900   -1    0    0    0    0 -0.00000000000E+00 -0.00000000000E+00 -0.74505805969E-08  0.93827000000E+00  0.93827000000E+00 0.  1.
     999902    2    1    2    0    0  0.24693213813E-01  0.81033198772E-02 -0.22137705626E-02  0.10178470672E+01  0.10175128171E+01 0.  0.
     999903    2    3    3    0    0  0.60679141381E-01 -0.11217445188E+00  0.10197168367E-01  0.12885001394E+00  0.15273440871E-01 0.  0.
         14    1    1    2    0    0 -0.24693213813E-01 -0.81033198772E-02  0.22137705626E-02  0.26082932764E-01  0.00000000000E+00 0. -1.
     999901    1    3    3    0    0 -0.35985927568E-01  0.12027777176E+00 -0.12410938930E-01  0.88899705330E+00  0.88000000000E+00 0.  1.
        -11    1    4    4    0    0  0.16078680788E-01 -0.31175432450E-01  0.96356146532E-02  0.36380458423E-01  0.51100000000E-03 0. -1.
         11    1    4    4    0    0  0.44600460593E-01 -0.80999019432E-01  0.56155371377E-03  0.92469555518E-01  0.51100000000E-03 0.  1.
</event>
<event>
 8    1  0.1208168E+005  0.1043930E+01  0.7957747E-01            NaN
         13   -1    0    0    0    0  0.00000000000E+00  0.00000000000E+00  0.74505805969E-08  0.10566000000E+00  0.10566000000E+00 0. -1.
     999900   -1    0    0    0    0 -0.00000000000E+00 -0.00000000000E+00 -0.74505805969E-08  0.93827000000E+00  0.93827000000E+00 0.  1.
     999902    2    1    2    0    0 -0.42890610429E-02  0.68981661668E-02  0.21401836490E-01  0.10210385311E+01  0.10207818879E+01 0.  0.
     999903    2    3    3    0    0  0.15732676789E-02  0.10295198201E+00  0.82810619853E-01  0.13366502404E+00  0.20178060413E-01 0.  0.
         14    1    1    2    0    0  0.42890610429E-02 -0.68981661668E-02 -0.21401836490E-01  0.22891468853E-01  0.00000000000E+00 0. -1.
     999901    1    3    3    0    0 -0.58623287217E-02 -0.96053815839E-01 -0.61408783363E-01  0.88737350710E+00  0.88000000000E+00 0.  1.
        -11    1    4    4    0    0 -0.55779303757E-02  0.21506525329E-01  0.10777965527E-01  0.24699587060E-01  0.51100000000E-03 0. -1.
         11    1    4    4    0    0  0.71511980546E-02  0.81445456677E-01  0.72032654326E-01  0.10896543698E+00  0.51100000000E-03 0.  1.
</event>
<event>
 8    1  0.1208168E+005  0.1043930E+01  0.7957747E-01            NaN
         13   -1    0    0    0    0  0.00000000000E+00  0.00000000000E+00  0.74505805969E-08  0.10566000000E+00  0.10566000000E+00 0.  1.
     999900   -1    0    0    0    0 -0.00000000000E+00 -0.00000000000E+00 -0.74505805969E-08  0.93827000000E+00  0.93827000000E+00 0. -1.
     999902    2    1    2    0    0  0.14277001306E-01  0.13286389265E-01  0.13861121441E-01  0.10200032034E+01  0.10197225326E+01 0.  0.
     999903    2    3    3    0    0  0.17176440778E-01  0.11589440384E-01  0.12931673751E+00  0.13245529732E+00  0.19805098868E-01 0.  0.
         14    1    1    2    0    0 -0.14277001306E-01 -0.13286389265E-01 -0.13861121441E-01  0.23926796560E-01  0.00000000000E+00 0. -1.
     999901    1    3    3    0    0 -0.28994394720E-02  0.16969488814E-02 -0.11545561607E+00  0.88754790612E+00  0.88000000000E+00 0. -1.
        -11    1    4    4    0    0 -0.15901550204E-02 -0.34554548870E-02  0.31054630733E-01  0.31290892804E-01  0.51100000000E-03 0.  1.
         11    1    4    4    0    0  0.18766595799E-01  0.15044895271E-01  0.98262106774E-01  0.10116440451E+00  0.51100000000E-03 0. -1.
</event>
<event>
 8    1  0.1208168E+005  0.1043930E+01  0.7957747E-01            NaN
         13   -1    0    0    0    0  0.00000000000E+00  0.00000000000E+00  0.74505805969E-08  0.10566000000E+00  0.10566000000E+00 0. -1.
     999900   -1    0    0    0    0 -0.00000000000E+00 -0.00000000000E+00 -0.74505805969E-08  0.93827000000E+00  0.93827000000E+00 0. -1.
     999902    2    1    2    0    0  0.70317610049E-02 -0.17120010136E-01  0.15534690613E-01  0.10197666595E+01  0.10194803445E+01 0.  0.
     999903    2    3    3    0    0 -0.43123738304E-01 -0.10887253450E+00 -0.55268627411E-01  0.13075191856E+00  0.18126153934E-01 0.  0.
         14    1    1    2    0    0 -0.70317610049E-02  0.17120010136E-01 -0.15534690613E-01  0.24163340463E-01  0.00000000000E+00 0.  1.
     999901    1    3    3    0    0  0.50155499309E-01  0.91752524364E-01  0.70803318023E-01  0.88901474098E+00  0.88000000000E+00 0.  1.
        -11    1    4    4    0    0 -0.24585707077E-01 -0.65214447721E-01 -0.23043934924E-01  0.73407528510E-01  0.51100000000E-03 0.  1.
         11    1    4    4    0    0 -0.18538031227E-01 -0.43658086779E-01 -0.32224692487E-01  0.57344390047E-01  0.51100000000E-03 0. -1.
</event>
<event>
 8    1  0.1208168E+005  0.1043930E+01  0.7957747E-01            NaN
         13   -1    0    0    0    0  0.00000000000E+00  0.00000000000E+00  0.74505805969E-08  0.10566000000E+00  0.10566000000E+00 0.  1.
     999900   -1    0    0    0    0 -0.00000000000E+00 -0.00000000000E+00 -0.74505805969E-08  0.93827000000E+00  0.93827000000E+00 0.  1.
     999902    2    1    2    0    0  0.15392388504E-01  0.24473473998E-03  0.14915456296E-01  0.10224950669E+01  0.10222703681E+01 0.  0.
     999903    2    3    3    0    0  0.63590087432E-01 -0.30637641009E-01  0.11355857773E+00  0.13513538523E+00  0.19587176870E-01 0.  0.
         14    1    1    2    0    0 -0.15392388504E-01 -0.24473473998E-03 -0.14915456296E-01  0.21434933064E-01  0.00000000000E+00 0. -1.
     999901    1    3    3    0    0 -0.48197698927E-01  0.30882375749E-01 -0.98643121437E-01  0.88735968171E+00  0.88000000000E+00 0.  1.
        -11    1    4    4    0    0  0.32458921182E-01 -0.67558864092E-02  0.62378608362E-01  0.70644005178E-01  0.51100000000E-03 0. -1.
         11    1    4    4    0    0  0.31131166250E-01 -0.23881754600E-01  0.51179969371E-01  0.64491380049E-01  0.51100000000E-03 0.  1.
</event>
<event>
 8    1  0.1208168E+005  0.1043930E+01  0.7957747E-01            NaN
         13   -1    0    0    0    0  0.00000000000E+00  0.00000000000E+00  0.74505805969E-08  0.10566000000E+00  0.10566000000E+00 0. -1.
     999900   -1    0    0    0    0 -0.00000000000E+00 -0.00000000000E+00 -0.74505805969E-08  0.93827000000E+00  0.93827000000E+00 0.  1.
     999902    2    1    2    0    0  0.10933139161E-01  0.64016670269E-02 -0.21601868814E-01  0.10188869249E+01  0.10185791134E+01 0.  0.
     999903    2    3    3    0    0 -0.73899544940E-01  0.86929579385E-01  0.54984439076E-01  0.12785000565E+00  0.17448234600E-01 0.  0.
         14    1    1    2    0    0 -0.10933139161E-01 -0.64016670269E-02  0.21601868814E-01  0.25043075069E-01  0.00000000000E+00 0. -1.
     999901    1    3    3    0    0  0.84832684100E-01 -0.80527912358E-01 -0.76586307890E-01  0.89103691928E+00  0.88000000000E+00 0.  1.
        -11    1    4    4    0    0 -0.35615708897E-01  0.46104188830E-01  0.37192412326E-01  0.69120269123E-01  0.51100000000E-03 0. -1.
         11    1    4    4    0    0 -0.38283836042E-01  0.40825390555E-01  0.17792026750E-01  0.58729736530E-01  0.51100000000E-03 0.  1.
</event>
<event>
 8    1  0.1208168E+005  0.1043930E+01  0.7957747E-01            NaN
         13   -1    0    0    0    0  0.00000000000E+00  0.00000000000E+00  0.74505805969E-08  0.10566000000E+00  0.10566000000E+00 0. -1.
     999900   -1    0    0    0    0 -0.00000000000E+00 -0.00000000000E+00 -0.74505805969E-08  0.93827000000E+00  0.93827000000E+00 0. -1.
     999902    2    1    2    0    0 -0.20791327358E-01  0.51909139127E-02  0.10052486629E-01  0.10202598211E+01  0.10199852083E+01 0.  0.
     999903    2    3    3    0    0 -0.71353653421E-01  0.45240673616E-01  0.10113637102E+00  0.13321032642E+00  0.19451558168E-01 0.  0.
         14    1    1    2    0    0  0.20791327358E-01 -0.51909139127E-02 -0.10052486629E-01  0.23670178875E-01  0.00000000000E+00 0.  1.
     999901    1    3    3    0    0  0.50562326063E-01 -0.40049759703E-01 -0.91083884390E-01  0.88704949471E+00  0.88000000000E+00 0. -1.
        -11    1    4    4    0    0 -0.35341841747E-01  0.32642547484E-01  0.62923190927E-01  0.79209663310E-01  0.51100000000E-03 0. -1.
         11    1    4    4    0    0 -0.36011811674E-01  0.12598126132E-01  0.38213180091E-01  0.54000663105E-01  0.51100000000E-03 0.  1.
</event>
<event>
 8    1  0.1208168E+005  0.1043930E+01  0.7957747E-01            NaN
         13   -1    0    0    0    0  0.00000000000E+00  0.00000000000E+00  0.74505805969E-08  0.10566000000E+00  0.10566000000E+00 0.  1.
     999900   -1    0    0    0    0 -0.00000000000E+00 -0.00000000000E+00 -0.74505805969E-08  0.93827000000E+00  0.93827000000E+00 0. -1.
     999902    2    1    2    0    0  0.11067033031E-01  0.88053536610E-02 -0.18644912590E-01  0.10205281574E+01  0.10202598070E+01 0.  0.
     999903    2    3    3    0    0 -0.11629565616E+00 -0.43288948060E-01 -0.26993248363E-01  0.12979544461E+00  0.26825534812E-01 0.  0.
         14    1    1    2    0    0 -0.11067033031E-01 -0.88053536610E-02  0.18644912590E-01  0.23401842634E-01  0.00000000000E+00 0.  1.
     999901    1    3    3    0    0  0.12736268919E+00  0.52094301721E-01  0.83483357730E-02  0.89073271276E+00  0.88000000000E+00 0. -1.
        -11    1    4    4    0    0 -0.43790491362E-01 -0.18141445750E-01 -0.23659944689E-01  0.52978989149E-01  0.51100000000E-03 0.  1.
         11    1    4    4    0    0 -0.72505164796E-01 -0.25147502311E-01 -0.33333036738E-02  0.76816455457E-01  0.51100000000E-03 0. -1.
</event>
<event>
 8    1  0.1208168E+005  0.1043930E+01  0.7957747E-01            NaN
         13   -1    0    0    0    0  0.00000000000E+00  0.00000000000E+00  0.74505805969E-08  0.10566000000E+00  0.10566000000E+00 0. -1.
     999900   -1    0    0    0    0 -0.00000000000E+00 -0.00000000000E+00 -0.74505805969E-08  0.93827000000E+00  0.93827000000E+00 0.  1.
     999902    2    1    2    0    0  0.41016290278E-02  0.31113862998E-02 -0.23782147764E-01  0.10195970052E+01  0.10193066066E+01 0.  0.
     999903    2    3    3    0    0  0.65066954471E-03 -0.12561005093E+00  0.21204492245E-01  0.12908877089E+00  0.20879942896E-01 0.  0.
         14    1    1    2    0    0 -0.41016290278E-02 -0.31113862998E-02  0.23782147764E-01  0.24332994835E-01  0.00000000000E+00 0. -1.
     999901    1    3    3    0    0  0.34509594831E-02  0.12872143723E+00 -0.44986640010E-01  0.89050823427E+00  0.88000000000E+00 0.  1.
        -11    1    4    4    0    0 -0.10316407966E-02 -0.28981174807E-01 -0.38255636481E-02  0.29255236012E-01  0.51100000000E-03 0. -1.
         11    1    4    4    0    0  0.16823103413E-02 -0.96628876119E-01  0.25030055894E-01  0.99833534882E-01  0.51100000000E-03 0.  1.
</event>
<event>
 8    1  0.1208168E+005  0.1043930E+01  0.7957747E-01            NaN
         13   -1    0    0    0    0  0.00000000000E+00  0.00000000000E+00  0.74505805969E-08  0.10566000000E+00  0.10566000000E+00 0. -1.
     999900   -1    0    0    0    0 -0.00000000000E+00 -0.00000000000E+00 -0.74505805969E-08  0.93827000000E+00  0.93827000000E+00 0.  1.
     999902    2    1    2    0    0  0.70240445494E-02 -0.23392510723E-01 -0.69552873714E-02  0.10185346701E+01  0.10182180274E+01 0.  0.
     999903    2    3    3    0    0  0.79653777710E-01  0.11333395102E-01 -0.10029183791E+00  0.12994439422E+00  0.18812833077E-01 0.  0.
         14    1    1    2    0    0 -0.70240445494E-02  0.23392510723E-01  0.69552873714E-02  0.25395329928E-01  0.00000000000E+00 0. -1.
     999901    1    3    3    0    0 -0.72629733161E-01 -0.34725905825E-01  0.93336550543E-01  0.88859027585E+00  0.88000000000E+00 0. -1.
        -11    1    4    4    0    0  0.60867046691E-01  0.11643778317E-01 -0.87439666244E-01  0.10717430336E+00  0.51100000000E-03 0.  1.
         11    1    4    4    0    0  0.18786731019E-01 -0.31038321510E-03 -0.12852171670E-01  0.22770090860E-01  0.51100000000E-03 0. -1.
</event>
<event>
 8    1  0.1208168E+005  0.1043930E+01  0.7957747E-01            NaN
         13   -1    0    0    0    0  0.00000000000E+00  0.00000000000E+00  0.74505805969E-08  0.10566000000E+00  0.10566000000E+00 0. -1.
     999900   -1    0    0    0    0 -0.00000000000E+00 -0.00000000000E+00 -0.74505805969E-08  0.93827000000E+00  0.93827000000E+00 0.  1.
     999902    2    1    2    0    0  0.13903067194E-01 -0.19112263655E-01  0.16785174998E-02  0.10202363021E+01  0.10199611369E+01 0.  0.
     999903    2    3    3    0    0 -0.12688025950E+00 -0.32231111309E-02  0.10176686978E-01  0.12886397297E+00  0.19833554319E-01 0.  0.
         14    1    1    2    0    0 -0.13903067194E-01  0.19112263655E-01 -0.16785174998E-02  0.23693697905E-01  0.00000000000E+00 0.  1.
     999901    1    3    3    0    0  0.14078332669E+00 -0.15889152524E-01 -0.84981694780E-02  0.89137232912E+00  0.88000000000E+00 0. -1.
        -11    1    4    4    0    0 -0.70583776232E-01  0.19717239304E-02  0.14764398295E-01  0.72140181178E-01  0.51100000000E-03 0.  1.
         11    1    4    4    0    0 -0.56296483265E-01 -0.51948350613E-02 -0.45877113176E-02  0.56723791794E-01  0.51100000000E-03 0. -1.
</event>
<event>
 8    1  0.1208168E+005  0.1043930E+01  0.7957747E-01            NaN
         13   -1    0    0    0    0  0.00000000000E+00  0.00000000000E+00  0.74505805969E-08  0.10566000000E+00  0.10566000000E+00 0.  1.
     999900   -1    0    0    0    0 -0.00000000000E+00 -0.00000000000E+00 -0.74505805969E-08  0.93827000000E+00  0.93827000000E+00 0.  1.
     999902    2    1    2    0    0 -0.22722421374E-01 -0.73565109366E-02 -0.15878394819E-02  0.10199936694E+01  0.10197127722E+01 0.  0.
     999903    2    3    3    0    0  0.12374963196E+00 -0.11579599413E-01  0.18630903986E-01  0.12764805564E+00  0.22335106717E-01 0.  0.
         14    1    1    2    0    0  0.22722421374E-01  0.73565109366E-02  0.15878394819E-02  0.23936330556E-01  0.00000000000E+00 0. -1.
     999901    1    3    3    0    0 -0.14647205334E+00  0.42230884764E-02 -0.20218743468E-01  0.89234561380E+00  0.88000000000E+00 0. -1.
        -11    1    4    4    0    0  0.62021274689E-01 -0.62668057023E-02 -0.19238397998E-02  0.62368851587E-01  0.51100000000E-03 0.  1.
         11    1    4    4    0    0  0.61728357275E-01 -0.53127937107E-02  0.20554743786E-01  0.65279204055E-01  0.51100000000E-03 0. -1.
</event>
<event>
 8    1  0.1208168E+005  0.1043930E+01  0.7957747E-01            NaN
         13   -1    0    0    0    0  0.00000000000E+00  0.00000000000E+00  0.74505805969E-08  0.10566000000E+00  0.10566000000E+00 0. -1.
     999900   -1    0    0    0    0 -0.00000000000E+00 -0.00000000000E+00 -0.74505805969E-08  0.93827000000E+00  0.93827000000E+00 0. -1.
     999902    2    1    2    0    0 -0.15273733476E-02 -0.24296730379E-01  0.40657066974E-02  0.10192481454E+01  0.10189492568E+01 0.  0.
     999903    2    3    3    0    0 -0.10098366246E+00  0.72232408654E-01  0.24511404270E-01  0.12816596361E+00  0.20260413249E-01 0.  0.
         14    1    1    2    0    0  0.15273733476E-02  0.24296730379E-01 -0.40657066974E-02  0.24681854619E-01  0.00000000000E+00 0. -1.
     999901    1    3    3    0    0  0.99456289109E-01 -0.96529139034E-01 -0.20445697572E-01  0.89108218177E+00  0.88000000000E+00 0.  1.
        -11    1    4    4    0    0 -0.82334875254E-01  0.57199129941E-01  0.27660887139E-01  0.10400075936E+00  0.51100000000E-03 0.  1.
         11    1    4    4    0    0 -0.18648787202E-01  0.15033278713E-01 -0.31494828690E-02  0.24165204247E-01  0.51100000000E-03 0. -1.
</event>
<event>
 8    1  0.1208168E+005  0.1043930E+01  0.7957747E-01            NaN
         13   -1    0    0    0    0  0.00000000000E+00  0.00000000000E+00  0.74505805969E-08  0.10566000000E+00  0.10566000000E+00 0. -1.
     999900   -1    0    0    0    0 -0.00000000000E+00 -0.00000000000E+00 -0.74505805969E-08  0.93827000000E+00  0.93827000000E+00 0. -1.
     999902    2    1    2    0    0 -0.14106950156E-01 -0.18590319306E-01 -0.64712635634E-02  0.10197125834E+01  0.10194249700E+01 0.  0.
     999903    2    3    3    0    0  0.10853799546E+00  0.45441740513E-01 -0.47295110739E-01  0.12796795972E+00  0.17132512204E-01 0.  0.
         14    1    1    2    0    0  0.14106950156E-01  0.18590319306E-01  0.64712635634E-02  0.24217416599E-01  0.00000000000E+00 0. -1.
     999901    1    3    3    0    0 -0.12264494562E+00 -0.64032059819E-01  0.40823847175E-01  0.89174462368E+00  0.88000000000E+00 0.  1.
        -11    1    4    4    0    0  0.37883871553E-01  0.23325412104E-01 -0.22735743844E-01  0.49964364729E-01  0.51100000000E-03 0.  1.
         11    1    4    4    0    0  0.70654123910E-01  0.22116328410E-01 -0.24559366895E-01  0.78003594988E-01  0.51100000000E-03 0. -1.
</event>
<event>
 8    1  0.1208168E+005  0.1043930E+01  0.7957747E-01            NaN
         13   -1    0    0    0    0  0.00000000000E+00  0.00000000000E+00  0.74505805969E-08  0.10566000000E+00  0.10566000000E+00 0. -1.
     999900   -1    0    0    0    0 -0.00000000000E+00 -0.00000000000E+00 -0.74505805969E-08  0.93827000000E+00  0.93827000000E+00 0.  1.
     999902    2    1    2    0    0  0.34025126342E-02  0.17755225163E-01  0.16385207131E-01  0.10195312270E+01  0.10192392372E+01 0.  0.
     999903    2    3    3    0    0  0.90472878264E-01  0.72965716796E-01 -0.56022172012E-01  0.13055863149E+00  0.19943293870E-01 0.  0.
         14    1    1    2    0    0 -0.34025126342E-02 -0.17755225163E-01 -0.16385207131E-01  0.24398773033E-01  0.00000000000E+00 0. -1.
     999901    1    3    3    0    0 -0.87070365630E-01 -0.55210491633E-01  0.72407379142E-01  0.88897259548E+00  0.88000000000E+00 0. -1.
        -11    1    4    4    0    0  0.66774223041E-01  0.54410877229E-01 -0.31445067664E-01  0.91697294535E-01  0.51100000000E-03 0.  1.
         11    1    4    4    0    0  0.23698655222E-01  0.18554839567E-01 -0.24577104348E-01  0.38861336954E-01  0.51100000000E-03 0. -1.
</event>
<event>
 8    1  0.1208168E+005  0.1043930E+01  0.7957747E-01            NaN
         13   -1    0    0    0    0  0.00000000000E+00  0.00000000000E+00  0.74505805969E-08  0.10566000000E+00  0.10566000000E+00 0.  1.
     999900   -1    0    0    0    0 -0.00000000000E+00 -0.00000000000E+00 -0.74505805969E-08  0.93827000000E+00  0.93827000000E+00 0. -1.
     999902    2    1    2    0    0  0.12529618463E-01 -0.13345191463E-01  0.15105729574E-01  0.10201967208E+01  0.10199206247E+01 0.  0.
     999903    2    3    3    0    0  0.80844614234E-01  0.99745953662E-01 -0.50531824183E-02  0.13010519324E+00  0.20413714366E-01 0.  0.
         14    1    1    2    0    0 -0.12529618463E-01  0.13345191463E-01 -0.15105729574E-01  0.23733279166E-01  0.00000000000E+00 0. -1.
     999901    1    3    3    0    0 -0.68314995770E-01 -0.11309114513E+00  0.20158911992E-01  0.89009152759E+00  0.88000000000E+00 0. -1.
        -11    1    4    4    0    0  0.80608722261E-02  0.19740533349E-01  0.34715436428E-02  0.21609698152E-01  0.51100000000E-03 0.  1.
         11    1    4    4    0    0  0.72783742008E-01  0.80005420312E-01 -0.85247260610E-02  0.10849549509E+00  0.51100000000E-03 0. -1.
</event>
<event>
 8    1  0.1208168E+005  0.1043930E+01  0.7957747E-01            NaN
         13   -1    0    0    0    0  0.00000000000E+00  0.00000000000E+00  0.74505805969E-08  0.10566000000E+00  0.10566000000E+00 0. -1.
     999900   -1    0    0    0    0 -0.00000000000E+00 -0.00000000000E+00 -0.74505805969E-08  0.93827000000E+00  0.93827000000E+00 0.  1.
     999902    2    1    2    0    0 -0.20449625386E-01 -0.91458441484E-02 -0.10235646731E-02  0.10215049843E+01  0.10212588074E+01 0.  0.
     999903    2    3    3    0    0 -0.79094891348E-01 -0.10606944873E+00  0.10024184878E-01  0.13417443423E+00  0.19888809106E-01 0.  0.
         14    1    1    2    0    0  0.20449625386E-01  0.91458441484E-02  0.10235646731E-02  0.22425015680E-01  0.00000000000E+00 0. -1.
     999901    1    3    3    0    0  0.58645265962E-01  0.96923604584E-01 -0.11047749551E-01  0.88733055009E+00  0.88000000000E+00 0.  1.
        -11    1    4    4    0    0 -0.37427351526E-02 -0.15170585228E-01 -0.44369780672E-03  0.15640099467E-01  0.51100000000E-03 0.  1.
         11    1    4    4    0    0 -0.75352156196E-01 -0.90898863504E-01  0.10467882685E-01  0.11853433477E+00  0.51100000000E-03 0. -1.
</event>
<event>
 8    1  0.1208168E+005  0.1043930E+01  0.7957747E-01            NaN
         13   -1    0    0    0    0  0.00000000000E+00  0.00000000000E+00  0.74505805969E-08  0.10566000000E+00  0.10566000000E+00 0.  1.
     999900   -1    0    0    0    0 -0.00000000000E+00 -0.00000000000E+00 -0.74505805969E-08  0.93827000000E+00  0.93827000000E+00 0.  1.
     999902    2    1    2    0    0 -0.17424644334E-01 -0.73792813781E-03 -0.15355517589E-01  0.10206930749E+01  0.10204285367E+01 0.  0.
     999903    2    3    3    0    0  0.87780733273E-01  0.71294255075E-01  0.57947110107E-01  0.12848789550E+00  0.19051083458E-01 0.  0.
         14    1    1    2    0    0  0.17424644334E-01  0.73792813781E-03  0.15355517589E-01  0.23236925109E-01  0.00000000000E+00 0.  1.
     999901    1    3    3    0    0 -0.10520537761E+00 -0.72032183212E-01 -0.73302627696E-01  0.89220517939E+00  0.88000000000E+00 0. -1.
        -11    1    4    4    0    0  0.58648542286E-01  0.45897971779E-01  0.27893179094E-01  0.79527139309E-01  0.51100000000E-03 0.  1.
         11    1    4    4    0    0  0.29132190987E-01  0.25396283296E-01  0.30053931013E-01  0.48960756196E-01  0.51100000000E-03 0. -1.
</event>
<event>
 8    1  0.1208168E+005  0.1043930E+01  0.7957747E-01            NaN
         13   -1    0    0    0    0  0.00000000000E+00  0.00000000000E+00  0.74505805969E-08  0.10566000000E+00  0.10566000000E+00 0. -1.
     999900   -1    0    0    0    0 -0.00000000000E+00 -0.00000000000E+00 -0.74505805969E-08  0.93827000000E+00  0.93827000000E+00 0. -1.
     999902    2    1    2    0    0 -0.23635898394E-01  0.46632554810E-03  0.10495827023E-01  0.10180642787E+01  0.10177356435E+01 0.  0.
     999903    2    3    3    0    0 -0.10977382960E+00 -0.16329348264E-01 -0.65512774334E-01  0.13043871277E+00  0.20134371299E-01 0.  0.
         14    1    1    2    0    0  0.23635898394E-01 -0.46632554810E-03 -0.10495827023E-01  0.25865721280E-01  0.00000000000E+00 0.  1.
     999901    1    3    3    0    0  0.86137931208E-01  0.16795673812E-01  0.76008601357E-01  0.88762556595E+00  0.88000000000E+00 0.  1.
        -11    1    4    4    0    0 -0.57970204110E-01  0.97988013783E-03 -0.37525421580E-01  0.69064629988E-01  0.51100000000E-03 0.  1.
         11    1    4    4    0    0 -0.51803625492E-01 -0.17309228402E-01 -0.27987352753E-01  0.61374082780E-01  0.51100000000E-03 0. -1.
</event>
<event>
 8    1  0.1208168E+005  0.1043930E+01  0.7957747E-01            NaN
         13   -1    0    0    0    0  0.00000000000E+00  0.00000000000E+00  0.74505805969E-08  0.10566000000E+00  0.10566000000E+00 0. -1.
     999900   -1    0    0    0    0 -0.00000000000E+00 -0.00000000000E+00 -0.74505805969E-08  0.93827000000E+00  0.93827000000E+00 0. -1.
     999902    2    1    2    0    0 -0.13760435953E-01  0.15083069311E-01 -0.11337435144E-01  0.10205764989E+01  0.10203092689E+01 0.  0.
     999903    2    3    3    0    0  0.34719685063E-01  0.12345402317E+00 -0.26319820572E-01  0.13247793589E+00  0.20280980619E-01 0.  0.
         14    1    1    2    0    0  0.13760435953E-01 -0.15083069311E-01  0.11337435144E-01  0.23353501089E-01  0.00000000000E+00 0. -1.
     999901    1    3    3    0    0 -0.48480121016E-01 -0.10837095386E+00  0.14982385428E-01  0.88809856302E+00  0.88000000000E+00 0.  1.
        -11    1    4    4    0    0  0.32276855359E-01  0.93336574265E-01 -0.26507644097E-01  0.10225667608E+00  0.51100000000E-03 0. -1.
         11    1    4    4    0    0  0.24428297040E-02  0.30117448902E-01  0.18782352499E-03  0.30221259802E-01  0.51100000000E-03 0.  1.
</event>
<event>
 7    1  0.1208168E+005  0.1043930E+01  0.7957747E-01            NaN
         13   -1    0    0    0    0  0.00000000000E+00  0.00000000000E+00  0.74505805969E-08  0.10566000000E+00  0.10566000000E+00 0. -1.
     999900   -1    0    0    0    0 -0.00000000000E+00 -0.00000000000E+00 -0.74505805969E-08  0.93827000000E+00  0.93827000000E+00 0. -1.
     999903    2    1    2    0    0  0.86098783798E-01  0.56642739280E-01 -0.13055366621E-01  0.10582964277E+00  0.20200747654E-01 0.  0.
         14    1    1    2    0    0  0.34489911462E-01  0.83300859332E-02 -0.29998173837E-01  0.46463262454E-01  0.00000000000E+00 0.  1.
     999901    1    1    2    0    0 -0.12058869526E+00 -0.64972825214E-01  0.43053540458E-01  0.89163709478E+00  0.88000000000E+00 0.  1.
        -11    1    3    3    0    0  0.21661669698E-01  0.16263529323E-01 -0.12366546820E-01  0.29781251172E-01  0.51100000000E-03 0.  1.
         11    1    3    3    0    0  0.64437114100E-01  0.40379209957E-01 -0.68881980124E-03  0.76048391594E-01  0.51100000000E-03 0. -1.
</event>
<event>
 8    1  0.1208168E+005  0.1043930E+01  0.7957747E-01            NaN
         13   -1    0    0    0    0  0.00000000000E+00  0.00000000000E+00  0.74505805969E-08  0.10566000000E+00  0.10566000000E+00 0. -1.
     999900   -1    0    0    0    0 -0.00000000000E+00 -0.00000000000E+00 -0.74505805969E-08  0.93827000000E+00  0.93827000000E+00 0. -1.
     999902    2    1    2    0    0  0.47041979262E-02 -0.23621971254E-01  0.42054367761E-02  0.10194797914E+01  0.10191865542E+01 0.  0.
     999903    2    3    3    0    0  0.10063453725E+00 -0.40381700011E-01 -0.70047379320E-01  0.13099962883E+00  0.22277244439E-01 0.  0.
         14    1    1    2    0    0 -0.47041979262E-02  0.23621971254E-01 -0.42054367761E-02  0.24450208640E-01  0.00000000000E+00 0. -1.
     999901    1    3    3    0    0 -0.95930339328E-01  0.16759728757E-01  0.74252816096E-01  0.88848016253E+00  0.88000000000E+00 0.  1.
        -11    1    4    4    0    0  0.58478511434E-01 -0.11741163644E-01 -0.40309731645E-01  0.71991157857E-01  0.51100000000E-03 0.  1.
         11    1    4    4    0    0  0.42156025820E-01 -0.28640536367E-01 -0.29737647675E-01  0.59008470973E-01  0.51100000000E-03 0. -1.
</event>
<event>
 8    1  0.1208168E+005  0.1043930E+01  0.7957747E-01            NaN
         13   -1    0    0    0    0  0.00000000000E+00  0.00000000000E+00  0.74505805969E-08  0.10566000000E+00  0.10566000000E+00 0. -1.
     999900   -1    0    0    0    0 -0.00000000000E+00 -0.00000000000E+00 -0.74505805969E-08  0.93827000000E+00  0.93827000000E+00 0.  1.
     999902    2    1    2    0    0  0.13181555582E-01  0.19634743145E-01  0.10793158829E-01  0.10179344461E+01  0.10176024605E+01 0.  0.
     999903    2    3    3    0    0  0.11104833650E+00 -0.59142773048E-01 -0.10798932790E-01  0.12874941344E+00  0.25103662409E-01 0.  0.
         14    1    1    2    0    0 -0.13181555582E-01 -0.19634743145E-01 -0.10793158829E-01  0.25995553916E-01  0.00000000000E+00 0.  1.
     999901    1    3    3    0    0 -0.97866780923E-01  0.78777516193E-01  0.21592091619E-01  0.88918503265E+00  0.88000000000E+00 0.  1.
        -11    1    4    4    0    0  0.37430412323E-01 -0.28183246962E-01  0.56871111667E-02  0.47201011964E-01  0.51100000000E-03 0.  1.
         11    1    4    4    0    0  0.73617924181E-01 -0.30959526086E-01 -0.16486043956E-01  0.81548401471E-01  0.51100000000E-03 0. -1.
</event>
<event>
 8    1  0.1208168E+005  0.1043930E+01  0.7957747E-01            NaN
         13   -1    0    0    0    0  0.00000000000E+00  0.00000000000E+00  0.74505805969E-08  0.10566000000E+00  0.10566000000E+00 0. -1.
     999900   -1    0    0    0    0 -0.00000000000E+00 -0.00000000000E+00 -0.74505805969E-08  0.93827000000E+00  0.93827000000E+00 0. -1.
     999902    2    1    2    0    0 -0.15043971825E-01  0.91625746126E-02 -0.16875490540E-01  0.10195362294E+01  0.10192443608E+01 0.  0.
     999903    2    3    3    0    0 -0.11840363464E+00 -0.45307210252E-01 -0.29997159669E-01  0.13171735400E+00  0.19428529555E-01 0.  0.
         14    1    1    2    0    0  0.15043971825E-01 -0.91625746126E-02  0.16875490540E-01  0.24393770573E-01  0.00000000000E+00 0. -1.
     999901    1    3    3    0    0  0.10335966281E+00  0.54469784865E-01  0.13121669129E-01  0.88781887543E+00  0.88000000000E+00 0. -1.
        -11    1    4    4    0    0 -0.51099341022E-01 -0.16773989243E-01 -0.22244105226E-01  0.58202841050E-01  0.51100000000E-03 0. -1.
         11    1    4    4    0    0 -0.67304293616E-01 -0.28533221009E-01 -0.77530544431E-02  0.73514512952E-01  0.51100000000E-03 0.  1.
</event>
<event>
 8    1  0.1208168E+005  0.1043930E+01  0.7957747E-01            NaN
         13   -1    0    0    0    0  0.00000000000E+00  0.00000000000E+00  0.74505805969E-08  0.10566000000E+00  0.10566000000E+00 0. -1.
     999900   -1    0    0    0    0 -0.00000000000E+00 -0.00000000000E+00 -0.74505805969E-08  0.93827000000E+00  0.93827000000E+00 0.  1.
     999902    2    1    2    0    0  0.22306638968E-01  0.49229172118E-02  0.12440502370E-01  0.10179187072E+01  0.10175863143E+01 0.  0.
     999903    2    3    3    0    0  0.28182713428E-01 -0.12282691356E+00  0.15674879080E-01  0.12866901854E+00  0.20719519040E-01 0.  0.
         14    1    1    2    0    0 -0.22306638968E-01 -0.49229172118E-02 -0.12440502370E-01  0.26011292839E-01  0.00000000000E+00 0.  1.
     999901    1    3    3    0    0 -0.58760744594E-02  0.12774983077E+00 -0.32343767095E-02  0.88924968862E+00  0.88000000000E+00 0.  1.
        -11    1    4    4    0    0  0.19828900254E-01 -0.52606681225E-01 -0.61777092247E-04  0.56221998650E-01  0.51100000000E-03 0. -1.
         11    1    4    4    0    0  0.83538131741E-02 -0.70220232331E-01  0.15736656172E-01  0.72447019895E-01  0.51100000000E-03 0.  1.
</event>
<event>
 8    1  0.1208168E+005  0.1043930E+01  0.7957747E-01            NaN
         13   -1    0    0    0    0  0.00000000000E+00  0.00000000000E+00  0.74505805969E-08  0.10566000000E+00  0.10566000000E+00 0. -1.
     999900   -1    0    0    0    0 -0.00000000000E+00 -0.00000000000E+00 -0.74505805969E-08  0.93827000000E+00  0.93827000000E+00 0. -1.
     999902    2    1    2    0    0  0.15981628399E-01  0.71334142984E-02 -0.21778842506E-01  0.10159904934E+01  0.10156062558E+01 0.  0.
     999903    2    3    3    0    0  0.32027787013E-01  0.61331914438E-01  0.10280460326E+00  0.12541989456E+00  0.19338578819E-01 0.  0.
         14    1    1    2    0    0 -0.15981628399E-01 -0.71334142984E-02  0.21778842506E-01  0.27939506559E-01  0.00000000000E+00 0. -1.
     999901    1    3    3    0    0 -0.16046158614E-01 -0.54198500139E-01 -0.12458344577E+00  0.89057059888E+00  0.88000000000E+00 0. -1.
        -11    1    4    4    0    0  0.18367453011E-02  0.15428697398E-01  0.33871064592E-01  0.37268330715E-01  0.51100000000E-03 0. -1.
         11    1    4    4    0    0  0.30191041712E-01  0.45903217040E-01  0.68933538672E-01  0.88151563850E-01  0.51100000000E-03 0.  1.
</event>
<event>
 8    1  0.1208168E+005  0.1043930E+01  0.7957747E-01            NaN
         13   -1    0    0    0    0  0.00000000000E+00  0.00000000000E+00  0.74505805969E-08  0.10566000000E+00  0.10566000000E+00 0.  1.
     999900   -1    0    0    0    0 -0.00000000000E+00 -0.00000000000E+00 -0.74505805969E-08  0.93827000000E+00  0.93827000000E+00 0. -1.
     999902    2    1    2    0    0 -0.13423869683E-01  0.79693260781E-02 -0.18671332248E-01  0.10195921882E+01  0.10193016733E+01 0.  0.
     999903    2    3    3    0    0  0.48897437735E-01 -0.70177713045E-01 -0.96553649244E-01  0.13051594828E+00  0.19898109162E-01 0.  0.
         14    1    1    2    0    0  0.13423869683E-01 -0.79693260781E-02  0.18671332248E-01  0.24337811802E-01  0.00000000000E+00 0.  1.
     999901    1    3    3    0    0 -0.62321307418E-01  0.78147039124E-01  0.77882316996E-01  0.88907623992E+00  0.88000000000E+00 0. -1.
        -11    1    4    4    0    0 -0.19876659516E-03 -0.69202303434E-02 -0.13298406688E-01  0.15001261201E-01  0.51100000000E-03 0.  1.
         11    1    4    4    0    0  0.49096204330E-01 -0.63257482702E-01 -0.83255242556E-01  0.11551468708E+00  0.51100000000E-03 0. -1.
</event>
<event>
 8    1  0.1208168E+005  0.1043930E+01  0.7957747E-01            NaN
         13   -1    0    0    0    0  0.00000000000E+00  0.00000000000E+00  0.74505805969E-08  0.10566000000E+00  0.10566000000E+00 0.  1.
     999900   -1    0    0    0    0 -0.00000000000E+00 -0.00000000000E+00 -0.74505805969E-08  0.93827000000E+00  0.93827000000E+00 0. -1.
     999902    2    1    2    0    0  0.96832382647E-02  0.59100222221E-02  0.16663521882E-01  0.10237714676E+01  0.10235729830E+01 0.  0.
     999903    2    3    3    0    0  0.67032318784E-01  0.98041000309E-01 -0.58574388560E-01  0.13391879593E+00  0.19947817037E-01 0.  0.
         14    1    1    2    0    0 -0.96832382647E-02 -0.59100222221E-02 -0.16663521882E-01  0.20158532374E-01  0.00000000000E+00 0. -1.
     999901    1    3    3    0    0 -0.57349080519E-01 -0.92130978087E-01  0.75237910442E-01  0.88985267170E+00  0.88000000000E+00 0.  1.
        -11    1    4    4    0    0  0.58028216318E-01  0.70272021799E-01 -0.42030608739E-01  0.10036067023E+00  0.51100000000E-03 0. -1.
         11    1    4    4    0    0  0.90041024661E-02  0.27768978510E-01 -0.16543779821E-01  0.33558125700E-01  0.51100000000E-03 0.  1.
</event>
<event>
 8    1  0.1208168E+005  0.1043930E+01  0.7957747E-01            NaN
         13   -1    0    0    0    0  0.00000000000E+00  0.00000000000E+00  0.74505805969E-08  0.10566000000E+00  0.10566000000E+00 0. -1.
     999900   -1    0    0    0    0 -0.00000000000E+00 -0.00000000000E+00 -0.74505805969E-08  0.93827000000E+00  0.93827000000E+00 0.  1.
     999902    2    1    2    0    0  0.67783855598E-02  0.18231256231E-01  0.13902973076E-01  0.10200214686E+01  0.10197412311E+01 0.  0.
     999903    2    3    3    0    0 -0.41176373892E-01 -0.10420567226E+00 -0.57350236412E-01  0.12740314013E+00  0.19702654685E-01 0.  0.
         14    1    1    2    0    0 -0.67783855598E-02 -0.18231256231E-01 -0.13902973076E-01  0.23908531425E-01  0.00000000000E+00 0. -1.
     999901    1    3    3    0    0  0.47954759452E-01  0.12243692849E+00  0.71253209488E-01  0.89261832844E+00  0.88000000000E+00 0. -1.
        -11    1    4    4    0    0 -0.10659390897E-01 -0.25927434088E-01 -0.24354180875E-01  0.37138143462E-01  0.51100000000E-03 0.  1.
         11    1    4    4    0    0 -0.30516982996E-01 -0.78278238168E-01 -0.32996055537E-01  0.90264996669E-01  0.51100000000E-03 0. -1.
</event>
<event>
 8    1  0.1208168E+005  0.1043930E+01  0.7957747E-01            NaN
         13   -1    0    0    0    0  0.00000000000E+00  0.00000000000E+00  0.74505805969E-08  0.10566000000E+00  0.10566000000E+00 0. -1.
     999900   -1    0    0    0    0 -0.00000000000E+00 -0.00000000000E+00 -0.74505805969E-08  0.93827000000E+00  0.93827000000E+00 0. -1.
     999902    2    1    2    0    0  0.79472257108E-02 -0.30879047459E-02 -0.21130960582E-01  0.10211437970E+01  0.10208895352E+01 0.  0.
     999903    2    3    3    0    0  0.10732571643E+00  0.72637738794E-01  0.12098649930E-01  0.13169752851E+00  0.20070156499E-01 0.  0.
         14    1    1    2    0    0 -0.79472257108E-02  0.30879047459E-02  0.21130960582E-01  0.22786203004E-01  0.00000000000E+00 0. -1.
     999901    1    3    3    0    0 -0.99378490717E-01 -0.75725643540E-01 -0.33229610512E-01  0.88944626848E+00  0.88000000000E+00 0. -1.
        -11    1    4    4    0    0  0.12545705216E-01  0.15809909148E-01  0.58008914561E-02  0.21006175505E-01  0.51100000000E-03 0.  1.
         11    1    4    4    0    0  0.94780011212E-01  0.56827829646E-01  0.62977584738E-02  0.11069135301E+00  0.51100000000E-03 0. -1.
</event>
<event>
 8    1  0.1208168E+005  0.1043930E+01  0.7957747E-01            NaN
         13   -1    0    0    0    0  0.00000000000E+00  0.00000000000E+00  0.74505805969E-08  0.10566000000E+00  0.10566000000E+00 0. -1.
     999900   -1    0    0    0    0 -0.00000000000E+00 -0.00000000000E+00 -0.74505805969E-08  0.93827000000E+00  0.93827000000E+00 0.  1.
     999902    2    1    2    0    0 -0.50148905667E-02 -0.19562027708E-01 -0.10935148835E-01  0.10209648191E+01  0.10207065015E+01 0.  0.
     999903    2    3    3    0    0  0.52206044179E-01 -0.12050536311E+00  0.87808502742E-02  0.13312895982E+00  0.19980065697E-01 0.  0.
         14    1    1    2    0    0  0.50148905667E-02  0.19562027708E-01  0.10935148835E-01  0.22965180938E-01  0.00000000000E+00 0. -1.
     999901    1    3    3    0    0 -0.57220934746E-01  0.10094333540E+00 -0.19715999109E-01  0.88783585924E+00  0.88000000000E+00 0. -1.
        -11    1    4    4    0    0  0.15412868038E-01 -0.31954174523E-01 -0.63674890542E-02  0.36047632495E-01  0.51100000000E-03 0. -1.
         11    1    4    4    0    0  0.36793176141E-01 -0.88551188582E-01  0.15148339328E-01  0.97081327326E-01  0.51100000000E-03 0.  1.
</event>
<event>
 8    1  0.1208168E+005  0.1043930E+01  0.7957747E-01            NaN
         13   -1    0    0    0    0  0.00000000000E+00  0.00000000000E+00  0.74505805969E-08  0.10566000000E+00  0.10566000000E+00 0.  1.
     999900   -1    0    0    0    0 -0.00000000000E+00 -0.00000000000E+00 -0.74505805969E-08  0.93827000000E+00  0.93827000000E+00 0. -1.
     999902    2    1    2    0    0 -0.62801772742E-02 -0.23820440329E-02  0.23393239574E-01  0.10195915855E+01  0.10193010561E+01 0.  0.
     999903    2    3    3    0    0 -0.11575839650E+00 -0.28195664865E-01 -0.47620674145E-01  0.12959450721E+00  0.18221026743E-01 0.  0.
         14    1    1    2    0    0  0.62801772742E-02  0.23820440329E-02 -0.23393239574E-01  0.24338414454E-01  0.00000000000E+00 0. -1.
     999901    1    3    3    0    0  0.10947821923E+00  0.25813620832E-01  0.71013913719E-01  0.88999707834E+00  0.88000000000E+00 0.  1.
        -11    1    4    4    0    0 -0.62918349415E-01 -0.84659568193E-02 -0.18570764532E-01  0.66147755323E-01  0.51100000000E-03 0. -1.
         11    1    4    4    0    0 -0.52840047085E-01 -0.19729708045E-01 -0.29049909612E-01  0.63446751887E-01  0.51100000000E-03 0.  1.
</event>
<event>
 8    1  0.1208168E+005  0.1043930E+01  0.7957747E-01            NaN
         13   -1    0    0    0    0  0.00000000000E+00  0.00000000000E+00  0.74505805969E-08  0.10566000000E+00  0.10566000000E+00 0. -1.
     999900   -1    0    0    0    0 -0.00000000000E+00 -0.00000000000E+00 -0.74505805969E-08  0.93827000000E+00  0.93827000000E+00 0.  1.
     999902    2    1    2    0    0 -0.19654874046E-01  0.75516328099E-02 -0.12542638065E-01  0.10194216545E+01  0.10191270041E+01 0.  0.
     999903    2    3    3    0    0  0.10485742656E+00  0.55032643745E-01  0.42325935530E-01  0.12769954540E+00  0.22181462867E-01 0.  0.
         14    1    1    2    0    0  0.19654874046E-01 -0.75516328099E-02  0.12542638065E-01  0.24508345548E-01  0.00000000000E+00 0. -1.
     999901    1    3    3    0    0 -0.12451230061E+00 -0.47481010935E-01 -0.54868573595E-01  0.89172210905E+00  0.88000000000E+00 0.  1.
        -11    1    4    4    0    0  0.59743979763E-01  0.27759289664E-01  0.12265152567E-01  0.67012061370E-01  0.51100000000E-03 0. -1.
         11    1    4    4    0    0  0.45113446797E-01  0.27273354082E-01  0.30060782963E-01  0.60687484032E-01  0.51100000000E-03 0.  1.
</event>
<event>
 8    1  0.1208168E+005  0.1043930E+01  0.7957747E-01            NaN
         13   -1    0    0    0    0  0.00000000000E+00  0.00000000000E+00  0.74505805969E-08  0.10566000000E+00  0.10566000000E+00 0.  1.
     999900   -1    0    0    0    0 -0.00000000000E+00 -0.00000000000E+00 -0.74505805969E-08  0.93827000000E+00  0.93827000000E+00 0.  1.
     999902    2    1    2    0    0 -0.30617490540E-02 -0.10127264853E-01  0.20603775036E-01  0.10207685806E+01  0.10205057785E+01 0.  0.
     999903    2    3    3    0    0  0.21846063462E-01  0.12307017113E+00  0.29424752084E-01  0.13035307892E+00  0.22418555648E-01 0.  0.
         14    1    1    2    0    0  0.30617490540E-02  0.10127264853E-01 -0.20603775036E-01  0.23161419352E-01  0.00000000000E+00 0. -1.
     999901    1    3    3    0    0 -0.24907812516E-01 -0.13319743599E+00 -0.88209770476E-02  0.89041550173E+00  0.88000000000E+00 0.  1.
        -11    1    4    4    0    0 -0.49111431333E-04  0.49512224136E-01  0.47842777187E-02  0.49745484068E-01  0.51100000000E-03 0. -1.
         11    1    4    4    0    0  0.21895174894E-01  0.73557946998E-01  0.24640474365E-01  0.80607594854E-01  0.51100000000E-03 0.  1.
</event>
<event>
 8    1  0.1208168E+005  0.1043930E+01  0.7957747E-01            NaN
         13   -1    0    0    0    0  0.00000000000E+00  0.00000000000E+00  0.74505805969E-08  0.10566000000E+00  0.10566000000E+00 0.  1.
     999900   -1    0    0    0    0 -0.00000000000E+00 -0.00000000000E+00 -0.74505805969E-08  0.93827000000E+00  0.93827000000E+00 0. -1.
     999902    2    1    2    0    0  0.22453383371E-01  0.62929466757E-02 -0.87950448746E-02  0.10190079532E+01  0.10187031463E+01 0.  0.
     999903    2    3    3    0    0  0.11772982850E+00 -0.35899568024E-01  0.41047287701E-01  0.13145960667E+00  0.21157902938E-01 0.  0.
         14    1    1    2    0    0 -0.22453383371E-01 -0.62929466757E-02  0.87950448746E-02  0.24922046806E-01  0.00000000000E+00 0.  1.
     999901    1    3    3    0    0 -0.95276445128E-01  0.42192514699E-01 -0.49842332575E-01  0.88754834652E+00  0.88000000000E+00 0.  1.
        -11    1    4    4    0    0  0.81961135656E-01 -0.19665551287E-01  0.36713998222E-01  0.91937698752E-01  0.51100000000E-03 0. -1.
         11    1    4    4    0    0  0.35768692843E-01 -0.16234016736E-01  0.43332894791E-02  0.39521907922E-01  0.51100000000E-03 0.  1.
</event>
<event>
 8    1  0.1208168E+005  0.1043930E+01  0.7957747E-01            NaN
         13   -1    0    0    0    0  0.00000000000E+00  0.00000000000E+00  0.74505805969E-08  0.10566000000E+00  0.10566000000E+00 0.  1.
     999900   -1    0    0    0    0 -0.00000000000E+00 -0.00000000000E+00 -0.74505805969E-08  0.93827000000E+00  0.93827000000E+00 0.  1.
     999902    2    1    2    0    0  0.72682583235E-02  0.21991068162E-01  0.62682504878E-02  0.10199357169E+01  0.10196534416E+01 0.  0.
     999903    2    3    3    0    0  0.57959996477E-01  0.15913403255E-01  0.11557722812E+00  0.13170430396E+00  0.19373446434E-01 0.  0.
         14    1    1    2    0    0 -0.72682583235E-02 -0.21991068162E-01 -0.62682504878E-02  0.23994283113E-01  0.00000000000E+00 0.  1.
     999901    1    3    3    0    0 -0.50691738154E-01  0.60776649071E-02 -0.10930897763E+00  0.88823141293E+00  0.88000000000E+00 0. -1.
        -11    1    4    4    0    0  0.46971743456E-01  0.71248785558E-02  0.99962050959E-01  0.11067873025E+00  0.51100000000E-03 0. -1.
         11    1    4    4    0    0  0.10988253021E-01  0.87885246988E-02  0.15615177156E-01  0.21025573701E-01  0.51100000000E-03 0.  1.
</event>
<event>
 8    1  0.1208168E+005  0.1043930E+01  0.7957747E-01            NaN
         13   -1    0    0    0    0  0.00000000000E+00  0.00000000000E+00  0.74505805969E-08  0.10566000000E+00  0.10566000000E+00 0.  1.
     999900   -1    0    0    0    0 -0.00000000000E+00 -0.00000000000E+00 -0.74505805969E-08  0.93827000000E+00  0.93827000000E+00 0. -1.
     999902    2    1    2    0    0 -0.92442790019E-02 -0.19445932295E-01 -0.94240881872E-02  0.10204265021E+01  0.10201557880E+01 0.  0.
     999903    2    3    3    0    0  0.53398677535E-01 -0.33481371140E-01 -0.11403171498E+00  0.13190869744E+00  0.20597365457E-01 0.  0.
         14    1    1    2    0    0  0.92442790019E-02  0.19445932295E-01  0.94240881872E-02  0.23503497936E-01  0.00000000000E+00 0.  1.
     999901    1    3    3    0    0 -0.62642956537E-01  0.14035438844E-01  0.10460762679E+00  0.88851780462E+00  0.88000000000E+00 0. -1.
        -11    1    4    4    0    0  0.12758692410E-02 -0.74708912401E-02 -0.87707277128E-02  0.11602967028E-01  0.51100000000E-03 0.  1.
         11    1    4    4    0    0  0.52122808294E-01 -0.26010479899E-01 -0.10526098727E+00  0.12030573041E+00  0.51100000000E-03 0. -1.
</event>
<event>
 8    1  0.1208168E+005  0.1043930E+01  0.7957747E-01            NaN
         13   -1    0    0    0    0  0.00000000000E+00  0.00000000000E+00  0.74505805969E-08  0.10566000000E+00  0.10566000000E+00 0.  1.
     999900   -1    0    0    0    0 -0.00000000000E+00 -0.00000000000E+00 -0.74505805969E-08  0.93827000000E+00  0.93827000000E+00 0. -1.
     999902    2    1    2    0    0 -0.80723971999E-02 -0.38961837813E-02  0.21171920385E-01  0.10209388265E+01  0.10206799172E+01 0.  0.
     999903    2    3    3    0    0 -0.31517331675E-01 -0.11635431808E+00 -0.46821595289E-01  0.13087162958E+00  0.20086117348E-01 0.  0.
         14    1    1    2    0    0  0.80723971999E-02  0.38961837813E-02 -0.21171920385E-01  0.22991173467E-01  0.00000000000E+00 0. -1.
     999901    1    3    3    0    0  0.23444934475E-01  0.11245813430E+00  0.67993515674E-01  0.89006719696E+00  0.88000000000E+00 0.  1.
        -11    1    4    4    0    0 -0.15105210110E-01 -0.67251357971E-01 -0.16520104268E-01  0.70880797734E-01  0.51100000000E-03 0. -1.
         11    1    4    4    0    0 -0.16412121566E-01 -0.49102960112E-01 -0.30301491021E-01  0.59990831843E-01  0.51100000000E-03 0.  1.
</event>
<event>
 8    1  0.1208168E+005  0.1043930E+01  0.7957747E-01            NaN
         13   -1    0    0    0    0  0.00000000000E+00  0.00000000000E+00  0.74505805969E-08  0.10566000000E+00  0.10566000000E+00 0. -1.
     999900   -1    0    0    0    0 -0.00000000000E+00 -0.00000000000E+00 -0.74505805969E-08  0.93827000000E+00  0.93827000000E+00 0. -1.
     999902    2    1    2    0    0  0.22125291916E-01  0.32122961467E-02 -0.63396553120E-02  0.10206912690E+01  0.10204266892E+01 0.  0.
     999903    2    3    3    0    0 -0.66592568283E-01  0.18719373693E-01  0.10696159569E+00  0.12886813539E+00  0.19525067582E-01 0.  0.
         14    1    1    2    0    0 -0.22125291916E-01 -0.32122961467E-02  0.63396553120E-02  0.23238730997E-01  0.00000000000E+00 0.  1.
     999901    1    3    3    0    0  0.88717860199E-01 -0.15507077547E-01 -0.11330125100E+00  0.89182313361E+00  0.88000000000E+00 0. -1.
        -11    1    4    4    0    0 -0.17889188185E-01  0.14164907937E-01  0.37764769216E-01  0.44126030704E-01  0.51100000000E-03 0. -1.
         11    1    4    4    0    0 -0.48703380098E-01  0.45544657566E-02  0.69196826473E-01  0.84742104684E-01  0.51100000000E-03 0.  1.
</event>
<event>
 8    1  0.1208168E+005  0.1043930E+01  0.7957747E-01            NaN
         13   -1    0    0    0    0  0.00000000000E+00  0.00000000000E+00  0.74505805969E-08  0.10566000000E+00  0.10566000000E+00 0. -1.
     999900   -1    0    0    0    0 -0.00000000000E+00 -0.00000000000E+00 -0.74505805969E-08  0.93827000000E+00  0.93827000000E+00 0.  1.
     999902    2    1    2    0    0  0.14293476679E-01  0.18520290643E-01  0.21373963179E-02  0.10204380204E+01  0.10201675747E+01 0.  0.
     999903    2    3    3    0    0  0.91378230481E-01 -0.87295493170E-01  0.25326942748E-01  0.13045105736E+00  0.20138028789E-01 0.  0.
         14    1    1    2    0    0 -0.14293476679E-01 -0.18520290643E-01 -0.21373963179E-02  0.23491979570E-01  0.00000000000E+00 0. -1.
     999901    1    3    3    0    0 -0.77084753802E-01  0.10581578381E+00 -0.23189546430E-01  0.88998696307E+00  0.88000000000E+00 0.  1.
        -11    1    4    4    0    0  0.38353314908E-01 -0.43279883279E-01  0.20539999058E-01  0.61370006872E-01  0.51100000000E-03 0. -1.
         11    1    4    4    0    0  0.53024915573E-01 -0.44015609890E-01  0.47869436901E-02  0.69081050487E-01  0.51100000000E-03 0.  1.
</event>
<event>
 8    1  0.1208168E+005  0.1043930E+01  0.7957747E-01            NaN
         13   -1    0    0    0    0  0.00000000000E+00  0.00000000000E+00  0.74505805969E-08  0.10566000000E+00  0.10566000000E+00 0.  1.
     999900   -1    0    0    0    0 -0.00000000000E+00 -0.00000000000E+00 -0.74505805969E-08  0.93827000000E+00  0.93827000000E+00 0. -1.
     999902    2    1    2    0    0  0.11263390800E-01 -0.17043920981E-01 -0.11144940595E-01  0.10206583667E+01  0.10203930285E+01 0.  0.
     999903    2    3    3    0    0  0.11823458765E+00 -0.10689653741E-01  0.53514243519E-01  0.13180290954E+00  0.20360409889E-01 0.  0.
         14    1    1    2    0    0 -0.11263390800E-01  0.17043920981E-01  0.11144940595E-01  0.23271633282E-01  0.00000000000E+00 0.  1.
     999901    1    3    3    0    0 -0.10697119685E+00 -0.63542672401E-02 -0.64659184114E-01  0.88885545718E+00  0.88000000000E+00 0. -1.
        -11    1    4    4    0    0  0.62256397410E-01  0.42515084423E-02  0.30516761045E-01  0.69465589814E-01  0.51100000000E-03 0.  1.
         11    1    4    4    0    0  0.55978190235E-01 -0.14941162183E-01  0.22997482474E-01  0.62337319725E-01  0.51100000000E-03 0. -1.
</event>
<event>
 8    1  0.1208168E+005  0.1043930E+01  0.7957747E-01            NaN
         13   -1    0    0    0    0  0.00000000000E+00  0.00000000000E+00  0.74505805969E-08  0.10566000000E+00  0.10566000000E+00 0. -1.
     999900   -1    0    0    0    0 -0.00000000000E+00 -0.00000000000E+00 -0.74505805969E-08  0.93827000000E+00  0.93827000000E+00 0.  1.
     999902    2    1    2    0    0 -0.16822862026E-01  0.11439932837E-01  0.16016718927E-01  0.10180376066E+01  0.10177082846E+01 0.  0.
     999903    2    3    3    0    0  0.10288315542E+00  0.23185903923E-01  0.70067714681E-01  0.12821233804E+00  0.20159096616E-01 0.  0.
         14    1    1    2    0    0  0.16822862026E-01 -0.11439932837E-01 -0.16016718927E-01  0.25892393386E-01  0.00000000000E+00 0.  1.
     999901    1    3    3    0    0 -0.11970601744E+00 -0.11745971085E-01 -0.54050995754E-01  0.88982526857E+00  0.88000000000E+00 0. -1.
        -11    1    4    4    0    0  0.73338449143E-01  0.20066797123E-01  0.59938808804E-01  0.96820072255E-01  0.51100000000E-03 0.  1.
         11    1    4    4    0    0  0.29544706273E-01  0.31191067995E-02  0.10128905877E-01  0.31392265787E-01  0.51100000000E-03 0. -1.
</event>
<event>
 8    1  0.1208168E+005  0.1043930E+01  0.7957747E-01            NaN
         13   -1    0    0    0    0  0.00000000000E+00  0.00000000000E+00  0.74505805969E-08  0.10566000000E+00  0.10566000000E+00 0.  1.
     999900   -1    0    0    0    0 -0.00000000000E+00 -0.00000000000E+00 -0.74505805969E-08  0.93827000000E+00  0.93827000000E+00 0. -1.
     999902    2    1    2    0    0  0.11586573483E-01 -0.11979325720E-01 -0.16303364385E-01  0.10206157850E+01  0.10203494637E+01 0.  0.
     999903    2    3    3    0    0 -0.40461554369E-02 -0.80929898268E-01  0.99784287799E-01  0.13018055062E+00  0.20592519550E-01 0.  0.
         14    1    1    2    0    0 -0.11586573483E-01  0.11979325720E-01  0.16303364385E-01  0.23314214979E-01  0.00000000000E+00 0.  1.
     999901    1    3    3    0    0  0.15632728920E-01  0.68950572548E-01 -0.11608765218E+00  0.89043523440E+00  0.88000000000E+00 0. -1.
        -11    1    4    4    0    0  0.58700068149E-02 -0.30379533703E-01  0.27380736866E-01  0.41319957894E-01  0.51100000000E-03 0.  1.
         11    1    4    4    0    0 -0.99161622518E-02 -0.50550364565E-01  0.72403550933E-01  0.88860592729E-01  0.51100000000E-03 0. -1.
</event>
<event>
 8    1  0.1208168E+005  0.1043930E+01  0.7957747E-01            NaN
         13   -1    0    0    0    0  0.00000000000E+00  0.00000000000E+00  0.74505805969E-08  0.10566000000E+00  0.10566000000E+00 0. -1.
     999900   -1    0    0    0    0 -0.00000000000E+00 -0.00000000000E+00 -0.74505805969E-08  0.93827000000E+00  0.93827000000E+00 0.  1.
     999902    2    1    2    0    0  0.16110125191E-01  0.36934065977E-02  0.17112874888E-01  0.10201386597E+01  0.10198611950E+01 0.  0.
     999903    2    3    3    0    0 -0.11272913329E+00 -0.56779586134E-01 -0.10873306234E-01  0.12826436155E+00  0.20043421938E-01 0.  0.
         14    1    1    2    0    0 -0.16110125191E-01 -0.36934065977E-02 -0.17112874888E-01  0.23791340292E-01  0.00000000000E+00 0.  1.
     999901    1    3    3    0    0  0.12883925848E+00  0.60472992732E-01  0.27986181122E-01  0.89187429815E+00  0.88000000000E+00 0.  1.
        -11    1    4    4    0    0 -0.61534365085E-01 -0.37379588270E-01  0.19766836016E-02  0.72026940132E-01  0.51100000000E-03 0. -1.
         11    1    4    4    0    0 -0.51194768202E-01 -0.19399997864E-01 -0.12849989836E-01  0.56237421422E-01  0.51100000000E-03 0.  1.
</event>
<event>
 8    1  0.1208168E+005  0.1043930E+01  0.7957747E-01            NaN
         13   -1    0    0    0    0  0.00000000000E+00  0.00000000000E+00  0.74505805969E-08  0.10566000000E+00  0.10566000000E+00 0. -1.
     999900   -1    0    0    0    0 -0.00000000000E+00 -0.00000000000E+00 -0.74505805969E-08  0.93827000000E+00  0.93827000000E+00 0.  1.
     999902    2    1    2    0    0  0.40360944211E-02  0.11612736611E-01 -0.19905831287E-01  0.10205336792E+01  0.10202654569E+01 0.  0.
     999903    2    3    3    0    0 -0.89495405602E-01 -0.91278576703E-01 -0.48256057136E-02  0.12948812642E+00  0.20066943563E-01 0.  0.
         14    1    1    2    0    0 -0.40360944211E-02 -0.11612736611E-01  0.19905831287E-01  0.23396320843E-01  0.00000000000E+00 0. -1.
     999901    1    3    3    0    0  0.93531500024E-01  0.10289131331E+00 -0.15080225573E-01  0.89104555274E+00  0.88000000000E+00 0.  1.
        -11    1    4    4    0    0 -0.53816789144E-01 -0.48730429539E-01  0.62257164237E-02  0.72869213134E-01  0.51100000000E-03 0.  1.
         11    1    4    4    0    0 -0.35678616459E-01 -0.42548147165E-01 -0.11051322137E-01  0.56618913285E-01  0.51100000000E-03 0. -1.
</event>
<event>
 8    1  0.1208168E+005  0.1043930E+01  0.7957747E-01            NaN
         13   -1    0    0    0    0  0.00000000000E+00  0.00000000000E+00  0.74505805969E-08  0.10566000000E+00  0.10566000000E+00 0.  1.
     999900   -1    0    0    0    0 -0.00000000000E+00 -0.00000000000E+00 -0.74505805969E-08  0.93827000000E+00  0.93827000000E+00 0.  1.
     999902    2    1    2    0    0 -0.15406707742E-01  0.13624622305E-01  0.12785993382E-01  0.10197126797E+01  0.10194250686E+01 0.  0.
     999903    2    3    3    0    0  0.53926733189E-01  0.55564219121E-01  0.10345391351E+00  0.13135085726E+00  0.23555476690E-01 0.  0.
         14    1    1    2    0    0  0.15406707742E-01 -0.13624622305E-01 -0.12785993382E-01  0.24217320314E-01  0.00000000000E+00 0. -1.
     999901    1    3    3    0    0 -0.69333440931E-01 -0.41939596816E-01 -0.90667920128E-01  0.88836182243E+00  0.88000000000E+00 0.  1.
        -11    1    4    4    0    0  0.46086635457E-01  0.53634251938E-01  0.81226494185E-01  0.10769686823E+00  0.51100000000E-03 0. -1.
         11    1    4    4    0    0  0.78400977324E-02  0.19299671828E-02  0.22227419325E-01  0.23653989022E-01  0.51100000000E-03 0.  1.
</event>
<event>
 8    1  0.1208168E+005  0.1043930E+01  0.7957747E-01            NaN
         13   -1    0    0    0    0  0.00000000000E+00  0.00000000000E+00  0.74505805969E-08  0.10566000000E+00  0.10566000000E+00 0.  1.
     999900   -1    0    0    0    0 -0.00000000000E+00 -0.00000000000E+00 -0.74505805969E-08  0.93827000000E+00  0.93827000000E+00 0.  1.
     999902    2    1    2    0    0  0.17354455393E-01  0.17857932384E-01 -0.11854328831E-01  0.10163508778E+01  0.10159766231E+01 0.  0.
     999903    2    3    3    0    0  0.10145020337E+00  0.71120216182E-01  0.32090091652E-01  0.12964908021E+00  0.20709444768E-01 0.  0.
         14    1    1    2    0    0 -0.17354455393E-01 -0.17857932384E-01  0.11854328831E-01  0.27579122231E-01  0.00000000000E+00 0.  1.
     999901    1    3    3    0    0 -0.84095747981E-01 -0.53262283798E-01 -0.43944420483E-01  0.88670179756E+00  0.88000000000E+00 0.  1.
        -11    1    4    4    0    0  0.75590269170E-01  0.43781343665E-01  0.28292283311E-01  0.91822705592E-01  0.51100000000E-03 0. -1.
         11    1    4    4    0    0  0.25859934204E-01  0.27338872516E-01  0.37978083410E-02  0.37826374617E-01  0.51100000000E-03 0.  1.
</event>
<event>
 8    1  0.1208168E+005  0.1043930E+01  0.7957747E-01            NaN
         13   -1    0    0    0    0  0.00000000000E+00  0.00000000000E+00  0.74505805969E-08  0.10566000000E+00  0.10566000000E+00 0. -1.
     999900   -1    0    0    0    0 -0.00000000000E+00 -0.00000000000E+00 -0.74505805969E-08  0.93827000000E+00  0.93827000000E+00 0.  1.
     999902    2    1    2    0    0 -0.18827498915E-02  0.20854852717E-01  0.11195859992E-01  0.10201851709E+01  0.10199088028E+01 0.  0.
     999903    2    3    3    0    0 -0.10945442642E+00  0.64052907144E-01 -0.29488595691E-01  0.13165100585E+00  0.19477260806E-01 0.  0.
         14    1    1    2    0    0  0.18827498915E-02 -0.20854852717E-01 -0.11195859992E-01  0.23744829121E-01  0.00000000000E+00 0.  1.
     999901    1    3    3    0    0  0.10757167653E+00 -0.43198054426E-01  0.40684455683E-01  0.88853416503E+00  0.88000000000E+00 0. -1.
        -11    1    4    4    0    0 -0.49013852296E-01  0.37263010896E-01 -0.20683663370E-01  0.64953558404E-01  0.51100000000E-03 0. -1.
         11    1    4    4    0    0 -0.60440574122E-01  0.26789896248E-01 -0.88049323210E-02  0.66697447443E-01  0.51100000000E-03 0.  1.
</event>
<event>
 8    1  0.1208168E+005  0.1043930E+01  0.7957747E-01            NaN
         13   -1    0    0    0    0  0.00000000000E+00  0.00000000000E+00  0.74505805969E-08  0.10566000000E+00  0.10566000000E+00 0. -1.
     999900   -1    0    0    0    0 -0.00000000000E+00 -0.00000000000E+00 -0.74505805969E-08  0.93827000000E+00  0.93827000000E+00 0. -1.
     999902    2    1    2    0    0  0.32366759673E-02 -0.42221200004E-02 -0.23562518899E-01  0.10197743658E+01  0.10194882355E+01 0.  0.
     999903    2    3    3    0    0  0.46786950190E-01  0.11909952676E+00 -0.30995352024E-03  0.12980496362E+00  0.21806341438E-01 0.  0.
         14    1    1    2    0    0 -0.32366759673E-02  0.42221200004E-02  0.23562518899E-01  0.24155634239E-01  0.00000000000E+00 0. -1.
     999901    1    3    3    0    0 -0.43550274222E-01 -0.12332164676E+00 -0.23252565379E-01  0.88996940214E+00  0.88000000000E+00 0.  1.
        -11    1    4    4    0    0  0.45689283174E-01  0.94660691435E-01  0.27375974853E-02  0.10514710011E+00  0.51100000000E-03 0.  1.
         11    1    4    4    0    0  0.10976670153E-02  0.24438835328E-01 -0.30475510055E-02  0.24657863516E-01  0.51100000000E-03 0. -1.
</event>
<event>
 8    1  0.1208168E+005  0.1043930E+01  0.7957747E-01            NaN
         13   -1    0    0    0    0  0.00000000000E+00  0.00000000000E+00  0.74505805969E-08  0.10566000000E+00  0.10566000000E+00 0. -1.
     999900   -1    0    0    0    0 -0.00000000000E+00 -0.00000000000E+00 -0.74505805969E-08  0.93827000000E+00  0.93827000000E+00 0. -1.
     999902    2    1    2    0    0 -0.93594788431E-02  0.20603085651E-01 -0.90352006803E-02  0.10195635921E+01  0.10192723858E+01 0.  0.
     999903    2    3    3    0    0 -0.50245263534E-01  0.50480568814E-02 -0.11979192965E+00  0.13154295083E+00  0.20084126027E-01 0.  0.
         14    1    1    2    0    0  0.93594788431E-02 -0.20603085651E-01  0.90352006803E-02  0.24366407899E-01  0.00000000000E+00 0. -1.
     999901    1    3    3    0    0  0.40885784691E-01  0.15555028770E-01  0.11075672897E+00  0.88802064127E+00  0.88000000000E+00 0.  1.
        -11    1    4    4    0    0 -0.37951549682E-01  0.87225815135E-03 -0.10600282040E+00  0.11259635878E+00  0.51100000000E-03 0. -1.
         11    1    4    4    0    0 -0.12293713852E-01  0.41757987301E-02 -0.13789109248E-01  0.18946592046E-01  0.51100000000E-03 0.  1.
</event>
<event>
 8    1  0.1208168E+005  0.1043930E+01  0.7957747E-01            NaN
         13   -1    0    0    0    0  0.00000000000E+00  0.00000000000E+00  0.74505805969E-08  0.10566000000E+00  0.10566000000E+00 0. -1.
     999900   -1    0    0    0    0 -0.00000000000E+00 -0.00000000000E+00 -0.74505805969E-08  0.93827000000E+00  0.93827000000E+00 0.  1.
     999902    2    1    2    0    0  0.14968308505E-01  0.18664141484E-01  0.60445458989E-02  0.10192533517E+01  0.10189545907E+01 0.  0.
     999903    2    3    3    0    0 -0.52437087999E-01 -0.10931756076E+00  0.28412184560E-01  0.12716416621E+00  0.25758409278E-01 0.  0.
         14    1    1    2    0    0 -0.14968308505E-01 -0.18664141484E-01 -0.60445458989E-02  0.24676648312E-01  0.00000000000E+00 0.  1.
     999901    1    3    3    0    0  0.67405396503E-01  0.12798170224E+00 -0.22367638661E-01  0.89208918548E+00  0.88000000000E+00 0.  1.
        -11    1    4    4    0    0 -0.19181456929E-01 -0.69320812281E-01  0.16949339604E-01  0.73897527288E-01  0.51100000000E-03 0.  1.
         11    1    4    4    0    0 -0.33255631070E-01 -0.39996748477E-01  0.11462844956E-01  0.53266638922E-01  0.51100000000E-03 0. -1.
</event>
<event>
 8    1  0.1208168E+005  0.1043930E+01  0.7957747E-01            NaN
         13   -1    0    0    0    0  0.00000000000E+00  0.00000000000E+00  0.74505805969E-08  0.10566000000E+00  0.10566000000E+00 0.  1.
     999900   -1    0    0    0    0 -0.00000000000E+00 -0.00000000000E+00 -0.74505805969E-08  0.93827000000E+00  0.93827000000E+00 0. -1.
     999902    2    1    2    0    0 -0.10530389442E-01 -0.16937599219E-01 -0.14690893688E-01  0.10191591759E+01  0.10188581020E+01 0.  0.
     999903    2    3    3    0    0 -0.60737793332E-01  0.91760274083E-01 -0.65527686980E-01  0.12959726652E+00  0.19812780999E-01 0.  0.
         14    1    1    2    0    0  0.10530389442E-01  0.16937599219E-01  0.14690893688E-01  0.24770824097E-01  0.00000000000E+00 0.  1.
     999901    1    3    3    0    0  0.50207403890E-01 -0.10869787330E+00  0.50836793292E-01  0.88956190938E+00  0.88000000000E+00 0.  1.
        -11    1    4    4    0    0 -0.40490659690E-01  0.43456546668E-01 -0.33236692379E-01  0.68065437718E-01  0.51100000000E-03 0.  1.
         11    1    4    4    0    0 -0.20247133642E-01  0.48303727415E-01 -0.32290994601E-01  0.61531828806E-01  0.51100000000E-03 0. -1.
</event>
<event>
 8    1  0.1208168E+005  0.1043930E+01  0.7957747E-01            NaN
         13   -1    0    0    0    0  0.00000000000E+00  0.00000000000E+00  0.74505805969E-08  0.10566000000E+00  0.10566000000E+00 0.  1.
     999900   -1    0    0    0    0 -0.00000000000E+00 -0.00000000000E+00 -0.74505805969E-08  0.93827000000E+00  0.93827000000E+00 0. -1.
     999902    2    1    2    0    0  0.77458101298E-02 -0.12578586878E-01  0.18286208204E-01  0.10204224728E+01  0.10201516648E+01 0.  0.
     999903    2    3    3    0    0 -0.94567896059E-01 -0.31402418545E-01 -0.79347310446E-01  0.12893229619E+00  0.19958518731E-01 0.  0.
         14    1    1    2    0    0 -0.77458101298E-02  0.12578586878E-01 -0.18286208204E-01  0.23507527154E-01  0.00000000000E+00 0. -1.
     999901    1    3    3    0    0  0.10231370619E+00  0.18823831668E-01  0.97633518650E-01  0.89149017666E+00  0.88000000000E+00 0.  1.
        -11    1    4    4    0    0 -0.75481782100E-01 -0.27618040785E-01 -0.53413337731E-01  0.96506483587E-01  0.51100000000E-03 0. -1.
         11    1    4    4    0    0 -0.19086113959E-01 -0.37843777604E-02 -0.25933972715E-01  0.32425812602E-01  0.51100000000E-03 0.  1.
</event>
<event>
 8    1  0.1208168E+005  0.1043930E+01  0.7957747E-01            NaN
         13   -1    0    0    0    0  0.00000000000E+00  0.00000000000E+00  0.74505805969E-08  0.10566000000E+00  0.10566000000E+00 0.  1.
     999900   -1    0    0    0    0 -0.00000000000E+00 -0.00000000000E+00 -0.74505805969E-08  0.93827000000E+00  0.93827000000E+00 0. -1.
     999902    2    1    2    0    0 -0.78335786440E-02 -0.21520318874E-01 -0.36970292080E-02  0.10207317866E+01  0.10204681392E+01 0.  0.
     999903    2    3    3    0    0  0.77251653004E-01 -0.10536349276E+00  0.99644816002E-02  0.13255623454E+00  0.20064419286E-01 0.  0.
         14    1    1    2    0    0  0.78335786440E-02  0.21520318874E-01  0.36970292080E-02  0.23198213375E-01  0.00000000000E+00 0.  1.
     999901    1    3    3    0    0 -0.85085231648E-01  0.83843173891E-01 -0.13661510808E-01  0.88817555209E+00  0.88000000000E+00 0. -1.
        -11    1    4    4    0    0  0.55508483319E-01 -0.64442265492E-01 -0.46274887623E-03  0.85055702687E-01  0.51100000000E-03 0. -1.
         11    1    4    4    0    0  0.21743169685E-01 -0.40921227273E-01  0.10427230476E-01  0.47500531849E-01  0.51100000000E-03 0.  1.
</event>
<event>
 8    1  0.1208168E+005  0.1043930E+01  0.7957747E-01            NaN
         13   -1    0    0    0    0  0.00000000000E+00  0.00000000000E+00  0.74505805969E-08  0.10566000000E+00  0.10566000000E+00 0. -1.
     999900   -1    0    0    0    0 -0.00000000000E+00 -0.00000000000E+00 -0.74505805969E-08  0.93827000000E+00  0.93827000000E+00 0. -1.
     999902    2    1    2    0    0  0.19958989539E-01  0.70149105759E-02 -0.69979067112E-02  0.10216468016E+01  0.10214037626E+01 0.  0.
     999903    2    3    3    0    0  0.13083569450E+00  0.80161922764E-02 -0.22760533296E-01  0.13454866345E+00  0.20076420624E-01 0.  0.
         14    1    1    2    0    0 -0.19958989539E-01 -0.70149105759E-02  0.69979067112E-02  0.22283198427E-01  0.00000000000E+00 0.  1.
     999901    1    3    3    0    0 -0.11087670496E+00 -0.10012817004E-02  0.15762626585E-01  0.88709813813E+00  0.88000000000E+00 0.  1.
        -11    1    4    4    0    0  0.54840933327E-01 -0.62420746536E-02 -0.11922463078E-01  0.56470325933E-01  0.51100000000E-03 0. -1.
         11    1    4    4    0    0  0.75994761176E-01  0.14258266930E-01 -0.10838070218E-01  0.78078337515E-01  0.51100000000E-03 0.  1.
</event>
<event>
 8    1  0.1208168E+005  0.1043930E+01  0.7957747E-01            NaN
         13   -1    0    0    0    0  0.00000000000E+00  0.00000000000E+00  0.74505805969E-08  0.10566000000E+00  0.10566000000E+00 0.  1.
     999900   -1    0    0    0    0 -0.00000000000E+00 -0.00000000000E+00 -0.74505805969E-08  0.93827000000E+00  0.93827000000E+00 0.  1.
     999902    2    1    2    0    0 -0.92915742005E-02 -0.23649149212E-01  0.54260814178E-02  0.10179481223E+01  0.10176164905E+01 0.  0.
     999903    2    3    3    0    0 -0.47535878717E-01 -0.99919311435E-01  0.68299645350E-01  0.13158879927E+00  0.20180237236E-01 0.  0.
         14    1    1    2    0    0  0.92915742005E-02  0.23649149212E-01 -0.54260814178E-02  0.25981877706E-01  0.00000000000E+00 0.  1.
     999901    1    3    3    0    0  0.38244304517E-01  0.76270162223E-01 -0.62873563932E-01  0.88635932303E+00  0.88000000000E+00 0.  1.
        -11    1    4    4    0    0 -0.18764799334E-01 -0.19873918272E-01  0.18729854289E-01  0.33138480415E-01  0.51100000000E-03 0. -1.
         11    1    4    4    0    0 -0.28771079383E-01 -0.80045393163E-01  0.49569791061E-01  0.98450318853E-01  0.51100000000E-03 0.  1.
</event>
<event>
 8    1  0.1208168E+005  0.1043930E+01  0.7957747E-01            NaN
         13   -1    0    0    0    0  0.00000000000E+00  0.00000000000E+00  0.74505805969E-08  0.10566000000E+00  0.10566000000E+00 0. -1.
     999900   -1    0    0    0    0 -0.00000000000E+00 -0.00000000000E+00 -0.74505805969E-08  0.93827000000E+00  0.93827000000E+00 0.  1.
     999902    2    1    2    0    0  0.14646632899E-02  0.83305018250E-02 -0.22016921888E-01  0.10203442554E+01  0.10200716211E+01 0.  0.
     999903    2    3    3    0    0  0.89290245658E-01 -0.89992280355E-01 -0.24432770776E-01  0.13052037465E+00  0.19163752717E-01 0.  0.
         14    1    1    2    0    0 -0.14646632899E-02 -0.83305018250E-02  0.22016921888E-01  0.23585744607E-01  0.00000000000E+00 0. -1.
     999901    1    3    3    0    0 -0.87825582368E-01  0.98322782180E-01  0.24158488876E-02  0.88982388074E+00  0.88000000000E+00 0. -1.
        -11    1    4    4    0    0  0.22955243481E-01 -0.35675397199E-01 -0.63765336863E-02  0.42902196580E-01  0.51100000000E-03 0. -1.
         11    1    4    4    0    0  0.66335002177E-01 -0.54316883156E-01 -0.18056237090E-01  0.87618178070E-01  0.51100000000E-03 0.  1.
</event>
<event>
 8    1  0.1208168E+005  0.1043930E+01  0.7957747E-01            NaN
         13   -1    0    0    0    0  0.00000000000E+00  0.00000000000E+00  0.74505805969E-08  0.10566000000E+00  0.10566000000E+00 0. -1.
     999900   -1    0    0    0    0 -0.00000000000E+00 -0.00000000000E+00 -0.74505805969E-08  0.93827000000E+00  0.93827000000E+00 0. -1.
     999902    2    1    2    0    0 -0.87689258294E-02 -0.21062329467E-01 -0.68032728013E-02  0.10201224318E+01  0.10198445840E+01 0.  0.
     999903    2    3    3    0    0  0.62029514209E-01 -0.28808126874E-01 -0.11010505973E+00  0.13122216986E+00  0.20458858209E-01 0.  0.
         14    1    1    2    0    0  0.87689258294E-02  0.21062329467E-01  0.68032728013E-02  0.23807568200E-01  0.00000000000E+00 0.  1.
     999901    1    3    3    0    0 -0.70798440039E-01  0.77457974072E-02  0.10330178693E+00  0.88890026194E+00  0.88000000000E+00 0.  1.
        -11    1    4    4    0    0  0.48934543585E-01 -0.24583526258E-01 -0.70370391910E-01  0.89169459445E-01  0.51100000000E-03 0.  1.
         11    1    4    4    0    0  0.13094970624E-01 -0.42246006155E-02 -0.39734667817E-01  0.42052710419E-01  0.51100000000E-03 0. -1.
</event>
<event>
 8    1  0.1208168E+005  0.1043930E+01  0.7957747E-01            NaN
         13   -1    0    0    0    0  0.00000000000E+00  0.00000000000E+00  0.74505805969E-08  0.10566000000E+00  0.10566000000E+00 0.  1.
     999900   -1    0    0    0    0 -0.00000000000E+00 -0.00000000000E+00 -0.74505805969E-08  0.93827000000E+00  0.93827000000E+00 0. -1.
     999902    2    1    2    0    0 -0.12521800417E-01 -0.20639752022E-01 -0.72894105947E-02  0.10187123404E+01  0.10184001680E+01 0.  0.
     999903    2    3    3    0    0 -0.12507146069E+00 -0.16447707507E-01 -0.31162209392E-01  0.13121309544E+00  0.18231724030E-01 0.  0.
         14    1    1    2    0    0  0.12521800417E-01  0.20639752022E-01  0.72894105947E-02  0.25217659607E-01  0.00000000000E+00 0.  1.
     999901    1    3    3    0    0  0.11254966027E+00 -0.41920445154E-02  0.23872798797E-01  0.88749924495E+00  0.88000000000E+00 0.  1.
        -11    1    4    4    0    0 -0.21967132137E-01 -0.76084286955E-02 -0.11247820756E-01  0.25830556988E-01  0.51100000000E-03 0. -1.
         11    1    4    4    0    0 -0.10310432855E+00 -0.88392788112E-02 -0.19914388636E-01  0.10538253846E+00  0.51100000000E-03 0.  1.
</event>
<event>
 8    1  0.1208168E+005  0.1043930E+01  0.7957747E-01            NaN
         13   -1    0    0    0    0  0.00000000000E+00  0.00000000000E+00  0.74505805969E-08  0.10566000000E+00  0.10566000000E+00 0. -1.
     999900   -1    0    0    0    0 -0.00000000000E+00 -0.00000000000E+00 -0.74505805969E-08  0.93827000000E+00  0.93827000000E+00 0.  1.
     999902    2    1    2    0    0 -0.85003287550E-02 -0.20978160045E-01 -0.83498710407E-02  0.10198040983E+01  0.10195186804E+01 0.  0.
     999903    2    3    3    0    0 -0.93407325849E-02  0.75787839958E-01  0.10053303249E+00  0.12782884541E+00  0.20056847384E-01 0.  0.
         14    1    1    2    0    0  0.85003287550E-02  0.20978160045E-01  0.83498710407E-02  0.24125901728E-01  0.00000000000E+00 0. -1.
     999901    1    3    3    0    0  0.84040382991E-03 -0.96766000003E-01 -0.10888290353E+00  0.89197525286E+00  0.88000000000E+00 0.  1.
        -11    1    4    4    0    0 -0.42901894851E-02  0.26806630879E-01  0.52141730630E-01  0.58787944164E-01  0.51100000000E-03 0. -1.
         11    1    4    4    0    0 -0.50505430998E-02  0.48981209079E-01  0.48391301859E-01  0.69040901247E-01  0.51100000000E-03 0.  1.
</event>
<event>
 8    1  0.1208168E+005  0.1043930E+01  0.7957747E-01            NaN
         13   -1    0    0    0    0  0.00000000000E+00  0.00000000000E+00  0.74505805969E-08  0.10566000000E+00  0.10566000000E+00 0.  1.
     999900   -1    0    0    0    0 -0.00000000000E+00 -0.00000000000E+00 -0.74505805969E-08  0.93827000000E+00  0.93827000000E+00 0. -1.
     999902    2    1    2    0    0 -0.13979354266E-01  0.39646486437E-02  0.17269371754E-01  0.10213607292E+01  0.10211113392E+01 0.  0.
     999903    2    3    3    0    0  0.49923148024E-01  0.28626015480E-01 -0.11396890039E+00  0.12899578316E+00  0.18418261165E-01 0.  0.
         14    1    1    2    0    0  0.13979354266E-01 -0.39646486437E-02 -0.17269371754E-01  0.22569270820E-01  0.00000000000E+00 0. -1.
     999901    1    3    3    0    0 -0.63902502290E-01 -0.24661366837E-01  0.13123827215E+00  0.89236494602E+00  0.88000000000E+00 0.  1.
        -11    1    4    4    0    0  0.45815676288E-01  0.21503349400E-01 -0.10632774405E+00  0.11775958774E+00  0.51100000000E-03 0.  1.
         11    1    4    4    0    0  0.41074717364E-02  0.71226660806E-02 -0.76411563449E-02  0.11236195417E-01  0.51100000000E-03 0. -1.
</event>
<event>
 8    1  0.1208168E+005  0.1043930E+01  0.7957747E-01            NaN
         13   -1    0    0    0    0  0.00000000000E+00  0.00000000000E+00  0.74505805969E-08  0.10566000000E+00  0.10566000000E+00 0. -1.
     999900   -1    0    0    0    0 -0.00000000000E+00 -0.00000000000E+00 -0.74505805969E-08  0.93827000000E+00  0.93827000000E+00 0.  1.
     999902    2    1    2    0    0 -0.44855333099E-02 -0.19159146541E-01  0.14556612146E-01  0.10194537286E+01  0.10191598583E+01 0.  0.
     999903    2    3    3    0    0  0.62659254475E-01 -0.36120874018E-01 -0.10455908145E+00  0.12873229559E+00  0.20211449832E-01 0.  0.
         14    1    1    2    0    0  0.44855333099E-02  0.19159146541E-01 -0.14556612146E-01  0.24476271416E-01  0.00000000000E+00 0. -1.
     999901    1    3    3    0    0 -0.67144787784E-01  0.16961727477E-01  0.11911569360E+00  0.89072143299E+00  0.88000000000E+00 0. -1.
        -11    1    4    4    0    0  0.26591293361E-01 -0.25639370591E-01 -0.59903264096E-01  0.70378522131E-01  0.51100000000E-03 0. -1.
         11    1    4    4    0    0  0.36067961113E-01 -0.10481503427E-01 -0.44655817354E-01  0.58353773464E-01  0.51100000000E-03 0.  1.
</event>
<event>
 8    1  0.1208168E+005  0.1043930E+01  0.7957747E-01            NaN
         13   -1    0    0    0    0  0.00000000000E+00  0.00000000000E+00  0.74505805969E-08  0.10566000000E+00  0.10566000000E+00 0.  1.
     999900   -1    0    0    0    0 -0.00000000000E+00 -0.00000000000E+00 -0.74505805969E-08  0.93827000000E+00  0.93827000000E+00 0.  1.
     999902    2    1    2    0    0 -0.14746255193E-01  0.18595840632E-01  0.68276995155E-02  0.10192343564E+01  0.10189351297E+01 0.  0.
     999903    2    3    3    0    0  0.10337603247E+00 -0.97204463928E-02 -0.71956151878E-01  0.12740388924E+00  0.16521865343E-01 0.  0.
         14    1    1    2    0    0  0.14746255193E-01 -0.18595840632E-01 -0.68276995155E-02  0.24695643577E-01  0.00000000000E+00 0.  1.
     999901    1    3    3    0    0 -0.11812228766E+00  0.28316287025E-01  0.78783851393E-01  0.89183046718E+00  0.88000000000E+00 0. -1.
        -11    1    4    4    0    0  0.12958589348E-01  0.24832997385E-02 -0.14353056395E-01  0.19502901435E-01  0.51100000000E-03 0. -1.
         11    1    4    4    0    0  0.90417443117E-01 -0.12203746131E-01 -0.57603095483E-01  0.10790098781E+00  0.51100000000E-03 0.  1.
</event>
<event>
 8    1  0.1208168E+005  0.1043930E+01  0.7957747E-01            NaN
         13   -1    0    0    0    0  0.00000000000E+00  0.00000000000E+00  0.74505805969E-08  0.10566000000E+00  0.10566000000E+00 0.  1.
     999900   -1    0    0    0    0 -0.00000000000E+00 -0.00000000000E+00 -0.74505805969E-08  0.93827000000E+00  0.93827000000E+00 0. -1.
     999902    2    1    2    0    0 -0.17834880197E-01 -0.14704673004E-01 -0.37935588757E-02  0.10205056228E+01  0.10202367493E+01 0.  0.
     999903    2    3    3    0    0  0.25625423336E-01 -0.10463352725E+00  0.72719201965E-01  0.13155669320E+00  0.20352981210E-01 0.  0.
         14    1    1    2    0    0  0.17834880197E-01  0.14704673004E-01  0.37935588757E-02  0.23424377233E-01  0.00000000000E+00 0. -1.
     999901    1    3    3    0    0 -0.43460303533E-01  0.89928854250E-01 -0.76512760840E-01  0.88894892957E+00  0.88000000000E+00 0.  1.
        -11    1    4    4    0    0  0.12281466682E-01 -0.19338425784E-01  0.10918399915E-01  0.25382705005E-01  0.51100000000E-03 0. -1.
         11    1    4    4    0    0  0.13343956654E-01 -0.85295101470E-01  0.61800802049E-01  0.10617398819E+00  0.51100000000E-03 0.  1.
</event>
<event>
 8    1  0.1208168E+005  0.1043930E+01  0.7957747E-01            NaN
         13   -1    0    0    0    0  0.00000000000E+00  0.00000000000E+00  0.74505805969E-08  0.10566000000E+00  0.10566000000E+00 0.  1.
     999900   -1    0    0    0    0 -0.00000000000E+00 -0.00000000000E+00 -0.74505805969E-08  0.93827000000E+00  0.93827000000E+00 0. -1.
     999902    2    1    2    0    0  0.16974813372E-01 -0.35355976623E-02  0.16988525022E-01  0.10196554305E+01  0.10193664416E+01 0.  0.
     999903    2    3    3    0    0  0.11269054535E+00  0.58033942487E-01  0.31620933179E-01  0.13220604213E+00  0.20284394737E-01 0.  0.
         14    1    1    2    0    0 -0.16974813372E-01  0.35355976623E-02 -0.16988525022E-01  0.24274569456E-01  0.00000000000E+00 0. -1.
     999901    1    3    3    0    0 -0.95715731977E-01 -0.61569540149E-01 -0.14632408157E-01  0.88744938841E+00  0.88000000000E+00 0. -1.
        -11    1    4    4    0    0  0.34462815461E-01  0.81052806093E-02  0.11676138327E-01  0.37282362459E-01  0.51100000000E-03 0. -1.
         11    1    4    4    0    0  0.78227729888E-01  0.49928661878E-01  0.19944794852E-01  0.94923679675E-01  0.51100000000E-03 0.  1.
</event>
<event>
 8    1  0.1208168E+005  0.1043930E+01  0.7957747E-01            NaN
         13   -1    0    0    0    0  0.00000000000E+00  0.00000000000E+00  0.74505805969E-08  0.10566000000E+00  0.10566000000E+00 0. -1.
     999900   -1    0    0    0    0 -0.00000000000E+00 -0.00000000000E+00 -0.74505805969E-08  0.93827000000E+00  0.93827000000E+00 0. -1.
     999902    2    1    2    0    0  0.10341441717E-01  0.23102354354E-01  0.93461815998E-03  0.10186014054E+01  0.10182864456E+01 0.  0.
     999903    2    3    3    0    0  0.75900969170E-01 -0.98134168967E-01 -0.22201891109E-01  0.12757298594E+00  0.19765387221E-01 0.  0.
         14    1    1    2    0    0 -0.10341441717E-01 -0.23102354354E-01 -0.93461815998E-03  0.25328594603E-01  0.00000000000E+00 0.  1.
     999901    1    3    3    0    0 -0.65559527453E-01  0.12123652332E+00  0.23136509269E-01  0.89102841946E+00  0.88000000000E+00 0. -1.
        -11    1    4    4    0    0  0.65131100523E-01 -0.93348270407E-01 -0.19806185714E-01  0.11553573455E+00  0.51100000000E-03 0.  1.
         11    1    4    4    0    0  0.10769868647E-01 -0.47858985592E-02 -0.23957053949E-02  0.12037251390E-01  0.51100000000E-03 0. -1.
</event>
<event>
 8    1  0.1208168E+005  0.1043930E+01  0.7957747E-01            NaN
         13   -1    0    0    0    0  0.00000000000E+00  0.00000000000E+00  0.74505805969E-08  0.10566000000E+00  0.10566000000E+00 0. -1.
     999900   -1    0    0    0    0 -0.00000000000E+00 -0.00000000000E+00 -0.74505805969E-08  0.93827000000E+00  0.93827000000E+00 0.  1.
     999902    2    1    2    0    0  0.97330122145E-02 -0.18292511957E-01 -0.13605927106E-01  0.10191415194E+01  0.10188400108E+01 0.  0.
     999903    2    3    3    0    0  0.31650799873E-01 -0.36785267122E-01 -0.12197666395E+00  0.13203014640E+00  0.14096950076E-01 0.  0.
         14    1    1    2    0    0 -0.97330122145E-02  0.18292511957E-01  0.13605927106E-01  0.24788480649E-01  0.00000000000E+00 0. -1.
     999901    1    3    3    0    0 -0.21917787658E-01  0.18492755165E-01  0.10837073684E+00  0.88711137295E+00  0.88000000000E+00 0. -1.
        -11    1    4    4    0    0  0.16789218888E-01 -0.10025624815E-01 -0.40086071574E-01  0.44604319063E-01  0.51100000000E-03 0.  1.
         11    1    4    4    0    0  0.14861580985E-01 -0.26759642307E-01 -0.81890592375E-01  0.87425827341E-01  0.51100000000E-03 0. -1.
</event>
<event>
 8    1  0.1208168E+005  0.1043930E+01  0.7957747E-01            NaN
         13   -1    0    0    0    0  0.00000000000E+00  0.00000000000E+00  0.74505805969E-08  0.10566000000E+00  0.10566000000E+00 0.  1.
     999900   -1    0    0    0    0 -0.00000000000E+00 -0.00000000000E+00 -0.74505805969E-08  0.93827000000E+00  0.93827000000E+00 0.  1.
     999902    2    1    2    0    0  0.21500826475E-01 -0.12690327971E-02  0.91584287431E-02  0.10205254534E+01  0.10202570403E+01 0.  0.
     999903    2    3    3    0    0 -0.10132064376E+00  0.49155857865E-01 -0.57533042188E-01  0.12807067281E+00  0.20245371723E-01 0.  0.
         14    1    1    2    0    0 -0.21500826475E-01  0.12690327971E-02 -0.91584287431E-02  0.23404546575E-01  0.00000000000E+00 0. -1.
     999901    1    3    3    0    0  0.12282147023E+00 -0.50424890662E-01  0.66691470931E-01  0.89245478062E+00  0.88000000000E+00 0. -1.
        -11    1    4    4    0    0 -0.56178644121E-01  0.17788875478E-01 -0.35841023762E-01  0.68973358997E-01  0.51100000000E-03 0. -1.
         11    1    4    4    0    0 -0.45141999637E-01  0.31366982387E-01 -0.21692018426E-01  0.59097313812E-01  0.51100000000E-03 0.  1.
</event>
<event>
 8    1  0.1208168E+005  0.1043930E+01  0.7957747E-01            NaN
         13   -1    0    0    0    0  0.00000000000E+00  0.00000000000E+00  0.74505805969E-08  0.10566000000E+00  0.10566000000E+00 0.  1.
     999900   -1    0    0    0    0 -0.00000000000E+00 -0.00000000000E+00 -0.74505805969E-08  0.93827000000E+00  0.93827000000E+00 0.  1.
     999902    2    1    2    0    0 -0.17695789160E-01 -0.22846875972E-02 -0.80272630311E-02  0.10243647833E+01  0.10241779199E+01 0.  0.
     999903    2    3    3    0    0 -0.62907596780E-01  0.59472145401E-01 -0.10290966005E+00  0.13596133713E+00  0.20019621637E-01 0.  0.
         14    1    1    2    0    0  0.17695789160E-01  0.22846875972E-02  0.80272630311E-02  0.19565216666E-01  0.00000000000E+00 0. -1.
     999901    1    3    3    0    0  0.45211807621E-01 -0.61756832998E-01  0.94882397018E-01  0.88840344621E+00  0.88000000000E+00 0. -1.
        -11    1    4    4    0    0 -0.22531087318E-01  0.29674621793E-01 -0.56016637468E-01  0.67278212436E-01  0.51100000000E-03 0. -1.
         11    1    4    4    0    0 -0.40376509462E-01  0.29797523608E-01 -0.46893022582E-01  0.68683124691E-01  0.51100000000E-03 0.  1.
</event>
<event>
 8    1  0.1208168E+005  0.1043930E+01  0.7957747E-01            NaN
         13   -1    0    0    0    0  0.00000000000E+00  0.00000000000E+00  0.74505805969E-08  0.10566000000E+00  0.10566000000E+00 0.  1.
     999900   -1    0    0    0    0 -0.00000000000E+00 -0.00000000000E+00 -0.74505805969E-08  0.93827000000E+00  0.93827000000E+00 0.  1.
     999902    2    1    2    0    0  0.21406135176E-01 -0.11550017726E-01  0.24794736697E-02  0.10194805967E+01  0.10191873791E+01 0.  0.
     999903    2    3    3    0    0  0.12771290066E+00 -0.55554080228E-02 -0.28910555403E-01  0.13250686672E+00  0.19514147675E-01 0.  0.
         14    1    1    2    0    0 -0.21406135176E-01  0.11550017726E-01 -0.24794736697E-02  0.24449403312E-01  0.00000000000E+00 0. -1.
     999901    1    3    3    0    0 -0.10630676549E+00 -0.59946097034E-02  0.31390029073E-01  0.88697372997E+00  0.88000000000E+00 0. -1.
        -11    1    4    4    0    0  0.41566940407E-01  0.55050644185E-02 -0.15057047360E-01  0.44554372010E-01  0.51100000000E-03 0. -1.
         11    1    4    4    0    0  0.86145960256E-01 -0.11060472441E-01 -0.13853508043E-01  0.87952494706E-01  0.51100000000E-03 0.  1.
</event>
<event>
 8    1  0.1208168E+005  0.1043930E+01  0.7957747E-01            NaN
         13   -1    0    0    0    0  0.00000000000E+00  0.00000000000E+00  0.74505805969E-08  0.10566000000E+00  0.10566000000E+00 0. -1.
     999900   -1    0    0    0    0 -0.00000000000E+00 -0.00000000000E+00 -0.74505805969E-08  0.93827000000E+00  0.93827000000E+00 0. -1.
     999902    2    1    2    0    0  0.11335259950E-01  0.94988149884E-02  0.17371919828E-01  0.10211155484E+01  0.10208606486E+01 0.  0.
     999903    2    3    3    0    0 -0.10418783405E+00  0.16775431378E-01 -0.71517168160E-01  0.12909547890E+00  0.20357246097E-01 0.  0.
         14    1    1    2    0    0 -0.11335259950E-01 -0.94988149884E-02 -0.17371919828E-01  0.22814451622E-01  0.00000000000E+00 0. -1.
     999901    1    3    3    0    0  0.11552309400E+00 -0.72766163898E-02  0.88889087987E-01  0.89202006948E+00  0.88000000000E+00 0.  1.
        -11    1    4    4    0    0 -0.69014140451E-01  0.19848471746E-01 -0.52762439089E-01  0.89112566524E-01  0.51100000000E-03 0.  1.
         11    1    4    4    0    0 -0.35173693597E-01 -0.30730403682E-02 -0.18754729071E-01  0.39982912373E-01  0.51100000000E-03 0. -1.
</event>
<event>
 8    1  0.1208168E+005  0.1043930E+01  0.7957747E-01            NaN
         13   -1    0    0    0    0  0.00000000000E+00  0.00000000000E+00  0.74505805969E-08  0.10566000000E+00  0.10566000000E+00 0. -1.
     999900   -1    0    0    0    0 -0.00000000000E+00 -0.00000000000E+00 -0.74505805969E-08  0.93827000000E+00  0.93827000000E+00 0.  1.
     999902    2    1    2    0    0  0.10982280157E-01 -0.54899874695E-02  0.22955076583E-01  0.10178975975E+01  0.10175646579E+01 0.  0.
     999903    2    3    3    0    0 -0.11690883793E+00 -0.41872134127E-01 -0.17319435279E-01  0.12699814469E+00  0.20189450547E-01 0.  0.
         14    1    1    2    0    0 -0.10982280157E-01  0.54899874695E-02 -0.22955076583E-01  0.26032402516E-01  0.00000000000E+00 0.  1.
     999901    1    3    3    0    0  0.12789111809E+00  0.36382146658E-01  0.40274511862E-01  0.89089945279E+00  0.88000000000E+00 0. -1.
        -11    1    4    4    0    0 -0.49031684882E-01 -0.79031414447E-02 -0.30217230204E-02  0.49758996152E-01  0.51100000000E-03 0. -1.
         11    1    4    4    0    0 -0.67877153050E-01 -0.33968992683E-01 -0.14297712259E-01  0.77239148538E-01  0.51100000000E-03 0.  1.
</event>
<event>
 8    1  0.1208168E+005  0.1043930E+01  0.7957747E-01            NaN
         13   -1    0    0    0    0  0.00000000000E+00  0.00000000000E+00  0.74505805969E-08  0.10566000000E+00  0.10566000000E+00 0.  1.
     999900   -1    0    0    0    0 -0.00000000000E+00 -0.00000000000E+00 -0.74505805969E-08  0.93827000000E+00  0.93827000000E+00 0. -1.
     999902    2    1    2    0    0 -0.17228490869E-01 -0.49047906485E-02  0.15281233045E-01  0.10203844282E+01  0.10201127327E+01 0.  0.
     999903    2    3    3    0    0 -0.89701585588E-01 -0.94037862793E-01 -0.12534145031E-01  0.13248198463E+00  0.22469476266E-01 0.  0.
         14    1    1    2    0    0  0.17228490869E-01  0.49047906485E-02 -0.15281233045E-01  0.23545571820E-01  0.00000000000E+00 0.  1.
     999901    1    3    3    0    0  0.72473094719E-01  0.89133072145E-01  0.27815378077E-01  0.88790244355E+00  0.88000000000E+00 0. -1.
        -11    1    4    4    0    0 -0.50259407050E-01 -0.57273591097E-01  0.33349800639E-02  0.76273556671E-01  0.51100000000E-03 0. -1.
         11    1    4    4    0    0 -0.39442178538E-01 -0.36764271696E-01 -0.15869125095E-01  0.56208427958E-01  0.51100000000E-03 0.  1.
</event>
<event>
 8    1  0.1208168E+005  0.1043930E+01  0.7957747E-01            NaN
         13   -1    0    0    0    0  0.00000000000E+00  0.00000000000E+00  0.74505805969E-08  0.10566000000E+00  0.10566000000E+00 0. -1.
     999900   -1    0    0    0    0 -0.00000000000E+00 -0.00000000000E+00 -0.74505805969E-08  0.93827000000E+00  0.93827000000E+00 0. -1.
     999902    2    1    2    0    0  0.60710101271E-02  0.21783326594E-01  0.10740621047E-01  0.10188953955E+01  0.10185877947E+01 0.  0.
     999903    2    3    3    0    0  0.11445087718E+00 -0.46412677420E-01  0.32783823601E-01  0.12935461886E+00  0.20117117540E-01 0.  0.
         14    1    1    2    0    0 -0.60710101271E-02 -0.21783326594E-01 -0.10740621047E-01  0.25034604489E-01  0.00000000000E+00 0.  1.
     999901    1    3    3    0    0 -0.10837986705E+00  0.68196004014E-01 -0.22043202554E-01  0.88954077665E+00  0.88000000000E+00 0.  1.
        -11    1    4    4    0    0  0.92686059222E-01 -0.45710134533E-01  0.27426929057E-01  0.10692342836E+00  0.51100000000E-03 0.  1.
         11    1    4    4    0    0  0.21764817957E-01 -0.70254288667E-03  0.53568945443E-02  0.22431190503E-01  0.51100000000E-03 0. -1.
</event>
<event>
 8    1  0.1208168E+005  0.1043930E+01  0.7957747E-01            NaN
         13   -1    0    0    0    0  0.00000000000E+00  0.00000000000E+00  0.74505805969E-08  0.10566000000E+00  0.10566000000E+00 0. -1.
     999900   -1    0    0    0    0 -0.00000000000E+00 -0.00000000000E+00 -0.74505805969E-08  0.93827000000E+00  0.93827000000E+00 0.  1.
     999902    2    1    2    0    0  0.20095397370E-01 -0.40699342799E-02  0.12215811585E-01  0.10200633829E+01  0.10197841388E+01 0.  0.
     999903    2    3    3    0    0  0.11631329545E+00 -0.61068725909E-01  0.10725836099E-03  0.13290310241E+00  0.20125882438E-01 0.  0.
         14    1    1    2    0    0 -0.20095397370E-01  0.40699342799E-02 -0.12215811585E-01  0.23866617129E-01  0.00000000000E+00 0. -1.
     999901    1    3    3    0    0 -0.96217898082E-01  0.56998791629E-01  0.12108553224E-01  0.88716028046E+00  0.88000000000E+00 0. -1.
        -11    1    4    4    0    0  0.10905103778E+00 -0.58984584983E-01  0.46555602903E-02  0.12406951869E+00  0.51100000000E-03 0.  1.
         11    1    4    4    0    0  0.72622576770E-02 -0.20841409258E-02 -0.45483019294E-02  0.88335837238E-02  0.51100000000E-03 0. -1.
</event>
<event>
 8    1  0.1208168E+005  0.1043930E+01  0.7957747E-01            NaN
         13   -1    0    0    0    0  0.00000000000E+00  0.00000000000E+00  0.74505805969E-08  0.10566000000E+00  0.10566000000E+00 0. -1.
     999900   -1    0    0    0    0 -0.00000000000E+00 -0.00000000000E+00 -0.74505805969E-08  0.93827000000E+00  0.93827000000E+00 0. -1.
     999902    2    1    2    0    0  0.13851728536E-01 -0.14331892547E-01  0.13450643048E-01  0.10198843491E+01  0.10196008495E+01 0.  0.
     999903    2    3    3    0    0  0.10945420265E+00 -0.37185957059E-01  0.62963184928E-01  0.13302831057E+00  0.19213299463E-01 0.  0.
         14    1    1    2    0    0 -0.13851728536E-01  0.14331892547E-01 -0.13450643048E-01  0.24045650872E-01  0.00000000000E+00 0. -1.
     999901    1    3    3    0    0 -0.95602474118E-01  0.22854064512E-01 -0.49512541879E-01  0.88685603856E+00  0.88000000000E+00 0. -1.
        -11    1    4    4    0    0  0.20182999973E-01 -0.84375724719E-02  0.20832507649E-01  0.30212590307E-01  0.51100000000E-03 0.  1.
         11    1    4    4    0    0  0.89271202681E-01 -0.28748384587E-01  0.42130677279E-01  0.10281572026E+00  0.51100000000E-03 0. -1.
</event>
<event>
 8    1  0.1208168E+005  0.1043930E+01  0.7957747E-01            NaN
         13   -1    0    0    0    0  0.00000000000E+00  0.00000000000E+00  0.74505805969E-08  0.10566000000E+00  0.10566000000E+00 0.  1.
     999900   -1    0    0    0    0 -0.00000000000E+00 -0.00000000000E+00 -0.74505805969E-08  0.93827000000E+00  0.93827000000E+00 0. -1.
     999902    2    1    2    0    0 -0.11196329632E-01 -0.17105391345E-01 -0.12574313395E-01  0.10199286340E+01  0.10196461901E+01 0.  0.
     999903    2    3    3    0    0  0.97559708992E-01  0.58639880238E-01  0.53678984829E-01  0.12754154224E+00  0.20709399086E-01 0.  0.
         14    1    1    2    0    0  0.11196329632E-01  0.17105391345E-01  0.12574313395E-01  0.24001365954E-01  0.00000000000E+00 0.  1.
     999901    1    3    3    0    0 -0.10875603862E+00 -0.75745271584E-01 -0.66253298224E-01  0.89238709181E+00  0.88000000000E+00 0.  1.
        -11    1    4    4    0    0  0.25637747294E-01  0.68588520672E-02  0.73752188531E-02  0.27549825991E-01  0.51100000000E-03 0. -1.
         11    1    4    4    0    0  0.71921961698E-01  0.51781028171E-01  0.46303765976E-01  0.99991716244E-01  0.51100000000E-03 0.  1.
</event>
<event>
 8    1  0.1208168E+005  0.1043930E+01  0.7957747E-01            NaN
         13   -1    0    0    0    0  0.00000000000E+00  0.00000000000E+00  0.74505805969E-08  0.10566000000E+00  0.10566000000E+00 0.  1.
     999900   -1    0    0    0    0 -0.00000000000E+00 -0.00000000000E+00 -0.74505805969E-08  0.93827000000E+00  0.93827000000E+00 0. -1.
     999902    2    1    2    0    0  0.25776240823E-01 -0.14230374684E-01  0.12467588729E-02  0.10144601415E+01  0.10140320045E+01 0.  0.
     999903    2    3    3    0    0  0.68711096052E-01  0.84876481408E-01  0.59124975169E-01  0.12596959079E+00  0.21150491651E-01 0.  0.
         14    1    1    2    0    0 -0.25776240823E-01  0.14230374684E-01 -0.12467588729E-02  0.29469858539E-01  0.00000000000E+00 0.  1.
     999901    1    3    3    0    0 -0.42934855229E-01 -0.99106856092E-01 -0.57878216296E-01  0.88849055068E+00  0.88000000000E+00 0. -1.
        -11    1    4    4    0    0  0.32312795431E-01  0.56281865707E-01  0.32798189281E-01  0.72716899667E-01  0.51100000000E-03 0.  1.
         11    1    4    4    0    0  0.36398300622E-01  0.28594615701E-01  0.26326785888E-01  0.53252691119E-01  0.51100000000E-03 0. -1.
</event>
<event>
 8    1  0.1208168E+005  0.1043930E+01  0.7957747E-01            NaN
         13   -1    0    0    0    0  0.00000000000E+00  0.00000000000E+00  0.74505805969E-08  0.10566000000E+00  0.10566000000E+00 0.  1.
     999900   -1    0    0    0    0 -0.00000000000E+00 -0.00000000000E+00 -0.74505805969E-08  0.93827000000E+00  0.93827000000E+00 0. -1.
     999902    2    1    2    0    0  0.11784051598E-01 -0.19048308306E-01 -0.87591085114E-02  0.10198795550E+01  0.10195959410E+01 0.  0.
     999903    2    3    3    0    0  0.65227835668E-01 -0.93507195570E-01  0.63901577840E-01  0.13214088893E+00  0.19481701860E-01 0.  0.
         14    1    1    2    0    0 -0.11784051598E-01  0.19048308306E-01  0.87591085114E-02  0.24050444971E-01  0.00000000000E+00 0.  1.
     999901    1    3    3    0    0 -0.53443784070E-01  0.74458887264E-01 -0.72660686351E-01  0.88773866610E+00  0.88000000000E+00 0. -1.
        -11    1    4    4    0    0  0.36629064215E-01 -0.58264512983E-01  0.28132753614E-01  0.74351561956E-01  0.51100000000E-03 0. -1.
         11    1    4    4    0    0  0.28598771452E-01 -0.35242682587E-01  0.35768824226E-01  0.57789326973E-01  0.51100000000E-03 0.  1.
</event>
<event>
 8    1  0.1208168E+005  0.1043930E+01  0.7957747E-01            NaN
         13   -1    0    0    0    0  0.00000000000E+00  0.00000000000E+00  0.74505805969E-08  0.10566000000E+00  0.10566000000E+00 0.  1.
     999900   -1    0    0    0    0 -0.00000000000E+00 -0.00000000000E+00 -0.74505805969E-08  0.93827000000E+00  0.93827000000E+00 0.  1.
     999902    2    1    2    0    0 -0.11956745226E-01 -0.18503456323E-01  0.32586440425E-02  0.10216598313E+01  0.10214170796E+01 0.  0.
     999903    2    3    3    0    0 -0.85253685366E-01  0.88342802519E-01  0.42083486630E-01  0.13132510052E+00  0.20065406880E-01 0.  0.
         14    1    1    2    0    0  0.11956745226E-01  0.18503456323E-01 -0.32586440425E-02  0.22270168686E-01  0.00000000000E+00 0. -1.
     999901    1    3    3    0    0  0.73296940140E-01 -0.10684625884E+00 -0.38824842588E-01  0.89033473080E+00  0.88000000000E+00 0.  1.
        -11    1    4    4    0    0 -0.76176028818E-01  0.83238322910E-01  0.43236006876E-01  0.12083467705E+00  0.51100000000E-03 0. -1.
         11    1    4    4    0    0 -0.90776565488E-02  0.51044796089E-02 -0.11525202458E-02  0.10490423462E-01  0.51100000000E-03 0.  1.
</event>
<event>
 8    1  0.1208168E+005  0.1043930E+01  0.7957747E-01            NaN
         13   -1    0    0    0    0  0.00000000000E+00  0.00000000000E+00  0.74505805969E-08  0.10566000000E+00  0.10566000000E+00 0. -1.
     999900   -1    0    0    0    0 -0.00000000000E+00 -0.00000000000E+00 -0.74505805969E-08  0.93827000000E+00  0.93827000000E+00 0.  1.
     999902    2    1    2    0    0  0.17595715837E-01 -0.95661588971E-03  0.15615222682E-01  0.10203851596E+01  0.10201134812E+01 0.  0.
     999903    2    3    3    0    0  0.86233195348E-01 -0.94159572883E-01 -0.27461855742E-01  0.13176064415E+00  0.17450635524E-01 0.  0.
         14    1    1    2    0    0 -0.17595715837E-01  0.95661588971E-03 -0.15615222682E-01  0.23544840395E-01  0.00000000000E+00 0.  1.
     999901    1    3    3    0    0 -0.68637479511E-01  0.93202956993E-01  0.43077078424E-01  0.88862451546E+00  0.88000000000E+00 0.  1.
        -11    1    4    4    0    0  0.32292674072E-01 -0.24852793016E-01 -0.12836005742E-01  0.42725897109E-01  0.51100000000E-03 0.  1.
         11    1    4    4    0    0  0.53940521276E-01 -0.69306779867E-01 -0.14625850000E-01  0.89034747039E-01  0.51100000000E-03 0. -1.
</event>
<event>
 8    1  0.1208168E+005  0.1043930E+01  0.7957747E-01            NaN
         13   -1    0    0    0    0  0.00000000000E+00  0.00000000000E+00  0.74505805969E-08  0.10566000000E+00  0.10566000000E+00 0. -1.
     999900   -1    0    0    0    0 -0.00000000000E+00 -0.00000000000E+00 -0.74505805969E-08  0.93827000000E+00  0.93827000000E+00 0. -1.
     999902    2    1    2    0    0 -0.41575517801E-02 -0.14004140388E-01  0.22855732729E-01  0.10168046299E+01  0.10164427528E+01 0.  0.
     999903    2    3    3    0    0 -0.84048501499E-01  0.61084780325E-01  0.73184796163E-01  0.12857384655E+00  0.19486370484E-01 0.  0.
         14    1    1    2    0    0  0.41575517801E-02  0.14004140388E-01 -0.22855732729E-01  0.27125370106E-01  0.00000000000E+00 0.  1.
     999901    1    3    3    0    0  0.79890949719E-01 -0.75088920712E-01 -0.50329063433E-01  0.88823078335E+00  0.88000000000E+00 0. -1.
        -11    1    4    4    0    0 -0.74420216538E-01  0.49793966568E-01  0.54953965271E-01  0.10506192058E+00  0.51100000000E-03 0. -1.
         11    1    4    4    0    0 -0.96282849609E-02  0.11290813757E-01  0.18230830891E-01  0.23511925965E-01  0.51100000000E-03 0.  1.
</event>
<event>
 8    1  0.1208168E+005  0.1043930E+01  0.7957747E-01            NaN
         13   -1    0    0    0    0  0.00000000000E+00  0.00000000000E+00  0.74505805969E-08  0.10566000000E+00  0.10566000000E+00 0. -1.
     999900   -1    0    0    0    0 -0.00000000000E+00 -0.00000000000E+00 -0.74505805969E-08  0.93827000000E+00  0.93827000000E+00 0. -1.
     999902    2    1    2    0    0  0.11514133311E-02  0.55684920975E-02 -0.22772144301E-01  0.10204586470E+01  0.10201886815E+01 0.  0.
     999903    2    3    3    0    0  0.55618181712E-01  0.96933856125E-01 -0.69007021103E-01  0.13284841583E+00  0.19929325772E-01 0.  0.
         14    1    1    2    0    0 -0.11514133311E-02 -0.55684920975E-02  0.22772144301E-01  0.23471353028E-01  0.00000000000E+00 0. -1.
     999901    1    3    3    0    0 -0.54466768381E-01 -0.91365364027E-01  0.46234876802E-01  0.88761023115E+00  0.88000000000E+00 0.  1.
        -11    1    4    4    0    0  0.50348055069E-01  0.94818547828E-01 -0.67934688708E-01  0.12704671075E+00  0.51100000000E-03 0.  1.
         11    1    4    4    0    0  0.52701266431E-02  0.21153082966E-02 -0.10723323950E-02  0.58017050761E-02  0.51100000000E-03 0. -1.
</event>
<event>
 8    1  0.1208168E+005  0.1043930E+01  0.7957747E-01            NaN
         13   -1    0    0    0    0  0.00000000000E+00  0.00000000000E+00  0.74505805969E-08  0.10566000000E+00  0.10566000000E+00 0. -1.
     999900   -1    0    0    0    0 -0.00000000000E+00 -0.00000000000E+00 -0.74505805969E-08  0.93827000000E+00  0.93827000000E+00 0.  1.
     999902    2    1    2    0    0 -0.38008848514E-02  0.24290953338E-01  0.14220070893E-02  0.10193023886E+01  0.10190048283E+01 0.  0.
     999903    2    3    3    0    0  0.44474469414E-01  0.57969028293E-01 -0.10675062396E+00  0.13072710159E+00  0.18854514102E-01 0.  0.
         14    1    1    2    0    0  0.38008848514E-02 -0.24290953338E-01 -0.14220070893E-02  0.24627611413E-01  0.00000000000E+00 0.  1.
     999901    1    3    3    0    0 -0.48275354265E-01 -0.33678074955E-01  0.10817263105E+00  0.88857528700E+00  0.88000000000E+00 0. -1.
        -11    1    4    4    0    0  0.29405334258E-01  0.49661475963E-01 -0.75322075210E-01  0.94892634132E-01  0.51100000000E-03 0. -1.
         11    1    4    4    0    0  0.15069135155E-01  0.83075523298E-02 -0.31428548751E-01  0.35834467453E-01  0.51100000000E-03 0.  1.
</event>
<event>
 8    1  0.1208168E+005  0.1043930E+01  0.7957747E-01            NaN
         13   -1    0    0    0    0  0.00000000000E+00  0.00000000000E+00  0.74505805969E-08  0.10566000000E+00  0.10566000000E+00 0. -1.
     999900   -1    0    0    0    0 -0.00000000000E+00 -0.00000000000E+00 -0.74505805969E-08  0.93827000000E+00  0.93827000000E+00 0.  1.
     999902    2    1    2    0    0  0.13460818394E-01  0.19510166866E-01  0.20555309306E-02  0.10201378700E+01  0.10198603867E+01 0.  0.
     999903    2    3    3    0    0  0.37251800178E-01 -0.93902099952E-01 -0.77484919480E-01  0.12898410305E+00  0.20680548860E-01 0.  0.
         14    1    1    2    0    0 -0.13460818394E-01 -0.19510166866E-01 -0.20555309306E-02  0.23792130009E-01  0.00000000000E+00 0.  1.
     999901    1    3    3    0    0 -0.23790981784E-01  0.11341226682E+00  0.79540450411E-01  0.89115376694E+00  0.88000000000E+00 0. -1.
        -11    1    4    4    0    0  0.17553536607E-01 -0.51302229536E-01 -0.28960435802E-01  0.61473680267E-01  0.51100000000E-03 0. -1.
         11    1    4    4    0    0  0.19698263571E-01 -0.42599870416E-01 -0.48524483679E-01  0.67510422784E-01  0.51100000000E-03 0.  1.
</event>
<event>
 8    1  0.1208168E+005  0.1043930E+01  0.7957747E-01            NaN
         13   -1    0    0    0    0  0.00000000000E+00  0.00000000000E+00  0.74505805969E-08  0.10566000000E+00  0.10566000000E+00 0.  1.
     999900   -1    0    0    0    0 -0.00000000000E+00 -0.00000000000E+00 -0.74505805969E-08  0.93827000000E+00  0.93827000000E+00 0. -1.
     999902    2    1    2    0    0 -0.91698696195E-02  0.16841027000E-01  0.13475129964E-01  0.10204931524E+01  0.10202239892E+01 0.  0.
     999903    2    3    3    0    0  0.71693819188E-01  0.63451337709E-01  0.89138636056E-01  0.13232851482E+00  0.19976572051E-01 0.  0.
         14    1    1    2    0    0  0.91698696195E-02 -0.16841027000E-01 -0.13475129964E-01  0.23436847630E-01  0.00000000000E+00 0. -1.
     999901    1    3    3    0    0 -0.80863688808E-01 -0.46610310709E-01 -0.75663506092E-01  0.88816463755E+00  0.88000000000E+00 0. -1.
        -11    1    4    4    0    0  0.55672199087E-01  0.45614682759E-01  0.77174647657E-01  0.10552857621E+00  0.51100000000E-03 0.  1.
         11    1    4    4    0    0  0.16021620101E-01  0.17836654951E-01  0.11963988400E-01  0.26799938618E-01  0.51100000000E-03 0. -1.
</event>
<event>
 8    1  0.1208168E+005  0.1043930E+01  0.7957747E-01            NaN
         13   -1    0    0    0    0  0.00000000000E+00  0.00000000000E+00  0.74505805969E-08  0.10566000000E+00  0.10566000000E+00 0. -1.
     999900   -1    0    0    0    0 -0.00000000000E+00 -0.00000000000E+00 -0.74505805969E-08  0.93827000000E+00  0.93827000000E+00 0.  1.
     999902    2    1    2    0    0 -0.11926256089E-01 -0.17959540530E-01  0.88276157920E-02  0.10206339170E+01  0.10203680146E+01 0.  0.
     999903    2    3    3    0    0 -0.81815825161E-02 -0.12991475324E+00 -0.19179537454E-01  0.13309102070E+00  0.20014587985E-01 0.  0.
         14    1    1    2    0    0  0.11926256089E-01  0.17959540530E-01 -0.88276157920E-02  0.23296082952E-01  0.00000000000E+00 0.  1.
     999901    1    3    3    0    0 -0.37446735725E-02  0.11195521271E+00  0.28007153246E-01  0.88754289635E+00  0.88000000000E+00 0. -1.
        -11    1    4    4    0    0  0.22120013987E-02 -0.53465483433E-01 -0.16068618566E-01  0.55874077107E-01  0.51100000000E-03 0. -1.
         11    1    4    4    0    0 -0.10393583915E-01 -0.76449269802E-01 -0.31109188885E-02  0.77216943589E-01  0.51100000000E-03 0.  1.
</event>
<event>
 8    1  0.1208168E+005  0.1043930E+01  0.7957747E-01            NaN
         13   -1    0    0    0    0  0.00000000000E+00  0.00000000000E+00  0.74505805969E-08  0.10566000000E+00  0.10566000000E+00 0.  1.
     999900   -1    0    0    0    0 -0.00000000000E+00 -0.00000000000E+00 -0.74505805969E-08  0.93827000000E+00  0.93827000000E+00 0. -1.
     999902    2    1    2    0    0 -0.11884713238E-01  0.16974910374E-01 -0.11847960488E-01  0.10200601831E+01  0.10197808632E+01 0.  0.
     999903    2    3    3    0    0  0.11999925401E+00  0.41255891832E-01  0.15212866044E-01  0.12949000888E+00  0.20841341929E-01 0.  0.
         14    1    1    2    0    0  0.11884713238E-01 -0.16974910374E-01  0.11847960488E-01  0.23869816896E-01  0.00000000000E+00 0. -1.
     999901    1    3    3    0    0 -0.13188396725E+00 -0.24280981459E-01 -0.27060826532E-01  0.89057017422E+00  0.88000000000E+00 0.  1.
        -11    1    4    4    0    0  0.94606862938E-01  0.26338110090E-01  0.18221505808E-01  0.99882125292E-01  0.51100000000E-03 0.  1.
         11    1    4    4    0    0  0.25392391073E-01  0.14917781742E-01 -0.30086397642E-02  0.29607883591E-01  0.51100000000E-03 0. -1.
</event>
<event>
 8    1  0.1208168E+005  0.1043930E+01  0.7957747E-01            NaN
         13   -1    0    0    0    0  0.00000000000E+00  0.00000000000E+00  0.74505805969E-08  0.10566000000E+00  0.10566000000E+00 0.  1.
     999900   -1    0    0    0    0 -0.00000000000E+00 -0.00000000000E+00 -0.74505805969E-08  0.93827000000E+00  0.93827000000E+00 0.  1.
     999902    2    1    2    0    0 -0.10839168031E-01 -0.25751420517E-01  0.17423611652E-02  0.10159360892E+01  0.10155503327E+01 0.  0.
     999903    2    3    3    0    0 -0.12146503148E+00 -0.90302997139E-02  0.34737080652E-01  0.12823888342E+00  0.20080992591E-01 0.  0.
         14    1    1    2    0    0  0.10839168031E-01  0.25751420517E-01 -0.17423611652E-02  0.27993910850E-01  0.00000000000E+00 0.  1.
     999901    1    3    3    0    0  0.11062586345E+00 -0.16721120803E-01 -0.32994719487E-01  0.88769720573E+00  0.88000000000E+00 0.  1.
        -11    1    4    4    0    0 -0.22393067849E-01 -0.78676735891E-02  0.17215978055E-02  0.23802831668E-01  0.51100000000E-03 0.  1.
         11    1    4    4    0    0 -0.99071963631E-01 -0.11626261248E-02  0.33015482847E-01  0.10443605175E+00  0.51100000000E-03 0. -1.
</event>
<event>
 8    1  0.1208168E+005  0.1043930E+01  0.7957747E-01            NaN
         13   -1    0    0    0    0  0.00000000000E+00  0.00000000000E+00  0.74505805969E-08  0.10566000000E+00  0.10566000000E+00 0.  1.
     999900   -1    0    0    0    0 -0.00000000000E+00 -0.00000000000E+00 -0.74505805969E-08  0.93827000000E+00  0.93827000000E+00 0.  1.
     999902    2    1    2    0    0 -0.15717953261E-01 -0.11316924423E-01 -0.13147573724E-01  0.10205209093E+01  0.10202523907E+01 0.  0.
     999903    2    3    3    0    0  0.10597407774E+00  0.68455861527E-01  0.12171131652E-01  0.12821284330E+00  0.19330975401E-01 0.  0.
         14    1    1    2    0    0  0.15717953261E-01  0.11316924423E-01  0.13147573724E-01  0.23409090711E-01  0.00000000000E+00 0.  1.
     999901    1    3    3    0    0 -0.12169203100E+00 -0.79772785950E-01 -0.25318705377E-01  0.89230806599E+00  0.88000000000E+00 0.  1.
        -11    1    4    4    0    0  0.39775579958E-01  0.25548098669E-01 -0.47963652352E-02  0.47519136641E-01  0.51100000000E-03 0. -1.
         11    1    4    4    0    0  0.66198497785E-01  0.42907762858E-01  0.16967496888E-01  0.80693706658E-01  0.51100000000E-03 0.  1.
</event>
<event>
 8    1  0.1208168E+005  0.1043930E+01  0.7957747E-01            NaN
         13   -1    0    0    0    0  0.00000000000E+00  0.00000000000E+00  0.74505805969E-08  0.10566000000E+00  0.10566000000E+00 0. -1.
     999900   -1    0    0    0    0 -0.00000000000E+00 -0.00000000000E+00 -0.74505805969E-08  0.93827000000E+00  0.93827000000E+00 0.  1.
     999902    2    1    2    0    0 -0.10699091507E-01 -0.20266220260E-01  0.16006016636E-02  0.10209571428E+01  0.10206986506E+01 0.  0.
     999903    2    3    3    0    0  0.30546517161E-01 -0.11449375853E+00  0.57557965220E-01  0.13320083854E+00  0.19688412179E-01 0.  0.
         14    1    1    2    0    0  0.10699091507E-01  0.20266220260E-01 -0.16006016636E-02  0.22972857210E-01  0.00000000000E+00 0.  1.
     999901    1    3    3    0    0 -0.41245608669E-01  0.94227538270E-01 -0.55957363556E-01  0.88775630425E+00  0.88000000000E+00 0.  1.
        -11    1    4    4    0    0  0.30819908228E-01 -0.86767577690E-01  0.40113071450E-01  0.10043803514E+00  0.51100000000E-03 0.  1.
         11    1    4    4    0    0 -0.27339106685E-03 -0.27726180839E-01  0.17444893770E-01  0.32762803394E-01  0.51100000000E-03 0. -1.
</event>
<event>
 8    1  0.1208168E+005  0.1043930E+01  0.7957747E-01            NaN
         13   -1    0    0    0    0  0.00000000000E+00  0.00000000000E+00  0.74505805969E-08  0.10566000000E+00  0.10566000000E+00 0.  1.
     999900   -1    0    0    0    0 -0.00000000000E+00 -0.00000000000E+00 -0.74505805969E-08  0.93827000000E+00  0.93827000000E+00 0.  1.
     999902    2    1    2    0    0 -0.15507154959E-01 -0.52952844712E-02  0.15649329602E-01  0.10212713723E+01  0.10210199814E+01 0.  0.
     999903    2    3    3    0    0  0.11371949685E+00 -0.48334792907E-01  0.37201318954E-01  0.13053212029E+00  0.19655028011E-01 0.  0.
         14    1    1    2    0    0  0.15507154959E-01  0.52952844712E-02 -0.15649329602E-01  0.22658627706E-01  0.00000000000E+00 0. -1.
     999901    1    3    3    0    0 -0.12922665180E+00  0.43039508436E-01 -0.21551989353E-01  0.89073925201E+00  0.88000000000E+00 0.  1.
        -11    1    4    4    0    0  0.40405896102E-01 -0.74595206464E-02  0.99514057329E-02  0.42279693531E-01  0.51100000000E-03 0. -1.
         11    1    4    4    0    0  0.73313600744E-01 -0.40875272261E-01  0.27249913221E-01  0.88252426754E-01  0.51100000000E-03 0.  1.
</event>
<event>
 8    1  0.1208168E+005  0.1043930E+01  0.7957747E-01            NaN
         13   -1    0    0    0    0  0.00000000000E+00  0.00000000000E+00  0.74505805969E-08  0.10566000000E+00  0.10566000000E+00 0. -1.
     999900   -1    0    0    0    0 -0.00000000000E+00 -0.00000000000E+00 -0.74505805969E-08  0.93827000000E+00  0.93827000000E+00 0.  1.
     999902    2    1    2    0    0  0.74742966004E-02 -0.19345477067E-01  0.85444086900E-02  0.10214996743E+01  0.10212533794E+01 0.  0.
     999903    2    3    3    0    0 -0.59888807610E-01  0.31952381632E-01 -0.10872406007E+00  0.12969187441E+00  0.19784768963E-01 0.  0.
         14    1    1    2    0    0 -0.74742966004E-02  0.19345477067E-01 -0.85444086900E-02  0.22430325732E-01  0.00000000000E+00 0. -1.
     999901    1    3    3    0    0  0.67363104210E-01 -0.51297858699E-01  0.11726846876E+00  0.89180779985E+00  0.88000000000E+00 0. -1.
        -11    1    4    4    0    0 -0.25153605472E-01  0.49872877206E-02 -0.29583516328E-01  0.39153830800E-01  0.51100000000E-03 0.  1.
         11    1    4    4    0    0 -0.34735202139E-01  0.26965093912E-01 -0.79140543737E-01  0.90538043613E-01  0.51100000000E-03 0. -1.
</event>
<event>
 8    1  0.1208168E+005  0.1043930E+01  0.7957747E-01            NaN
         13   -1    0    0    0    0  0.00000000000E+00  0.00000000000E+00  0.74505805969E-08  0.10566000000E+00  0.10566000000E+00 0.  1.
     999900   -1    0    0    0    0 -0.00000000000E+00 -0.00000000000E+00 -0.74505805969E-08  0.93827000000E+00  0.93827000000E+00 0. -1.
     999902    2    1    2    0    0  0.12437460435E-01  0.20206648483E-01 -0.27439305985E-03  0.10202008121E+01  0.10199248123E+01 0.  0.
     999903    2    3    3    0    0  0.22342284535E-01 -0.57446513408E-01 -0.11228971322E+00  0.12965291840E+00  0.20040458444E-01 0.  0.
         14    1    1    2    0    0 -0.12437460435E-01 -0.20206648483E-01  0.27439305985E-03  0.23729187861E-01  0.00000000000E+00 0. -1.
     999901    1    3    3    0    0 -0.99048241001E-02  0.77653161890E-01  0.11201532016E+00  0.89054789374E+00  0.88000000000E+00 0.  1.
        -11    1    4    4    0    0 -0.19076204103E-02 -0.18867979342E-01 -0.27777620961E-01  0.33637731899E-01  0.51100000000E-03 0.  1.
         11    1    4    4    0    0  0.24249904945E-01 -0.38578534066E-01 -0.84512092256E-01  0.96015186502E-01  0.51100000000E-03 0. -1.
</event>
<event>
 8    1  0.1208168E+005  0.1043930E+01  0.7957747E-01            NaN
         13   -1    0    0    0    0  0.00000000000E+00  0.00000000000E+00  0.74505805969E-08  0.10566000000E+00  0.10566000000E+00 0.  1.
     999900   -1    0    0    0    0 -0.00000000000E+00 -0.00000000000E+00 -0.74505805969E-08  0.93827000000E+00  0.93827000000E+00 0.  1.
     999902    2    1    2    0    0  0.22801479357E-01 -0.83812441170E-02 -0.24370673449E-02  0.10195150044E+01  0.10192226215E+01 0.  0.
     999903    2    3    3    0    0  0.29819589011E-01  0.10280748171E+00  0.70144323434E-01  0.12952610282E+00  0.19954924614E-01 0.  0.
         14    1    1    2    0    0 -0.22801479357E-01  0.83812441170E-02  0.24370673449E-02  0.24414995619E-01  0.00000000000E+00 0. -1.
     999901    1    3    3    0    0 -0.70181096542E-02 -0.11118872583E+00 -0.72581390779E-01  0.88998890156E+00  0.88000000000E+00 0.  1.
        -11    1    4    4    0    0  0.28354130938E-01  0.95736050488E-01  0.58236631051E-01  0.11559028688E+00  0.51100000000E-03 0. -1.
         11    1    4    4    0    0  0.14654580738E-02  0.70714312259E-02  0.11907692383E-01  0.13935815937E-01  0.51100000000E-03 0.  1.
</event>
<event>
 8    1  0.1208168E+005  0.1043930E+01  0.7957747E-01            NaN
         13   -1    0    0    0    0  0.00000000000E+00  0.00000000000E+00  0.74505805969E-08  0.10566000000E+00  0.10566000000E+00 0. -1.
     999900   -1    0    0    0    0 -0.00000000000E+00 -0.00000000000E+00 -0.74505805969E-08  0.93827000000E+00  0.93827000000E+00 0. -1.
     999902    2    1    2    0    0  0.15447284189E-01 -0.16880674749E-01 -0.47701889174E-02  0.10205562867E+01  0.10202885886E+01 0.  0.
     999903    2    3    3    0    0 -0.10142050817E+00  0.56849565638E-01  0.51702492990E-01  0.12798506100E+00  0.13749016890E-01 0.  0.
         14    1    1    2    0    0 -0.15447284189E-01  0.16880674749E-01  0.47701889174E-02  0.23373713250E-01  0.00000000000E+00 0.  1.
     999901    1    3    3    0    0  0.11686779236E+00 -0.73730240387E-01 -0.56472681908E-01  0.89257122575E+00  0.88000000000E+00 0. -1.
        -11    1    4    4    0    0 -0.44323648324E-01  0.29691034911E-01  0.17814085780E-01  0.56247187734E-01  0.51100000000E-03 0. -1.
         11    1    4    4    0    0 -0.57096859851E-01  0.27158530727E-01  0.33888407211E-01  0.71737873264E-01  0.51100000000E-03 0.  1.
</event>
<event>
 8    1  0.1208168E+005  0.1043930E+01  0.7957747E-01            NaN
         13   -1    0    0    0    0  0.00000000000E+00  0.00000000000E+00  0.74505805969E-08  0.10566000000E+00  0.10566000000E+00 0. -1.
     999900   -1    0    0    0    0 -0.00000000000E+00 -0.00000000000E+00 -0.74505805969E-08  0.93827000000E+00  0.93827000000E+00 0. -1.
     999902    2    1    2    0    0  0.44923504079E-02 -0.15901014966E-01  0.59024021342E-02  0.10263840079E+01  0.10262340229E+01 0.  0.
     999903    2    3    3    0    0  0.29193979565E-01  0.11019871301E+00  0.68854332972E-01  0.13482679855E+00  0.21007180860E-01 0.  0.
         14    1    1    2    0    0 -0.44923504079E-02  0.15901014966E-01 -0.59024021342E-02  0.17545992137E-01  0.00000000000E+00 0.  1.
     999901    1    3    3    0    0 -0.24701629157E-01 -0.12609972797E+00 -0.62951930838E-01  0.89155720931E+00  0.88000000000E+00 0.  1.
        -11    1    4    4    0    0  0.51529009662E-02  0.33021351171E-01  0.30914686128E-01  0.45529561396E-01  0.51100000000E-03 0. -1.
         11    1    4    4    0    0  0.24041078599E-01  0.77177361835E-01  0.37939646844E-01  0.89297237156E-01  0.51100000000E-03 0.  1.
</event>
<event>
 8    1  0.1208168E+005  0.1043930E+01  0.7957747E-01            NaN
         13   -1    0    0    0    0  0.00000000000E+00  0.00000000000E+00  0.74505805969E-08  0.10566000000E+00  0.10566000000E+00 0.  1.
     999900   -1    0    0    0    0 -0.00000000000E+00 -0.00000000000E+00 -0.74505805969E-08  0.93827000000E+00  0.93827000000E+00 0.  1.
     999902    2    1    2    0    0 -0.21988192184E-01  0.84727243025E-02  0.47999024579E-02  0.10198819914E+01  0.10195984355E+01 0.  0.
     999903    2    3    3    0    0  0.90458756318E-01  0.25763487685E-02 -0.87541624759E-01  0.12791448018E+00  0.22564441210E-01 0.  0.
         14    1    1    2    0    0  0.21988192184E-01 -0.84727243025E-02 -0.47999024579E-02  0.24048008571E-01  0.00000000000E+00 0.  1.
     999901    1    3    3    0    0 -0.11244694850E+00  0.58963755339E-02  0.92341527217E-01  0.89196751125E+00  0.88000000000E+00 0. -1.
        -11    1    4    4    0    0  0.70356044301E-01  0.41845647068E-02 -0.54067803858E-01  0.88831706538E-01  0.51100000000E-03 0.  1.
         11    1    4    4    0    0  0.20102712017E-01 -0.16082159383E-02 -0.33473820901E-01  0.39082773643E-01  0.51100000000E-03 0. -1.
</event>
<event>
 8    1  0.1208168E+005  0.1043930E+01  0.7957747E-01            NaN
         13   -1    0    0    0    0  0.00000000000E+00  0.00000000000E+00  0.74505805969E-08  0.10566000000E+00  0.10566000000E+00 0.  1.
     999900   -1    0    0    0    0 -0.00000000000E+00 -0.00000000000E+00 -0.74505805969E-08  0.93827000000E+00  0.93827000000E+00 0. -1.
     999902    2    1    2    0    0  0.83200467990E-02  0.17239764083E-01  0.12559424965E-01  0.10210352015E+01  0.10207784827E+01 0.  0.
     999903    2    3    3    0    0  0.99883265459E-01  0.24637456580E-01 -0.79411644054E-01  0.13148631220E+00  0.19969228787E-01 0.  0.
         14    1    1    2    0    0 -0.83200467990E-02 -0.17239764083E-01 -0.12559424965E-01  0.22894798532E-01  0.00000000000E+00 0. -1.
     999901    1    3    3    0    0 -0.91563218660E-01 -0.73976924963E-02  0.91971069019E-01  0.88954888927E+00  0.88000000000E+00 0.  1.
        -11    1    4    4    0    0  0.70241358292E-01  0.23265721953E-01 -0.65015902146E-01  0.98501121241E-01  0.51100000000E-03 0.  1.
         11    1    4    4    0    0  0.29641907167E-01  0.13717346262E-02 -0.14395741908E-01  0.32985190957E-01  0.51100000000E-03 0. -1.
</event>
<event>
 8    1  0.1208168E+005  0.1043930E+01  0.7957747E-01            NaN
         13   -1    0    0    0    0  0.00000000000E+00  0.00000000000E+00  0.74505805969E-08  0.10566000000E+00  0.10566000000E+00 0.  1.
     999900   -1    0    0    0    0 -0.00000000000E+00 -0.00000000000E+00 -0.74505805969E-08  0.93827000000E+00  0.93827000000E+00 0. -1.
     999902    2    1    2    0    0 -0.19491466102E-01 -0.14690306874E-02 -0.12921513776E-01  0.10204983799E+01  0.10202293382E+01 0.  0.
     999903    2    3    3    0    0  0.28546757788E-01 -0.82602588809E-01 -0.96291701895E-01  0.13154342409E+00  0.19836217095E-01 0.  0.
         14    1    1    2    0    0  0.19491466102E-01  0.14690306874E-02  0.12921513776E-01  0.23431620094E-01  0.00000000000E+00 0.  1.
     999901    1    3    3    0    0 -0.48038223890E-01  0.81133558121E-01  0.83370188118E-01  0.88895495582E+00  0.88000000000E+00 0.  1.
        -11    1    4    4    0    0 -0.12340963400E-02 -0.33609345502E-02 -0.10117358592E-01  0.10744344592E-01  0.51100000000E-03 0.  1.
         11    1    4    4    0    0  0.29780854128E-01 -0.79241654259E-01 -0.86174343303E-01  0.12079907950E+00  0.51100000000E-03 0. -1.
</event>
<event>
 8    1  0.1208168E+005  0.1043930E+01  0.7957747E-01            NaN
         13   -1    0    0    0    0  0.00000000000E+00  0.00000000000E+00  0.74505805969E-08  0.10566000000E+00  0.10566000000E+00 0. -1.
     999900   -1    0    0    0    0 -0.00000000000E+00 -0.00000000000E+00 -0.74505805969E-08  0.93827000000E+00  0.93827000000E+00 0. -1.
     999902    2    1    2    0    0 -0.55982009881E-02  0.17479441548E-01 -0.14404784764E-01  0.10205982929E+01  0.10203315672E+01 0.  0.
     999903    2    3    3    0    0  0.43840569291E-01 -0.11856960076E+00  0.10348311328E-01  0.12842888654E+00  0.20153054585E-01 0.  0.
         14    1    1    2    0    0  0.55982009881E-02 -0.17479441548E-01  0.14404784764E-01  0.23331707079E-01  0.00000000000E+00 0. -1.
     999901    1    3    3    0    0 -0.49438770279E-01  0.13604904231E+00 -0.24753096092E-01  0.89216940638E+00  0.88000000000E+00 0. -1.
        -11    1    4    4    0    0  0.29200402118E-01 -0.50509734442E-01  0.29745910117E-02  0.58420938626E-01  0.51100000000E-03 0.  1.
         11    1    4    4    0    0  0.14640167173E-01 -0.68059866321E-01  0.73737203164E-02  0.70007947912E-01  0.51100000000E-03 0. -1.
</event>
<event>
 8    1  0.1208168E+005  0.1043930E+01  0.7957747E-01            NaN
         13   -1    0    0    0    0  0.00000000000E+00  0.00000000000E+00  0.74505805969E-08  0.10566000000E+00  0.10566000000E+00 0. -1.
     999900   -1    0    0    0    0 -0.00000000000E+00 -0.00000000000E+00 -0.74505805969E-08  0.93827000000E+00  0.93827000000E+00 0. -1.
     999902    2    1    2    0    0  0.23014057836E-01 -0.40818150117E-02  0.29305647829E-02  0.10203737634E+01  0.10201018188E+01 0.  0.
     999903    2    3    3    0    0 -0.64250637399E-01 -0.47537466112E-01 -0.99368540160E-01  0.12910016484E+00  0.20119410992E-01 0.  0.
         14    1    1    2    0    0 -0.23014057836E-01  0.40818150117E-02 -0.29305647829E-02  0.23556236580E-01  0.00000000000E+00 0. -1.
     999901    1    3    3    0    0  0.87264695235E-01  0.43455651100E-01  0.10229910494E+00  0.89127359858E+00  0.88000000000E+00 0.  1.
        -11    1    4    4    0    0 -0.46025608781E-01 -0.39751265726E-01 -0.62302992280E-01  0.87065743886E-01  0.51100000000E-03 0. -1.
         11    1    4    4    0    0 -0.18225028618E-01 -0.77862003863E-02 -0.37065547880E-01  0.42034420957E-01  0.51100000000E-03 0.  1.
</event>
<event>
 8    1  0.1208168E+005  0.1043930E+01  0.7957747E-01            NaN
         13   -1    0    0    0    0  0.00000000000E+00  0.00000000000E+00  0.74505805969E-08  0.10566000000E+00  0.10566000000E+00 0.  1.
     999900   -1    0    0    0    0 -0.00000000000E+00 -0.00000000000E+00 -0.74505805969E-08  0.93827000000E+00  0.93827000000E+00 0.  1.
     999902    2    1    2    0    0  0.21513198019E-01 -0.77812002952E-02  0.85526064802E-02  0.10195064080E+01  0.10192138167E+01 0.  0.
     999903    2    3    3    0    0 -0.10184201740E+00 -0.34186307111E-01  0.67750706521E-01  0.12854167591E+00  0.19806668316E-01 0.  0.
         14    1    1    2    0    0 -0.21513198019E-01  0.77812002952E-02 -0.85526064802E-02  0.24423591968E-01  0.00000000000E+00 0. -1.
     999901    1    3    3    0    0  0.12335521542E+00  0.26405106815E-01 -0.59198100041E-01  0.89096473212E+00  0.88000000000E+00 0.  1.
        -11    1    4    4    0    0 -0.14537348362E-01 -0.83800199917E-02  0.35976547241E-02  0.17168677089E-01  0.51100000000E-03 0. -1.
         11    1    4    4    0    0 -0.87304669037E-01 -0.25806287119E-01  0.64153051797E-01  0.11137299882E+00  0.51100000000E-03 0.  1.
</event>
<event>
 8    1  0.1208168E+005  0.1043930E+01  0.7957747E-01            NaN
         13   -1    0    0    0    0  0.00000000000E+00  0.00000000000E+00  0.74505805969E-08  0.10566000000E+00  0.10566000000E+00 0.  1.
     999900   -1    0    0    0    0 -0.00000000000E+00 -0.00000000000E+00 -0.74505805969E-08  0.93827000000E+00  0.93827000000E+00 0.  1.
     999902    2    1    2    0    0 -0.13454402601E-01 -0.70172004020E-02 -0.18221255777E-01  0.10202176359E+01  0.10199420318E+01 0.  0.
     999903    2    3    3    0    0 -0.32262295130E-01  0.12449921006E+00  0.48555489033E-02  0.12994641766E+00  0.17932822327E-01 0.  0.
         14    1    1    2    0    0  0.13454402601E-01  0.70172004020E-02  0.18221255777E-01  0.23712364136E-01  0.00000000000E+00 0.  1.
     999901    1    3    3    0    0  0.18807892529E-01 -0.13151641046E+00 -0.23076804680E-01  0.89027121820E+00  0.88000000000E+00 0. -1.
        -11    1    4    4    0    0 -0.25836019856E-01  0.98529437610E-01 -0.34771392334E-02  0.10192105580E+00  0.51100000000E-03 0.  1.
         11    1    4    4    0    0 -0.64262752744E-02  0.25969772447E-01  0.83326881367E-02  0.28025361861E-01  0.51100000000E-03 0. -1.
</event>
<event>
 8    1  0.1208168E+005  0.1043930E+01  0.7957747E-01            NaN
         13   -1    0    0    0    0  0.00000000000E+00  0.00000000000E+00  0.74505805969E-08  0.10566000000E+00  0.10566000000E+00 0. -1.
     999900   -1    0    0    0    0 -0.00000000000E+00 -0.00000000000E+00 -0.74505805969E-08  0.93827000000E+00  0.93827000000E+00 0. -1.
     999902    2    1    2    0    0 -0.15250917594E-01 -0.64831542670E-02 -0.16903182357E-01  0.10202585119E+01  0.10199838683E+01 0.  0.
     999903    2    3    3    0    0  0.12439102811E+00 -0.26241610991E-01  0.50639777950E-02  0.12875818896E+00  0.19780731342E-01 0.  0.
         14    1    1    2    0    0  0.15250917594E-01  0.64831542670E-02  0.16903182357E-01  0.23671488134E-01  0.00000000000E+00 0. -1.
     999901    1    3    3    0    0 -0.13964194570E+00  0.19758456724E-01 -0.21967160152E-01  0.89150032290E+00  0.88000000000E+00 0. -1.
        -11    1    4    4    0    0  0.11516386900E+00 -0.18858085256E-01  0.62769175090E-02  0.11686746732E+00  0.51100000000E-03 0. -1.
         11    1    4    4    0    0  0.92271591061E-02 -0.73835257349E-02 -0.12129397140E-02  0.11890721643E-01  0.51100000000E-03 0.  1.
</event>
<event>
 8    1  0.1208168E+005  0.1043930E+01  0.7957747E-01            NaN
         13   -1    0    0    0    0  0.00000000000E+00  0.00000000000E+00  0.74505805969E-08  0.10566000000E+00  0.10566000000E+00 0. -1.
     999900   -1    0    0    0    0 -0.00000000000E+00 -0.00000000000E+00 -0.74505805969E-08  0.93827000000E+00  0.93827000000E+00 0. -1.
     999902    2    1    2    0    0 -0.93105409586E-02 -0.19047859238E-01 -0.12623694477E-01  0.10192548146E+01  0.10189560894E+01 0.  0.
     999903    2    3    3    0    0  0.73117318540E-01 -0.42210048169E-01  0.94938231310E-01  0.12858068397E+00  0.19796315026E-01 0.  0.
         14    1    1    2    0    0  0.93105409586E-02  0.19047859238E-01  0.12623694477E-01  0.24675185445E-01  0.00000000000E+00 0. -1.
     999901    1    3    3    0    0 -0.82427859499E-01  0.23162188931E-01 -0.10756192579E+00  0.89067413059E+00  0.88000000000E+00 0. -1.
        -11    1    4    4    0    0  0.57955125639E-01 -0.38012576842E-01  0.66372846242E-01  0.95965454333E-01  0.51100000000E-03 0.  1.
         11    1    4    4    0    0  0.15162192901E-01 -0.41974713264E-02  0.28565385068E-01  0.32615229636E-01  0.51100000000E-03 0. -1.
</event>
<event>
 8    1  0.1208168E+005  0.1043930E+01  0.7957747E-01            NaN
         13   -1    0    0    0    0  0.00000000000E+00  0.00000000000E+00  0.74505805969E-08  0.10566000000E+00  0.10566000000E+00 0. -1.
     999900   -1    0    0    0    0 -0.00000000000E+00 -0.00000000000E+00 -0.74505805969E-08  0.93827000000E+00  0.93827000000E+00 0. -1.
     999902    2    1    2    0    0 -0.16970836109E-01  0.16598616651E-01 -0.54588072859E-02  0.10195717995E+01  0.10192807918E+01 0.  0.
     999903    2    3    3    0    0 -0.58403391520E-01  0.89431911977E-01 -0.76950257865E-01  0.13270519566E+00  0.16742274319E-01 0.  0.
         14    1    1    2    0    0  0.16970836109E-01 -0.16598616651E-01  0.54588072859E-02  0.24358200467E-01  0.00000000000E+00 0. -1.
     999901    1    3    3    0    0  0.41432555410E-01 -0.72833295326E-01  0.71491450579E-01  0.88686660387E+00  0.88000000000E+00 0. -1.
        -11    1    4    4    0    0 -0.46684469272E-01  0.66115556555E-01 -0.49738461615E-01  0.94999379865E-01  0.51100000000E-03 0. -1.
         11    1    4    4    0    0 -0.11718922248E-01  0.23316355422E-01 -0.27211796250E-01  0.37705815798E-01  0.51100000000E-03 0.  1.
</event>
<event>
 8    1  0.1208168E+005  0.1043930E+01  0.7957747E-01            NaN
         13   -1    0    0    0    0  0.00000000000E+00  0.00000000000E+00  0.74505805969E-08  0.10566000000E+00  0.10566000000E+00 0.  1.
     999900   -1    0    0    0    0 -0.00000000000E+00 -0.00000000000E+00 -0.74505805969E-08  0.93827000000E+00  0.93827000000E+00 0. -1.
     999902    2    1    2    0    0 -0.18390163611E-01  0.10627506671E-01 -0.13356315484E-01  0.10188395002E+01  0.10185305072E+01 0.  0.
     999903    2    3    3    0    0  0.53252444591E-01 -0.11246656538E+00 -0.18788801388E-01  0.12737198776E+00  0.19648232079E-01 0.  0.
         14    1    1    2    0    0  0.18390163611E-01 -0.10627506671E-01  0.13356315484E-01  0.25090499775E-01  0.00000000000E+00 0.  1.
     999901    1    3    3    0    0 -0.71642608202E-01  0.12309407205E+00  0.54324859044E-02  0.89146751247E+00  0.88000000000E+00 0.  1.
        -11    1    4    4    0    0  0.14354756249E-01 -0.18559959735E-01 -0.94450728596E-02  0.25298253985E-01  0.51100000000E-03 0.  1.
         11    1    4    4    0    0  0.38897688342E-01 -0.93906605645E-01 -0.93437285283E-02  0.10207373377E+00  0.51100000000E-03 0. -1.
</event>
<event>
 8    1  0.1208168E+005  0.1043930E+01  0.7957747E-01            NaN
         13   -1    0    0    0    0  0.00000000000E+00  0.00000000000E+00  0.74505805969E-08  0.10566000000E+00  0.10566000000E+00 0.  1.
     999900   -1    0    0    0    0 -0.00000000000E+00 -0.00000000000E+00 -0.74505805969E-08  0.93827000000E+00  0.93827000000E+00 0.  1.
     999902    2    1    2    0    0  0.22403319323E-01 -0.75883869705E-02  0.46691172515E-02  0.10198199816E+01  0.10195349439E+01 0.  0.
     999903    2    3    3    0    0  0.12039928863E+00 -0.46989845119E-01 -0.22094728974E-01  0.13310019021E+00  0.22879015237E-01 0.  0.
         14    1    1    2    0    0 -0.22403319323E-01  0.75883869705E-02 -0.46691172515E-02  0.24110018445E-01  0.00000000000E+00 0. -1.
     999901    1    3    3    0    0 -0.97995969305E-01  0.39401458148E-01  0.26763846225E-01  0.88671979135E+00  0.88000000000E+00 0. -1.
        -11    1    4    4    0    0  0.46650825950E-01 -0.67285296645E-02 -0.10347997952E-01  0.48258831895E-01  0.51100000000E-03 0.  1.
         11    1    4    4    0    0  0.73748462678E-01 -0.40261315454E-01 -0.11746731022E-01  0.84841358312E-01  0.51100000000E-03 0. -1.
</event>
<event>
 8    1  0.1208168E+005  0.1043930E+01  0.7957747E-01            NaN
         13   -1    0    0    0    0  0.00000000000E+00  0.00000000000E+00  0.74505805969E-08  0.10566000000E+00  0.10566000000E+00 0. -1.
     999900   -1    0    0    0    0 -0.00000000000E+00 -0.00000000000E+00 -0.74505805969E-08  0.93827000000E+00  0.93827000000E+00 0. -1.
     999902    2    1    2    0    0 -0.15741865219E-01  0.31646542620E-02  0.20483837290E-01  0.10179029190E+01  0.10175701172E+01 0.  0.
     999903    2    3    3    0    0  0.12890470481E-01  0.92607645862E-01  0.88864628916E-01  0.13026797595E+00  0.18179190971E-01 0.  0.
         14    1    1    2    0    0  0.15741865219E-01 -0.31646542620E-02 -0.20483837290E-01  0.26027081037E-01  0.00000000000E+00 0.  1.
     999901    1    3    3    0    0 -0.28632335701E-01 -0.89442991600E-01 -0.68380791627E-01  0.88763494301E+00  0.88000000000E+00 0.  1.
        -11    1    4    4    0    0  0.65907525634E-03  0.63212711486E-01  0.55147585320E-01  0.83891588143E-01  0.51100000000E-03 0. -1.
         11    1    4    4    0    0  0.12231395225E-01  0.29394934377E-01  0.33717043597E-01  0.46376387807E-01  0.51100000000E-03 0.  1.
</event>
<event>
 8    1  0.1208168E+005  0.1043930E+01  0.7957747E-01            NaN
         13   -1    0    0    0    0  0.00000000000E+00  0.00000000000E+00  0.74505805969E-08  0.10566000000E+00  0.10566000000E+00 0.  1.
     999900   -1    0    0    0    0 -0.00000000000E+00 -0.00000000000E+00 -0.74505805969E-08  0.93827000000E+00  0.93827000000E+00 0.  1.
     999902    2    1    2    0    0  0.22507964170E-01 -0.76447417118E-02 -0.31502483443E-02  0.10199513722E+01  0.10196694695E+01 0.  0.
     999903    2    3    3    0    0  0.19607537185E-01  0.12565768056E+00 -0.16063293088E-01  0.12981391371E+00  0.20477172913E-01 0.  0.
         14    1    1    2    0    0 -0.22507964170E-01  0.76447417118E-02  0.31502483443E-02  0.23978627808E-01  0.00000000000E+00 0.  1.
     999901    1    3    3    0    0  0.29004269843E-02 -0.13330242227E+00  0.12913044743E-01  0.89013745848E+00  0.88000000000E+00 0. -1.
        -11    1    4    4    0    0 -0.10897290118E-02  0.83790980188E-02  0.34365038902E-02  0.91360534650E-02  0.51100000000E-03 0.  1.
         11    1    4    4    0    0  0.20697266197E-01  0.11727858254E+00 -0.19499796978E-01  0.12067786025E+00  0.51100000000E-03 0. -1.
</event>
<event>
 8    1  0.1208168E+005  0.1043930E+01  0.7957747E-01            NaN
         13   -1    0    0    0    0  0.00000000000E+00  0.00000000000E+00  0.74505805969E-08  0.10566000000E+00  0.10566000000E+00 0.  1.
     999900   -1    0    0    0    0 -0.00000000000E+00 -0.00000000000E+00 -0.74505805969E-08  0.93827000000E+00  0.93827000000E+00 0. -1.
     999902    2    1    2    0    0 -0.10164091716E-01 -0.13866076632E-01 -0.16774091167E-01  0.10199102794E+01  0.10196273982E+01 0.  0.
     999903    2    3    3    0    0  0.90988798232E-01 -0.96199635962E-02 -0.91556030784E-01  0.13095455775E+00  0.19876728089E-01 0.  0.
         14    1    1    2    0    0  0.10164091716E-01  0.13866076632E-01  0.16774091167E-01  0.24019720565E-01  0.00000000000E+00 0.  1.
     999901    1    3    3    0    0 -0.10115288995E+00 -0.42461130355E-02  0.74781939617E-01  0.88895572168E+00  0.88000000000E+00 0.  1.
        -11    1    4    4    0    0  0.46083979682E-01 -0.11488118586E-01 -0.36622489598E-01  0.59976478034E-01  0.51100000000E-03 0. -1.
         11    1    4    4    0    0  0.44904818550E-01  0.18681549901E-02 -0.54933541187E-01  0.70978079717E-01  0.51100000000E-03 0.  1.
</event>
<event>
 8    1  0.1208168E+005  0.1043930E+01  0.7957747E-01            NaN
         13   -1    0    0    0    0  0.00000000000E+00  0.00000000000E+00  0.74505805969E-08  0.10566000000E+00  0.10566000000E+00 0. -1.
     999900   -1    0    0    0    0 -0.00000000000E+00 -0.00000000000E+00 -0.74505805969E-08  0.93827000000E+00  0.93827000000E+00 0.  1.
     999902    2    1    2    0    0  0.14672063695E-01 -0.17191538326E-01  0.62078773132E-02  0.10204916514E+01  0.10202224534E+01 0.  0.
     999903    2    3    3    0    0 -0.93199853840E-01 -0.27849928644E-01  0.84446614162E-01  0.13039544774E+00  0.20246255610E-01 0.  0.
         14    1    1    2    0    0 -0.14672063695E-01  0.17191538326E-01 -0.62078773132E-02  0.23438348573E-01  0.00000000000E+00 0. -1.
     999901    1    3    3    0    0  0.10787191753E+00  0.10658390317E-01 -0.78238736849E-01  0.89009620369E+00  0.88000000000E+00 0. -1.
        -11    1    4    4    0    0 -0.37462637704E-01 -0.64507856279E-02  0.44646293387E-01  0.58639700657E-01  0.51100000000E-03 0. -1.
         11    1    4    4    0    0 -0.55737216136E-01 -0.21399143016E-01  0.39800320775E-01  0.71755747082E-01  0.51100000000E-03 0.  1.
</event>
<event>
 8    1  0.1208168E+005  0.1043930E+01  0.7957747E-01            NaN
         13   -1    0    0    0    0  0.00000000000E+00  0.00000000000E+00  0.74505805969E-08  0.10566000000E+00  0.10566000000E+00 0.  1.
     999900   -1    0    0    0    0 -0.00000000000E+00 -0.00000000000E+00 -0.74505805969E-08  0.93827000000E+00  0.93827000000E+00 0. -1.
     999902    2    1    2    0    0  0.24297352923E-01 -0.93985190014E-03 -0.89208654615E-02  0.10180296811E+01  0.10177001548E+01 0.  0.
     999903    2    3    3    0    0  0.12622475349E+00 -0.37075052927E-02 -0.31936359433E-01  0.13184314999E+00  0.20402234077E-01 0.  0.
         14    1    1    2    0    0 -0.24297352923E-01  0.93985190014E-03  0.89208654615E-02  0.25900318941E-01  0.00000000000E+00 0.  1.
     999901    1    3    3    0    0 -0.10192740057E+00  0.27676533926E-02  0.23015493971E-01  0.88618653107E+00  0.88000000000E+00 0. -1.
        -11    1    4    4    0    0  0.74687627867E-01  0.53066934410E-02 -0.11907123945E-01  0.75818490313E-01  0.51100000000E-03 0. -1.
         11    1    4    4    0    0  0.51537125623E-01 -0.90141987338E-02 -0.20029235487E-01  0.56024659674E-01  0.51100000000E-03 0.  1.
</event>
<event>
 8    1  0.1208168E+005  0.1043930E+01  0.7957747E-01            NaN
         13   -1    0    0    0    0  0.00000000000E+00  0.00000000000E+00  0.74505805969E-08  0.10566000000E+00  0.10566000000E+00 0. -1.
     999900   -1    0    0    0    0 -0.00000000000E+00 -0.00000000000E+00 -0.74505805969E-08  0.93827000000E+00  0.93827000000E+00 0. -1.
     999902    2    1    2    0    0  0.90192969939E-02 -0.20379296641E-01  0.41469521551E-02  0.10212615051E+01  0.10210098927E+01 0.  0.
     999903    2    3    3    0    0 -0.10375843027E+00 -0.38310879801E-01 -0.67272072003E-01  0.13101376739E+00  0.20138028999E-01 0.  0.
         14    1    1    2    0    0 -0.90192969939E-02  0.20379296641E-01 -0.41469521551E-02  0.22668494922E-01  0.00000000000E+00 0. -1.
     999901    1    3    3    0    0  0.11277772726E+00  0.17931583159E-01  0.71419024158E-01  0.89024773768E+00  0.88000000000E+00 0.  1.
        -11    1    4    4    0    0 -0.32102553756E-01 -0.24997656721E-02 -0.16672760076E-01  0.36263822683E-01  0.51100000000E-03 0. -1.
         11    1    4    4    0    0 -0.71655876513E-01 -0.35811114129E-01 -0.50599311928E-01  0.94749944710E-01  0.51100000000E-03 0.  1.
</event>
<event>
 8    1  0.1208168E+005  0.1043930E+01  0.7957747E-01            NaN
         13   -1    0    0    0    0  0.00000000000E+00  0.00000000000E+00  0.74505805969E-08  0.10566000000E+00  0.10566000000E+00 0.  1.
     999900   -1    0    0    0    0 -0.00000000000E+00 -0.00000000000E+00 -0.74505805969E-08  0.93827000000E+00  0.93827000000E+00 0.  1.
     999902    2    1    2    0    0 -0.19669145725E-01  0.43426793192E-02  0.15013065732E-01  0.10188077728E+01  0.10184979880E+01 0.  0.
     999903    2    3    3    0    0  0.10658034113E+00 -0.63469187802E-01 -0.16163627886E-01  0.12667024501E+00  0.19909324186E-01 0.  0.
         14    1    1    2    0    0  0.19669145725E-01 -0.43426793192E-02 -0.15013065732E-01  0.25122227208E-01  0.00000000000E+00 0. -1.
     999901    1    3    3    0    0 -0.12624948685E+00  0.67811867121E-01  0.31176693617E-01  0.89213752778E+00  0.88000000000E+00 0.  1.
        -11    1    4    4    0    0  0.45209301159E-01 -0.16045708387E-01 -0.37364837463E-02  0.48120350173E-01  0.51100000000E-03 0.  1.
         11    1    4    4    0    0  0.61371039967E-01 -0.47423479415E-01 -0.12427144139E-01  0.78549894837E-01  0.51100000000E-03 0. -1.
</event>
<event>
 8    1  0.1208168E+005  0.1043930E+01  0.7957747E-01            NaN
         13   -1    0    0    0    0  0.00000000000E+00  0.00000000000E+00  0.74505805969E-08  0.10566000000E+00  0.10566000000E+00 0.  1.
     999900   -1    0    0    0    0 -0.00000000000E+00 -0.00000000000E+00 -0.74505805969E-08  0.93827000000E+00  0.93827000000E+00 0. -1.
     999902    2    1    2    0    0 -0.79214372112E-02 -0.15690523574E-01 -0.16382982745E-01  0.10199020200E+01  0.10196189419E+01 0.  0.
     999903    2    3    3    0    0  0.63861035636E-01 -0.11009087476E+00 -0.29495878330E-01  0.13185016471E+00  0.17782759016E-01 0.  0.
         14    1    1    2    0    0  0.79214372112E-02  0.15690523574E-01  0.16382982745E-01  0.24027979963E-01  0.00000000000E+00 0.  1.
     999901    1    3    3    0    0 -0.71782472847E-01  0.94400351187E-01  0.13112895586E-01  0.88805185532E+00  0.88000000000E+00 0.  1.
        -11    1    4    4    0    0  0.24006734728E-01 -0.50265677236E-01 -0.51119533415E-02  0.55940636466E-01  0.51100000000E-03 0. -1.
         11    1    4    4    0    0  0.39854300908E-01 -0.59825197525E-01 -0.24383924989E-01  0.75909528247E-01  0.51100000000E-03 0.  1.
</event>
<event>
 8    1  0.1208168E+005  0.1043930E+01  0.7957747E-01            NaN
         13   -1    0    0    0    0  0.00000000000E+00  0.00000000000E+00  0.74505805969E-08  0.10566000000E+00  0.10566000000E+00 0.  1.
     999900   -1    0    0    0    0 -0.00000000000E+00 -0.00000000000E+00 -0.74505805969E-08  0.93827000000E+00  0.93827000000E+00 0. -1.
     999902    2    1    2    0    0  0.16974468784E-01  0.14002573496E-01  0.78596046126E-02  0.10205638270E+01  0.10202963035E+01 0.  0.
     999903    2    3    3    0    0  0.98622175430E-01  0.41367261744E-01 -0.75496658036E-01  0.13244027667E+00  0.20077292631E-01 0.  0.
         14    1    1    2    0    0 -0.16974468784E-01 -0.14002573496E-01 -0.78596046126E-02  0.23366172979E-01  0.00000000000E+00 0. -1.
     999901    1    3    3    0    0 -0.81647706646E-01 -0.27364688248E-01  0.83356262648E-01  0.88812355035E+00  0.88000000000E+00 0.  1.
        -11    1    4    4    0    0  0.35125987223E-01  0.98488254514E-02 -0.15782774567E-01  0.39751621793E-01  0.51100000000E-03 0. -1.
         11    1    4    4    0    0  0.63496188207E-01  0.31518436293E-01 -0.59713883468E-01  0.92688654878E-01  0.51100000000E-03 0.  1.
</event>
<event>
 8    1  0.1208168E+005  0.1043930E+01  0.7957747E-01            NaN
         13   -1    0    0    0    0  0.00000000000E+00  0.00000000000E+00  0.74505805969E-08  0.10566000000E+00  0.10566000000E+00 0.  1.
     999900   -1    0    0    0    0 -0.00000000000E+00 -0.00000000000E+00 -0.74505805969E-08  0.93827000000E+00  0.93827000000E+00 0.  1.
     999902    2    1    2    0    0  0.15731178072E-01 -0.17285300519E-01  0.34737603460E-03  0.10205553931E+01  0.10202876742E+01 0.  0.
     999903    2    3    3    0    0  0.16993989485E-01 -0.11263088433E+00  0.66028867397E-01  0.13297078679E+00  0.18625440311E-01 0.  0.
         14    1    1    2    0    0 -0.15731178072E-01  0.17285300519E-01 -0.34737603460E-03  0.23374606899E-01  0.00000000000E+00 0.  1.
     999901    1    3    3    0    0 -0.12628114135E-02  0.95345583813E-01 -0.65681491363E-01  0.88758460631E+00  0.88000000000E+00 0.  1.
        -11    1    4    4    0    0  0.10217893765E-01 -0.71128709025E-01  0.31097476796E-01  0.78300784061E-01  0.51100000000E-03 0.  1.
         11    1    4    4    0    0  0.67760957200E-02 -0.41502175307E-01  0.34931390602E-01  0.54670002733E-01  0.51100000000E-03 0. -1.
</event>
<event>
 8    1  0.1208168E+005  0.1043930E+01  0.7957747E-01            NaN
         13   -1    0    0    0    0  0.00000000000E+00  0.00000000000E+00  0.74505805969E-08  0.10566000000E+00  0.10566000000E+00 0. -1.
     999900   -1    0    0    0    0 -0.00000000000E+00 -0.00000000000E+00 -0.74505805969E-08  0.93827000000E+00  0.93827000000E+00 0.  1.
     999902    2    1    2    0    0  0.15001458345E-03  0.89460793280E-02  0.22138829871E-01  0.10200515028E+01  0.10197719773E+01 0.  0.
     999903    2    3    3    0    0 -0.11525376751E+00 -0.54564447645E-01 -0.12080316101E-01  0.12958950480E+00  0.19667126009E-01 0.  0.
         14    1    1    2    0    0 -0.15001458345E-03 -0.89460793280E-02 -0.22138829871E-01  0.23878497184E-01  0.00000000000E+00 0.  1.
     999901    1    3    3    0    0  0.11540378209E+00  0.63510526973E-01  0.34219145972E-01  0.89046199801E+00  0.88000000000E+00 0.  1.
        -11    1    4    4    0    0 -0.69098556689E-02  0.13497846686E-02 -0.14342856400E-02  0.72032159702E-02  0.51100000000E-03 0. -1.
         11    1    4    4    0    0 -0.10834391184E+00 -0.55914232314E-01 -0.10646030461E-01  0.12238628883E+00  0.51100000000E-03 0.  1.
</event>
<event>
 8    1  0.1208168E+005  0.1043930E+01  0.7957747E-01            NaN
         13   -1    0    0    0    0  0.00000000000E+00  0.00000000000E+00  0.74505805969E-08  0.10566000000E+00  0.10566000000E+00 0.  1.
     999900   -1    0    0    0    0 -0.00000000000E+00 -0.00000000000E+00 -0.74505805969E-08  0.93827000000E+00  0.93827000000E+00 0.  1.
     999902    2    1    2    0    0  0.24752127111E-02 -0.20500004564E-01 -0.24002929845E-01  0.10122674432E+01  0.10117721379E+01 0.  0.
     999903    2    3    3    0    0 -0.45575298392E-01  0.98056318963E-01 -0.53915103528E-01  0.12251512278E+00  0.20272331141E-01 0.  0.
         14    1    1    2    0    0 -0.24752127111E-02  0.20500004564E-01  0.24002929845E-01  0.31662556850E-01  0.00000000000E+00 0.  1.
     999901    1    3    3    0    0  0.48050511103E-01 -0.11855632353E+00  0.29912173682E-01  0.88975232037E+00  0.88000000000E+00 0. -1.
        -11    1    4    4    0    0 -0.17861696531E-01  0.54937579128E-01 -0.36699796684E-01  0.68442048487E-01  0.51100000000E-03 0.  1.
         11    1    4    4    0    0 -0.27713601861E-01  0.43118739835E-01 -0.17215306844E-01  0.54073074295E-01  0.51100000000E-03 0. -1.
</event>
<event>
 8    1  0.1208168E+005  0.1043930E+01  0.7957747E-01            NaN
         13   -1    0    0    0    0  0.00000000000E+00  0.00000000000E+00  0.74505805969E-08  0.10566000000E+00  0.10566000000E+00 0.  1.
     999900   -1    0    0    0    0 -0.00000000000E+00 -0.00000000000E+00 -0.74505805969E-08  0.93827000000E+00  0.93827000000E+00 0.  1.
     999902    2    1    2    0    0 -0.10408067385E-01  0.65889018843E-02 -0.19838799050E-01  0.10205779242E+01  0.10203107272E+01 0.  0.
     999903    2    3    3    0    0 -0.59030739967E-01 -0.85552625462E-01  0.73597764834E-01  0.12951977977E+00  0.23555516939E-01 0.  0.
         14    1    1    2    0    0  0.10408067385E-01 -0.65889018843E-02  0.19838799050E-01  0.23352075764E-01  0.00000000000E+00 0.  1.
     999901    1    3    3    0    0  0.48622672582E-01  0.92141527347E-01 -0.93436563884E-01  0.89105814447E+00  0.88000000000E+00 0.  1.
        -11    1    4    4    0    0 -0.31245164009E-01 -0.36481193254E-01  0.46866731361E-01  0.67111022676E-01  0.51100000000E-03 0.  1.
         11    1    4    4    0    0 -0.27785575959E-01 -0.49071432208E-01  0.26731033473E-01  0.62408757092E-01  0.51100000000E-03 0. -1.
</event>
<event>
 8    1  0.1208168E+005  0.1043930E+01  0.7957747E-01            NaN
         13   -1    0    0    0    0  0.00000000000E+00  0.00000000000E+00  0.74505805969E-08  0.10566000000E+00  0.10566000000E+00 0.  1.
     999900   -1    0    0    0    0 -0.00000000000E+00 -0.00000000000E+00 -0.74505805969E-08  0.93827000000E+00  0.93827000000E+00 0. -1.
     999902    2    1    2    0    0 -0.78809406177E-02  0.24347335290E-01 -0.38395262596E-02  0.10180525209E+01  0.10177235830E+01 0.  0.
     999903    2    3    3    0    0 -0.81747527466E-02 -0.32609928255E-01  0.12136174477E+00  0.12736763027E+00  0.19068459384E-01 0.  0.
         14    1    1    2    0    0  0.78809406177E-02 -0.24347335290E-01  0.38395262596E-02  0.25877479063E-01  0.00000000000E+00 0. -1.
     999901    1    3    3    0    0  0.29381212893E-03  0.56957263546E-01 -0.12520127103E+00  0.89068489067E+00  0.88000000000E+00 0. -1.
        -11    1    4    4    0    0 -0.27460339942E-02 -0.16542114798E-01  0.91470631232E-01  0.92996342743E-01  0.51100000000E-03 0. -1.
         11    1    4    4    0    0 -0.54287187524E-02 -0.16067813457E-01  0.29891113539E-01  0.34371287526E-01  0.51100000000E-03 0.  1.
</event>
<event>
 8    1  0.1208168E+005  0.1043930E+01  0.7957747E-01            NaN
         13   -1    0    0    0    0  0.00000000000E+00  0.00000000000E+00  0.74505805969E-08  0.10566000000E+00  0.10566000000E+00 0.  1.
     999900   -1    0    0    0    0 -0.00000000000E+00 -0.00000000000E+00 -0.74505805969E-08  0.93827000000E+00  0.93827000000E+00 0. -1.
     999902    2    1    2    0    0  0.16649972127E-01 -0.56418293300E-03  0.16618221044E-01  0.10203990598E+01  0.10201277058E+01 0.  0.
     999903    2    3    3    0    0 -0.43924827046E-01  0.36049544634E-01 -0.11339509981E+00  0.12803515708E+00  0.17481209630E-01 0.  0.
         14    1    1    2    0    0 -0.16649972127E-01  0.56418293300E-03 -0.16618221044E-01  0.23530940162E-01  0.00000000000E+00 0. -1.
     999901    1    3    3    0    0  0.60574799173E-01 -0.36613727567E-01  0.13001332085E+00  0.89236390275E+00  0.88000000000E+00 0.  1.
        -11    1    4    4    0    0 -0.33879485056E-01  0.33679051137E-01 -0.10211041896E+00  0.11273374284E+00  0.51100000000E-03 0.  1.
         11    1    4    4    0    0 -0.10045341990E-01  0.23704934971E-02 -0.11284680845E-01  0.15301414244E-01  0.51100000000E-03 0. -1.
</event>
<event>
 8    1  0.1208168E+005  0.1043930E+01  0.7957747E-01            NaN
         13   -1    0    0    0    0  0.00000000000E+00  0.00000000000E+00  0.74505805969E-08  0.10566000000E+00  0.10566000000E+00 0.  1.
     999900   -1    0    0    0    0 -0.00000000000E+00 -0.00000000000E+00 -0.74505805969E-08  0.93827000000E+00  0.93827000000E+00 0.  1.
     999902    2    1    2    0    0  0.63357342461E-02  0.17173205447E-01  0.14502578527E-01  0.10205765142E+01  0.10203092845E+01 0.  0.
     999903    2    3    3    0    0 -0.12786000537E+00 -0.30486406709E-02  0.12877049562E-01  0.13017207694E+00  0.20529881343E-01 0.  0.
         14    1    1    2    0    0 -0.63357342461E-02 -0.17173205447E-01 -0.14502578527E-01  0.23353485772E-01  0.00000000000E+00 0. -1.
     999901    1    3    3    0    0  0.13419573961E+00  0.20221846118E-01  0.16255289649E-02  0.89040443728E+00  0.88000000000E+00 0. -1.
        -11    1    4    4    0    0 -0.27555781260E-01  0.40254329230E-02  0.99434515286E-02  0.29574626631E-01  0.51100000000E-03 0. -1.
         11    1    4    4    0    0 -0.10030422411E+00 -0.70740735939E-02  0.29335980336E-02  0.10059745031E+00  0.51100000000E-03 0.  1.
</event>
<event>
 7    1  0.1208168E+005  0.1043930E+01  0.7957747E-01            NaN
         13   -1    0    0    0    0  0.00000000000E+00  0.00000000000E+00  0.74505805969E-08  0.10566000000E+00  0.10566000000E+00 0. -1.
     999900   -1    0    0    0    0 -0.00000000000E+00 -0.00000000000E+00 -0.74505805969E-08  0.93827000000E+00  0.93827000000E+00 0. -1.
     999902    2    1    2    0    0  0.88401614452E-02  0.54909938496E-02  0.17013380975E-01  0.10239862140E+01  0.10237919768E+01 0.  0.
         14    1    1    2    0    0 -0.88401614452E-02 -0.54909938496E-02 -0.17013380975E-01  0.19943786000E-01  0.00000000000E+00 0.  1.
     999901    1    3    3    0    0  0.20537281735E-01 -0.19421265182E-01  0.13928662339E+00  0.89140323588E+00  0.88000000000E+00 0.  1.
        -11    1    3    3    0    0  0.76836607720E-02  0.21343471401E-01 -0.26890452662E-01  0.35184371242E-01  0.51100000000E-03 0.  1.
         11    1    3    3    0    0 -0.19380781062E-01  0.35687876303E-02 -0.95382789753E-01  0.97398606878E-01  0.51100000000E-03 0. -1.
</event>
<event>
 8    1  0.1208168E+005  0.1043930E+01  0.7957747E-01            NaN
         13   -1    0    0    0    0  0.00000000000E+00  0.00000000000E+00  0.74505805969E-08  0.10566000000E+00  0.10566000000E+00 0.  1.
     999900   -1    0    0    0    0 -0.00000000000E+00 -0.00000000000E+00 -0.74505805969E-08  0.93827000000E+00  0.93827000000E+00 0. -1.
     999902    2    1    2    0    0 -0.15969653723E-01 -0.17063874460E-01 -0.59588322662E-02  0.10198112659E+01  0.10195260197E+01 0.  0.
     999903    2    3    3    0    0 -0.12330774744E+00  0.17383204169E-01  0.37357593767E-01  0.13156333862E+00  0.20158023014E-01 0.  0.
         14    1    1    2    0    0  0.15969653723E-01  0.17063874460E-01  0.59588322662E-02  0.24118734079E-01  0.00000000000E+00 0. -1.
     999901    1    3    3    0    0  0.10733809371E+00 -0.34447078629E-01 -0.43316426033E-01  0.88824792730E+00  0.88000000000E+00 0. -1.
        -11    1    4    4    0    0 -0.13640185209E-01  0.64405697637E-02  0.96713780580E-02  0.17925743107E-01  0.51100000000E-03 0. -1.
         11    1    4    4    0    0 -0.10966756223E+00  0.10942634405E-01  0.27686215709E-01  0.11363759551E+00  0.51100000000E-03 0.  1.
</event>
<event>
 8    1  0.1208168E+005  0.1043930E+01  0.7957747E-01            NaN
         13   -1    0    0    0    0  0.00000000000E+00  0.00000000000E+00  0.74505805969E-08  0.10566000000E+00  0.10566000000E+00 0.  1.
     999900   -1    0    0    0    0 -0.00000000000E+00 -0.00000000000E+00 -0.74505805969E-08  0.93827000000E+00  0.93827000000E+00 0. -1.
     999902    2    1    2    0    0 -0.57933460368E-03 -0.10726255339E-01 -0.20984791536E-01  0.10203556568E+01  0.10200832891E+01 0.  0.
     999903    2    3    3    0    0  0.76362563435E-01 -0.66211946075E-01  0.79031542155E-01  0.12962450512E+00  0.18473353070E-01 0.  0.
         14    1    1    2    0    0  0.57933460368E-03  0.10726255339E-01  0.20984791536E-01  0.23574343215E-01  0.00000000000E+00 0.  1.
     999901    1    3    3    0    0 -0.76941898039E-01  0.55485690735E-01 -0.10001633369E+00  0.89073115167E+00  0.88000000000E+00 0. -1.
        -11    1    4    4    0    0  0.58616412302E-01 -0.39944938700E-01  0.57311196488E-01  0.91193839061E-01  0.51100000000E-03 0.  1.
         11    1    4    4    0    0  0.17746151133E-01 -0.26267007374E-01  0.21720345667E-01  0.38430666054E-01  0.51100000000E-03 0. -1.
</event>
<event>
 8    1  0.1208168E+005  0.1043930E+01  0.7957747E-01            NaN
         13   -1    0    0    0    0  0.00000000000E+00  0.00000000000E+00  0.74505805969E-08  0.10566000000E+00  0.10566000000E+00 0.  1.
     999900   -1    0    0    0    0 -0.00000000000E+00 -0.00000000000E+00 -0.74505805969E-08  0.93827000000E+00  0.93827000000E+00 0.  1.
     999902    2    1    2    0    0  0.14374970380E-01 -0.21317365958E-02 -0.17191058040E-01  0.10214196346E+01  0.10211715592E+01 0.  0.
     999903    2    3    3    0    0  0.12394563117E+00 -0.39540255714E-02 -0.47145385986E-01  0.13411680455E+00  0.19658993820E-01 0.  0.
         14    1    1    2    0    0 -0.14374970380E-01  0.21317365958E-02  0.17191058040E-01  0.22510365409E-01  0.00000000000E+00 0.  1.
     999901    1    3    3    0    0 -0.10957066079E+00  0.18222889756E-02  0.29954327946E-01  0.88730283004E+00  0.88000000000E+00 0.  1.
        -11    1    4    4    0    0  0.10043126456E-01  0.48141765301E-02 -0.62206208767E-02  0.12767064258E-01  0.51100000000E-03 0.  1.
         11    1    4    4    0    0  0.11390250471E+00 -0.87682021015E-02 -0.40924765109E-01  0.12134974029E+00  0.51100000000E-03 0. -1.
</event>
<event>
 8    1  0.1208168E+005  0.1043930E+01  0.7957747E-01            NaN
         13   -1    0    0    0    0  0.00000000000E+00  0.00000000000E+00  0.74505805969E-08  0.10566000000E+00  0.10566000000E+00 0. -1.
     999900   -1    0    0    0    0 -0.00000000000E+00 -0.00000000000E+00 -0.74505805969E-08  0.93827000000E+00  0.93827000000E+00 0. -1.
     999902    2    1    2    0    0  0.96061159099E-02  0.16747353676E-01 -0.13314514699E-01  0.10204773324E+01  0.10202078015E+01 0.  0.
     999903    2    3    3    0    0 -0.12125192921E+00 -0.37235958532E-01  0.10781833013E-01  0.12883914343E+00  0.19867813474E-01 0.  0.
         14    1    1    2    0    0 -0.96061159099E-02 -0.16747353676E-01  0.13314514699E-01  0.23452667646E-01  0.00000000000E+00 0. -1.
     999901    1    3    3    0    0  0.13085804512E+00  0.53983312208E-01 -0.24096347712E-01  0.89163818892E+00  0.88000000000E+00 0.  1.
        -11    1    4    4    0    0 -0.78732699983E-01 -0.33196983447E-01  0.10791418052E-01  0.86125452575E-01  0.51100000000E-03 0. -1.
         11    1    4    4    0    0 -0.42519229228E-01 -0.40389750847E-02 -0.95850388713E-05  0.42713690858E-01  0.51100000000E-03 0.  1.
</event>
<event>
 8    1  0.1208168E+005  0.1043930E+01  0.7957747E-01            NaN
         13   -1    0    0    0    0  0.00000000000E+00  0.00000000000E+00  0.74505805969E-08  0.10566000000E+00  0.10566000000E+00 0.  1.
     999900   -1    0    0    0    0 -0.00000000000E+00 -0.00000000000E+00 -0.74505805969E-08  0.93827000000E+00  0.93827000000E+00 0.  1.
     999902    2    1    2    0    0  0.15654333494E-02 -0.20953492250E-01  0.11884563998E-01  0.10197899445E+01  0.10195041876E+01 0.  0.
     999903    2    3    3    0    0  0.92019489683E-01  0.86533097173E-01 -0.89029716561E-02  0.12840482858E+00  0.21283179043E-01 0.  0.
         14    1    1    2    0    0 -0.15654333494E-02  0.20953492250E-01 -0.11884563998E-01  0.24140055519E-01  0.00000000000E+00 0. -1.
     999901    1    3    3    0    0 -0.90454056334E-01 -0.10748658942E+00  0.20787535654E-01  0.89138511590E+00  0.88000000000E+00 0.  1.
        -11    1    4    4    0    0  0.63459423872E-01  0.45498802510E-01 -0.45773236578E-02  0.78220537718E-01  0.51100000000E-03 0. -1.
         11    1    4    4    0    0  0.28560065811E-01  0.41034294663E-01 -0.43256479983E-02  0.50184290861E-01  0.51100000000E-03 0.  1.
</event>
<event>
 8    1  0.1208168E+005  0.1043930E+01  0.7957747E-01            NaN
         13   -1    0    0    0    0  0.00000000000E+00  0.00000000000E+00  0.74505805969E-08  0.10566000000E+00  0.10566000000E+00 0.  1.
     999900   -1    0    0    0    0 -0.00000000000E+00 -0.00000000000E+00 -0.74505805969E-08  0.93827000000E+00  0.93827000000E+00 0.  1.
     999902    2    1    2    0    0 -0.18715598400E-01  0.12988750051E-01  0.52234880677E-02  0.10205576642E+01  0.10202899980E+01 0.  0.
     999903    2    3    3    0    0 -0.12692105734E-01  0.94850766026E-01  0.89836554036E-01  0.13269672746E+00  0.19495067939E-01 0.  0.
         14    1    1    2    0    0  0.18715598400E-01 -0.12988750051E-01 -0.52234880677E-02  0.23372335762E-01  0.00000000000E+00 0. -1.
     999901    1    3    3    0    0 -0.60234926662E-02 -0.81862015975E-01 -0.84613065968E-01  0.88786093678E+00  0.88000000000E+00 0.  1.
        -11    1    4    4    0    0 -0.16495039003E-01  0.66989918940E-01  0.69968729201E-01  0.98263013074E-01  0.51100000000E-03 0. -1.
         11    1    4    4    0    0  0.38029332688E-02  0.27860847086E-01  0.19867824835E-01  0.34433714387E-01  0.51100000000E-03 0.  1.
</event>
<event>
 8    1  0.1208168E+005  0.1043930E+01  0.7957747E-01            NaN
         13   -1    0    0    0    0  0.00000000000E+00  0.00000000000E+00  0.74505805969E-08  0.10566000000E+00  0.10566000000E+00 0. -1.
     999900   -1    0    0    0    0 -0.00000000000E+00 -0.00000000000E+00 -0.74505805969E-08  0.93827000000E+00  0.93827000000E+00 0.  1.
     999902    2    1    2    0    0 -0.19173030351E-01 -0.83593373157E-04 -0.13462551527E-01  0.10205024014E+01  0.10202334532E+01 0.  0.
     999903    2    3    3    0    0 -0.58975786618E-01  0.70788460282E-01 -0.93888912465E-01  0.13310423436E+00  0.20309106463E-01 0.  0.
         14    1    1    2    0    0  0.19173030351E-01  0.83593373157E-04  0.13462551527E-01  0.23427598560E-01  0.00000000000E+00 0. -1.
     999901    1    3    3    0    0  0.39802756267E-01 -0.70872053656E-01  0.80426360938E-01  0.88739816708E+00  0.88000000000E+00 0.  1.
        -11    1    4    4    0    0 -0.28921580261E-01  0.42549969277E-01 -0.39597489233E-01  0.64924417324E-01  0.51100000000E-03 0.  1.
         11    1    4    4    0    0 -0.30054206357E-01  0.28238491005E-01 -0.54291423233E-01  0.68179817040E-01  0.51100000000E-03 0. -1.
</event>
<event>
 8    1  0.1208168E+005  0.1043930E+01  0.7957747E-01            NaN
         13   -1    0    0    0    0  0.00000000000E+00  0.00000000000E+00  0.74505805969E-08  0.10566000000E+00  0.10566000000E+00 0.  1.
     999900   -1    0    0    0    0 -0.00000000000E+00 -0.00000000000E+00 -0.74505805969E-08  0.93827000000E+00  0.93827000000E+00 0. -1.
     999902    2    1    2    0    0 -0.18114961378E-01 -0.98639673421E-02 -0.71845141599E-02  0.10220881383E+01  0.10218547331E+01 0.  0.
     999903    2    3    3    0    0 -0.75452812470E-01  0.10694117502E+00 -0.10212993169E-01  0.13251507099E+00  0.18066460273E-01 0.  0.
         14    1    1    2    0    0  0.18114961378E-01  0.98639673421E-02  0.71845141599E-02  0.21841861669E-01  0.00000000000E+00 0.  1.
     999901    1    3    3    0    0  0.57337851093E-01 -0.11680514236E+00  0.30284790095E-02  0.88957306734E+00  0.88000000000E+00 0. -1.
        -11    1    4    4    0    0 -0.36614905590E-01  0.37044661078E-01 -0.61198166392E-02  0.52446844542E-01  0.51100000000E-03 0.  1.
         11    1    4    4    0    0 -0.38837906880E-01  0.69896513939E-01 -0.40931765302E-02  0.80068226450E-01  0.51100000000E-03 0. -1.
</event>
<event>
 8    1  0.1208168E+005  0.1043930E+01  0.7957747E-01            NaN
         13   -1    0    0    0    0  0.00000000000E+00  0.00000000000E+00  0.74505805969E-08  0.10566000000E+00  0.10566000000E+00 0. -1.
     999900   -1    0    0    0    0 -0.00000000000E+00 -0.00000000000E+00 -0.74505805969E-08  0.93827000000E+00  0.93827000000E+00 0.  1.
     999902    2    1    2    0    0  0.15988868987E-01  0.12329943339E-01  0.12697578486E-01  0.10200783767E+01  0.10197994875E+01 0.  0.
     999903    2    3    3    0    0  0.12472062064E+00  0.26745733901E-01  0.26552350647E-01  0.13316103922E+00  0.27500319012E-01 0.  0.
         14    1    1    2    0    0 -0.15988868987E-01 -0.12329943339E-01 -0.12697578486E-01  0.23851623292E-01  0.00000000000E+00 0.  1.
     999901    1    3    3    0    0 -0.10873175165E+00 -0.14415790562E-01 -0.13854772161E-01  0.88691733749E+00  0.88000000000E+00 0. -1.
        -11    1    4    4    0    0  0.66250695373E-01  0.23166332892E-01  0.25170748235E-01  0.74563136367E-01  0.51100000000E-03 0.  1.
         11    1    4    4    0    0  0.58469925264E-01  0.35794010095E-02  0.13816024117E-02  0.58597902848E-01  0.51100000000E-03 0. -1.
</event>
<event>
 8    1  0.1208168E+005  0.1043930E+01  0.7957747E-01            NaN
         13   -1    0    0    0    0  0.00000000000E+00  0.00000000000E+00  0.74505805969E-08  0.10566000000E+00  0.10566000000E+00 0. -1.
     999900   -1    0    0    0    0 -0.00000000000E+00 -0.00000000000E+00 -0.74505805969E-08  0.93827000000E+00  0.93827000000E+00 0.  1.
     999902    2    1    2    0    0  0.20246690490E-01  0.62225653285E-02  0.63839370293E-02  0.10218075352E+01  0.10215680279E+01 0.  0.
     999903    2    3    3    0    0 -0.53483780371E-01 -0.93806875206E-01 -0.69621454093E-01  0.12983282103E+00  0.18686089701E-01 0.  0.
         14    1    1    2    0    0 -0.20246690490E-01 -0.62225653285E-02 -0.63839370293E-02  0.22122464760E-01  0.00000000000E+00 0. -1.
     999901    1    3    3    0    0  0.73730470861E-01  0.10002944053E+00  0.76005391123E-01  0.89197471421E+00  0.88000000000E+00 0. -1.
        -11    1    4    4    0    0 -0.45872338461E-01 -0.67524969660E-01 -0.46129374406E-01  0.93766056052E-01  0.51100000000E-03 0.  1.
         11    1    4    4    0    0 -0.76114419104E-02 -0.26281905546E-01 -0.23492079687E-01  0.36066764980E-01  0.51100000000E-03 0. -1.
</event>
<event>
 8    1  0.1208168E+005  0.1043930E+01  0.7957747E-01            NaN
         13   -1    0    0    0    0  0.00000000000E+00  0.00000000000E+00  0.74505805969E-08  0.10566000000E+00  0.10566000000E+00 0.  1.
     999900   -1    0    0    0    0 -0.00000000000E+00 -0.00000000000E+00 -0.74505805969E-08  0.93827000000E+00  0.93827000000E+00 0. -1.
     999902    2    1    2    0    0 -0.81963047209E-02  0.19642354374E-01  0.11558061189E-01  0.10197103742E+01  0.10194227077E+01 0.  0.
     999903    2    3    3    0    0  0.90426448875E-01 -0.85125544535E-01  0.23701190830E-01  0.12794234618E+00  0.19600931362E-01 0.  0.
         14    1    1    2    0    0  0.81963047209E-02 -0.19642354374E-01 -0.11558061189E-01  0.24219625820E-01  0.00000000000E+00 0. -1.
     999901    1    3    3    0    0 -0.98622753596E-01  0.10476789891E+00 -0.12143129641E-01  0.89176802800E+00  0.88000000000E+00 0. -1.
        -11    1    4    4    0    0  0.47801025950E-01 -0.58133343768E-01  0.14904102224E-01  0.76725596274E-01  0.51100000000E-03 0. -1.
         11    1    4    4    0    0  0.42625422925E-01 -0.26992200768E-01  0.87970886051E-02  0.51216749904E-01  0.51100000000E-03 0.  1.
</event>
<event>
 8    1  0.1208168E+005  0.1043930E+01  0.7957747E-01            NaN
         13   -1    0    0    0    0  0.00000000000E+00  0.00000000000E+00  0.74505805969E-08  0.10566000000E+00  0.10566000000E+00 0.  1.
     999900   -1    0    0    0    0 -0.00000000000E+00 -0.00000000000E+00 -0.74505805969E-08  0.93827000000E+00  0.93827000000E+00 0. -1.
     999902    2    1    2    0    0  0.80592404052E-02 -0.21473807185E-01  0.80171972966E-02  0.10196328561E+01  0.10193433229E+01 0.  0.
     999903    2    3    3    0    0  0.46529863608E-01  0.10859177600E+00 -0.43857117971E-01  0.12773152219E+00  0.20849291159E-01 0.  0.
         14    1    1    2    0    0 -0.80592404052E-02  0.21473807185E-01 -0.80171972966E-02  0.24297143935E-01  0.00000000000E+00 0.  1.
     999901    1    3    3    0    0 -0.38470623203E-01 -0.13006558319E+00  0.51874315268E-01  0.89190133387E+00  0.88000000000E+00 0.  1.
        -11    1    4    4    0    0  0.56964991244E-02  0.44515771919E-02 -0.66751058252E-02  0.98531619568E-02  0.51100000000E-03 0. -1.
         11    1    4    4    0    0  0.40833364484E-01  0.10414019881E+00 -0.37182012146E-01  0.11787836024E+00  0.51100000000E-03 0.  1.
</event>
<event>
 8    1  0.1208168E+005  0.1043930E+01  0.7957747E-01            NaN
         13   -1    0    0    0    0  0.00000000000E+00  0.00000000000E+00  0.74505805969E-08  0.10566000000E+00  0.10566000000E+00 0. -1.
     999900   -1    0    0    0    0 -0.00000000000E+00 -0.00000000000E+00 -0.74505805969E-08  0.93827000000E+00  0.93827000000E+00 0.  1.
     999902    2    1    2    0    0  0.12027257287E-03  0.96680853215E-02  0.21521128153E-01  0.10203366684E+01  0.10200638566E+01 0.  0.
     999903    2    3    3    0    0 -0.18209213976E-01  0.12914642310E+00 -0.47309487876E-02  0.13168588501E+00  0.17561786962E-01 0.  0.
         14    1    1    2    0    0 -0.12027257287E-03 -0.96680853215E-02 -0.21521128153E-01  0.23593331606E-01  0.00000000000E+00 0.  1.
     999901    1    3    3    0    0  0.18329486549E-01 -0.11947833777E+00  0.26252076941E-01  0.88865078339E+00  0.88000000000E+00 0. -1.
        -11    1    4    4    0    0 -0.82079797740E-02  0.69597400552E-01  0.60636996565E-02  0.70343433738E-01  0.51100000000E-03 0.  1.
         11    1    4    4    0    0 -0.10001234202E-01  0.59549022543E-01 -0.10794648444E-01  0.61342451267E-01  0.51100000000E-03 0. -1.
</event>
<event>
 8    1  0.1208168E+005  0.1043930E+01  0.7957747E-01            NaN
         13   -1    0    0    0    0  0.00000000000E+00  0.00000000000E+00  0.74505805969E-08  0.10566000000E+00  0.10566000000E+00 0. -1.
     999900   -1    0    0    0    0 -0.00000000000E+00 -0.00000000000E+00 -0.74505805969E-08  0.93827000000E+00  0.93827000000E+00 0. -1.
     999902    2    1    2    0    0  0.22163012424E-02 -0.15561395947E-01  0.12886904230E-02  0.10281588314E+01  0.10280378655E+01 0.  0.
     999903    2    3    3    0    0  0.40686829368E-01  0.12681703064E+00 -0.16760830153E-01  0.13570301567E+00  0.19909939519E-01 0.  0.
         14    1    1    2    0    0 -0.22163012424E-02  0.15561395947E-01 -0.12886904230E-02  0.15771168568E-01  0.00000000000E+00 0.  1.
     999901    1    3    3    0    0 -0.38470528126E-01 -0.14237842658E+00  0.18049520576E-01  0.89245581576E+00  0.88000000000E+00 0.  1.
        -11    1    4    4    0    0  0.23525655683E-01  0.82497424989E-01 -0.15580524851E-02  0.85801924533E-01  0.51100000000E-03 0. -1.
         11    1    4    4    0    0  0.17161173685E-01  0.44319605647E-01 -0.15202777668E-01  0.49901091138E-01  0.51100000000E-03 0.  1.
</event>
<event>
 8    1  0.1208168E+005  0.1043930E+01  0.7957747E-01            NaN
         13   -1    0    0    0    0  0.00000000000E+00  0.00000000000E+00  0.74505805969E-08  0.10566000000E+00  0.10566000000E+00 0. -1.
     999900   -1    0    0    0    0 -0.00000000000E+00 -0.00000000000E+00 -0.74505805969E-08  0.93827000000E+00  0.93827000000E+00 0. -1.
     999902    2    1    2    0    0  0.23725775018E-01 -0.21760050060E-02  0.12180220269E-03  0.10201043367E+01  0.10198260614E+01 0.  0.
     999903    2    3    3    0    0 -0.14581013219E-01 -0.79151513302E-01  0.10037221043E+00  0.13024885218E+00  0.20312923529E-01 0.  0.
         14    1    1    2    0    0 -0.23725775018E-01  0.21760050060E-02 -0.12180220269E-03  0.23825663343E-01  0.00000000000E+00 0.  1.
     999901    1    3    3    0    0  0.38306788236E-01  0.76975508296E-01 -0.10025040823E+00  0.88985548448E+00  0.88000000000E+00 0. -1.
        -11    1    4    4    0    0 -0.15979567127E-01 -0.56996401157E-01  0.83530245611E-01  0.10237919400E+00  0.51100000000E-03 0. -1.
         11    1    4    4    0    0  0.13985539083E-02 -0.22155112145E-01  0.16841964823E-01  0.27869658184E-01  0.51100000000E-03 0.  1.
</event>
<event>
 8    1  0.1208168E+005  0.1043930E+01  0.7957747E-01            NaN
         13   -1    0    0    0    0  0.00000000000E+00  0.00000000000E+00  0.74505805969E-08  0.10566000000E+00  0.10566000000E+00 0.  1.
     999900   -1    0    0    0    0 -0.00000000000E+00 -0.00000000000E+00 -0.74505805969E-08  0.93827000000E+00  0.93827000000E+00 0.  1.
     999902    2    1    2    0    0 -0.88315146964E-02  0.19567258168E-01 -0.78839614355E-02  0.10210601488E+01  0.10208039956E+01 0.  0.
     999903    2    3    3    0    0  0.41312104263E-01  0.63781677153E-01 -0.10734454196E+00  0.13293757597E+00  0.19358618698E-01 0.  0.
         14    1    1    2    0    0  0.88315146964E-02 -0.19567258168E-01  0.78839614355E-02  0.22869851157E-01  0.00000000000E+00 0. -1.
     999901    1    3    3    0    0 -0.50143618959E-01 -0.44214418986E-01  0.99460580521E-01  0.88812257287E+00  0.88000000000E+00 0. -1.
        -11    1    4    4    0    0  0.16543600443E-01  0.20608239513E-01 -0.53105892971E-01  0.59320209378E-01  0.51100000000E-03 0.  1.
         11    1    4    4    0    0  0.24768503820E-01  0.43173437640E-01 -0.54238648986E-01  0.73617366592E-01  0.51100000000E-03 0. -1.
</event>
<event>
 8    1  0.1208168E+005  0.1043930E+01  0.7957747E-01            NaN
         13   -1    0    0    0    0  0.00000000000E+00  0.00000000000E+00  0.74505805969E-08  0.10566000000E+00  0.10566000000E+00 0. -1.
     999900   -1    0    0    0    0 -0.00000000000E+00 -0.00000000000E+00 -0.74505805969E-08  0.93827000000E+00  0.93827000000E+00 0. -1.
     999902    2    1    2    0    0  0.12985640086E-01  0.16723985707E-01  0.89482523692E-02  0.10209432698E+01  0.10206844617E+01 0.  0.
     999903    2    3    3    0    0 -0.21756700425E-01 -0.12314122402E+00  0.20650109179E-01  0.12914383011E+00  0.24790860834E-01 0.  0.
         14    1    1    2    0    0 -0.12985640086E-01 -0.16723985707E-01 -0.89482523692E-02  0.22986730233E-01  0.00000000000E+00 0.  1.
     999901    1    3    3    0    0  0.34742340511E-01  0.13986520972E+00 -0.11701856810E-01  0.89179943965E+00  0.88000000000E+00 0.  1.
        -11    1    4    4    0    0 -0.77046581129E-02 -0.41817942203E-01 -0.47605590048E-02  0.42790490647E-01  0.51100000000E-03 0. -1.
         11    1    4    4    0    0 -0.14052042312E-01 -0.81323281814E-01  0.25410668184E-01  0.86353339465E-01  0.51100000000E-03 0.  1.
</event>
<event>
 8    1  0.1208168E+005  0.1043930E+01  0.7957747E-01            NaN
         13   -1    0    0    0    0  0.00000000000E+00  0.00000000000E+00  0.74505805969E-08  0.10566000000E+00  0.10566000000E+00 0. -1.
     999900   -1    0    0    0    0 -0.00000000000E+00 -0.00000000000E+00 -0.74505805969E-08  0.93827000000E+00  0.93827000000E+00 0.  1.
     999902    2    1    2    0    0  0.12620101954E-01  0.10708294222E-01 -0.16367467228E-01  0.10206527896E+01  0.10203873228E+01 0.  0.
     999903    2    3    3    0    0  0.66185552513E-01 -0.10412364135E+00 -0.41267682031E-01  0.13122845244E+00  0.17193751745E-01 0.  0.
         14    1    1    2    0    0 -0.12620101954E-01 -0.10708294222E-01  0.16367467228E-01  0.23277210356E-01  0.00000000000E+00 0. -1.
     999901    1    3    3    0    0 -0.53565450558E-01  0.11483193557E+00  0.24900214803E-01  0.88942433721E+00  0.88000000000E+00 0. -1.
        -11    1    4    4    0    0  0.40532886964E-01 -0.50279239732E-01 -0.16601794753E-01  0.66684312876E-01  0.51100000000E-03 0. -1.
         11    1    4    4    0    0  0.25652665549E-01 -0.53844401618E-01 -0.24665887278E-01  0.64544139560E-01  0.51100000000E-03 0.  1.
</event>
<event>
 8    1  0.1208168E+005  0.1043930E+01  0.7957747E-01            NaN
         13   -1    0    0    0    0  0.00000000000E+00  0.00000000000E+00  0.74505805969E-08  0.10566000000E+00  0.10566000000E+00 0.  1.
     999900   -1    0    0    0    0 -0.00000000000E+00 -0.00000000000E+00 -0.74505805969E-08  0.93827000000E+00  0.93827000000E+00 0.  1.
     999902    2    1    2    0    0 -0.16220799043E-01 -0.12189119071E-01 -0.22165160517E-02  0.10235191723E+01  0.10233156376E+01 0.  0.
     999903    2    3    3    0    0  0.11355450405E+00  0.54804554817E-01  0.29714974349E-01  0.13091097058E+00  0.18882211198E-01 0.  0.
         14    1    1    2    0    0  0.16220799043E-01  0.12189119071E-01  0.22165160517E-02  0.20410827732E-01  0.00000000000E+00 0.  1.
     999901    1    3    3    0    0 -0.12977530309E+00 -0.66993673888E-01 -0.31931490401E-01  0.89260820168E+00  0.88000000000E+00 0. -1.
        -11    1    4    4    0    0  0.93426066620E-02  0.12084230331E-03 -0.61210583452E-03  0.93773501938E-02  0.51100000000E-03 0. -1.
         11    1    4    4    0    0  0.10421189739E+00  0.54683712513E-01  0.30327080183E-01  0.12153362039E+00  0.51100000000E-03 0.  1.
</event>
<event>
 8    1  0.1208168E+005  0.1043930E+01  0.7957747E-01            NaN
         13   -1    0    0    0    0  0.00000000000E+00  0.00000000000E+00  0.74505805969E-08  0.10566000000E+00  0.10566000000E+00 0.  1.
     999900   -1    0    0    0    0 -0.00000000000E+00 -0.00000000000E+00 -0.74505805969E-08  0.93827000000E+00  0.93827000000E+00 0.  1.
     999902    2    1    2    0    0  0.18206682034E-02 -0.21164941593E-01 -0.11170653339E-01  0.10199288942E+01  0.10196464564E+01 0.  0.
     999903    2    3    3    0    0 -0.76908668084E-01 -0.19019497993E-02 -0.10426047439E+00  0.13131475629E+00  0.21325057088E-01 0.  0.
         14    1    1    2    0    0 -0.18206682034E-02  0.21164941593E-01  0.11170653339E-01  0.24001105837E-01  0.00000000000E+00 0.  1.
     999901    1    3    3    0    0  0.78729336287E-01 -0.19262991794E-01  0.93089821052E-01  0.88861413787E+00  0.88000000000E+00 0. -1.
        -11    1    4    4    0    0 -0.42815867404E-01 -0.64095993353E-02 -0.72806621868E-01  0.84707418648E-01  0.51100000000E-03 0. -1.
         11    1    4    4    0    0 -0.34092800680E-01  0.45076495360E-02 -0.31453852523E-01  0.46607337642E-01  0.51100000000E-03 0.  1.
</event>
<event>
 8    1  0.1208168E+005  0.1043930E+01  0.7957747E-01            NaN
         13   -1    0    0    0    0  0.00000000000E+00  0.00000000000E+00  0.74505805969E-08  0.10566000000E+00  0.10566000000E+00 0.  1.
     999900   -1    0    0    0    0 -0.00000000000E+00 -0.00000000000E+00 -0.74505805969E-08  0.93827000000E+00  0.93827000000E+00 0.  1.
     999902    2    1    2    0    0 -0.13177717580E-01 -0.75465816026E-02  0.19320176780E-01  0.10193561854E+01  0.10190599395E+01 0.  0.
     999903    2    3    3    0    0 -0.80099087162E-01  0.64040860644E-01 -0.75361901344E-01  0.12886871914E+00  0.20264130952E-01 0.  0.
         14    1    1    2    0    0  0.13177717580E-01  0.75465816026E-02 -0.19320176780E-01  0.24573814627E-01  0.00000000000E+00 0. -1.
     999901    1    3    3    0    0  0.66921369582E-01 -0.71587442247E-01  0.94682078124E-01  0.89048746623E+00  0.88000000000E+00 0. -1.
        -11    1    4    4    0    0 -0.53237288543E-01  0.31099948395E-01 -0.39233349362E-01  0.73081683784E-01  0.51100000000E-03 0.  1.
         11    1    4    4    0    0 -0.26861798619E-01  0.32940912249E-01 -0.36128551982E-01  0.55787035359E-01  0.51100000000E-03 0. -1.
</event>
<event>
 8    1  0.1208168E+005  0.1043930E+01  0.7957747E-01            NaN
         13   -1    0    0    0    0  0.00000000000E+00  0.00000000000E+00  0.74505805969E-08  0.10566000000E+00  0.10566000000E+00 0. -1.
     999900   -1    0    0    0    0 -0.00000000000E+00 -0.00000000000E+00 -0.74505805969E-08  0.93827000000E+00  0.93827000000E+00 0.  1.
     999902    2    1    2    0    0 -0.10558920083E-01 -0.13324007875E-01  0.14995600259E-01  0.10212609020E+01  0.10210092761E+01 0.  0.
     999903    2    3    3    0    0  0.64846105008E-01 -0.55309651410E-03 -0.10970116106E+00  0.12918562695E+00  0.21195712331E-01 0.  0.
         14    1    1    2    0    0  0.10558920083E-01  0.13324007875E-01 -0.14995600259E-01  0.22669098047E-01  0.00000000000E+00 0.  1.
     999901    1    3    3    0    0 -0.75405025090E-01 -0.12770911361E-01  0.12469676132E+00  0.89207527500E+00  0.88000000000E+00 0. -1.
        -11    1    4    4    0    0  0.60939828571E-01 -0.40582287048E-02 -0.89831980402E-01  0.10862862307E+00  0.51100000000E-03 0. -1.
         11    1    4    4    0    0  0.39062764367E-02  0.35051321907E-02 -0.19869180662E-01  0.20557003878E-01  0.51100000000E-03 0.  1.
</event>
<event>
 8    1  0.1208168E+005  0.1043930E+01  0.7957747E-01            NaN
         13   -1    0    0    0    0  0.00000000000E+00  0.00000000000E+00  0.74505805969E-08  0.10566000000E+00  0.10566000000E+00 0.  1.
     999900   -1    0    0    0    0 -0.00000000000E+00 -0.00000000000E+00 -0.74505805969E-08  0.93827000000E+00  0.93827000000E+00 0. -1.
     999902    2    1    2    0    0  0.39541140951E-02  0.11890724407E-02  0.26275398337E-01  0.10173321529E+01  0.10169843971E+01 0.  0.
     999903    2    3    3    0    0  0.10019840538E+00 -0.45405553985E-02  0.82171290050E-01  0.13030332422E+00  0.12903422415E-01 0.  0.
         14    1    1    2    0    0 -0.39541140951E-02 -0.11890724407E-02 -0.26275398337E-01  0.26597847081E-01  0.00000000000E+00 0. -1.
     999901    1    3    3    0    0 -0.96244291282E-01  0.57296278391E-02 -0.55895891713E-01  0.88702882870E+00  0.88000000000E+00 0. -1.
        -11    1    4    4    0    0  0.62714685207E-01 -0.82717054447E-02  0.55378478715E-01  0.84074906347E-01  0.51100000000E-03 0. -1.
         11    1    4    4    0    0  0.37483720170E-01  0.37311500462E-02  0.26792811335E-01  0.46228417869E-01  0.51100000000E-03 0.  1.
</event>
<event>
 7    1  0.1208168E+005  0.1043930E+01  0.7957747E-01            NaN
         13   -1    0    0    0    0  0.00000000000E+00  0.00000000000E+00  0.74505805969E-08  0.10566000000E+00  0.10566000000E+00 0. -1.
     999900   -1    0    0    0    0 -0.00000000000E+00 -0.00000000000E+00 -0.74505805969E-08  0.93827000000E+00  0.93827000000E+00 0.  1.
     999902    2    1    2    0    0  0.18801290910E-02  0.22848487866E-01 -0.29757307103E-02  0.10208119712E+01  0.10205501640E+01 0.  0.
         14    1    1    2    0    0 -0.18801290910E-02 -0.22848487866E-01  0.29757307103E-02  0.23118028818E-01  0.00000000000E+00 0.  1.
     999901    1    3    3    0    0 -0.94482477258E-01  0.43775312421E-01  0.64608689931E-01  0.88849169906E+00  0.88000000000E+00 0.  1.
        -11    1    3    3    0    0  0.91491790770E-01 -0.10948489868E-01 -0.36158429940E-01  0.98986415156E-01  0.51100000000E-03 0.  1.
         11    1    3    3    0    0  0.48708155790E-02 -0.99783346867E-02 -0.31425990702E-01  0.33333856964E-01  0.51100000000E-03 0. -1.
</event>
<event>
 8    1  0.1208168E+005  0.1043930E+01  0.7957747E-01            NaN
         13   -1    0    0    0    0  0.00000000000E+00  0.00000000000E+00  0.74505805969E-08  0.10566000000E+00  0.10566000000E+00 0.  1.
     999900   -1    0    0    0    0 -0.00000000000E+00 -0.00000000000E+00 -0.74505805969E-08  0.93827000000E+00  0.93827000000E+00 0. -1.
     999902    2    1    2    0    0  0.27117136204E-02 -0.14900206019E-01  0.18820518774E-01  0.10197725693E+01  0.10194863960E+01 0.  0.
     999903    2    3    3    0    0 -0.15114030063E-01 -0.28691248011E-01  0.12729422850E+00  0.13282584280E+00  0.19678980911E-01 0.  0.
         14    1    1    2    0    0 -0.27117136204E-02  0.14900206019E-01 -0.18820518774E-01  0.24157430681E-01  0.00000000000E+00 0. -1.
     999901    1    3    3    0    0  0.17825743684E-01  0.13791041992E-01 -0.10847370973E+00  0.88694672652E+00  0.88000000000E+00 0. -1.
        -11    1    4    4    0    0 -0.94507101622E-02 -0.17650406795E-01  0.10826989024E+00  0.11010668934E+00  0.51100000000E-03 0.  1.
         11    1    4    4    0    0 -0.56633199009E-02 -0.11040841217E-01  0.19024338256E-01  0.22719153465E-01  0.51100000000E-03 0. -1.
</event>
<event>
 8    1  0.1208168E+005  0.1043930E+01  0.7957747E-01            NaN
         13   -1    0    0    0    0  0.00000000000E+00  0.00000000000E+00  0.74505805969E-08  0.10566000000E+00  0.10566000000E+00 0.  1.
     999900   -1    0    0    0    0 -0.00000000000E+00 -0.00000000000E+00 -0.74505805969E-08  0.93827000000E+00  0.93827000000E+00 0. -1.
     999902    2    1    2    0    0 -0.21714378845E-01  0.88045218015E-02 -0.95351874421E-02  0.10186326948E+01  0.10183185225E+01 0.  0.
     999903    2    3    3    0    0 -0.84202329716E-01  0.99287349654E-01  0.12980767398E-02  0.13172275246E+00  0.20029687502E-01 0.  0.
         14    1    1    2    0    0  0.21714378845E-01 -0.88045218015E-02  0.95351874421E-02  0.25297305239E-01  0.00000000000E+00 0.  1.
     999901    1    3    3    0    0  0.62487950871E-01 -0.90482827853E-01 -0.10833264182E-01  0.88690994230E+00  0.88000000000E+00 0. -1.
        -11    1    4    4    0    0 -0.28756993708E-01  0.46698992569E-01 -0.48297992444E-02  0.55057684984E-01  0.51100000000E-03 0.  1.
         11    1    4    4    0    0 -0.55445336009E-01  0.52588357086E-01  0.61278759842E-02  0.76665067476E-01  0.51100000000E-03 0. -1.
</event>
<event>
 8    1  0.1208168E+005  0.1043930E+01  0.7957747E-01            NaN
         13   -1    0    0    0    0  0.00000000000E+00  0.00000000000E+00  0.74505805969E-08  0.10566000000E+00  0.10566000000E+00 0.  1.
     999900   -1    0    0    0    0 -0.00000000000E+00 -0.00000000000E+00 -0.74505805969E-08  0.93827000000E+00  0.93827000000E+00 0. -1.
     999902    2    1    2    0    0  0.59268916969E-02  0.20840201049E-01 -0.10940527530E-01  0.10196578520E+01  0.10193689214E+01 0.  0.
     999903    2    3    3    0    0  0.11163971261E+00  0.67840875006E-01 -0.46314102391E-02  0.13206331124E+00  0.18800491039E-01 0.  0.
         14    1    1    2    0    0 -0.59268916969E-02 -0.20840201049E-01  0.10940527530E-01  0.24272147980E-01  0.00000000000E+00 0.  1.
     999901    1    3    3    0    0 -0.10571282091E+00 -0.47000673957E-01 -0.63091172904E-02  0.88759454078E+00  0.88000000000E+00 0.  1.
        -11    1    4    4    0    0  0.36238797791E-01  0.32276649526E-01 -0.39469669948E-02  0.48691603376E-01  0.51100000000E-03 0.  1.
         11    1    4    4    0    0  0.75400914815E-01  0.35564225480E-01 -0.68444324427E-03  0.83371707866E-01  0.51100000000E-03 0. -1.
</event>
<event>
 8    1  0.1208168E+005  0.1043930E+01  0.7957747E-01            NaN
         13   -1    0    0    0    0  0.00000000000E+00  0.00000000000E+00  0.74505805969E-08  0.10566000000E+00  0.10566000000E+00 0.  1.
     999900   -1    0    0    0    0 -0.00000000000E+00 -0.00000000000E+00 -0.74505805969E-08  0.93827000000E+00  0.93827000000E+00 0.  1.
     999902    2    1    2    0    0  0.21576481630E-01  0.86580978866E-02 -0.11412867955E-01  0.10180309503E+01  0.10177014567E+01 0.  0.
     999903    2    3    3    0    0 -0.70410261125E-01  0.38487017843E-01  0.95368189617E-01  0.12631713999E+00  0.20544411644E-01 0.  0.
         14    1    1    2    0    0 -0.21576481630E-01 -0.86580978866E-02  0.11412867955E-01  0.25899049664E-01  0.00000000000E+00 0.  1.
     999901    1    3    3    0    0  0.91986742755E-01 -0.29828919956E-01 -0.10678105757E+00  0.89171381035E+00  0.88000000000E+00 0.  1.
        -11    1    4    4    0    0 -0.33412073867E-01  0.20831782650E-01  0.62039410305E-01  0.73481149967E-01  0.51100000000E-03 0. -1.
         11    1    4    4    0    0 -0.36998187257E-01  0.17655235193E-01  0.33328779312E-01  0.52835990021E-01  0.51100000000E-03 0.  1.
</event>
<event>
 8    1  0.1208168E+005  0.1043930E+01  0.7957747E-01            NaN
         13   -1    0    0    0    0  0.00000000000E+00  0.00000000000E+00  0.74505805969E-08  0.10566000000E+00  0.10566000000E+00 0.  1.
     999900   -1    0    0    0    0 -0.00000000000E+00 -0.00000000000E+00 -0.74505805969E-08  0.93827000000E+00  0.93827000000E+00 0. -1.
     999902    2    1    2    0    0 -0.10653420218E-01  0.13025022045E-01  0.15511114829E-01  0.10210446063E+01  0.10207881008E+01 0.  0.
     999903    2    3    3    0    0  0.23933585791E-01 -0.11258496424E+00  0.57957438244E-01  0.13044041812E+00  0.20185324607E-01 0.  0.
         14    1    1    2    0    0  0.10653420218E-01 -0.13025022045E-01 -0.15511114829E-01  0.22885393701E-01  0.00000000000E+00 0. -1.
     999901    1    3    3    0    0 -0.34587006009E-01  0.12560998628E+00 -0.42446323415E-01  0.89060418818E+00  0.88000000000E+00 0. -1.
        -11    1    4    4    0    0  0.92431142962E-02 -0.22601597603E-01  0.47716952441E-02  0.24885690117E-01  0.51100000000E-03 0.  1.
         11    1    4    4    0    0  0.14690471494E-01 -0.89983366633E-01  0.53185743000E-01  0.10555472800E+00  0.51100000000E-03 0. -1.
</event>
<event>
 8    1  0.1208168E+005  0.1043930E+01  0.7957747E-01            NaN
         13   -1    0    0    0    0  0.00000000000E+00  0.00000000000E+00  0.74505805969E-08  0.10566000000E+00  0.10566000000E+00 0. -1.
     999900   -1    0    0    0    0 -0.00000000000E+00 -0.00000000000E+00 -0.74505805969E-08  0.93827000000E+00  0.93827000000E+00 0.  1.
     999902    2    1    2    0    0  0.13115906736E-01 -0.85364457146E-02 -0.15349294074E-01  0.10220097184E+01  0.10217746160E+01 0.  0.
     999903    2    3    3    0    0  0.12066217757E+00  0.50982987581E-01 -0.16117571206E-01  0.13346632977E+00  0.19871058388E-01 0.  0.
         14    1    1    2    0    0 -0.13115906736E-01  0.85364457146E-02  0.15349294074E-01  0.21920281556E-01  0.00000000000E+00 0.  1.
     999901    1    3    3    0    0 -0.10754627083E+00 -0.59519433296E-01  0.76827713225E-03  0.88854338868E+00  0.88000000000E+00 0. -1.
        -11    1    4    4    0    0  0.58556598210E-01  0.30868160883E-01  0.10725044278E-03  0.66196609988E-01  0.51100000000E-03 0. -1.
         11    1    4    4    0    0  0.62105579359E-01  0.20114826698E-01 -0.16224821649E-01  0.67269719779E-01  0.51100000000E-03 0.  1.
</event>
<event>
 8    1  0.1208168E+005  0.1043930E+01  0.7957747E-01            NaN
         13   -1    0    0    0    0  0.00000000000E+00  0.00000000000E+00  0.74505805969E-08  0.10566000000E+00  0.10566000000E+00 0. -1.
     999900   -1    0    0    0    0 -0.00000000000E+00 -0.00000000000E+00 -0.74505805969E-08  0.93827000000E+00  0.93827000000E+00 0. -1.
     999902    2    1    2    0    0 -0.18492893117E-01  0.11153094862E-01  0.10306797696E-01  0.10200007564E+01  0.10197200274E+01 0.  0.
     999903    2    3    3    0    0  0.13662800068E-01 -0.10892742910E+00  0.65892399848E-01  0.12952724190E+00  0.19586758815E-01 0.  0.
         14    1    1    2    0    0  0.18492893117E-01 -0.11153094862E-01 -0.10306797696E-01  0.23929243606E-01  0.00000000000E+00 0.  1.
     999901    1    3    3    0    0 -0.32155693185E-01  0.12008052397E+00 -0.55585602153E-01  0.89047351449E+00  0.88000000000E+00 0. -1.
        -11    1    4    4    0    0  0.17643601147E-01 -0.63527594680E-01  0.39466177278E-01  0.76843296502E-01  0.51100000000E-03 0.  1.
         11    1    4    4    0    0 -0.39808010791E-02 -0.45399834423E-01  0.26426222570E-01  0.52683945402E-01  0.51100000000E-03 0. -1.
</event>
<event>
 8    1  0.1208168E+005  0.1043930E+01  0.7957747E-01            NaN
         13   -1    0    0    0    0  0.00000000000E+00  0.00000000000E+00  0.74505805969E-08  0.10566000000E+00  0.10566000000E+00 0. -1.
     999900   -1    0    0    0    0 -0.00000000000E+00 -0.00000000000E+00 -0.74505805969E-08  0.93827000000E+00  0.93827000000E+00 0.  1.
     999902    2    1    2    0    0 -0.55975844870E-02 -0.23522473498E-01 -0.23318054851E-02  0.10196384988E+01  0.10193491018E+01 0.  0.
     999903    2    3    3    0    0  0.67008693347E-01 -0.63161957892E-01 -0.91954554391E-01  0.13122688398E+00  0.16889555863E-01 0.  0.
         14    1    1    2    0    0  0.55975844870E-02  0.23522473498E-01  0.23318054851E-02  0.24291501155E-01  0.00000000000E+00 0.  1.
     999901    1    3    3    0    0 -0.72606277834E-01  0.39639484394E-01  0.89622748905E-01  0.88841161486E+00  0.88000000000E+00 0. -1.
        -11    1    4    4    0    0  0.44458837309E-02 -0.11963227708E-01 -0.12987001017E-01  0.18215598145E-01  0.51100000000E-03 0.  1.
         11    1    4    4    0    0  0.62562809616E-01 -0.51198730184E-01 -0.78967553373E-01  0.11301128584E+00  0.51100000000E-03 0. -1.
</event>
<event>
 8    1  0.1208168E+005  0.1043930E+01  0.7957747E-01            NaN
         13   -1    0    0    0    0  0.00000000000E+00  0.00000000000E+00  0.74505805969E-08  0.10566000000E+00  0.10566000000E+00 0.  1.
     999900   -1    0    0    0    0 -0.00000000000E+00 -0.00000000000E+00 -0.74505805969E-08  0.93827000000E+00  0.93827000000E+00 0.  1.
     999902    2    1    2    0    0  0.83905993279E-03 -0.19612486428E-01  0.13938539853E-01  0.10198543580E+01  0.10195701422E+01 0.  0.
     999903    2    3    3    0    0  0.27770730919E-01  0.83871795177E-01  0.92979749487E-01  0.12986456913E+00  0.20344064936E-01 0.  0.
         14    1    1    2    0    0 -0.83905993279E-03  0.19612486428E-01 -0.13938539853E-01  0.24075642020E-01  0.00000000000E+00 0. -1.
     999901    1    3    3    0    0 -0.26931670986E-01 -0.10348428160E+00 -0.79041209634E-01  0.88998978885E+00  0.88000000000E+00 0.  1.
        -11    1    4    4    0    0  0.95554383866E-02  0.55907670399E-01  0.65371839450E-01  0.86548902514E-01  0.51100000000E-03 0. -1.
         11    1    4    4    0    0  0.18215292532E-01  0.27964124778E-01  0.27607910036E-01  0.43315666614E-01  0.51100000000E-03 0.  1.
</event>
<event>
 7    1  0.1208168E+005  0.1043930E+01  0.7957747E-01            NaN
         13   -1    0    0    0    0  0.00000000000E+00  0.00000000000E+00  0.74505805969E-08  0.10566000000E+00  0.10566000000E+00 0. -1.
     999900   -1    0    0    0    0 -0.00000000000E+00 -0.00000000000E+00 -0.74505805969E-08  0.93827000000E+00  0.93827000000E+00 0.  1.
     999903    2    1    2    0    0 -0.67491043964E-01  0.73549498705E-01 -0.58690671302E-01  0.11742084557E+00  0.19454827187E-01 0.  0.
         14    1    1    2    0    0  0.23296145501E-01  0.18655323932E-01  0.26646255129E-01  0.40009429121E-01  0.00000000000E+00 0. -1.
     999901    1    1    2    0    0  0.44194898463E-01 -0.92204822637E-01  0.32044416173E-01  0.88649972531E+00  0.88000000000E+00 0. -1.
        -11    1    3    3    0    0 -0.45533753719E-01  0.58344142197E-01 -0.35675482204E-01  0.82160591575E-01  0.51100000000E-03 0.  1.
         11    1    3    3    0    0 -0.21957290245E-01  0.15205356509E-01 -0.23015189098E-01  0.35260253994E-01  0.51100000000E-03 0. -1.
</event>
<event>
 8    1  0.1208168E+005  0.1043930E+01  0.7957747E-01            NaN
         13   -1    0    0    0    0  0.00000000000E+00  0.00000000000E+00  0.74505805969E-08  0.10566000000E+00  0.10566000000E+00 0. -1.
     999900   -1    0    0    0    0 -0.00000000000E+00 -0.00000000000E+00 -0.74505805969E-08  0.93827000000E+00  0.93827000000E+00 0. -1.
     999902    2    1    2    0    0 -0.19613642058E-01  0.42089329411E-03  0.13581979073E-01  0.10200691060E+01  0.10197899974E+01 0.  0.
     999903    2    3    3    0    0 -0.60312762998E-01  0.38467416397E-01  0.11002948173E+00  0.13304820597E+00  0.21862450833E-01 0.  0.
         14    1    1    2    0    0  0.19613642058E-01 -0.42089329411E-03 -0.13581979073E-01  0.23860893979E-01  0.00000000000E+00 0.  1.
     999901    1    3    3    0    0  0.40699120940E-01 -0.38046523103E-01 -0.96447502656E-01  0.88702090005E+00  0.88000000000E+00 0. -1.
        -11    1    4    4    0    0 -0.32902590052E-01  0.18677754403E-01  0.38768961514E-01  0.54173170846E-01  0.51100000000E-03 0. -1.
         11    1    4    4    0    0 -0.27410172946E-01  0.19789661994E-01  0.71260520215E-01  0.78875035119E-01  0.51100000000E-03 0.  1.
</event>
<event>
 8    1  0.1208168E+005  0.1043930E+01  0.7957747E-01            NaN
         13   -1    0    0    0    0  0.00000000000E+00  0.00000000000E+00  0.74505805969E-08  0.10566000000E+00  0.10566000000E+00 0.  1.
     999900   -1    0    0    0    0 -0.00000000000E+00 -0.00000000000E+00 -0.74505805969E-08  0.93827000000E+00  0.93827000000E+00 0.  1.
     999902    2    1    2    0    0  0.18647041309E-01  0.10536528532E-01  0.72614032440E-02  0.10213145504E+01  0.10210641274E+01 0.  0.
     999903    2    3    3    0    0  0.11689131630E-01 -0.36477661015E-02  0.13075120201E+00  0.13255173778E+00  0.18004009663E-01 0.  0.
         14    1    1    2    0    0 -0.18647041309E-01 -0.10536528532E-01 -0.72614032440E-02  0.22615449590E-01  0.00000000000E+00 0.  1.
     999901    1    3    3    0    0  0.69579096789E-02  0.14184294633E-01 -0.12348979877E+00  0.88876281263E+00  0.88000000000E+00 0.  1.
        -11    1    4    4    0    0 -0.38086138035E-02  0.26071617296E-02  0.40444331506E-01  0.40710046713E-01  0.51100000000E-03 0. -1.
         11    1    4    4    0    0  0.15497745434E-01 -0.62549278310E-02  0.90306870506E-01  0.91841691063E-01  0.51100000000E-03 0.  1.
</event>
<event>
 8    1  0.1208168E+005  0.1043930E+01  0.7957747E-01            NaN
         13   -1    0    0    0    0  0.00000000000E+00  0.00000000000E+00  0.74505805969E-08  0.10566000000E+00  0.10566000000E+00 0. -1.
     999900   -1    0    0    0    0 -0.00000000000E+00 -0.00000000000E+00 -0.74505805969E-08  0.93827000000E+00  0.93827000000E+00 0. -1.
     999902    2    1    2    0    0 -0.12458629457E-01 -0.19995118532E-01 -0.27561585090E-02  0.10202104169E+01  0.10199346431E+01 0.  0.
     999903    2    3    3    0    0 -0.69712878088E-01  0.52264229655E-01  0.94026296778E-01  0.13011699144E+00  0.22317076473E-01 0.  0.
         14    1    1    2    0    0  0.12458629457E-01  0.19995118532E-01  0.27561585090E-02  0.23719583107E-01  0.00000000000E+00 0.  1.
     999901    1    3    3    0    0  0.57254248631E-01 -0.72259348187E-01 -0.96782455287E-01  0.89009342545E+00  0.88000000000E+00 0. -1.
        -11    1    4    4    0    0 -0.46937349107E-01  0.38096666910E-01  0.49504540139E-01  0.78137259910E-01  0.51100000000E-03 0.  1.
         11    1    4    4    0    0 -0.22775528981E-01  0.14167562745E-01  0.44521756639E-01  0.51979731528E-01  0.51100000000E-03 0. -1.
</event>
<event>
 8    1  0.1208168E+005  0.1043930E+01  0.7957747E-01            NaN
         13   -1    0    0    0    0  0.00000000000E+00  0.00000000000E+00  0.74505805969E-08  0.10566000000E+00  0.10566000000E+00 0. -1.
     999900   -1    0    0    0    0 -0.00000000000E+00 -0.00000000000E+00 -0.74505805969E-08  0.93827000000E+00  0.93827000000E+00 0. -1.
     999902    2    1    2    0    0  0.23678297197E-01 -0.43193267182E-03  0.26970476065E-02  0.10200946819E+01  0.10198161783E+01 0.  0.
     999903    2    3    3    0    0 -0.49454482510E-02  0.81887344872E-01 -0.98747724876E-01  0.12998973070E+00  0.20401524702E-01 0.  0.
         14    1    1    2    0    0 -0.23678297197E-01  0.43193267182E-03 -0.26970476065E-02  0.23835318117E-01  0.00000000000E+00 0.  1.
     999901    1    3    3    0    0  0.28623745448E-01 -0.82319277544E-01  0.10144477248E+00  0.89010495118E+00  0.88000000000E+00 0.  1.
        -11    1    4    4    0    0  0.53405426219E-02  0.11378602427E-01 -0.93840218996E-02  0.15694425020E-01  0.51100000000E-03 0.  1.
         11    1    4    4    0    0 -0.10285990873E-01  0.70508742445E-01 -0.89363702977E-01  0.11429530568E+00  0.51100000000E-03 0. -1.
</event>
<event>
 8    1  0.1208168E+005  0.1043930E+01  0.7957747E-01            NaN
         13   -1    0    0    0    0  0.00000000000E+00  0.00000000000E+00  0.74505805969E-08  0.10566000000E+00  0.10566000000E+00 0. -1.
     999900   -1    0    0    0    0 -0.00000000000E+00 -0.00000000000E+00 -0.74505805969E-08  0.93827000000E+00  0.93827000000E+00 0. -1.
     999902    2    1    2    0    0 -0.18602765093E-01 -0.14048580386E-01  0.65030619541E-02  0.10197284444E+01  0.10194412121E+01 0.  0.
     999903    2    3    3    0    0  0.68076448287E-01  0.10435743374E+00  0.18057216697E-01  0.12750270573E+00  0.20149444281E-01 0.  0.
         14    1    1    2    0    0  0.18602765093E-01  0.14048580386E-01 -0.65030619541E-02  0.24201555627E-01  0.00000000000E+00 0. -1.
     999901    1    3    3    0    0 -0.86679213380E-01 -0.11840601412E+00 -0.11554154743E-01  0.89222573865E+00  0.88000000000E+00 0.  1.
        -11    1    4    4    0    0  0.59177983843E-01  0.84102863960E-01  0.78609974380E-02  0.10313768419E+00  0.51100000000E-03 0.  1.
         11    1    4    4    0    0  0.88984644444E-02  0.20254569778E-01  0.10196219259E-01  0.24365021538E-01  0.51100000000E-03 0. -1.
</event>
<event>
 8    1  0.1208168E+005  0.1043930E+01  0.7957747E-01            NaN
         13   -1    0    0    0    0  0.00000000000E+00  0.00000000000E+00  0.74505805969E-08  0.10566000000E+00  0.10566000000E+00 0.  1.
     999900   -1    0    0    0    0 -0.00000000000E+00 -0.00000000000E+00 -0.74505805969E-08  0.93827000000E+00  0.93827000000E+00 0.  1.
     999902    2    1    2    0    0 -0.97539110194E-02 -0.69867564526E-02  0.19968669597E-01  0.10206340495E+01  0.10203681500E+01 0.  0.
     999903    2    3    3    0    0  0.21572060731E-03 -0.38970035248E-01 -0.12040236959E+00  0.12887940141E+00  0.24381536521E-01 0.  0.
         14    1    1    2    0    0  0.97539110194E-02  0.69867564526E-02 -0.19968669597E-01  0.23295950536E-01  0.00000000000E+00 0. -1.
     999901    1    3    3    0    0 -0.99696316267E-02  0.31983278795E-01  0.14037103919E+00  0.89175464805E+00  0.88000000000E+00 0. -1.
        -11    1    4    4    0    0  0.13702008224E-02 -0.29294716539E-01 -0.11268268864E+00  0.11643756828E+00  0.51100000000E-03 0.  1.
         11    1    4    4    0    0 -0.11544802151E-02 -0.96753187088E-02 -0.77196809504E-02  0.12441833131E-01  0.51100000000E-03 0. -1.
</event>
<event>
 8    1  0.1208168E+005  0.1043930E+01  0.7957747E-01            NaN
         13   -1    0    0    0    0  0.00000000000E+00  0.00000000000E+00  0.74505805969E-08  0.10566000000E+00  0.10566000000E+00 0.  1.
     999900   -1    0    0    0    0 -0.00000000000E+00 -0.00000000000E+00 -0.74505805969E-08  0.93827000000E+00  0.93827000000E+00 0.  1.
     999902    2    1    2    0    0 -0.70483978687E-02  0.21841279141E-01  0.45056354288E-02  0.10205414956E+01  0.10202734546E+01 0.  0.
     999903    2    3    3    0    0  0.67299858589E-01 -0.23028121778E-01  0.10675543471E+00  0.13037524831E+00  0.23268372829E-01 0.  0.
         14    1    1    2    0    0  0.70483978687E-02 -0.21841279141E-01 -0.45056354288E-02  0.23388504391E-01  0.00000000000E+00 0. -1.
     999901    1    3    3    0    0 -0.74348256458E-01  0.44869400919E-01 -0.10224979928E+00  0.89016624730E+00  0.88000000000E+00 0.  1.
        -11    1    4    4    0    0  0.44873039666E-01 -0.16376934231E-01  0.50842223587E-01  0.69763790637E-01  0.51100000000E-03 0. -1.
         11    1    4    4    0    0  0.22426818923E-01 -0.66511875466E-02  0.55913211118E-01  0.60611457674E-01  0.51100000000E-03 0.  1.
</event>
<event>
 8    1  0.1208168E+005  0.1043930E+01  0.7957747E-01            NaN
         13   -1    0    0    0    0  0.00000000000E+00  0.00000000000E+00  0.74505805969E-08  0.10566000000E+00  0.10566000000E+00 0. -1.
     999900   -1    0    0    0    0 -0.00000000000E+00 -0.00000000000E+00 -0.74505805969E-08  0.93827000000E+00  0.93827000000E+00 0. -1.
     999902    2    1    2    0    0 -0.14170825703E-01 -0.11442203974E-01 -0.11963010309E-01  0.10221389480E+01  0.10219066391E+01 0.  0.
     999903    2    3    3    0    0  0.22924171302E-02  0.73108090722E-01  0.10644397251E+00  0.13004029632E+00  0.15169419201E-01 0.  0.
         14    1    1    2    0    0  0.14170825703E-01  0.11442203974E-01  0.11963010309E-01  0.21791052029E-01  0.00000000000E+00 0. -1.
     999901    1    3    3    0    0 -0.16463242833E-01 -0.84550294696E-01 -0.11840698281E+00  0.89209865165E+00  0.88000000000E+00 0. -1.
        -11    1    4    4    0    0 -0.32659603695E-02  0.58003270779E-01  0.76730902916E-01  0.96244160870E-01  0.51100000000E-03 0.  1.
         11    1    4    4    0    0  0.55583774998E-02  0.15104819943E-01  0.29713069590E-01  0.33796135451E-01  0.51100000000E-03 0. -1.
</event>
<event>
 8    1  0.1208168E+005  0.1043930E+01  0.7957747E-01            NaN
         13   -1    0    0    0    0  0.00000000000E+00  0.00000000000E+00  0.74505805969E-08  0.10566000000E+00  0.10566000000E+00 0.  1.
     999900   -1    0    0    0    0 -0.00000000000E+00 -0.00000000000E+00 -0.74505805969E-08  0.93827000000E+00  0.93827000000E+00 0.  1.
     999902    2    1    2    0    0 -0.84640773298E-02 -0.29041729910E-02  0.21655079797E-01  0.10204988817E+01  0.10202298516E+01 0.  0.
     999903    2    3    3    0    0  0.30045602964E-01  0.91194479606E-01 -0.83040711209E-01  0.12847939726E+00  0.19799606890E-01 0.  0.
         14    1    1    2    0    0  0.84640773298E-02  0.29041729910E-02 -0.21655079797E-01  0.23431118343E-01  0.00000000000E+00 0. -1.
     999901    1    3    3    0    0 -0.38509680294E-01 -0.94098652597E-01  0.10469579101E+00  0.89201948440E+00  0.88000000000E+00 0. -1.
        -11    1    4    4    0    0  0.17523244944E-02  0.11808273826E-01 -0.19744876977E-01  0.23078718763E-01  0.51100000000E-03 0.  1.
         11    1    4    4    0    0  0.28293278470E-01  0.79386205780E-01 -0.63295834232E-01  0.10540067849E+00  0.51100000000E-03 0. -1.
</event>
<event>
 8    1  0.1208168E+005  0.1043930E+01  0.7957747E-01            NaN
         13   -1    0    0    0    0  0.00000000000E+00  0.00000000000E+00  0.74505805969E-08  0.10566000000E+00  0.10566000000E+00 0. -1.
     999900   -1    0    0    0    0 -0.00000000000E+00 -0.00000000000E+00 -0.74505805969E-08  0.93827000000E+00  0.93827000000E+00 0.  1.
     999902    2    1    2    0    0  0.21394419428E-01 -0.12944766684E-01 -0.92397619130E-02  0.10172717674E+01  0.10169224097E+01 0.  0.
     999903    2    3    3    0    0  0.12498380002E+00 -0.31886585499E-01 -0.10663212838E-01  0.13099213966E+00  0.20187420402E-01 0.  0.
         14    1    1    2    0    0 -0.21394419428E-01  0.12944766684E-01  0.92397619130E-02  0.26658232637E-01  0.00000000000E+00 0. -1.
     999901    1    3    3    0    0 -0.10358938059E+00  0.18941818815E-01  0.14234509248E-02  0.88627962770E+00  0.88000000000E+00 0. -1.
        -11    1    4    4    0    0  0.49457249944E-01 -0.15902760693E-01  0.50827821064E-02  0.52201658639E-01  0.51100000000E-03 0. -1.
         11    1    4    4    0    0  0.75526550074E-01 -0.15983824805E-01 -0.15745994944E-01  0.78790481019E-01  0.51100000000E-03 0.  1.
</event>
<event>
 8    1  0.1208168E+005  0.1043930E+01  0.7957747E-01            NaN
         13   -1    0    0    0    0  0.00000000000E+00  0.00000000000E+00  0.74505805969E-08  0.10566000000E+00  0.10566000000E+00 0.  1.
     999900   -1    0    0    0    0 -0.00000000000E+00 -0.00000000000E+00 -0.74505805969E-08  0.93827000000E+00  0.93827000000E+00 0. -1.
     999902    2    1    2    0    0  0.19373542726E-01  0.93789696715E-02  0.62705848447E-02  0.10215108237E+01  0.10212647764E+01 0.  0.
     999903    2    3    3    0    0 -0.19806848132E-01  0.41416411678E-01  0.12289608048E+00  0.13237472226E+00  0.17663241680E-01 0.  0.
         14    1    1    2    0    0 -0.19373542726E-01 -0.93789696715E-02 -0.62705848447E-02  0.22419176260E-01  0.00000000000E+00 0. -1.
     999901    1    3    3    0    0  0.39180390859E-01 -0.32037442007E-01 -0.11662549564E+00  0.88913610148E+00  0.88000000000E+00 0. -1.
        -11    1    4    4    0    0 -0.17517446311E-01  0.32731905398E-01  0.75532938269E-01  0.84164864645E-01  0.51100000000E-03 0.  1.
         11    1    4    4    0    0 -0.22894018216E-02  0.86845062803E-02  0.47363142215E-01  0.48209857617E-01  0.51100000000E-03 0. -1.
</event>
<event>
 8    1  0.1208168E+005  0.1043930E+01  0.7957747E-01            NaN
         13   -1    0    0    0    0  0.00000000000E+00  0.00000000000E+00  0.74505805969E-08  0.10566000000E+00  0.10566000000E+00 0. -1.
     999900   -1    0    0    0    0 -0.00000000000E+00 -0.00000000000E+00 -0.74505805969E-08  0.93827000000E+00  0.93827000000E+00 0. -1.
     999902    2    1    2    0    0 -0.10669822869E-01  0.13966429686E-01  0.16035886644E-01  0.10201380699E+01  0.10198605913E+01 0.  0.
     999903    2    3    3    0    0 -0.10931397584E+00  0.49416193195E-01  0.54087320978E-01  0.13310071650E+00  0.19971404014E-01 0.  0.
         14    1    1    2    0    0  0.10669822869E-01 -0.13966429686E-01 -0.16035886644E-01  0.23791930117E-01  0.00000000000E+00 0.  1.
     999901    1    3    3    0    0  0.98644152967E-01 -0.35449763509E-01 -0.38051434334E-01  0.88703735339E+00  0.88000000000E+00 0.  1.
        -11    1    4    4    0    0 -0.67979677812E-01  0.23464910384E-01  0.24254757043E-01  0.75897252750E-01  0.51100000000E-03 0. -1.
         11    1    4    4    0    0 -0.41334298025E-01  0.25951282811E-01  0.29832563935E-01  0.57203463747E-01  0.51100000000E-03 0.  1.
</event>
<event>
 8    1  0.1208168E+005  0.1043930E+01  0.7957747E-01            NaN
         13   -1    0    0    0    0  0.00000000000E+00  0.00000000000E+00  0.74505805969E-08  0.10566000000E+00  0.10566000000E+00 0. -1.
     999900   -1    0    0    0    0 -0.00000000000E+00 -0.00000000000E+00 -0.74505805969E-08  0.93827000000E+00  0.93827000000E+00 0.  1.
     999902    2    1    2    0    0 -0.23823261829E-01  0.44427990143E-02  0.16218745561E-02  0.10196417982E+01  0.10193524807E+01 0.  0.
     999903    2    3    3    0    0  0.29325110233E-01  0.87584433094E-02 -0.12406747238E+00  0.12911319895E+00  0.18460986427E-01 0.  0.
         14    1    1    2    0    0  0.23823261829E-01 -0.44427990143E-02 -0.16218745561E-02  0.24288201752E-01  0.00000000000E+00 0. -1.
     999901    1    3    3    0    0 -0.53148372062E-01 -0.43156442951E-02  0.12568934694E+00  0.89052859930E+00  0.88000000000E+00 0. -1.
        -11    1    4    4    0    0  0.20634144190E-01  0.11575261013E-01 -0.61781206008E-01  0.66158394107E-01  0.51100000000E-03 0.  1.
         11    1    4    4    0    0  0.86909660422E-02 -0.28168177040E-02 -0.62286266374E-01  0.62954804841E-01  0.51100000000E-03 0. -1.
</event>
<event>
 8    1  0.1208168E+005  0.1043930E+01  0.7957747E-01            NaN
         13   -1    0    0    0    0  0.00000000000E+00  0.00000000000E+00  0.74505805969E-08  0.10566000000E+00  0.10566000000E+00 0. -1.
     999900   -1    0    0    0    0 -0.00000000000E+00 -0.00000000000E+00 -0.74505805969E-08  0.93827000000E+00  0.93827000000E+00 0. -1.
     999902    2    1    2    0    0  0.15272746962E-02 -0.12667974767E-01 -0.23002511733E-01  0.10176255194E+01  0.10172854919E+01 0.  0.
     999903    2    3    3    0    0 -0.67108757074E-01 -0.11300615764E-01 -0.10973523067E+00  0.13070086700E+00  0.20238739905E-01 0.  0.
         14    1    1    2    0    0 -0.15272746962E-02  0.12667974767E-01  0.23002511733E-01  0.26304480582E-01  0.00000000000E+00 0. -1.
     999901    1    3    3    0    0  0.68636031770E-01 -0.13673590035E-02  0.86732718934E-01  0.88692465242E+00  0.88000000000E+00 0.  1.
        -11    1    4    4    0    0 -0.55591266771E-01 -0.29818401367E-02 -0.77064339976E-01  0.95070783781E-01  0.51100000000E-03 0. -1.
         11    1    4    4    0    0 -0.11517490303E-01 -0.83187756273E-02 -0.32670890691E-01  0.35630083221E-01  0.51100000000E-03 0.  1.
</event>
<event>
 8    1  0.1208168E+005  0.1043930E+01  0.7957747E-01            NaN
         13   -1    0    0    0    0  0.00000000000E+00  0.00000000000E+00  0.74505805969E-08  0.10566000000E+00  0.10566000000E+00 0.  1.
     999900   -1    0    0    0    0 -0.00000000000E+00 -0.00000000000E+00 -0.74505805969E-08  0.93827000000E+00  0.93827000000E+00 0. -1.
     999902    2    1    2    0    0  0.13108948342E-01  0.91354489854E-02  0.11575674005E-01  0.10241993846E+01  0.10240093175E+01 0.  0.
     999903    2    3    3    0    0 -0.71553400180E-01 -0.92743293487E-01 -0.56653167117E-01  0.13167366163E+00  0.20178311599E-01 0.  0.
         14    1    1    2    0    0 -0.13108948342E-01 -0.91354489854E-02 -0.11575674005E-01  0.19730615385E-01  0.00000000000E+00 0. -1.
     999901    1    3    3    0    0  0.84662348523E-01  0.10187874247E+00  0.68228841122E-01  0.89252572298E+00  0.88000000000E+00 0.  1.
        -11    1    4    4    0    0 -0.58762758713E-01 -0.72316560295E-01 -0.35880360716E-01  0.99851930931E-01  0.51100000000E-03 0.  1.
         11    1    4    4    0    0 -0.12790641467E-01 -0.20426733192E-01 -0.20772806402E-01  0.31821730702E-01  0.51100000000E-03 0. -1.
</event>
<event>
 8    1  0.1208168E+005  0.1043930E+01  0.7957747E-01            NaN
         13   -1    0    0    0    0  0.00000000000E+00  0.00000000000E+00  0.74505805969E-08  0.10566000000E+00  0.10566000000E+00 0. -1.
     999900   -1    0    0    0    0 -0.00000000000E+00 -0.00000000000E+00 -0.74505805969E-08  0.93827000000E+00  0.93827000000E+00 0. -1.
     999902    2    1    2    0    0  0.19572374750E-01  0.66014068216E-02  0.10889307961E-01  0.10205797655E+01  0.10203126110E+01 0.  0.
     999903    2    3    3    0    0  0.11742937552E+00  0.38307540685E-03 -0.57876371311E-01  0.13246750966E+00  0.20203014063E-01 0.  0.
         14    1    1    2    0    0 -0.19572374750E-01 -0.66014068216E-02 -0.10889307961E-01  0.23350234544E-01  0.00000000000E+00 0.  1.
     999901    1    3    3    0    0 -0.97857000774E-01  0.62183314148E-02  0.68765679272E-01  0.88811225579E+00  0.88000000000E+00 0.  1.
        -11    1    4    4    0    0  0.41724509835E-01 -0.12856959662E-02 -0.31434509831E-01  0.52258752993E-01  0.51100000000E-03 0.  1.
         11    1    4    4    0    0  0.75704865688E-01  0.16687713730E-02 -0.26441861481E-01  0.80208756669E-01  0.51100000000E-03 0. -1.
</event>
<event>
 8    1  0.1208168E+005  0.1043930E+01  0.7957747E-01            NaN
         13   -1    0    0    0    0  0.00000000000E+00  0.00000000000E+00  0.74505805969E-08  0.10566000000E+00  0.10566000000E+00 0.  1.
     999900   -1    0    0    0    0 -0.00000000000E+00 -0.00000000000E+00 -0.74505805969E-08  0.93827000000E+00  0.93827000000E+00 0. -1.
     999902    2    1    2    0    0 -0.23075482404E-01 -0.39128527614E-02  0.80214605032E-02  0.10191886958E+01  0.10188883479E+01 0.  0.
     999903    2    3    3    0    0  0.45081332844E-01 -0.54508809945E-01 -0.10486759228E+00  0.12792597326E+00  0.19086796258E-01 0.  0.
         14    1    1    2    0    0  0.23075482404E-01  0.39128527614E-02 -0.80214605032E-02  0.24741304199E-01  0.00000000000E+00 0. -1.
     999901    1    3    3    0    0 -0.68156815247E-01  0.50595957184E-01  0.11288905279E+00  0.89126272254E+00  0.88000000000E+00 0.  1.
        -11    1    4    4    0    0  0.25297780903E-01 -0.44145376962E-01 -0.70822351499E-01  0.87205840507E-01  0.51100000000E-03 0. -1.
         11    1    4    4    0    0  0.19783551941E-01 -0.10363432983E-01 -0.34045240783E-01  0.40720132755E-01  0.51100000000E-03 0.  1.
</event>
<event>
 8    1  0.1208168E+005  0.1043930E+01  0.7957747E-01            NaN
         13   -1    0    0    0    0  0.00000000000E+00  0.00000000000E+00  0.74505805969E-08  0.10566000000E+00  0.10566000000E+00 0. -1.
     999900   -1    0    0    0    0 -0.00000000000E+00 -0.00000000000E+00 -0.74505805969E-08  0.93827000000E+00  0.93827000000E+00 0.  1.
     999902    2    1    2    0    0  0.82336351882E-02 -0.10958089986E-01 -0.19136142597E-01  0.10203914266E+01  0.10201198944E+01 0.  0.
     999903    2    3    3    0    0  0.10629313394E+00 -0.44819921140E-01 -0.63656270561E-01  0.13317987871E+00  0.19434599457E-01 0.  0.
         14    1    1    2    0    0 -0.82336351882E-02  0.10958089986E-01  0.19136142597E-01  0.23538573408E-01  0.00000000000E+00 0. -1.
     999901    1    3    3    0    0 -0.98059498757E-01  0.33861831154E-01  0.44520127964E-01  0.88721154788E+00  0.88000000000E+00 0. -1.
        -11    1    4    4    0    0  0.49520908280E-01 -0.22628824245E-01 -0.19204206542E-01  0.57736008812E-01  0.51100000000E-03 0.  1.
         11    1    4    4    0    0  0.56772225665E-01 -0.22191096895E-01 -0.44452064019E-01  0.75443869896E-01  0.51100000000E-03 0. -1.
</event>
<event>
 8    1  0.1208168E+005  0.1043930E+01  0.7957747E-01            NaN
         13   -1    0    0    0    0  0.00000000000E+00  0.00000000000E+00  0.74505805969E-08  0.10566000000E+00  0.10566000000E+00 0. -1.
     999900   -1    0    0    0    0 -0.00000000000E+00 -0.00000000000E+00 -0.74505805969E-08  0.93827000000E+00  0.93827000000E+00 0. -1.
     999902    2    1    2    0    0  0.16800594362E-01 -0.12584038447E-01  0.12270970880E-01  0.10196155039E+01  0.10193255520E+01 0.  0.
     999903    2    3    3    0    0 -0.65089821973E-01 -0.63962553276E-01  0.91502243722E-01  0.13078290623E+00  0.20090166990E-01 0.  0.
         14    1    1    2    0    0 -0.16800594362E-01  0.12584038447E-01 -0.12270970880E-01  0.24314496107E-01  0.00000000000E+00 0.  1.
     999901    1    3    3    0    0  0.81890416335E-01  0.51378514828E-01 -0.79231272842E-01  0.88883259766E+00  0.88000000000E+00 0. -1.
        -11    1    4    4    0    0 -0.46265329703E-01 -0.31923401259E-01  0.57485621209E-01  0.80401754006E-01  0.51100000000E-03 0. -1.
         11    1    4    4    0    0 -0.18824492269E-01 -0.32039152016E-01  0.34016622513E-01  0.50381152223E-01  0.51100000000E-03 0.  1.
</event>
<event>
 8    1  0.1208168E+005  0.1043930E+01  0.7957747E-01            NaN
         13   -1    0    0    0    0  0.00000000000E+00  0.00000000000E+00  0.74505805969E-08  0.10566000000E+00  0.10566000000E+00 0. -1.
     999900   -1    0    0    0    0 -0.00000000000E+00 -0.00000000000E+00 -0.74505805969E-08  0.93827000000E+00  0.93827000000E+00 0.  1.
     999902    2    1    2    0    0 -0.16191915387E-01  0.15250899537E-01 -0.87854630485E-02  0.10200144732E+01  0.10197340698E+01 0.  0.
     999903    2    3    3    0    0  0.35657884031E-02 -0.11554349524E+00 -0.53396153904E-01  0.12901073904E+00  0.20726972733E-01 0.  0.
         14    1    1    2    0    0  0.16191915387E-01 -0.15250899537E-01  0.87854630485E-02  0.23915526788E-01  0.00000000000E+00 0.  1.
     999901    1    3    3    0    0 -0.19757703790E-01  0.13079439477E+00  0.44610690856E-01  0.89100373417E+00  0.88000000000E+00 0. -1.
        -11    1    4    4    0    0 -0.54543124446E-03 -0.91980697432E-01 -0.33498983518E-01  0.97893764935E-01  0.51100000000E-03 0.  1.
         11    1    4    4    0    0  0.41112196476E-02 -0.23562797803E-01 -0.19897170387E-01  0.31116974109E-01  0.51100000000E-03 0. -1.
</event>
<event>
 8    1  0.1208168E+005  0.1043930E+01  0.7957747E-01            NaN
         13   -1    0    0    0    0  0.00000000000E+00  0.00000000000E+00  0.74505805969E-08  0.10566000000E+00  0.10566000000E+00 0. -1.
     999900   -1    0    0    0    0 -0.00000000000E+00 -0.00000000000E+00 -0.74505805969E-08  0.93827000000E+00  0.93827000000E+00 0.  1.
     999902    2    1    2    0    0  0.11191449448E-01 -0.66617099357E-02  0.19625479869E-01  0.10203760963E+01  0.10201042062E+01 0.  0.
     999903    2    3    3    0    0 -0.91753498742E-01 -0.90834126773E-01 -0.25439051869E-02  0.13010976549E+00  0.15891397193E-01 0.  0.
         14    1    1    2    0    0 -0.11191449448E-01  0.66617099357E-02 -0.19625479869E-01  0.23553903712E-01  0.00000000000E+00 0.  1.
     999901    1    3    3    0    0  0.10294494819E+00  0.84172416838E-01  0.22169385055E-01  0.89026633080E+00  0.88000000000E+00 0.  1.
        -11    1    4    4    0    0 -0.45536067086E-01 -0.56156951665E-01 -0.10895099556E-02  0.72308953656E-01  0.51100000000E-03 0. -1.
         11    1    4    4    0    0 -0.46217431656E-01 -0.34677175109E-01 -0.14543952313E-02  0.57800811836E-01  0.51100000000E-03 0.  1.
</event>
<event>
 8    1  0.1208168E+005  0.1043930E+01  0.7957747E-01            NaN
         13   -1    0    0    0    0  0.00000000000E+00  0.00000000000E+00  0.74505805969E-08  0.10566000000E+00  0.10566000000E+00 0.  1.
     999900   -1    0    0    0    0 -0.00000000000E+00 -0.00000000000E+00 -0.74505805969E-08  0.93827000000E+00  0.93827000000E+00 0. -1.
     999902    2    1    2    0    0 -0.91534507071E-02 -0.18653394782E-01  0.10743596446E-01  0.10205385558E+01  0.10202704466E+01 0.  0.
     999903    2    3    3    0    0  0.19352059209E-01 -0.10497582294E+00  0.77336657849E-01  0.13335268942E+00  0.20188004589E-01 0.  0.
         14    1    1    2    0    0  0.91534507071E-02  0.18653394782E-01 -0.10743596446E-01  0.23391444191E-01  0.00000000000E+00 0. -1.
     999901    1    3    3    0    0 -0.28505509916E-01  0.86322428160E-01 -0.66593061404E-01  0.88718586639E+00  0.88000000000E+00 0. -1.
        -11    1    4    4    0    0  0.77266480105E-02 -0.77210702204E-01  0.47581787010E-01  0.91024618650E-01  0.51100000000E-03 0.  1.
         11    1    4    4    0    0  0.11625411198E-01 -0.27765120738E-01  0.29754870840E-01  0.42328070767E-01  0.51100000000E-03 0. -1.
</event>
<event>
 8    1  0.1208168E+005  0.1043930E+01  0.7957747E-01            NaN
         13   -1    0    0    0    0  0.00000000000E+00  0.00000000000E+00  0.74505805969E-08  0.10566000000E+00  0.10566000000E+00 0.  1.
     999900   -1    0    0    0    0 -0.00000000000E+00 -0.00000000000E+00 -0.74505805969E-08  0.93827000000E+00  0.93827000000E+00 0.  1.
     999902    2    1    2    0    0 -0.41437478055E-02 -0.21328211940E-01  0.10021838002E-01  0.10200030172E+01  0.10197223419E+01 0.  0.
     999903    2    3    3    0    0 -0.35470460704E-01 -0.23058394101E-01 -0.12097605974E+00  0.12975316141E+00  0.20269009455E-01 0.  0.
         14    1    1    2    0    0  0.41437478055E-02  0.21328211940E-01 -0.10021838002E-01  0.23926982830E-01  0.00000000000E+00 0.  1.
     999901    1    3    3    0    0  0.31326712898E-01  0.17301821616E-02  0.13099789774E+00  0.89024985576E+00  0.88000000000E+00 0. -1.
        -11    1    4    4    0    0 -0.31489856943E-01 -0.10609124499E-01 -0.95468582995E-01  0.10108746744E+00  0.51100000000E-03 0.  1.
         11    1    4    4    0    0 -0.39806037609E-02 -0.12449269603E-01 -0.25507476744E-01  0.28665693970E-01  0.51100000000E-03 0. -1.
</event>
<event>
 8    1  0.1208168E+005  0.1043930E+01  0.7957747E-01            NaN
         13   -1    0    0    0    0  0.00000000000E+00  0.00000000000E+00  0.74505805969E-08  0.10566000000E+00  0.10566000000E+00 0. -1.
     999900   -1    0    0    0    0 -0.00000000000E+00 -0.00000000000E+00 -0.74505805969E-08  0.93827000000E+00  0.93827000000E+00 0. -1.
     999902    2    1    2    0    0  0.17680319326E-02  0.10605128790E-01  0.20819497973E-01  0.10204982653E+01  0.10202292210E+01 0.  0.
     999903    2    3    3    0    0  0.60838680772E-02 -0.23311159893E-01 -0.12424833102E+00  0.12796612805E+00  0.18901284105E-01 0.  0.
         14    1    1    2    0    0 -0.17680319326E-02 -0.10605128790E-01 -0.20819497973E-01  0.23431734665E-01  0.00000000000E+00 0.  1.
     999901    1    3    3    0    0 -0.43158361445E-02  0.33916288682E-01  0.14506782899E+00  0.89253213729E+00  0.88000000000E+00 0.  1.
        -11    1    4    4    0    0  0.11899697466E-01 -0.18165698362E-01 -0.74125637337E-01  0.77242906654E-01  0.51100000000E-03 0.  1.
         11    1    4    4    0    0 -0.58158293892E-02 -0.51454615309E-02 -0.50122693682E-01  0.50723221396E-01  0.51100000000E-03 0. -1.
</event>
<event>
 8    1  0.1208168E+005  0.1043930E+01  0.7957747E-01            NaN
         13   -1    0    0    0    0  0.00000000000E+00  0.00000000000E+00  0.74505805969E-08  0.10566000000E+00  0.10566000000E+00 0. -1.
     999900   -1    0    0    0    0 -0.00000000000E+00 -0.00000000000E+00 -0.74505805969E-08  0.93827000000E+00  0.93827000000E+00 0. -1.
     999902    2    1    2    0    0 -0.16796723709E-01  0.12961100643E-01 -0.97270398984E-02  0.10205904335E+01  0.10203235260E+01 0.  0.
     999903    2    3    3    0    0  0.78654582226E-01 -0.22873889234E-01 -0.99231733341E-01  0.13019378684E+00  0.19842558226E-01 0.  0.
         14    1    1    2    0    0  0.16796723709E-01 -0.12961100643E-01  0.97270398984E-02  0.23339566457E-01  0.00000000000E+00 0. -1.
     999901    1    3    3    0    0 -0.95451305935E-01  0.35834989876E-01  0.89504693443E-01  0.89039664670E+00  0.88000000000E+00 0. -1.
        -11    1    4    4    0    0  0.59321616949E-01 -0.79508442685E-02 -0.70523395463E-01  0.92499084269E-01  0.51100000000E-03 0. -1.
         11    1    4    4    0    0  0.19332965277E-01 -0.14923044965E-01 -0.28708337878E-01  0.37694702575E-01  0.51100000000E-03 0.  1.
</event>
<event>
 8    1  0.1208168E+005  0.1043930E+01  0.7957747E-01            NaN
         13   -1    0    0    0    0  0.00000000000E+00  0.00000000000E+00  0.74505805969E-08  0.10566000000E+00  0.10566000000E+00 0.  1.
     999900   -1    0    0    0    0 -0.00000000000E+00 -0.00000000000E+00 -0.74505805969E-08  0.93827000000E+00  0.93827000000E+00 0. -1.
     999902    2    1    2    0    0 -0.16280615832E-02  0.23392856498E-01 -0.17741972990E-02  0.10204135356E+01  0.10201425193E+01 0.  0.
     999903    2    3    3    0    0  0.10155768980E+00  0.81590514109E-01  0.13857973743E-01  0.13233773291E+00  0.18715121299E-01 0.  0.
         14    1    1    2    0    0  0.16280615832E-02 -0.23392856498E-01  0.17741972990E-02  0.23516464354E-01  0.00000000000E+00 0.  1.
     999901    1    3    3    0    0 -0.10318575138E+00 -0.58197657611E-01 -0.15632171042E-01  0.88807580274E+00  0.88000000000E+00 0. -1.
        -11    1    4    4    0    0  0.56042608758E-01  0.52570378891E-01  0.10130211719E-02  0.76848591829E-01  0.51100000000E-03 0. -1.
         11    1    4    4    0    0  0.45515081039E-01  0.29020135217E-01  0.12844952571E-01  0.55489141078E-01  0.51100000000E-03 0.  1.
</event>
<event>
 8    1  0.1208168E+005  0.1043930E+01  0.7957747E-01            NaN
         13   -1    0    0    0    0  0.00000000000E+00  0.00000000000E+00  0.74505805969E-08  0.10566000000E+00  0.10566000000E+00 0. -1.
     999900   -1    0    0    0    0 -0.00000000000E+00 -0.00000000000E+00 -0.74505805969E-08  0.93827000000E+00  0.93827000000E+00 0.  1.
     999902    2    1    2    0    0 -0.21796104556E-01 -0.69213639402E-02  0.62883812101E-02  0.10202125130E+01  0.10199367885E+01 0.  0.
     999903    2    3    3    0    0  0.22746522825E-01  0.96952482298E-01  0.80787783600E-01  0.12986202999E+00  0.20501042187E-01 0.  0.
         14    1    1    2    0    0  0.21796104556E-01  0.69213639402E-02 -0.62883812101E-02  0.23717487027E-01  0.00000000000E+00 0.  1.
     999901    1    3    3    0    0 -0.44542627381E-01 -0.10387384624E+00 -0.74499402389E-01  0.89035048298E+00  0.88000000000E+00 0.  1.
        -11    1    4    4    0    0  0.14307215396E-01  0.56399473965E-01  0.59745975480E-01  0.83399279271E-01  0.51100000000E-03 0. -1.
         11    1    4    4    0    0  0.84393074289E-02  0.40553008333E-01  0.21041808120E-01  0.46462750722E-01  0.51100000000E-03 0.  1.
</event>
<event>
 8    1  0.1208168E+005  0.1043930E+01  0.7957747E-01            NaN
         13   -1    0    0    0    0  0.00000000000E+00  0.00000000000E+00  0.74505805969E-08  0.10566000000E+00  0.10566000000E+00 0.  1.
     999900   -1    0    0    0    0 -0.00000000000E+00 -0.00000000000E+00 -0.74505805969E-08  0.93827000000E+00  0.93827000000E+00 0. -1.
     999902    2    1    2    0    0  0.13134435323E-01  0.95886838943E-02 -0.13759210784E-01  0.10226280721E+01  0.10224061824E+01 0.  0.
     999903    2    3    3    0    0 -0.60016216117E-01 -0.49448179892E-01 -0.10597929629E+00  0.13282982911E+00  0.19107160079E-01 0.  0.
         14    1    1    2    0    0 -0.13134435323E-01 -0.95886838943E-02  0.13759210784E-01  0.21301927882E-01  0.00000000000E+00 0.  1.
     999901    1    3    3    0    0  0.73150651440E-01  0.59036863786E-01  0.92220085511E-01  0.88979824301E+00  0.88000000000E+00 0.  1.
        -11    1    4    4    0    0 -0.30491243965E-01 -0.33702154743E-01 -0.71940659763E-01  0.85095657004E-01  0.51100000000E-03 0.  1.
         11    1    4    4    0    0 -0.29524972151E-01 -0.15746025149E-01 -0.34038636532E-01  0.47734172104E-01  0.51100000000E-03 0. -1.
</event>
<event>
 8    1  0.1208168E+005  0.1043930E+01  0.7957747E-01            NaN
         13   -1    0    0    0    0  0.00000000000E+00  0.00000000000E+00  0.74505805969E-08  0.10566000000E+00  0.10566000000E+00 0. -1.
     999900   -1    0    0    0    0 -0.00000000000E+00 -0.00000000000E+00 -0.74505805969E-08  0.93827000000E+00  0.93827000000E+00 0. -1.
     999902    2    1    2    0    0  0.22241216382E-01 -0.44523928378E-02  0.68511770345E-02  0.10202353986E+01  0.10199602122E+01 0.  0.
     999903    2    3    3    0    0 -0.10728917793E+00  0.37947413501E-01  0.56175124646E-01  0.12837850514E+00  0.19349988650E-01 0.  0.
         14    1    1    2    0    0 -0.22241216382E-01  0.44523928378E-02 -0.68511770345E-02  0.23694601387E-01  0.00000000000E+00 0.  1.
     999901    1    3    3    0    0  0.12953039431E+00 -0.42399806339E-01 -0.49323947612E-01  0.89185689347E+00  0.88000000000E+00 0. -1.
        -11    1    4    4    0    0 -0.73217064397E-01  0.16317727089E-01  0.34549154414E-01  0.82588812366E-01  0.51100000000E-03 0.  1.
         11    1    4    4    0    0 -0.34072113532E-01  0.21629686412E-01  0.21625970233E-01  0.45789692774E-01  0.51100000000E-03 0. -1.
</event>
<event>
 8    1  0.1208168E+005  0.1043930E+01  0.7957747E-01            NaN
         13   -1    0    0    0    0  0.00000000000E+00  0.00000000000E+00  0.74505805969E-08  0.10566000000E+00  0.10566000000E+00 0.  1.
     999900   -1    0    0    0    0 -0.00000000000E+00 -0.00000000000E+00 -0.74505805969E-08  0.93827000000E+00  0.93827000000E+00 0. -1.
     999902    2    1    2    0    0 -0.17366297955E-01  0.15738968922E-01 -0.73582439135E-02  0.10193648377E+01  0.10190688029E+01 0.  0.
     999903    2    3    3    0    0 -0.44400305141E-01  0.12918323210E-01  0.11972749200E+00  0.12982024751E+00  0.19502670420E-01 0.  0.
         14    1    1    2    0    0  0.17366297955E-01 -0.15738968922E-01  0.73582439135E-02  0.24565162342E-01  0.00000000000E+00 0.  1.
     999901    1    3    3    0    0  0.27034007186E-01  0.28206457120E-02 -0.12708573591E+00  0.88954459015E+00  0.88000000000E+00 0. -1.
        -11    1    4    4    0    0 -0.50853590962E-02 -0.48274239437E-02  0.18020209765E-01  0.19343060256E-01  0.51100000000E-03 0.  1.
         11    1    4    4    0    0 -0.39314946044E-01  0.17745747153E-01  0.10170728223E+00  0.11047718726E+00  0.51100000000E-03 0. -1.
</event>
<event>
 8    1  0.1208168E+005  0.1043930E+01  0.7957747E-01            NaN
         13   -1    0    0    0    0  0.00000000000E+00  0.00000000000E+00  0.74505805969E-08  0.10566000000E+00  0.10566000000E+00 0.  1.
     999900   -1    0    0    0    0 -0.00000000000E+00 -0.00000000000E+00 -0.74505805969E-08  0.93827000000E+00  0.93827000000E+00 0.  1.
     999902    2    1    2    0    0 -0.41788233374E-02 -0.13137681515E-01  0.15824151389E-01  0.10229427418E+01  0.10227274260E+01 0.  0.
     999903    2    3    3    0    0  0.43325315558E-01  0.50169555010E-01 -0.11045089866E+00  0.13041272119E+00  0.20347226218E-01 0.  0.
         14    1    1    2    0    0  0.41788233374E-02  0.13137681515E-01 -0.15824151389E-01  0.20987258212E-01  0.00000000000E+00 0. -1.
     999901    1    3    3    0    0 -0.47504138896E-01 -0.63307236525E-01  0.12627505005E+00  0.89253002060E+00  0.88000000000E+00 0. -1.
        -11    1    4    4    0    0  0.14821379959E-01  0.55086315298E-02 -0.19024921674E-01  0.24743223131E-01  0.51100000000E-03 0.  1.
         11    1    4    4    0    0  0.28503935599E-01  0.44660923480E-01 -0.91425976986E-01  0.10566949806E+00  0.51100000000E-03 0. -1.
</event>
<event>
 8    1  0.1208168E+005  0.1043930E+01  0.7957747E-01            NaN
         13   -1    0    0    0    0  0.00000000000E+00  0.00000000000E+00  0.74505805969E-08  0.10566000000E+00  0.10566000000E+00 0.  1.
     999900   -1    0    0    0    0 -0.00000000000E+00 -0.00000000000E+00 -0.74505805969E-08  0.93827000000E+00  0.93827000000E+00 0. -1.
     999902    2    1    2    0    0  0.16188523343E-01 -0.31493919830E-02  0.15451626315E-01  0.10213304488E+01  0.10210803817E+01 0.  0.
     999903    2    3    3    0    0  0.39006347149E-01 -0.12316849589E+00 -0.19884436550E-01  0.13218823537E+00  0.19656176025E-01 0.  0.
         14    1    1    2    0    0 -0.16188523343E-01  0.31493919830E-02 -0.15451626315E-01  0.22599551183E-01  0.00000000000E+00 0. -1.
     999901    1    3    3    0    0 -0.22817823806E-01  0.12001910391E+00  0.35336062864E-01  0.88914221344E+00  0.88000000000E+00 0.  1.
        -11    1    4    4    0    0  0.23972832001E-01 -0.78405901689E-01 -0.22090619312E-01  0.84914301954E-01  0.51100000000E-03 0.  1.
         11    1    4    4    0    0  0.15033515148E-01 -0.44762594205E-01  0.22061827623E-02  0.47273933421E-01  0.51100000000E-03 0. -1.
</event>
<event>
 8    1  0.1208168E+005  0.1043930E+01  0.7957747E-01            NaN
         13   -1    0    0    0    0  0.00000000000E+00  0.00000000000E+00  0.74505805969E-08  0.10566000000E+00  0.10566000000E+00 0. -1.
     999900   -1    0    0    0    0 -0.00000000000E+00 -0.00000000000E+00 -0.74505805969E-08  0.93827000000E+00  0.93827000000E+00 0. -1.
     999902    2    1    2    0    0 -0.43487078567E-02 -0.41636281733E-02 -0.22675485043E-01  0.10204688687E+01  0.10201991410E+01 0.  0.
     999903    2    3    3    0    0 -0.11916698949E+00 -0.12408688909E-01  0.46962655849E-01  0.13024379071E+00  0.20080015667E-01 0.  0.
         14    1    1    2    0    0  0.43487078567E-02  0.41636281733E-02  0.22675485043E-01  0.23461131292E-01  0.00000000000E+00 0. -1.
     999901    1    3    3    0    0  0.11481828164E+00  0.82450607357E-02 -0.69638140891E-01  0.89022507800E+00  0.88000000000E+00 0. -1.
        -11    1    4    4    0    0 -0.64528707779E-01 -0.99368550905E-02  0.35648439912E-01  0.74389297657E-01  0.51100000000E-03 0. -1.
         11    1    4    4    0    0 -0.54638281716E-01 -0.24718338184E-02  0.11314215937E-01  0.55854493056E-01  0.51100000000E-03 0.  1.
</event>
<event>
 8    1  0.1208168E+005  0.1043930E+01  0.7957747E-01            NaN
         13   -1    0    0    0    0  0.00000000000E+00  0.00000000000E+00  0.74505805969E-08  0.10566000000E+00  0.10566000000E+00 0.  1.
     999900   -1    0    0    0    0 -0.00000000000E+00 -0.00000000000E+00 -0.74505805969E-08  0.93827000000E+00  0.93827000000E+00 0.  1.
     999902    2    1    2    0    0  0.12405963201E-01  0.20471564644E-01  0.99523618786E-03  0.10199720498E+01  0.10196906389E+01 0.  0.
     999903    2    3    3    0    0 -0.48301207388E-01  0.41381051804E-01 -0.11177730958E+00  0.13045520664E+00  0.21885975394E-01 0.  0.
         14    1    1    2    0    0 -0.12405963201E-01 -0.20471564644E-01 -0.99523618786E-03  0.23957950183E-01  0.00000000000E+00 0.  1.
     999901    1    3    3    0    0  0.60707170589E-01 -0.20909487160E-01  0.11277254577E+00  0.88951684318E+00  0.88000000000E+00 0. -1.
        -11    1    4    4    0    0 -0.27685095726E-01  0.21091341404E-01 -0.81277351151E-01  0.88417069272E-01  0.51100000000E-03 0.  1.
         11    1    4    4    0    0 -0.20616111662E-01  0.20289710400E-01 -0.30499958431E-01  0.42038137369E-01  0.51100000000E-03 0. -1.
</event>
<event>
 8    1  0.1208168E+005  0.1043930E+01  0.7957747E-01            NaN
         13   -1    0    0    0    0  0.00000000000E+00  0.00000000000E+00  0.74505805969E-08  0.10566000000E+00  0.10566000000E+00 0.  1.
     999900   -1    0    0    0    0 -0.00000000000E+00 -0.00000000000E+00 -0.74505805969E-08  0.93827000000E+00  0.93827000000E+00 0.  1.
     999902    2    1    2    0    0  0.19540052172E-02 -0.23172398960E-01 -0.27102587461E-02  0.10205179580E+01  0.10202493709E+01 0.  0.
     999903    2    3    3    0    0  0.28602647589E-01  0.80656725351E-01  0.91268237254E-01  0.12904580758E+00  0.31611873230E-01 0.  0.
         14    1    1    2    0    0 -0.19540052172E-02  0.23172398960E-01  0.27102587461E-02  0.23412042039E-01  0.00000000000E+00 0. -1.
     999901    1    3    3    0    0 -0.26648642372E-01 -0.10382912431E+00 -0.93978496000E-01  0.89147215038E+00  0.88000000000E+00 0. -1.
        -11    1    4    4    0    0  0.26189887515E-02  0.36099010522E-01  0.20905649638E-01  0.41800777152E-01  0.51100000000E-03 0. -1.
         11    1    4    4    0    0  0.25983658838E-01  0.44557714829E-01  0.70362587615E-01  0.87245030428E-01  0.51100000000E-03 0.  1.
</event>
<event>
 8    1  0.1208168E+005  0.1043930E+01  0.7957747E-01            NaN
         13   -1    0    0    0    0  0.00000000000E+00  0.00000000000E+00  0.74505805969E-08  0.10566000000E+00  0.10566000000E+00 0. -1.
     999900   -1    0    0    0    0 -0.00000000000E+00 -0.00000000000E+00 -0.74505805969E-08  0.93827000000E+00  0.93827000000E+00 0. -1.
     999902    2    1    2    0    0  0.80520388406E-02  0.19531007078E-02 -0.22613608619E-01  0.10198462871E+01  0.10195618785E+01 0.  0.
     999903    2    3    3    0    0 -0.98387365363E-01 -0.22213926278E-01 -0.81309505733E-01  0.13116265369E+00  0.20466407053E-01 0.  0.
         14    1    1    2    0    0 -0.80520388406E-02 -0.19531007078E-02  0.22613608619E-01  0.24083712892E-01  0.00000000000E+00 0. -1.
     999901    1    3    3    0    0  0.10643940420E+00  0.24167026986E-01  0.58695897113E-01  0.88868363341E+00  0.88000000000E+00 0. -1.
        -11    1    4    4    0    0 -0.67598483097E-01 -0.61815178611E-02 -0.48821636664E-01  0.83615664846E-01  0.51100000000E-03 0.  1.
         11    1    4    4    0    0 -0.30788882266E-01 -0.16032408417E-01 -0.32487869069E-01  0.47546988848E-01  0.51100000000E-03 0. -1.
</event>
<event>
 8    1  0.1208168E+005  0.1043930E+01  0.7957747E-01            NaN
         13   -1    0    0    0    0  0.00000000000E+00  0.00000000000E+00  0.74505805969E-08  0.10566000000E+00  0.10566000000E+00 0.  1.
     999900   -1    0    0    0    0 -0.00000000000E+00 -0.00000000000E+00 -0.74505805969E-08  0.93827000000E+00  0.93827000000E+00 0. -1.
     999902    2    1    2    0    0 -0.73991122563E-02  0.13781296738E-01  0.16601643879E-01  0.10211202306E+01  0.10208654366E+01 0.  0.
     999903    2    3    3    0    0  0.19916943453E-01 -0.11203769326E+00  0.60990687133E-01  0.13064453056E+00  0.19974986893E-01 0.  0.
         14    1    1    2    0    0  0.73991122563E-02 -0.13781296738E-01 -0.16601643879E-01  0.22809769430E-01  0.00000000000E+00 0. -1.
     999901    1    3    3    0    0 -0.27316055709E-01  0.12581899000E+00 -0.44389043254E-01  0.89047570001E+00  0.88000000000E+00 0. -1.
        -11    1    4    4    0    0  0.32211782561E-02 -0.28614462061E-01  0.25475543822E-01  0.38450330069E-01  0.51100000000E-03 0.  1.
         11    1    4    4    0    0  0.16695765197E-01 -0.83423231199E-01  0.35515143311E-01  0.92194200493E-01  0.51100000000E-03 0. -1.
</event>
<event>
 8    1  0.1208168E+005  0.1043930E+01  0.7957747E-01            NaN
         13   -1    0    0    0    0  0.00000000000E+00  0.00000000000E+00  0.74505805969E-08  0.10566000000E+00  0.10566000000E+00 0.  1.
     999900   -1    0    0    0    0 -0.00000000000E+00 -0.00000000000E+00 -0.74505805969E-08  0.93827000000E+00  0.93827000000E+00 0.  1.
     999902    2    1    2    0    0 -0.17089509187E-01 -0.17280658970E-01 -0.27536645465E-02  0.10194707448E+01  0.10191772879E+01 0.  0.
     999903    2    3    3    0    0 -0.10590120910E-01  0.11329704479E+00 -0.55801619442E-01  0.12823179571E+00  0.19524386817E-01 0.  0.
         14    1    1    2    0    0  0.17089509187E-01  0.17280658970E-01  0.27536645465E-02  0.24459255245E-01  0.00000000000E+00 0. -1.
     999901    1    3    3    0    0 -0.64993882773E-02 -0.13057770376E+00  0.53047954895E-01  0.89123894904E+00  0.88000000000E+00 0. -1.
        -11    1    4    4    0    0 -0.77974449945E-02  0.59398322137E-01 -0.39840409113E-01  0.71947759801E-01  0.51100000000E-03 0.  1.
         11    1    4    4    0    0 -0.27926759157E-02  0.53898722654E-01 -0.15961210328E-01  0.56284035913E-01  0.51100000000E-03 0. -1.
</event>
<event>
 8    1  0.1208168E+005  0.1043930E+01  0.7957747E-01            NaN
         13   -1    0    0    0    0  0.00000000000E+00  0.00000000000E+00  0.74505805969E-08  0.10566000000E+00  0.10566000000E+00 0. -1.
     999900   -1    0    0    0    0 -0.00000000000E+00 -0.00000000000E+00 -0.74505805969E-08  0.93827000000E+00  0.93827000000E+00 0. -1.
     999902    2    1    2    0    0  0.49950837232E-02  0.42094414699E-03 -0.23427854665E-01  0.10199718609E+01  0.10196904455E+01 0.  0.
     999903    2    3    3    0    0  0.39328741249E-01  0.11079638099E-01  0.11994770220E+00  0.12764402982E+00  0.15363554803E-01 0.  0.
         14    1    1    2    0    0 -0.49950837232E-02 -0.42094414699E-03  0.23427854665E-01  0.23958139110E-01  0.00000000000E+00 0. -1.
     999901    1    3    3    0    0 -0.34333657525E-01 -0.10658693952E-01 -0.14337555687E+00  0.89232783107E+00  0.88000000000E+00 0. -1.
        -11    1    4    4    0    0  0.14963659373E-01 -0.25899836202E-02  0.52019332759E-01  0.54193091983E-01  0.51100000000E-03 0. -1.
         11    1    4    4    0    0  0.24365081876E-01  0.13669621719E-01  0.67928369444E-01  0.73450937837E-01  0.51100000000E-03 0.  1.
</event>
<event>
 8    1  0.1208168E+005  0.1043930E+01  0.7957747E-01            NaN
         13   -1    0    0    0    0  0.00000000000E+00  0.00000000000E+00  0.74505805969E-08  0.10566000000E+00  0.10566000000E+00 0. -1.
     999900   -1    0    0    0    0 -0.00000000000E+00 -0.00000000000E+00 -0.74505805969E-08  0.93827000000E+00  0.93827000000E+00 0.  1.
     999902    2    1    2    0    0  0.24844517086E-01  0.13410312777E-01 -0.96007305239E-02  0.10141095281E+01  0.10136709892E+01 0.  0.
     999903    2    3    3    0    0  0.48118208738E-01 -0.11247104858E+00  0.12750530641E-01  0.12456618416E+00  0.19724589355E-01 0.  0.
         14    1    1    2    0    0 -0.24844517086E-01 -0.13410312777E-01  0.96007305239E-02  0.29820471904E-01  0.00000000000E+00 0.  1.
     999901    1    3    3    0    0 -0.23273691652E-01  0.12588136135E+00 -0.22351261165E-01  0.88954334393E+00  0.88000000000E+00 0. -1.
        -11    1    4    4    0    0  0.35502157419E-02 -0.29551968799E-01  0.34969540010E-02  0.29973533325E-01  0.51100000000E-03 0. -1.
         11    1    4    4    0    0  0.44567992996E-01 -0.82919079777E-01  0.92535766404E-02  0.94592650838E-01  0.51100000000E-03 0.  1.
</event>
<event>
 8    1  0.1208168E+005  0.1043930E+01  0.7957747E-01            NaN
         13   -1    0    0    0    0  0.00000000000E+00  0.00000000000E+00  0.74505805969E-08  0.10566000000E+00  0.10566000000E+00 0. -1.
     999900   -1    0    0    0    0 -0.00000000000E+00 -0.00000000000E+00 -0.74505805969E-08  0.93827000000E+00  0.93827000000E+00 0. -1.
     999902    2    1    2    0    0 -0.18687001534E-01 -0.11635683949E-01 -0.62483634440E-02  0.10210469230E+01  0.10207904701E+01 0.  0.
     999903    2    3    3    0    0 -0.11994750202E-01  0.66569762794E-01 -0.11081347994E+00  0.13138702072E+00  0.20186989045E-01 0.  0.
         14    1    1    2    0    0  0.18687001534E-01  0.11635683949E-01  0.62483634440E-02  0.22883077001E-01  0.00000000000E+00 0. -1.
     999901    1    3    3    0    0 -0.66922513318E-02 -0.78205446743E-01  0.10456511650E+00  0.88965990228E+00  0.88000000000E+00 0.  1.
        -11    1    4    4    0    0 -0.66403271266E-02  0.43569427566E-01 -0.52986831649E-01  0.68922089434E-01  0.51100000000E-03 0. -1.
         11    1    4    4    0    0 -0.53544230756E-02  0.23000335228E-01 -0.57826648294E-01  0.62464931290E-01  0.51100000000E-03 0.  1.
</event>
<event>
 8    1  0.1208168E+005  0.1043930E+01  0.7957747E-01            NaN
         13   -1    0    0    0    0  0.00000000000E+00  0.00000000000E+00  0.74505805969E-08  0.10566000000E+00  0.10566000000E+00 0.  1.
     999900   -1    0    0    0    0 -0.00000000000E+00 -0.00000000000E+00 -0.74505805969E-08  0.93827000000E+00  0.93827000000E+00 0. -1.
     999902    2    1    2    0    0 -0.17766268443E-01 -0.87915800407E-02 -0.13027966335E-01  0.10202095430E+01  0.10199337486E+01 0.  0.
     999903    2    3    3    0    0  0.73162903880E-01 -0.56686960266E-01 -0.90252555706E-01  0.13086949608E+00  0.20373493197E-01 0.  0.
         14    1    1    2    0    0  0.17766268443E-01  0.87915800407E-02  0.13027966335E-01  0.23720457012E-01  0.00000000000E+00 0. -1.
     999901    1    3    3    0    0 -0.90929172323E-01  0.47895380226E-01  0.77224589371E-01  0.88934004691E+00  0.88000000000E+00 0.  1.
        -11    1    4    4    0    0  0.60952668162E-01 -0.51917829924E-01 -0.84902087621E-01  0.11670181842E+00  0.51100000000E-03 0. -1.
         11    1    4    4    0    0  0.12210235718E-01 -0.47691303427E-02 -0.53504680853E-02  0.14167677659E-01  0.51100000000E-03 0.  1.
</event>
<event>
 8    1  0.1208168E+005  0.1043930E+01  0.7957747E-01            NaN
         13   -1    0    0    0    0  0.00000000000E+00  0.00000000000E+00  0.74505805969E-08  0.10566000000E+00  0.10566000000E+00 0. -1.
     999900   -1    0    0    0    0 -0.00000000000E+00 -0.00000000000E+00 -0.74505805969E-08  0.93827000000E+00  0.93827000000E+00 0. -1.
     999902    2    1    2    0    0 -0.14609378722E-01  0.90432576076E-02  0.15312006228E-01  0.10209153962E+01  0.10206559529E+01 0.  0.
     999903    2    3    3    0    0  0.26271198383E-01 -0.99799393361E-01  0.78224718716E-01  0.13104127381E+00  0.20065244659E-01 0.  0.
         14    1    1    2    0    0  0.14609378722E-01 -0.90432576076E-02 -0.15312006228E-01  0.23014603832E-01  0.00000000000E+00 0.  1.
     999901    1    3    3    0    0 -0.40880577105E-01  0.10884265097E+00 -0.62912712488E-01  0.88987412236E+00  0.88000000000E+00 0. -1.
        -11    1    4    4    0    0  0.10327179669E-01 -0.69395644680E-01  0.45597390948E-01  0.83676695219E-01  0.51100000000E-03 0. -1.
         11    1    4    4    0    0  0.15944018714E-01 -0.30403748681E-01  0.32627327768E-01  0.47364578589E-01  0.51100000000E-03 0.  1.
</event>
<event>
 8    1  0.1208168E+005  0.1043930E+01  0.7957747E-01            NaN
         13   -1    0    0    0    0  0.00000000000E+00  0.00000000000E+00  0.74505805969E-08  0.10566000000E+00  0.10566000000E+00 0. -1.
     999900   -1    0    0    0    0 -0.00000000000E+00 -0.00000000000E+00 -0.74505805969E-08  0.93827000000E+00  0.93827000000E+00 0.  1.
     999902    2    1    2    0    0 -0.19897485756E-01 -0.44650439980E-02  0.11706019640E-01  0.10204166537E+01  0.10201457101E+01 0.  0.
     999903    2    3    3    0    0 -0.37273968922E-01 -0.10413711549E+00 -0.67339318009E-01  0.13109970831E+00  0.20461236195E-01 0.  0.
         14    1    1    2    0    0  0.19897485756E-01  0.44650439980E-02 -0.11706019640E-01  0.23513346277E-01  0.00000000000E+00 0.  1.
     999901    1    3    3    0    0  0.17376483166E-01  0.99672071490E-01  0.79045337648E-01  0.88931694542E+00  0.88000000000E+00 0. -1.
        -11    1    4    4    0    0 -0.26834089857E-01 -0.44928033089E-01 -0.29963605698E-01  0.60304853230E-01  0.51100000000E-03 0.  1.
         11    1    4    4    0    0 -0.10439879065E-01 -0.59209082399E-01 -0.37375712310E-01  0.70794855076E-01  0.51100000000E-03 0. -1.
</event>
<event>
 8    1  0.1208168E+005  0.1043930E+01  0.7957747E-01            NaN
         13   -1    0    0    0    0  0.00000000000E+00  0.00000000000E+00  0.74505805969E-08  0.10566000000E+00  0.10566000000E+00 0. -1.
     999900   -1    0    0    0    0 -0.00000000000E+00 -0.00000000000E+00 -0.74505805969E-08  0.93827000000E+00  0.93827000000E+00 0.  1.
     999902    2    1    2    0    0  0.21211978068E-01  0.76454887805E-02  0.64057398390E-02  0.10204899698E+01  0.10202207327E+01 0.  0.
     999903    2    3    3    0    0 -0.10299183759E+00  0.75346173765E-01 -0.30388198840E-02  0.12914314042E+00  0.19604891724E-01 0.  0.
         14    1    1    2    0    0 -0.21211978068E-01 -0.76454887805E-02 -0.64057398390E-02  0.23440030186E-01  0.00000000000E+00 0. -1.
     999901    1    3    3    0    0  0.12420381565E+00 -0.67700684984E-01  0.94445597230E-02  0.89134682940E+00  0.88000000000E+00 0.  1.
        -11    1    4    4    0    0 -0.77398829133E-01  0.56936877364E-01  0.62016900279E-02  0.96286597382E-01  0.51100000000E-03 0.  1.
         11    1    4    4    0    0 -0.25593008454E-01  0.18409296401E-01 -0.92405099119E-02  0.32856543034E-01  0.51100000000E-03 0. -1.
</event>
<event>
 8    1  0.1208168E+005  0.1043930E+01  0.7957747E-01            NaN
         13   -1    0    0    0    0  0.00000000000E+00  0.00000000000E+00  0.74505805969E-08  0.10566000000E+00  0.10566000000E+00 0.  1.
     999900   -1    0    0    0    0 -0.00000000000E+00 -0.00000000000E+00 -0.74505805969E-08  0.93827000000E+00  0.93827000000E+00 0.  1.
     999902    2    1    2    0    0 -0.10171632001E-01 -0.70596807864E-02 -0.19850284629E-01  0.10205348084E+01  0.10202666123E+01 0.  0.
     999903    2    3    3    0    0  0.15141376689E-01 -0.63512419654E-01  0.10938066796E+00  0.12894729208E+00  0.20004621308E-01 0.  0.
         14    1    1    2    0    0  0.10171632001E-01  0.70596807864E-02  0.19850284629E-01  0.23395191604E-01  0.00000000000E+00 0.  1.
     999901    1    3    3    0    0 -0.25313008689E-01  0.56452738867E-01 -0.12923095259E+00  0.89158751631E+00  0.88000000000E+00 0.  1.
        -11    1    4    4    0    0  0.53259087156E-02 -0.42880479968E-01  0.54895160294E-01  0.69863013181E-01  0.51100000000E-03 0. -1.
         11    1    4    4    0    0  0.98154679730E-02 -0.20631939685E-01  0.54485507668E-01  0.59084278904E-01  0.51100000000E-03 0.  1.
</event>
<event>
 8    1  0.1208168E+005  0.1043930E+01  0.7957747E-01            NaN
         13   -1    0    0    0    0  0.00000000000E+00  0.00000000000E+00  0.74505805969E-08  0.10566000000E+00  0.10566000000E+00 0.  1.
     999900   -1    0    0    0    0 -0.00000000000E+00 -0.00000000000E+00 -0.74505805969E-08  0.93827000000E+00  0.93827000000E+00 0.  1.
     999902    2    1    2    0    0 -0.30255202680E-02 -0.12092823345E-01 -0.19872121189E-01  0.10204717104E+01  0.10202020488E+01 0.  0.
     999903    2    3    3    0    0  0.82899544869E-02  0.10495209756E+00 -0.75368509529E-01  0.13091710131E+00  0.19370313824E-01 0.  0.
         14    1    1    2    0    0  0.30255202680E-02  0.12092823345E-01  0.19872121189E-01  0.23458289578E-01  0.00000000000E+00 0.  1.
     999901    1    3    3    0    0 -0.11315474755E-01 -0.11704492091E+00  0.55496388340E-01  0.88955460912E+00  0.88000000000E+00 0. -1.
        -11    1    4    4    0    0  0.49294456249E-02  0.59652582356E-01 -0.30963882961E-01  0.67392530632E-01  0.51100000000E-03 0.  1.
         11    1    4    4    0    0  0.33605088620E-02  0.45299515207E-01 -0.44404626568E-01  0.63524570675E-01  0.51100000000E-03 0. -1.
</event>
<event>
 8    1  0.1208168E+005  0.1043930E+01  0.7957747E-01            NaN
         13   -1    0    0    0    0  0.00000000000E+00  0.00000000000E+00  0.74505805969E-08  0.10566000000E+00  0.10566000000E+00 0.  1.
     999900   -1    0    0    0    0 -0.00000000000E+00 -0.00000000000E+00 -0.74505805969E-08  0.93827000000E+00  0.93827000000E+00 0.  1.
     999902    2    1    2    0    0  0.20390242935E-01  0.12962540020E-01 -0.57348142618E-02  0.10190970069E+01  0.10187944012E+01 0.  0.
     999903    2    3    3    0    0  0.54159797426E-01  0.59556640097E-01  0.10108064902E+00  0.13077221487E+00  0.20094714192E-01 0.  0.
         14    1    1    2    0    0 -0.20390242935E-01 -0.12962540020E-01  0.57348142618E-02  0.24832993080E-01  0.00000000000E+00 0.  1.
     999901    1    3    3    0    0 -0.33769554491E-01 -0.46594100077E-01 -0.10681546328E+00  0.88832479205E+00  0.88000000000E+00 0.  1.
        -11    1    4    4    0    0  0.36420299865E-01  0.51656372273E-01  0.72093478177E-01  0.95877785515E-01  0.51100000000E-03 0. -1.
         11    1    4    4    0    0  0.17739497561E-01  0.79002678245E-02  0.28987170846E-01  0.34894429355E-01  0.51100000000E-03 0.  1.
</event>
<event>
 8    1  0.1208168E+005  0.1043930E+01  0.7957747E-01            NaN
         13   -1    0    0    0    0  0.00000000000E+00  0.00000000000E+00  0.74505805969E-08  0.10566000000E+00  0.10566000000E+00 0.  1.
     999900   -1    0    0    0    0 -0.00000000000E+00 -0.00000000000E+00 -0.74505805969E-08  0.93827000000E+00  0.93827000000E+00 0. -1.
     999902    2    1    2    0    0 -0.33219765039E-03 -0.17974224836E-01  0.15343178970E-01  0.10202953590E+01  0.10200215799E+01 0.  0.
     999903    2    3    3    0    0 -0.34635103874E-01  0.10612717727E+00  0.63910168301E-01  0.12960091094E+00  0.15789817218E-01 0.  0.
         14    1    1    2    0    0  0.33219765039E-03  0.17974224836E-01 -0.15343178970E-01  0.23634640989E-01  0.00000000000E+00 0. -1.
     999901    1    3    3    0    0  0.34302906224E-01 -0.12410140210E+00 -0.48566989331E-01  0.89069444808E+00  0.88000000000E+00 0. -1.
        -11    1    4    4    0    0 -0.28089033828E-01  0.69592364574E-01  0.48820346916E-01  0.89530879715E-01  0.51100000000E-03 0.  1.
         11    1    4    4    0    0 -0.65460700456E-02  0.36534812694E-01  0.15089821385E-01  0.40070031221E-01  0.51100000000E-03 0. -1.
</event>
<event>
 8    1  0.1208168E+005  0.1043930E+01  0.7957747E-01            NaN
         13   -1    0    0    0    0  0.00000000000E+00  0.00000000000E+00  0.74505805969E-08  0.10566000000E+00  0.10566000000E+00 0. -1.
     999900   -1    0    0    0    0 -0.00000000000E+00 -0.00000000000E+00 -0.74505805969E-08  0.93827000000E+00  0.93827000000E+00 0. -1.
     999902    2    1    2    0    0 -0.93608215095E-02  0.17699157331E-01  0.12934624111E-01  0.10200932710E+01  0.10198147341E+01 0.  0.
     999903    2    3    3    0    0 -0.13041014239E-01 -0.20591298075E-01  0.12775505397E+00  0.13180084508E+00  0.21355077607E-01 0.  0.
         14    1    1    2    0    0  0.93608215095E-02 -0.17699157331E-01 -0.12934624111E-01  0.23836729021E-01  0.00000000000E+00 0.  1.
     999901    1    3    3    0    0  0.36801927291E-02  0.38290455406E-01 -0.11482042986E+00  0.88829242590E+00  0.88000000000E+00 0. -1.
        -11    1    4    4    0    0 -0.21857472448E-02 -0.92150967709E-02  0.13681610877E-01  0.16647615346E-01  0.51100000000E-03 0. -1.
         11    1    4    4    0    0 -0.10855266994E-01 -0.11376201304E-01  0.11407344310E+00  0.11515322974E+00  0.51100000000E-03 0.  1.
</event>
<event>
 8    1  0.1208168E+005  0.1043930E+01  0.7957747E-01            NaN
         13   -1    0    0    0    0  0.00000000000E+00  0.00000000000E+00  0.74505805969E-08  0.10566000000E+00  0.10566000000E+00 0.  1.
     999900   -1    0    0    0    0 -0.00000000000E+00 -0.00000000000E+00 -0.74505805969E-08  0.93827000000E+00  0.93827000000E+00 0. -1.
     999902    2    1    2    0    0 -0.11134472591E-02  0.13174880600E-01  0.16337213905E-01  0.10229128213E+01  0.10226968848E+01 0.  0.
     999903    2    3    3    0    0  0.12657496705E+00 -0.20138838903E-01 -0.25407126171E-01  0.13209481237E+00  0.19409334807E-01 0.  0.
         14    1    1    2    0    0  0.11134472591E-02 -0.13174880600E-01 -0.16337213905E-01  0.21017178731E-01  0.00000000000E+00 0. -1.
     999901    1    3    3    0    0 -0.12768841431E+00  0.33313719503E-01  0.41744340076E-01  0.89081800890E+00  0.88000000000E+00 0.  1.
        -11    1    4    4    0    0  0.56982097888E-01  0.55553949237E-03 -0.12694826450E-01  0.58383969062E-01  0.51100000000E-03 0.  1.
         11    1    4    4    0    0  0.69592869163E-01 -0.20694378395E-01 -0.12712299721E-01  0.73710843305E-01  0.51100000000E-03 0. -1.
</event>
<event>
 8    1  0.1208168E+005  0.1043930E+01  0.7957747E-01            NaN
         13   -1    0    0    0    0  0.00000000000E+00  0.00000000000E+00  0.74505805969E-08  0.10566000000E+00  0.10566000000E+00 0. -1.
     999900   -1    0    0    0    0 -0.00000000000E+00 -0.00000000000E+00 -0.74505805969E-08  0.93827000000E+00  0.93827000000E+00 0.  1.
     999902    2    1    2    0    0  0.16218442420E-01 -0.32388768401E-02  0.17492858735E-01  0.10198566059E+01  0.10195724438E+01 0.  0.
     999903    2    3    3    0    0 -0.34047713636E-02  0.26647227375E-01 -0.12346635963E+00  0.12792177026E+00  0.19959212252E-01 0.  0.
         14    1    1    2    0    0 -0.16218442420E-01  0.32388768401E-02 -0.17492858735E-01  0.24073394120E-01  0.00000000000E+00 0.  1.
     999901    1    3    3    0    0  0.19623213784E-01 -0.29886104215E-01  0.14095921836E+00  0.89193483562E+00  0.88000000000E+00 0. -1.
        -11    1    4    4    0    0 -0.74453332226E-02  0.21453759992E-01 -0.11481501164E+00  0.11704035553E+00  0.51100000000E-03 0.  1.
         11    1    4    4    0    0  0.40405618590E-02  0.51934673823E-02 -0.86513479874E-02  0.10881414733E-01  0.51100000000E-03 0. -1.
</event>
<event>
 8    1  0.1208168E+005  0.1043930E+01  0.7957747E-01            NaN
         13   -1    0    0    0    0  0.00000000000E+00  0.00000000000E+00  0.74505805969E-08  0.10566000000E+00  0.10566000000E+00 0.  1.
     999900   -1    0    0    0    0 -0.00000000000E+00 -0.00000000000E+00 -0.74505805969E-08  0.93827000000E+00  0.93827000000E+00 0.  1.
     999902    2    1    2    0    0 -0.92127130484E-04 -0.20181650045E-01 -0.15471796087E-01  0.10185000185E+01  0.10181825002E+01 0.  0.
     999903    2    3    3    0    0  0.66001850669E-01 -0.86056124116E-01  0.68214526647E-01  0.12961798984E+00  0.19639268152E-01 0.  0.
         14    1    1    2    0    0  0.92127130484E-04  0.20181650045E-01  0.15471796087E-01  0.25429981520E-01  0.00000000000E+00 0.  1.
     999901    1    3    3    0    0 -0.66093977799E-01  0.65874474072E-01 -0.83686322734E-01  0.88888202865E+00  0.88000000000E+00 0.  1.
        -11    1    4    4    0    0 -0.39701848668E-03 -0.41765716845E-03  0.31003860697E-02  0.31946167173E-02  0.51100000000E-03 0. -1.
         11    1    4    4    0    0  0.66398869156E-01 -0.85638466948E-01  0.65114140577E-01  0.12642337312E+00  0.51100000000E-03 0.  1.
</event>
<event>
 8    1  0.1208168E+005  0.1043930E+01  0.7957747E-01            NaN
         13   -1    0    0    0    0  0.00000000000E+00  0.00000000000E+00  0.74505805969E-08  0.10566000000E+00  0.10566000000E+00 0. -1.
     999900   -1    0    0    0    0 -0.00000000000E+00 -0.00000000000E+00 -0.74505805969E-08  0.93827000000E+00  0.93827000000E+00 0. -1.
     999902    2    1    2    0    0 -0.98072235693E-02 -0.81739265022E-02 -0.19707498668E-01  0.10204485134E+01  0.10201783120E+01 0.  0.
     999903    2    3    3    0    0 -0.11440785381E+00  0.12197292226E-01  0.58370383523E-01  0.13058760626E+00  0.20201244604E-01 0.  0.
         14    1    1    2    0    0  0.98072235693E-02  0.81739265022E-02  0.19707498668E-01  0.23481486588E-01  0.00000000000E+00 0. -1.
     999901    1    3    3    0    0  0.10460063024E+00 -0.20371218729E-01 -0.78077882191E-01  0.88986090716E+00  0.88000000000E+00 0. -1.
        -11    1    4    4    0    0 -0.10719174555E+00  0.15780626904E-01  0.56904704941E-01  0.12238261749E+00  0.51100000000E-03 0.  1.
         11    1    4    4    0    0 -0.72161082640E-02 -0.35833346777E-02  0.14656785818E-02  0.82049887626E-02  0.51100000000E-03 0. -1.
</event>
<event>
 8    1  0.1208168E+005  0.1043930E+01  0.7957747E-01            NaN
         13   -1    0    0    0    0  0.00000000000E+00  0.00000000000E+00  0.74505805969E-08  0.10566000000E+00  0.10566000000E+00 0. -1.
     999900   -1    0    0    0    0 -0.00000000000E+00 -0.00000000000E+00 -0.74505805969E-08  0.93827000000E+00  0.93827000000E+00 0. -1.
     999902    2    1    2    0    0  0.19838499210E-02  0.19939285429E-01  0.10621059885E-01  0.10212514269E+01  0.10209995883E+01 0.  0.
     999903    2    3    3    0    0 -0.47893158583E-01 -0.52710350704E-01  0.10871142525E+00  0.13142705920E+00  0.19564309305E-01 0.  0.
         14    1    1    2    0    0 -0.19838499210E-02 -0.19939285429E-01 -0.10621059885E-01  0.22678573081E-01  0.00000000000E+00 0. -1.
     999901    1    3    3    0    0  0.49877008504E-01  0.72649636133E-01 -0.98090365369E-01  0.88982436772E+00  0.88000000000E+00 0. -1.
        -11    1    4    4    0    0 -0.42278226054E-01 -0.46458694298E-01  0.10470576707E+00  0.12210412546E+00  0.51100000000E-03 0. -1.
         11    1    4    4    0    0 -0.56149325292E-02 -0.62516564060E-02  0.40056581832E-02  0.93229337446E-02  0.51100000000E-03 0.  1.
</event>
<event>
 8    1  0.1208168E+005  0.1043930E+01  0.7957747E-01            NaN
         13   -1    0    0    0    0  0.00000000000E+00  0.00000000000E+00  0.74505805969E-08  0.10566000000E+00  0.10566000000E+00 0.  1.
     999900   -1    0    0    0    0 -0.00000000000E+00 -0.00000000000E+00 -0.74505805969E-08  0.93827000000E+00  0.93827000000E+00 0.  1.
     999902    2    1    2    0    0  0.97100951007E-02  0.35824076749E-02 -0.20530600296E-01  0.10209381506E+01  0.10206792259E+01 0.  0.
     999903    2    3    3    0    0 -0.34954093164E-01  0.11943632886E+00 -0.39360416533E-01  0.13202219124E+00  0.19844175768E-01 0.  0.
         14    1    1    2    0    0 -0.97100951007E-02 -0.35824076749E-02  0.20530600296E-01  0.22991849428E-01  0.00000000000E+00 0.  1.
     999901    1    3    3    0    0  0.44664188265E-01 -0.11585392118E+00  0.18829816236E-01  0.88891595933E+00  0.88000000000E+00 0. -1.
        -11    1    4    4    0    0 -0.25542656546E-01  0.98001862894E-01 -0.39221561982E-01  0.10860655818E+00  0.51100000000E-03 0.  1.
         11    1    4    4    0    0 -0.94114366179E-02  0.21434465962E-01 -0.13885455058E-03  0.23415633066E-01  0.51100000000E-03 0. -1.
</event>
<event>
 7    1  0.1208168E+005  0.1043930E+01  0.7957747E-01            NaN
         13   -1    0    0    0    0  0.00000000000E+00  0.00000000000E+00  0.74505805969E-08  0.10566000000E+00  0.10566000000E+00 0.  1.
     999900   -1    0    0    0    0 -0.00000000000E+00 -0.00000000000E+00 -0.74505805969E-08  0.93827000000E+00  0.93827000000E+00 0. -1.
     999903    2    1    2    0    0 -0.18469239783E-02  0.80816500117E-01  0.16959664943E-01  0.84966979818E-01  0.19925852680E-01 0.  0.
         14    1    1    2    0    0 -0.46934548206E-01 -0.46407891836E-02 -0.56309195301E-01  0.73451441204E-01  0.00000000000E+00 0. -1.
     999901    1    1    2    0    0  0.48781472185E-01 -0.76175710933E-01  0.39349530357E-01  0.88551157898E+00  0.88000000000E+00 0. -1.
        -11    1    3    3    0    0  0.86150853069E-02  0.26611457181E-01  0.73950499681E-02  0.28936779938E-01  0.51100000000E-03 0. -1.
         11    1    3    3    0    0 -0.10462009285E-01  0.54205042936E-01  0.95646149750E-02  0.56030199880E-01  0.51100000000E-03 0.  1.
</event>
<event>
 8    1  0.1208168E+005  0.1043930E+01  0.7957747E-01            NaN
         13   -1    0    0    0    0  0.00000000000E+00  0.00000000000E+00  0.74505805969E-08  0.10566000000E+00  0.10566000000E+00 0. -1.
     999900   -1    0    0    0    0 -0.00000000000E+00 -0.00000000000E+00 -0.74505805969E-08  0.93827000000E+00  0.93827000000E+00 0.  1.
     999902    2    1    2    0    0 -0.43876120242E-02 -0.21772844841E-01  0.36261628731E-02  0.10214254012E+01  0.10211774543E+01 0.  0.
     999903    2    3    3    0    0 -0.58697251082E-01 -0.95748425596E-01  0.70517048466E-01  0.13412820517E+00  0.20114497462E-01 0.  0.
         14    1    1    2    0    0  0.43876120242E-02  0.21772844841E-01 -0.36261628731E-02  0.22504598840E-01  0.00000000000E+00 0.  1.
     999901    1    3    3    0    0  0.54309639058E-01  0.73975580755E-01 -0.66890885593E-01  0.88729719599E+00  0.88000000000E+00 0.  1.
        -11    1    4    4    0    0 -0.59625160023E-02 -0.23603417896E-01  0.10740380039E-01  0.26613714845E-01  0.51100000000E-03 0.  1.
         11    1    4    4    0    0 -0.52734735080E-01 -0.72145007700E-01  0.59776668427E-01  0.10751449032E+00  0.51100000000E-03 0. -1.
</event>
<event>
 8    1  0.1208168E+005  0.1043930E+01  0.7957747E-01            NaN
         13   -1    0    0    0    0  0.00000000000E+00  0.00000000000E+00  0.74505805969E-08  0.10566000000E+00  0.10566000000E+00 0. -1.
     999900   -1    0    0    0    0 -0.00000000000E+00 -0.00000000000E+00 -0.74505805969E-08  0.93827000000E+00  0.93827000000E+00 0. -1.
     999902    2    1    2    0    0  0.14331044875E-01  0.18865244591E-01 -0.96431875002E-03  0.10202191120E+01  0.10199435427E+01 0.  0.
     999903    2    3    3    0    0  0.81592571085E-02  0.36277386939E-01 -0.12453563194E+00  0.13139340177E+00  0.19299744183E-01 0.  0.
         14    1    1    2    0    0 -0.14331044875E-01 -0.18865244591E-01  0.96431875002E-03  0.23710888034E-01  0.00000000000E+00 0.  1.
     999901    1    3    3    0    0  0.61717877669E-02 -0.17412142348E-01  0.12357131319E+00  0.88882571020E+00  0.88000000000E+00 0.  1.
        -11    1    4    4    0    0  0.21458196563E-02 -0.15821160117E-02 -0.17281250978E-01  0.17493152645E-01  0.51100000000E-03 0.  1.
         11    1    4    4    0    0  0.60134374522E-02  0.37859502950E-01 -0.10725438096E+00  0.11390024912E+00  0.51100000000E-03 0. -1.
</event>
<event>
 8    1  0.1208168E+005  0.1043930E+01  0.7957747E-01            NaN
         13   -1    0    0    0    0  0.00000000000E+00  0.00000000000E+00  0.74505805969E-08  0.10566000000E+00  0.10566000000E+00 0. -1.
     999900   -1    0    0    0    0 -0.00000000000E+00 -0.00000000000E+00 -0.74505805969E-08  0.93827000000E+00  0.93827000000E+00 0. -1.
     999902    2    1    2    0    0 -0.35094926464E-03  0.98013396257E-02 -0.20472623206E-01  0.10212293893E+01  0.10209770555E+01 0.  0.
     999903    2    3    3    0    0  0.35001657483E-01 -0.36795647939E-01 -0.12280735643E+00  0.13337045702E+00  0.11269262619E-01 0.  0.
         14    1    1    2    0    0  0.35094926464E-03 -0.98013396257E-02  0.20472623206E-01  0.22700610670E-01  0.00000000000E+00 0. -1.
     999901    1    3    3    0    0 -0.35352606748E-01  0.46596987565E-01  0.10233473322E+00  0.88785893231E+00  0.88000000000E+00 0.  1.
        -11    1    4    4    0    0  0.34153844224E-01 -0.33173792441E-01 -0.10688395001E+00  0.11701036480E+00  0.51100000000E-03 0.  1.
         11    1    4    4    0    0  0.84781325962E-03 -0.36218554980E-02 -0.15923406415E-01  0.16360092220E-01  0.51100000000E-03 0. -1.
</event>
<event>
 8    1  0.1208168E+005  0.1043930E+01  0.7957747E-01            NaN
         13   -1    0    0    0    0  0.00000000000E+00  0.00000000000E+00  0.74505805969E-08  0.10566000000E+00  0.10566000000E+00 0.  1.
     999900   -1    0    0    0    0 -0.00000000000E+00 -0.00000000000E+00 -0.74505805969E-08  0.93827000000E+00  0.93827000000E+00 0.  1.
     999902    2    1    2    0    0 -0.23093462169E-01 -0.44375391835E-02  0.57201176720E-03  0.10204070974E+01  0.10201359309E+01 0.  0.
     999903    2    3    3    0    0  0.70280563607E-01 -0.10527830485E-01  0.10591106926E+00  0.12919886283E+00  0.20615497351E-01 0.  0.
         14    1    1    2    0    0  0.23093462169E-01  0.44375391835E-02 -0.57201176720E-03  0.23522902594E-01  0.00000000000E+00 0. -1.
     999901    1    3    3    0    0 -0.93374025776E-01  0.60902913019E-02 -0.10533905749E+00  0.89120823457E+00  0.88000000000E+00 0.  1.
        -11    1    4    4    0    0  0.19454874231E-01 -0.81748701727E-02  0.18557075634E-01  0.28105992435E-01  0.51100000000E-03 0.  1.
         11    1    4    4    0    0  0.50825689376E-01 -0.23529603127E-02  0.87353993621E-01  0.10109287040E+00  0.51100000000E-03 0. -1.
</event>
<event>
 8    1  0.1208168E+005  0.1043930E+01  0.7957747E-01            NaN
         13   -1    0    0    0    0  0.00000000000E+00  0.00000000000E+00  0.74505805969E-08  0.10566000000E+00  0.10566000000E+00 0. -1.
     999900   -1    0    0    0    0 -0.00000000000E+00 -0.00000000000E+00 -0.74505805969E-08  0.93827000000E+00  0.93827000000E+00 0.  1.
     999902    2    1    2    0    0  0.94432582327E-02 -0.20659503168E-01  0.70589999646E-02  0.10201430356E+01  0.10198656741E+01 0.  0.
     999903    2    3    3    0    0  0.34339376861E-01  0.50250101156E-01 -0.11175990704E+00  0.12898316136E+00  0.21026498134E-01 0.  0.
         14    1    1    2    0    0 -0.94432582327E-02  0.20659503168E-01 -0.70589999646E-02  0.23786964449E-01  0.00000000000E+00 0.  1.
     999901    1    3    3    0    0 -0.24896118629E-01 -0.70909604324E-01  0.11881890700E+00  0.89115987419E+00  0.88000000000E+00 0. -1.
        -11    1    4    4    0    0  0.33379420609E-01  0.38392932594E-01 -0.10025697298E+00  0.11242741990E+00  0.51100000000E-03 0.  1.
         11    1    4    4    0    0  0.95995625241E-03  0.11857168562E-01 -0.11502934056E-01  0.16555741457E-01  0.51100000000E-03 0. -1.
</event>
<event>
 8    1  0.1208168E+005  0.1043930E+01  0.7957747E-01            NaN
         13   -1    0    0    0    0  0.00000000000E+00  0.00000000000E+00  0.74505805969E-08  0.10566000000E+00  0.10566000000E+00 0. -1.
     999900   -1    0    0    0    0 -0.00000000000E+00 -0.00000000000E+00 -0.74505805969E-08  0.93827000000E+00  0.93827000000E+00 0.  1.
     999902    2    1    2    0    0  0.64240154999E-02  0.15918795022E-01  0.14389246878E-01  0.10215307492E+01  0.10212851439E+01 0.  0.
     999903    2    3    3    0    0 -0.12723787049E+00  0.21450099607E-03  0.25119008285E-01  0.13123458928E+00  0.20050714438E-01 0.  0.
         14    1    1    2    0    0 -0.64240154999E-02 -0.15918795022E-01 -0.14389246878E-01  0.22399250787E-01  0.00000000000E+00 0. -1.
     999901    1    3    3    0    0  0.13366188599E+00  0.15704294026E-01 -0.10729761407E-01  0.89029615994E+00  0.88000000000E+00 0. -1.
        -11    1    4    4    0    0 -0.47233439096E-01 -0.89833712009E-02  0.12868864202E-01  0.49775169651E-01  0.51100000000E-03 0.  1.
         11    1    4    4    0    0 -0.80004431390E-01  0.91978721970E-02  0.12250144083E-01  0.81459419627E-01  0.51100000000E-03 0. -1.
</event>
<event>
 7    1  0.1208168E+005  0.1043930E+01  0.7957747E-01            NaN
         13   -1    0    0    0    0  0.00000000000E+00  0.00000000000E+00  0.74505805969E-08  0.10566000000E+00  0.10566000000E+00 0.  1.
     999900   -1    0    0    0    0 -0.00000000000E+00 -0.00000000000E+00 -0.74505805969E-08  0.93827000000E+00  0.93827000000E+00 0.  1.
     999902    2    1    2    0    0  0.18424415948E-01 -0.46475507899E-02  0.14984946676E-01  0.10197306724E+01  0.10194434936E+01 0.  0.
         14    1    1    2    0    0 -0.18424415948E-01  0.46475507899E-02 -0.14984946676E-01  0.24199327640E-01  0.00000000000E+00 0. -1.
     999901    1    3    3    0    0 -0.76807526957E-01  0.40667218249E-01  0.81049569860E-01  0.88798775420E+00  0.88000000000E+00 0. -1.
        -11    1    3    3    0    0  0.72656299930E-01 -0.14607168280E-01 -0.32385794154E-01  0.80878971734E-01  0.51100000000E-03 0. -1.
         11    1    3    3    0    0  0.22575642974E-01 -0.30707600759E-01 -0.33678829030E-01  0.50863946424E-01  0.51100000000E-03 0.  1.
</event>
<event>
 8    1  0.1208168E+005  0.1043930E+01  0.7957747E-01            NaN
         13   -1    0    0    0    0  0.00000000000E+00  0.00000000000E+00  0.74505805969E-08  0.10566000000E+00  0.10566000000E+00 0. -1.
     999900   -1    0    0    0    0 -0.00000000000E+00 -0.00000000000E+00 -0.74505805969E-08  0.93827000000E+00  0.93827000000E+00 0.  1.
     999902    2    1    2    0    0  0.15845197359E-01  0.13856246921E-01 -0.12075799683E-01  0.10196629277E+01  0.10193741195E+01 0.  0.
     999903    2    3    3    0    0  0.84385241015E-02  0.55890652315E-01 -0.11789817300E+00  0.13229596603E+00  0.20180924776E-01 0.  0.
         14    1    1    2    0    0 -0.15845197359E-01 -0.13856246921E-01  0.12075799683E-01  0.24267072259E-01  0.00000000000E+00 0. -1.
     999901    1    3    3    0    0  0.74066732574E-02 -0.42034405395E-01  0.10582237332E+00  0.88736696171E+00  0.88000000000E+00 0. -1.
        -11    1    4    4    0    0 -0.37934519107E-02  0.67234948597E-02 -0.72697703900E-02  0.10616324366E-01  0.51100000000E-03 0. -1.
         11    1    4    4    0    0  0.12231976012E-01  0.49167157456E-01 -0.11062840261E+00  0.12167964166E+00  0.51100000000E-03 0.  1.
</event>
<event>
 8    1  0.1208168E+005  0.1043930E+01  0.7957747E-01            NaN
         13   -1    0    0    0    0  0.00000000000E+00  0.00000000000E+00  0.74505805969E-08  0.10566000000E+00  0.10566000000E+00 0. -1.
     999900   -1    0    0    0    0 -0.00000000000E+00 -0.00000000000E+00 -0.74505805969E-08  0.93827000000E+00  0.93827000000E+00 0. -1.
     999902    2    1    2    0    0 -0.16385273164E-01  0.16922079706E-01  0.37319113193E-02  0.10200812868E+01  0.10198024665E+01 0.  0.
     999903    2    3    3    0    0 -0.46596918554E-01 -0.11654304979E+00 -0.22578314589E-01  0.12911669028E+00  0.20193665951E-01 0.  0.
         14    1    1    2    0    0  0.16385273164E-01 -0.16922079706E-01 -0.37319113193E-02  0.23848713180E-01  0.00000000000E+00 0.  1.
     999901    1    3    3    0    0  0.30211645390E-01  0.13346512950E+00  0.26310225909E-01  0.89096459654E+00  0.88000000000E+00 0. -1.
        -11    1    4    4    0    0 -0.30160222330E-01 -0.75704133981E-01 -0.47891422447E-02  0.81633032023E-01  0.51100000000E-03 0.  1.
         11    1    4    4    0    0 -0.16436696224E-01 -0.40838915810E-01 -0.17789172344E-01  0.47483658252E-01  0.51100000000E-03 0. -1.
</event>
<event>
 8    1  0.1208168E+005  0.1043930E+01  0.7957747E-01            NaN
         13   -1    0    0    0    0  0.00000000000E+00  0.00000000000E+00  0.74505805969E-08  0.10566000000E+00  0.10566000000E+00 0.  1.
     999900   -1    0    0    0    0 -0.00000000000E+00 -0.00000000000E+00 -0.74505805969E-08  0.93827000000E+00  0.93827000000E+00 0.  1.
     999902    2    1    2    0    0 -0.16410807922E-02  0.20157483748E-01  0.12745234205E-01  0.10200248062E+01  0.10197446479E+01 0.  0.
     999903    2    3    3    0    0 -0.96318881542E-01  0.25909435093E-01  0.84006817105E-01  0.13206355471E+00  0.20856926742E-01 0.  0.
         14    1    1    2    0    0  0.16410807922E-02 -0.20157483748E-01 -0.12745234205E-01  0.23905193832E-01  0.00000000000E+00 0. -1.
     999901    1    3    3    0    0  0.94677800750E-01 -0.57519513446E-02 -0.71261582900E-01  0.88796125146E+00  0.88000000000E+00 0.  1.
        -11    1    4    4    0    0 -0.38752341001E-01  0.15959534018E-01  0.23928052527E-01  0.48262443762E-01  0.51100000000E-03 0. -1.
         11    1    4    4    0    0 -0.57566540541E-01  0.99499010745E-02  0.60078764578E-01  0.83801110944E-01  0.51100000000E-03 0.  1.
</event>
<event>
 8    1  0.1208168E+005  0.1043930E+01  0.7957747E-01            NaN
         13   -1    0    0    0    0  0.00000000000E+00  0.00000000000E+00  0.74505805969E-08  0.10566000000E+00  0.10566000000E+00 0. -1.
     999900   -1    0    0    0    0 -0.00000000000E+00 -0.00000000000E+00 -0.74505805969E-08  0.93827000000E+00  0.93827000000E+00 0. -1.
     999902    2    1    2    0    0  0.16179170575E-02  0.21268542575E-01  0.10646044169E-01  0.10200908135E+01  0.10198122184E+01 0.  0.
     999903    2    3    3    0    0  0.12840851724E+00 -0.71722837898E-02 -0.77600370251E-02  0.13035853871E+00  0.19822751712E-01 0.  0.
         14    1    1    2    0    0 -0.16179170575E-02 -0.21268542575E-01 -0.10646044169E-01  0.23839186549E-01  0.00000000000E+00 0. -1.
     999901    1    3    3    0    0 -0.12679060018E+00  0.28440826365E-01  0.18406081194E-01  0.88973227474E+00  0.88000000000E+00 0.  1.
        -11    1    4    4    0    0  0.71293562132E-01  0.48664667965E-02 -0.86254049527E-02  0.71979950209E-01  0.51100000000E-03 0.  1.
         11    1    4    4    0    0  0.57114955104E-01 -0.12038750586E-01  0.86536792763E-03  0.58378588497E-01  0.51100000000E-03 0. -1.
</event>
<event>
 8    1  0.1208168E+005  0.1043930E+01  0.7957747E-01            NaN
         13   -1    0    0    0    0  0.00000000000E+00  0.00000000000E+00  0.74505805969E-08  0.10566000000E+00  0.10566000000E+00 0. -1.
     999900   -1    0    0    0    0 -0.00000000000E+00 -0.00000000000E+00 -0.74505805969E-08  0.93827000000E+00  0.93827000000E+00 0.  1.
     999902    2    1    2    0    0 -0.97786422677E-02 -0.11491935801E-02  0.21428009768E-01  0.10203481830E+01  0.10200756406E+01 0.  0.
     999903    2    3    3    0    0 -0.43599983792E-01  0.54735004599E-01 -0.10626122532E+00  0.12873645836E+00  0.19615004186E-01 0.  0.
         14    1    1    2    0    0  0.97786422677E-02  0.11491935801E-02 -0.21428009768E-01  0.23581817002E-01  0.00000000000E+00 0.  1.
     999901    1    3    3    0    0  0.33821341524E-01 -0.55884198179E-01  0.12768923509E+00  0.89161172464E+00  0.88000000000E+00 0. -1.
        -11    1    4    4    0    0 -0.21572411221E-01  0.14900541330E-01 -0.49095768346E-01  0.55660135180E-01  0.51100000000E-03 0. -1.
         11    1    4    4    0    0 -0.22027572571E-01  0.39834463269E-01 -0.57165456979E-01  0.73076323182E-01  0.51100000000E-03 0.  1.
</event>
<event>
 8    1  0.1208168E+005  0.1043930E+01  0.7957747E-01            NaN
         13   -1    0    0    0    0  0.00000000000E+00  0.00000000000E+00  0.74505805969E-08  0.10566000000E+00  0.10566000000E+00 0.  1.
     999900   -1    0    0    0    0 -0.00000000000E+00 -0.00000000000E+00 -0.74505805969E-08  0.93827000000E+00  0.93827000000E+00 0.  1.
     999902    2    1    2    0    0  0.20338378288E-01  0.10848479398E-01 -0.79503027744E-02  0.10195466768E+01  0.10192550612E+01 0.  0.
     999903    2    3    3    0    0  0.80317833980E-01  0.16611169818E-01  0.10001030114E+00  0.13090375879E+00  0.20170481232E-01 0.  0.
         14    1    1    2    0    0 -0.20338378288E-01 -0.10848479398E-01  0.79503027744E-02  0.24383323211E-01  0.00000000000E+00 0.  1.
     999901    1    3    3    0    0 -0.59979455692E-01 -0.57626904202E-02 -0.10796060392E+00  0.88864291800E+00  0.88000000000E+00 0.  1.
        -11    1    4    4    0    0  0.23023218650E-01  0.63430248974E-02  0.44306983502E-01  0.50335598436E-01  0.51100000000E-03 0.  1.
         11    1    4    4    0    0  0.57294615330E-01  0.10268144920E-01  0.55703317642E-01  0.80568160357E-01  0.51100000000E-03 0. -1.
</event>
<event>
 8    1  0.1208168E+005  0.1043930E+01  0.7957747E-01            NaN
         13   -1    0    0    0    0  0.00000000000E+00  0.00000000000E+00  0.74505805969E-08  0.10566000000E+00  0.10566000000E+00 0. -1.
     999900   -1    0    0    0    0 -0.00000000000E+00 -0.00000000000E+00 -0.74505805969E-08  0.93827000000E+00  0.93827000000E+00 0. -1.
     999902    2    1    2    0    0 -0.30108623208E-02  0.82471063131E-02  0.20744450458E-01  0.10214041864E+01  0.10211557666E+01 0.  0.
     999903    2    3    3    0    0  0.36359778083E-01  0.29920353268E-01 -0.11872850993E+00  0.12928733101E+00  0.20037312374E-01 0.  0.
         14    1    1    2    0    0  0.30108623208E-02 -0.82471063131E-02 -0.20744450458E-01  0.22525813620E-01  0.00000000000E+00 0. -1.
     999901    1    3    3    0    0 -0.39370640404E-01 -0.21673246955E-01  0.13947296039E+00  0.89211685537E+00  0.88000000000E+00 0.  1.
        -11    1    4    4    0    0  0.30269096127E-01  0.19228003300E-01 -0.65738380152E-01  0.74884778408E-01  0.51100000000E-03 0. -1.
         11    1    4    4    0    0  0.60906819560E-02  0.10692349968E-01 -0.52990129777E-01  0.54402552600E-01  0.51100000000E-03 0.  1.
</event>
<event>
 8    1  0.1208168E+005  0.1043930E+01  0.7957747E-01            NaN
         13   -1    0    0    0    0  0.00000000000E+00  0.00000000000E+00  0.74505805969E-08  0.10566000000E+00  0.10566000000E+00 0.  1.
     999900   -1    0    0    0    0 -0.00000000000E+00 -0.00000000000E+00 -0.74505805969E-08  0.93827000000E+00  0.93827000000E+00 0. -1.
     999902    2    1    2    0    0  0.39951829094E-02 -0.12836848884E-02  0.21941552266E-01  0.10215907733E+01  0.10213464971E+01 0.  0.
     999903    2    3    3    0    0 -0.82164811624E-02 -0.41184367209E-01  0.12611199216E+00  0.13446470012E+00  0.20318915952E-01 0.  0.
         14    1    1    2    0    0 -0.39951829094E-02  0.12836848884E-02 -0.21941552266E-01  0.22339226692E-01  0.00000000000E+00 0. -1.
     999901    1    3    3    0    0  0.12211664072E-01  0.39900682321E-01 -0.10417043989E+00  0.88712607319E+00  0.88000000000E+00 0. -1.
        -11    1    4    4    0    0 -0.76966621583E-02 -0.24935028598E-01  0.10264638805E+00  0.10591287155E+00  0.51100000000E-03 0. -1.
         11    1    4    4    0    0 -0.51981900411E-03 -0.16249338612E-01  0.23465604111E-01  0.28551828565E-01  0.51100000000E-03 0.  1.
</event>
<event>
 8    1  0.1208168E+005  0.1043930E+01  0.7957747E-01            NaN
         13   -1    0    0    0    0  0.00000000000E+00  0.00000000000E+00  0.74505805969E-08  0.10566000000E+00  0.10566000000E+00 0. -1.
     999900   -1    0    0    0    0 -0.00000000000E+00 -0.00000000000E+00 -0.74505805969E-08  0.93827000000E+00  0.93827000000E+00 0.  1.
     999902    2    1    2    0    0  0.15851586941E-01  0.39839307733E-02  0.21436224509E-01  0.10169734380E+01  0.10166161111E+01 0.  0.
     999903    2    3    3    0    0  0.60143603461E-01  0.10183976970E+00 -0.42791193994E-01  0.12811872028E+00  0.24387055448E-01 0.  0.
         14    1    1    2    0    0 -0.15851586941E-01 -0.39839307733E-02 -0.21436224509E-01  0.26956561987E-01  0.00000000000E+00 0. -1.
     999901    1    3    3    0    0 -0.44292016520E-01 -0.97855838930E-01  0.64227418504E-01  0.88885471773E+00  0.88000000000E+00 0.  1.
        -11    1    4    4    0    0  0.52137419059E-02  0.21848325000E-03 -0.18722571975E-02  0.55675225735E-02  0.51100000000E-03 0.  1.
         11    1    4    4    0    0  0.54929861555E-01  0.10162128645E+00 -0.40918936797E-01  0.12255119771E+00  0.51100000000E-03 0. -1.
</event>
<event>
 8    1  0.1208168E+005  0.1043930E+01  0.7957747E-01            NaN
         13   -1    0    0    0    0  0.00000000000E+00  0.00000000000E+00  0.74505805969E-08  0.10566000000E+00  0.10566000000E+00 0. -1.
     999900   -1    0    0    0    0 -0.00000000000E+00 -0.00000000000E+00 -0.74505805969E-08  0.93827000000E+00  0.93827000000E+00 0. -1.
     999902    2    1    2    0    0 -0.39566038667E-02  0.23126073681E-01  0.38136562080E-02  0.10201599775E+01  0.10198830157E+01 0.  0.
     999903    2    3    3    0    0  0.97331780022E-02 -0.11603180550E+00 -0.48244559508E-01  0.12760052101E+00  0.19905798092E-01 0.  0.
         14    1    1    2    0    0  0.39566038667E-02 -0.23126073681E-01 -0.38136562080E-02  0.23770022543E-01  0.00000000000E+00 0. -1.
     999901    1    3    3    0    0 -0.13689781869E-01  0.13915787918E+00  0.52058215716E-01  0.89255945645E+00  0.88000000000E+00 0.  1.
        -11    1    4    4    0    0  0.10183767338E-02 -0.67345116516E-01 -0.18367052940E-01  0.69814121526E-01  0.51100000000E-03 0. -1.
         11    1    4    4    0    0  0.87148012683E-02 -0.48686688988E-01 -0.29877506568E-01  0.57786399485E-01  0.51100000000E-03 0.  1.
</event>
<event>
 8    1  0.1208168E+005  0.1043930E+01  0.7957747E-01            NaN
         13   -1    0    0    0    0  0.00000000000E+00  0.00000000000E+00  0.74505805969E-08  0.10566000000E+00  0.10566000000E+00 0. -1.
     999900   -1    0    0    0    0 -0.00000000000E+00 -0.00000000000E+00 -0.74505805969E-08  0.93827000000E+00  0.93827000000E+00 0. -1.
     999902    2    1    2    0    0  0.76285218864E-02 -0.99958055231E-03  0.17757687230E-01  0.10245772492E+01  0.10243944605E+01 0.  0.
     999903    2    3    3    0    0  0.70342735676E-01  0.86638087139E-01  0.75365008001E-01  0.13613364559E+00  0.19955611347E-01 0.  0.
         14    1    1    2    0    0 -0.76285218864E-02  0.99958055231E-03 -0.17757687230E-01  0.19352750792E-01  0.00000000000E+00 0.  1.
     999901    1    3    3    0    0 -0.62714213789E-01 -0.87637667692E-01 -0.57607320771E-01  0.88844360362E+00  0.88000000000E+00 0. -1.
        -11    1    4    4    0    0  0.55496923768E-01  0.77777666746E-01  0.58843588387E-01  0.11221454009E+00  0.51100000000E-03 0. -1.
         11    1    4    4    0    0  0.14845811907E-01  0.88604203935E-02  0.16521419614E-01  0.23919105497E-01  0.51100000000E-03 0.  1.
</event>
<event>
 8    1  0.1208168E+005  0.1043930E+01  0.7957747E-01            NaN
         13   -1    0    0    0    0  0.00000000000E+00  0.00000000000E+00  0.74505805969E-08  0.10566000000E+00  0.10566000000E+00 0.  1.
     999900   -1    0    0    0    0 -0.00000000000E+00 -0.00000000000E+00 -0.74505805969E-08  0.93827000000E+00  0.93827000000E+00 0.  1.
     999902    2    1    2    0    0  0.18153027211E-02  0.51783738091E-02  0.15611961410E-01  0.10273817609E+01  0.10272484794E+01 0.  0.
     999903    2    3    3    0    0  0.66616235166E-01 -0.71902223513E-01  0.95189028438E-01  0.13807130387E+00  0.19876651728E-01 0.  0.
         14    1    1    2    0    0 -0.18153027211E-02 -0.51783738091E-02 -0.15611961410E-01  0.16548239131E-01  0.00000000000E+00 0. -1.
     999901    1    3    3    0    0 -0.64800932445E-01  0.77080597322E-01 -0.79577067028E-01  0.88931045700E+00  0.88000000000E+00 0.  1.
        -11    1    4    4    0    0  0.34035549979E-01 -0.41013478821E-01  0.64569684479E-01  0.83725918222E-01  0.51100000000E-03 0.  1.
         11    1    4    4    0    0  0.32580685187E-01 -0.30888744692E-01  0.30619343959E-01  0.54345385649E-01  0.51100000000E-03 0. -1.
</event>
<event>
 8    1  0.1208168E+005  0.1043930E+01  0.7957747E-01            NaN
         13   -1    0    0    0    0  0.00000000000E+00  0.00000000000E+00  0.74505805969E-08  0.10566000000E+00  0.10566000000E+00 0.  1.
     999900   -1    0    0    0    0 -0.00000000000E+00 -0.00000000000E+00 -0.74505805969E-08  0.93827000000E+00  0.93827000000E+00 0.  1.
     999902    2    1    2    0    0  0.80544720819E-02  0.21650061371E-01 -0.86880549410E-02  0.10192504138E+01  0.10189515808E+01 0.  0.
     999903    2    3    3    0    0  0.12616490592E+00 -0.23816882673E-01  0.52899641102E-02  0.13008636670E+00  0.20239854089E-01 0.  0.
         14    1    1    2    0    0 -0.80544720819E-02 -0.21650061371E-01  0.86880549410E-02  0.24679586231E-01  0.00000000000E+00 0.  1.
     999901    1    3    3    0    0 -0.11811043384E+00  0.45466944044E-01 -0.13978019051E-01  0.88916404707E+00  0.88000000000E+00 0. -1.
        -11    1    4    4    0    0  0.31739875860E-01 -0.15014226746E-01  0.26139875625E-02  0.35212792794E-01  0.51100000000E-03 0.  1.
         11    1    4    4    0    0  0.94425030065E-01 -0.88026559270E-02  0.26759765477E-02  0.94873573906E-01  0.51100000000E-03 0. -1.
</event>
<event>
 8    1  0.1208168E+005  0.1043930E+01  0.7957747E-01            NaN
         13   -1    0    0    0    0  0.00000000000E+00  0.00000000000E+00  0.74505805969E-08  0.10566000000E+00  0.10566000000E+00 0. -1.
     999900   -1    0    0    0    0 -0.00000000000E+00 -0.00000000000E+00 -0.74505805969E-08  0.93827000000E+00  0.93827000000E+00 0. -1.
     999902    2    1    2    0    0  0.36751919962E-02 -0.21732513160E-01 -0.83814833520E-02  0.10203491088E+01  0.10200765881E+01 0.  0.
     999903    2    3    3    0    0  0.11098292735E+00 -0.63511180562E-01  0.25385951534E-01  0.13220461228E+00  0.21971180090E-01 0.  0.
         14    1    1    2    0    0 -0.36751919962E-02  0.21732513160E-01  0.83814833520E-02  0.23580891154E-01  0.00000000000E+00 0. -1.
     999901    1    3    3    0    0 -0.10730773535E+00  0.41778667403E-01 -0.33767434886E-01  0.88814449656E+00  0.88000000000E+00 0. -1.
        -11    1    4    4    0    0  0.72683013331E-01 -0.34565671410E-01  0.24697940487E-01  0.84189402256E-01  0.51100000000E-03 0. -1.
         11    1    4    4    0    0  0.38299914016E-01 -0.28945509152E-01  0.68801104775E-03  0.48015210027E-01  0.51100000000E-03 0.  1.
</event>
<event>
 8    1  0.1208168E+005  0.1043930E+01  0.7957747E-01            NaN
         13   -1    0    0    0    0  0.00000000000E+00  0.00000000000E+00  0.74505805969E-08  0.10566000000E+00  0.10566000000E+00 0.  1.
     999900   -1    0    0    0    0 -0.00000000000E+00 -0.00000000000E+00 -0.74505805969E-08  0.93827000000E+00  0.93827000000E+00 0.  1.
     999902    2    1    2    0    0 -0.16016757349E-01 -0.63873004515E-02 -0.15950898929E-01  0.10204403150E+01  0.10201699227E+01 0.  0.
     999903    2    3    3    0    0 -0.86486575415E-01 -0.13077376449E-01  0.95258625018E-01  0.13062105778E+00  0.18349648286E-01 0.  0.
         14    1    1    2    0    0  0.16016757349E-01  0.63873004515E-02  0.15950898929E-01  0.23489684964E-01  0.00000000000E+00 0.  1.
     999901    1    3    3    0    0  0.70469818066E-01  0.66900759979E-02 -0.11120952395E+00  0.88981925726E+00  0.88000000000E+00 0.  1.
        -11    1    4    4    0    0 -0.22895542928E-01 -0.99536707472E-02  0.34699704501E-01  0.42750579654E-01  0.51100000000E-03 0. -1.
         11    1    4    4    0    0 -0.63591032487E-01 -0.31237057023E-02  0.60558920518E-01  0.87870478122E-01  0.51100000000E-03 0.  1.
</event>
<event>
 8    1  0.1208168E+005  0.1043930E+01  0.7957747E-01            NaN
         13   -1    0    0    0    0  0.00000000000E+00  0.00000000000E+00  0.74505805969E-08  0.10566000000E+00  0.10566000000E+00 0. -1.
     999900   -1    0    0    0    0 -0.00000000000E+00 -0.00000000000E+00 -0.74505805969E-08  0.93827000000E+00  0.93827000000E+00 0. -1.
     999902    2    1    2    0    0 -0.55397654508E-02  0.18500670779E-01  0.13115473102E-01  0.10205852050E+01  0.10203181764E+01 0.  0.
     999903    2    3    3    0    0  0.59120115696E-01 -0.11129079307E+00 -0.15019892559E-01  0.12827453983E+00  0.18652927204E-01 0.  0.
         14    1    1    2    0    0  0.55397654508E-02 -0.18500670779E-01 -0.13115473102E-01  0.23344795035E-01  0.00000000000E+00 0.  1.
     999901    1    3    3    0    0 -0.64659881147E-01  0.12979146385E+00  0.28135365660E-01  0.89231066514E+00  0.88000000000E+00 0.  1.
        -11    1    4    4    0    0  0.30391982181E-01 -0.56731728164E-01 -0.17039465539E-01  0.66579021232E-01  0.51100000000E-03 0.  1.
         11    1    4    4    0    0  0.28728133515E-01 -0.54559064906E-01  0.20195729803E-02  0.61695518595E-01  0.51100000000E-03 0. -1.
</event>
<event>
 8    1  0.1208168E+005  0.1043930E+01  0.7957747E-01            NaN
         13   -1    0    0    0    0  0.00000000000E+00  0.00000000000E+00  0.74505805969E-08  0.10566000000E+00  0.10566000000E+00 0. -1.
     999900   -1    0    0    0    0 -0.00000000000E+00 -0.00000000000E+00 -0.74505805969E-08  0.93827000000E+00  0.93827000000E+00 0. -1.
     999902    2    1    2    0    0 -0.15981990471E-01 -0.96431734493E-02 -0.15214785871E-01  0.10198487932E+01  0.10195644445E+01 0.  0.
     999903    2    3    3    0    0 -0.28069546422E-01  0.12221007377E+00 -0.26173965549E-01  0.12987604559E+00  0.21436165179E-01 0.  0.
         14    1    1    2    0    0  0.15981990471E-01  0.96431734493E-02  0.15214785871E-01  0.24081206836E-01  0.00000000000E+00 0. -1.
     999901    1    3    3    0    0  0.12087555951E-01 -0.13185324722E+00  0.10959179678E-01  0.88997274758E+00  0.88000000000E+00 0.  1.
        -11    1    4    4    0    0 -0.26542105234E-01  0.95688278279E-01 -0.28197807114E-01  0.10322842340E+00  0.51100000000E-03 0. -1.
         11    1    4    4    0    0 -0.15274411885E-02  0.26521795491E-01  0.20238415648E-02  0.26647622189E-01  0.51100000000E-03 0.  1.
</event>
<event>
 8    1  0.1208168E+005  0.1043930E+01  0.7957747E-01            NaN
         13   -1    0    0    0    0  0.00000000000E+00  0.00000000000E+00  0.74505805969E-08  0.10566000000E+00  0.10566000000E+00 0.  1.
     999900   -1    0    0    0    0 -0.00000000000E+00 -0.00000000000E+00 -0.74505805969E-08  0.93827000000E+00  0.93827000000E+00 0. -1.
     999902    2    1    2    0    0  0.15650248057E-01 -0.13170454185E-01  0.11754261243E-01  0.10203386078E+01  0.10200658414E+01 0.  0.
     999903    2    3    3    0    0  0.45079367631E-01  0.30320460921E-01  0.11897273133E+00  0.13227704852E+00  0.19779459793E-01 0.  0.
         14    1    1    2    0    0 -0.15650248057E-01  0.13170454185E-01 -0.11754261243E-01  0.23591392182E-01  0.00000000000E+00 0. -1.
     999901    1    3    3    0    0 -0.29429119573E-01 -0.43490915106E-01 -0.10721847008E+00  0.88806155930E+00  0.88000000000E+00 0. -1.
        -11    1    4    4    0    0  0.16827323031E-01  0.23117662966E-01  0.55949476869E-01  0.62834625998E-01  0.51100000000E-03 0.  1.
         11    1    4    4    0    0  0.28252044599E-01  0.72027979545E-02  0.63023254456E-01  0.69442422522E-01  0.51100000000E-03 0. -1.
</event>
<event>
 8    1  0.1208168E+005  0.1043930E+01  0.7957747E-01            NaN
         13   -1    0    0    0    0  0.00000000000E+00  0.00000000000E+00  0.74505805969E-08  0.10566000000E+00  0.10566000000E+00 0. -1.
     999900   -1    0    0    0    0 -0.00000000000E+00 -0.00000000000E+00 -0.74505805969E-08  0.93827000000E+00  0.93827000000E+00 0.  1.
     999902    2    1    2    0    0 -0.18322204375E-01  0.14277819207E-01 -0.52262741786E-02  0.10201209001E+01  0.10198430162E+01 0.  0.
     999903    2    3    3    0    0  0.65350713005E-01 -0.99226686469E-01  0.41985931917E-01  0.12764489356E+00  0.20340830249E-01 0.  0.
         14    1    1    2    0    0  0.18322204375E-01 -0.14277819207E-01  0.52262741786E-02  0.23809099862E-01  0.00000000000E+00 0.  1.
     999901    1    3    3    0    0 -0.83672917380E-01  0.11350450568E+00 -0.47212206096E-01  0.89247600658E+00  0.88000000000E+00 0.  1.
        -11    1    4    4    0    0  0.39901370377E-01 -0.42210712611E-01  0.19231831071E-01  0.61188136632E-01  0.51100000000E-03 0.  1.
         11    1    4    4    0    0  0.25449342628E-01 -0.57015973859E-01  0.22754100846E-01  0.66456756929E-01  0.51100000000E-03 0. -1.
</event>
<event>
 8    1  0.1208168E+005  0.1043930E+01  0.7957747E-01            NaN
         13   -1    0    0    0    0  0.00000000000E+00  0.00000000000E+00  0.74505805969E-08  0.10566000000E+00  0.10566000000E+00 0.  1.
     999900   -1    0    0    0    0 -0.00000000000E+00 -0.00000000000E+00 -0.74505805969E-08  0.93827000000E+00  0.93827000000E+00 0. -1.
     999902    2    1    2    0    0  0.16596813141E-01 -0.17180214744E-01 -0.31732150460E-02  0.10198326292E+01  0.10195478941E+01 0.  0.
     999903    2    3    3    0    0  0.41074918904E-01 -0.12444133219E+00  0.91312693298E-02  0.13289659696E+00  0.20132840924E-01 0.  0.
         14    1    1    2    0    0 -0.16596813141E-01  0.17180214744E-01  0.31732150460E-02  0.24097370787E-01  0.00000000000E+00 0. -1.
     999901    1    3    3    0    0 -0.24478105763E-01  0.10726111744E+00 -0.12304484376E-01  0.88693603226E+00  0.88000000000E+00 0. -1.
        -11    1    4    4    0    0  0.28208765202E-01 -0.61632937313E-01  0.11430934799E-01  0.68740677822E-01  0.51100000000E-03 0. -1.
         11    1    4    4    0    0  0.12866153702E-01 -0.62808394875E-01 -0.22996654695E-02  0.64155919136E-01  0.51100000000E-03 0.  1.
</event>
<event>
 8    1  0.1208168E+005  0.1043930E+01  0.7957747E-01            NaN
         13   -1    0    0    0    0  0.00000000000E+00  0.00000000000E+00  0.74505805969E-08  0.10566000000E+00  0.10566000000E+00 0. -1.
     999900   -1    0    0    0    0 -0.00000000000E+00 -0.00000000000E+00 -0.74505805969E-08  0.93827000000E+00  0.93827000000E+00 0. -1.
     999902    2    1    2    0    0 -0.72138014858E-02 -0.18977612051E-01 -0.10039602888E-01  0.10212808871E+01  0.10210297096E+01 0.  0.
     999903    2    3    3    0    0 -0.49769007272E-02 -0.12951885588E+00 -0.28249399004E-01  0.13417550043E+00  0.20127911008E-01 0.  0.
         14    1    1    2    0    0  0.72138014858E-02  0.18977612051E-01  0.10039602888E-01  0.22649112945E-01  0.00000000000E+00 0.  1.
     999901    1    3    3    0    0 -0.22369007585E-02  0.11054124383E+00  0.18209796116E-01  0.88710538663E+00  0.88000000000E+00 0.  1.
        -11    1    4    4    0    0  0.38321239201E-02 -0.52314604223E-02 -0.51056658341E-03  0.65249636877E-02  0.51100000000E-03 0. -1.
         11    1    4    4    0    0 -0.88090246474E-02 -0.12428739546E+00 -0.27738832420E-01  0.12765053674E+00  0.51100000000E-03 0.  1.
</event>
<event>
 8    1  0.1208168E+005  0.1043930E+01  0.7957747E-01            NaN
         13   -1    0    0    0    0  0.00000000000E+00  0.00000000000E+00  0.74505805969E-08  0.10566000000E+00  0.10566000000E+00 0. -1.
     999900   -1    0    0    0    0 -0.00000000000E+00 -0.00000000000E+00 -0.74505805969E-08  0.93827000000E+00  0.93827000000E+00 0.  1.
     999902    2    1    2    0    0 -0.16681262964E-01 -0.10277350184E-01 -0.12350205166E-01  0.10207693431E+01  0.10205065584E+01 0.  0.
     999903    2    3    3    0    0  0.59618409073E-01 -0.11414155975E+00 -0.18096638714E-01  0.13136367891E+00  0.18608531414E-01 0.  0.
         14    1    1    2    0    0  0.16681262964E-01  0.10277350184E-01  0.12350205166E-01  0.23160656911E-01  0.00000000000E+00 0. -1.
     999901    1    3    3    0    0 -0.76299672037E-01  0.10386420956E+00  0.57464335481E-02  0.88940566418E+00  0.88000000000E+00 0.  1.
        -11    1    4    4    0    0  0.43442441360E-01 -0.96422146144E-01 -0.18492332828E-01  0.10736248634E+00  0.51100000000E-03 0. -1.
         11    1    4    4    0    0  0.16175967713E-01 -0.17719413603E-01  0.39569411387E-03  0.24001192568E-01  0.51100000000E-03 0.  1.
</event>
<event>
 8    1  0.1208168E+005  0.1043930E+01  0.7957747E-01            NaN
         13   -1    0    0    0    0  0.00000000000E+00  0.00000000000E+00  0.74505805969E-08  0.10566000000E+00  0.10566000000E+00 0. -1.
     999900   -1    0    0    0    0 -0.00000000000E+00 -0.00000000000E+00 -0.74505805969E-08  0.93827000000E+00  0.93827000000E+00 0. -1.
     999902    2    1    2    0    0 -0.64889214685E-02 -0.22402788274E-01 -0.60125766058E-03  0.10205986362E+01  0.10203319184E+01 0.  0.
     999903    2    3    3    0    0  0.83096957004E-01  0.53766592816E-01  0.80534685094E-01  0.12907721448E+00  0.19471544095E-01 0.  0.
         14    1    1    2    0    0  0.64889214685E-02  0.22402788274E-01  0.60125766058E-03  0.23331363763E-01  0.00000000000E+00 0.  1.
     999901    1    3    3    0    0 -0.89585878473E-01 -0.76169381090E-01 -0.81135942754E-01  0.89152142175E+00  0.88000000000E+00 0. -1.
        -11    1    4    4    0    0  0.76499987235E-01  0.45054513025E-01  0.64811012351E-01  0.10992217990E+00  0.51100000000E-03 0. -1.
         11    1    4    4    0    0  0.65969697690E-02  0.87120797907E-02  0.15723672743E-01  0.19155034584E-01  0.51100000000E-03 0.  1.
</event>
<event>
 8    1  0.1208168E+005  0.1043930E+01  0.7957747E-01            NaN
         13   -1    0    0    0    0  0.00000000000E+00  0.00000000000E+00  0.74505805969E-08  0.10566000000E+00  0.10566000000E+00 0.  1.
     999900   -1    0    0    0    0 -0.00000000000E+00 -0.00000000000E+00 -0.74505805969E-08  0.93827000000E+00  0.93827000000E+00 0.  1.
     999902    2    1    2    0    0  0.30358465339E-02 -0.13986462586E-01 -0.19161974229E-01  0.10200130864E+01  0.10197326501E+01 0.  0.
     999903    2    3    3    0    0  0.23464302688E-01  0.46797223324E-01 -0.11949362736E+00  0.13199370659E+00  0.20076304157E-01 0.  0.
         14    1    1    2    0    0 -0.30358465339E-02  0.13986462586E-01  0.19161974229E-01  0.23916913601E-01  0.00000000000E+00 0.  1.
     999901    1    3    3    0    0 -0.20428456154E-01 -0.60783685910E-01  0.10033165313E+00  0.88801937981E+00  0.88000000000E+00 0. -1.
        -11    1    4    4    0    0  0.21518228608E-01  0.31789204670E-01 -0.65546950206E-01  0.75962171495E-01  0.51100000000E-03 0. -1.
         11    1    4    4    0    0  0.19460740797E-02  0.15008018654E-01 -0.53946677155E-01  0.56031535097E-01  0.51100000000E-03 0.  1.
</event>
<event>
 8    1  0.1208168E+005  0.1043930E+01  0.7957747E-01            NaN
         13   -1    0    0    0    0  0.00000000000E+00  0.00000000000E+00  0.74505805969E-08  0.10566000000E+00  0.10566000000E+00 0. -1.
     999900   -1    0    0    0    0 -0.00000000000E+00 -0.00000000000E+00 -0.74505805969E-08  0.93827000000E+00  0.93827000000E+00 0. -1.
     999902    2    1    2    0    0 -0.16951172192E-01 -0.17532754203E-02  0.16068818925E-01  0.10205072940E+01  0.10202384594E+01 0.  0.
     999903    2    3    3    0    0 -0.48319635090E-01  0.98346146710E-01  0.71819062742E-01  0.13252533224E+00  0.19955806279E-01 0.  0.
         14    1    1    2    0    0  0.16951172192E-01  0.17532754203E-02 -0.16068818925E-01  0.23422705971E-01  0.00000000000E+00 0.  1.
     999901    1    3    3    0    0  0.31368462898E-01 -0.10009942213E+00 -0.55750243817E-01  0.88798196179E+00  0.88000000000E+00 0. -1.
        -11    1    4    4    0    0 -0.29843109998E-01  0.55441812702E-01  0.52463868053E-01  0.81958064778E-01  0.51100000000E-03 0. -1.
         11    1    4    4    0    0 -0.18476525093E-01  0.42904334008E-01  0.19355194689E-01  0.50567267463E-01  0.51100000000E-03 0.  1.
</event>
<event>
 8    1  0.1208168E+005  0.1043930E+01  0.7957747E-01            NaN
         13   -1    0    0    0    0  0.00000000000E+00  0.00000000000E+00  0.74505805969E-08  0.10566000000E+00  0.10566000000E+00 0.  1.
     999900   -1    0    0    0    0 -0.00000000000E+00 -0.00000000000E+00 -0.74505805969E-08  0.93827000000E+00  0.93827000000E+00 0. -1.
     999902    2    1    2    0    0  0.21650436961E-01 -0.91420064631E-02 -0.38442049166E-02  0.10201162306E+01  0.10198382363E+01 0.  0.
     999903    2    3    3    0    0  0.32956724263E-01  0.51199251649E-01  0.11339409968E+00  0.13022088862E+00  0.19792648844E-01 0.  0.
         14    1    1    2    0    0 -0.21650436961E-01  0.91420064631E-02  0.38442049166E-02  0.23813769425E-01  0.00000000000E+00 0. -1.
     999901    1    3    3    0    0 -0.11306287303E-01 -0.60341258112E-01 -0.11723830460E+00  0.88989534195E+00  0.88000000000E+00 0. -1.
        -11    1    4    4    0    0  0.54675206766E-02  0.25582685626E-01  0.52639121922E-01  0.58783550963E-01  0.51100000000E-03 0.  1.
         11    1    4    4    0    0  0.27489203587E-01  0.25616566023E-01  0.60754977758E-01  0.71437337660E-01  0.51100000000E-03 0. -1.
</event>
<event>
 8    1  0.1208168E+005  0.1043930E+01  0.7957747E-01            NaN
         13   -1    0    0    0    0  0.00000000000E+00  0.00000000000E+00  0.74505805969E-08  0.10566000000E+00  0.10566000000E+00 0.  1.
     999900   -1    0    0    0    0 -0.00000000000E+00 -0.00000000000E+00 -0.74505805969E-08  0.93827000000E+00  0.93827000000E+00 0. -1.
     999902    2    1    2    0    0  0.17397824103E-01  0.14202874407E-01 -0.84747278877E-02  0.10199252726E+01  0.10196427486E+01 0.  0.
     999903    2    3    3    0    0 -0.82430905222E-01 -0.43241437227E-01  0.84582789380E-01  0.12755465135E+00  0.21242993988E-01 0.  0.
         14    1    1    2    0    0 -0.17397824103E-01 -0.14202874407E-01  0.84747278877E-02  0.24004727403E-01  0.00000000000E+00 0.  1.
     999901    1    3    3    0    0  0.99828729325E-01  0.57444311634E-01 -0.93057517267E-01  0.89237062124E+00  0.88000000000E+00 0.  1.
        -11    1    4    4    0    0 -0.42988784857E-01 -0.25761365165E-01  0.58924621778E-01  0.77356678647E-01  0.51100000000E-03 0. -1.
         11    1    4    4    0    0 -0.39442120365E-01 -0.17480072062E-01  0.25658167601E-01  0.50197972707E-01  0.51100000000E-03 0.  1.
</event>
<event>
 8    1  0.1208168E+005  0.1043930E+01  0.7957747E-01            NaN
         13   -1    0    0    0    0  0.00000000000E+00  0.00000000000E+00  0.74505805969E-08  0.10566000000E+00  0.10566000000E+00 0. -1.
     999900   -1    0    0    0    0 -0.00000000000E+00 -0.00000000000E+00 -0.74505805969E-08  0.93827000000E+00  0.93827000000E+00 0. -1.
     999902    2    1    2    0    0 -0.78325944170E-02  0.47623248171E-02  0.21825183136E-01  0.10202579090E+01  0.10199832513E+01 0.  0.
     999903    2    3    3    0    0  0.10496936138E+00  0.27149460567E-01  0.71519355821E-01  0.13138504078E+00  0.19782584428E-01 0.  0.
         14    1    1    2    0    0  0.78325944170E-02 -0.47623248171E-02 -0.21825183136E-01  0.23672090991E-01  0.00000000000E+00 0.  1.
     999901    1    3    3    0    0 -0.11280195579E+00 -0.22387135750E-01 -0.49694172686E-01  0.88887286823E+00  0.88000000000E+00 0. -1.
        -11    1    4    4    0    0  0.56033494319E-01  0.47965274525E-02  0.40206255696E-01  0.69134385651E-01  0.51100000000E-03 0.  1.
         11    1    4    4    0    0  0.48935867057E-01  0.22352933115E-01  0.31313100125E-01  0.62250655128E-01  0.51100000000E-03 0. -1.
</event>
<event>
 8    1  0.1208168E+005  0.1043930E+01  0.7957747E-01            NaN
         13   -1    0    0    0    0  0.00000000000E+00  0.00000000000E+00  0.74505805969E-08  0.10566000000E+00  0.10566000000E+00 0. -1.
     999900   -1    0    0    0    0 -0.00000000000E+00 -0.00000000000E+00 -0.74505805969E-08  0.93827000000E+00  0.93827000000E+00 0.  1.
     999902    2    1    2    0    0 -0.49294391259E-02  0.60229076402E-02  0.20800021611E-01  0.10217215402E+01  0.10214801467E+01 0.  0.
     999903    2    3    3    0    0 -0.90202114054E-01  0.88116843599E-01  0.39909821396E-01  0.13359090352E+00  0.18781271340E-01 0.  0.
         14    1    1    2    0    0  0.49294391259E-02 -0.60229076402E-02 -0.20800021611E-01  0.22208459775E-01  0.00000000000E+00 0.  1.
     999901    1    3    3    0    0  0.85272674929E-01 -0.82093935958E-01 -0.19109799785E-01  0.88813063671E+00  0.88000000000E+00 0.  1.
        -11    1    4    4    0    0 -0.44262644767E-01  0.48540828843E-01  0.11761542295E-01  0.66738210830E-01  0.51100000000E-03 0.  1.
         11    1    4    4    0    0 -0.45939469287E-01  0.39576014755E-01  0.28148279101E-01  0.66852692688E-01  0.51100000000E-03 0. -1.
</event>
<event>
 8    1  0.1208168E+005  0.1043930E+01  0.7957747E-01            NaN
         13   -1    0    0    0    0  0.00000000000E+00  0.00000000000E+00  0.74505805969E-08  0.10566000000E+00  0.10566000000E+00 0. -1.
     999900   -1    0    0    0    0 -0.00000000000E+00 -0.00000000000E+00 -0.74505805969E-08  0.93827000000E+00  0.93827000000E+00 0.  1.
     999902    2    1    2    0    0 -0.33973192193E-03 -0.12198055841E-02  0.23680854424E-01  0.10202153166E+01  0.10199396580E+01 0.  0.
     999903    2    3    3    0    0  0.80520825964E-01  0.77889123492E-01 -0.60811699923E-01  0.12896022166E+00  0.19553949750E-01 0.  0.
         14    1    1    2    0    0  0.33973192193E-03  0.12198055841E-02 -0.23680854424E-01  0.23714683420E-01  0.00000000000E+00 0.  1.
     999901    1    3    3    0    0 -0.80860557886E-01 -0.79108929076E-01  0.84492554347E-01  0.89125509492E+00  0.88000000000E+00 0. -1.
        -11    1    4    4    0    0  0.12553728857E-01  0.20089127001E-01 -0.19269260749E-01  0.30540705013E-01  0.51100000000E-03 0. -1.
         11    1    4    4    0    0  0.67967097107E-01  0.57799996491E-01 -0.41542439174E-01  0.98419516647E-01  0.51100000000E-03 0.  1.
</event>
<event>
 8    1  0.1208168E+005  0.1043930E+01  0.7957747E-01            NaN
         13   -1    0    0    0    0  0.00000000000E+00  0.00000000000E+00  0.74505805969E-08  0.10566000000E+00  0.10566000000E+00 0. -1.
     999900   -1    0    0    0    0 -0.00000000000E+00 -0.00000000000E+00 -0.74505805969E-08  0.93827000000E+00  0.93827000000E+00 0.  1.
     999902    2    1    2    0    0  0.81072193561E-04 -0.50585649785E-02  0.28283224202E-01  0.10151978503E+01  0.10147911800E+01 0.  0.
     999903    2    3    3    0    0  0.11073936183E-01  0.11758935135E+00  0.40025027498E-01  0.12654649893E+00  0.21497114965E-01 0.  0.
         14    1    1    2    0    0 -0.81072193561E-04  0.50585649785E-02 -0.28283224202E-01  0.28732149652E-01  0.00000000000E+00 0.  1.
     999901    1    3    3    0    0 -0.10992863989E-01 -0.12264791633E+00 -0.11741803295E-01  0.88865135142E+00  0.88000000000E+00 0. -1.
        -11    1    4    4    0    0  0.11471610025E-01  0.80270468568E-01  0.17508894041E-01  0.82956425021E-01  0.51100000000E-03 0. -1.
         11    1    4    4    0    0 -0.39767384258E-03  0.37318882778E-01  0.22516133456E-01  0.43590073906E-01  0.51100000000E-03 0.  1.
</event>
<event>
 8    1  0.1208168E+005  0.1043930E+01  0.7957747E-01            NaN
         13   -1    0    0    0    0  0.00000000000E+00  0.00000000000E+00  0.74505805969E-08  0.10566000000E+00  0.10566000000E+00 0.  1.
     999900   -1    0    0    0    0 -0.00000000000E+00 -0.00000000000E+00 -0.74505805969E-08  0.93827000000E+00  0.93827000000E+00 0.  1.
     999902    2    1    2    0    0  0.80620694886E-02  0.22833835365E-01  0.41531919639E-02  0.10193611171E+01  0.10190649916E+01 0.  0.
     999903    2    3    3    0    0 -0.65210627733E-01  0.10176847161E+00 -0.47036565067E-01  0.13131835004E+00  0.20562655981E-01 0.  0.
         14    1    1    2    0    0 -0.80620694886E-02 -0.22833835365E-01 -0.41531919639E-02  0.24568882869E-01  0.00000000000E+00 0. -1.
     999901    1    3    3    0    0  0.73272697221E-01 -0.78934636245E-01  0.51189757031E-01  0.88804276709E+00  0.88000000000E+00 0. -1.
        -11    1    4    4    0    0 -0.41736122430E-01  0.62417608966E-01 -0.18490643099E-01  0.77330633178E-01  0.51100000000E-03 0. -1.
         11    1    4    4    0    0 -0.23474505303E-01  0.39350862644E-01 -0.28545921968E-01  0.53987716862E-01  0.51100000000E-03 0.  1.
</event>
<event>
 8    1  0.1208168E+005  0.1043930E+01  0.7957747E-01            NaN
         13   -1    0    0    0    0  0.00000000000E+00  0.00000000000E+00  0.74505805969E-08  0.10566000000E+00  0.10566000000E+00 0. -1.
     999900   -1    0    0    0    0 -0.00000000000E+00 -0.00000000000E+00 -0.74505805969E-08  0.93827000000E+00  0.93827000000E+00 0.  1.
     999902    2    1    2    0    0 -0.11951360587E-01 -0.26688211447E-02  0.22997469845E-01  0.10178754180E+01  0.10175419034E+01 0.  0.
     999903    2    3    3    0    0  0.25977593324E-02  0.11131984222E+00  0.63057956430E-01  0.12950053377E+00  0.19880310664E-01 0.  0.
         14    1    1    2    0    0  0.11951360587E-01  0.26688211447E-02 -0.22997469845E-01  0.26054582043E-01  0.00000000000E+00 0.  1.
     999901    1    3    3    0    0 -0.14549119919E-01 -0.11398866337E+00 -0.40060486585E-01  0.88837488419E+00  0.88000000000E+00 0.  1.
        -11    1    4    4    0    0  0.81222051354E-02  0.79313424957E-01  0.37198182018E-01  0.87980426580E-01  0.51100000000E-03 0.  1.
         11    1    4    4    0    0 -0.55244458029E-02  0.32006417264E-01  0.25859774413E-01  0.41520107191E-01  0.51100000000E-03 0. -1.
</event>
<event>
 8    1  0.1208168E+005  0.1043930E+01  0.7957747E-01            NaN
         13   -1    0    0    0    0  0.00000000000E+00  0.00000000000E+00  0.74505805969E-08  0.10566000000E+00  0.10566000000E+00 0.  1.
     999900   -1    0    0    0    0 -0.00000000000E+00 -0.00000000000E+00 -0.74505805969E-08  0.93827000000E+00  0.93827000000E+00 0.  1.
     999902    2    1    2    0    0  0.11470868970E-01  0.21209164728E-01  0.85375202403E-02  0.10183507358E+01  0.10180294310E+01 0.  0.
     999903    2    3    3    0    0 -0.34122538408E-01 -0.91568309977E-01 -0.77045320623E-01  0.12586995719E+00  0.18925159816E-01 0.  0.
         14    1    1    2    0    0 -0.11470868970E-01 -0.21209164728E-01 -0.85375202403E-02  0.25579264165E-01  0.00000000000E+00 0. -1.
     999901    1    3    3    0    0  0.45593407378E-01  0.11277747470E+00  0.85582840864E-01  0.89248077864E+00  0.88000000000E+00 0.  1.
        -11    1    4    4    0    0 -0.14849991475E-01 -0.44441446601E-01 -0.48745060658E-01  0.67615874485E-01  0.51100000000E-03 0.  1.
         11    1    4    4    0    0 -0.19272546933E-01 -0.47126863375E-01 -0.28300259966E-01  0.58254082707E-01  0.51100000000E-03 0. -1.
</event>
<event>
 8    1  0.1208168E+005  0.1043930E+01  0.7957747E-01            NaN
         13   -1    0    0    0    0  0.00000000000E+00  0.00000000000E+00  0.74505805969E-08  0.10566000000E+00  0.10566000000E+00 0.  1.
     999900   -1    0    0    0    0 -0.00000000000E+00 -0.00000000000E+00 -0.74505805969E-08  0.93827000000E+00  0.93827000000E+00 0.  1.
     999902    2    1    2    0    0  0.28145245057E-01 -0.24845934571E-02  0.95888634864E-02  0.10140925348E+01  0.10136534886E+01 0.  0.
     999903    2    3    3    0    0  0.56032418933E-01 -0.47027263066E-01  0.10261008700E+00  0.12763063950E+00  0.20237458863E-01 0.  0.
         14    1    1    2    0    0 -0.28145245057E-01  0.24845934571E-02 -0.95888634864E-02  0.29837465156E-01  0.00000000000E+00 0. -1.
     999901    1    3    3    0    0 -0.27887173877E-01  0.44542669609E-01 -0.93021223511E-01  0.88646189535E+00  0.88000000000E+00 0.  1.
        -11    1    4    4    0    0  0.15629328333E-01 -0.14296107321E-01  0.46671855716E-01  0.51256002826E-01  0.51100000000E-03 0.  1.
         11    1    4    4    0    0  0.40403090600E-01 -0.32731155746E-01  0.55938231281E-01  0.76374636670E-01  0.51100000000E-03 0. -1.
</event>
<event>
 8    1  0.1208168E+005  0.1043930E+01  0.7957747E-01            NaN
         13   -1    0    0    0    0  0.00000000000E+00  0.00000000000E+00  0.74505805969E-08  0.10566000000E+00  0.10566000000E+00 0. -1.
     999900   -1    0    0    0    0 -0.00000000000E+00 -0.00000000000E+00 -0.74505805969E-08  0.93827000000E+00  0.93827000000E+00 0. -1.
     999902    2    1    2    0    0  0.23287970487E-01  0.14773665964E-02  0.27183774496E-02  0.10204374106E+01  0.10201669506E+01 0.  0.
     999903    2    3    3    0    0  0.32159081584E-01  0.13115824125E-01 -0.12477103560E+00  0.13112998301E+00  0.20519009411E-01 0.  0.
         14    1    1    2    0    0 -0.23287970487E-01 -0.14773665964E-02 -0.27183774496E-02  0.23492589415E-01  0.00000000000E+00 0.  1.
     999901    1    3    3    0    0 -0.88711110970E-02 -0.11638457529E-01  0.12748941305E+00  0.88930742758E+00  0.88000000000E+00 0.  1.
        -11    1    4    4    0    0  0.15336198603E-01  0.64882534087E-03 -0.82920017500E-01  0.84330364550E-01  0.51100000000E-03 0. -1.
         11    1    4    4    0    0  0.16822882981E-01  0.12466998784E-01 -0.41851018102E-01  0.46799618456E-01  0.51100000000E-03 0.  1.
</event>
<event>
 8    1  0.1208168E+005  0.1043930E+01  0.7957747E-01            NaN
         13   -1    0    0    0    0  0.00000000000E+00  0.00000000000E+00  0.74505805969E-08  0.10566000000E+00  0.10566000000E+00 0. -1.
     999900   -1    0    0    0    0 -0.00000000000E+00 -0.00000000000E+00 -0.74505805969E-08  0.93827000000E+00  0.93827000000E+00 0. -1.
     999902    2    1    2    0    0  0.47993867834E-02 -0.16069106173E-01 -0.12676989943E-01  0.10229072418E+01  0.10226911895E+01 0.  0.
     999903    2    3    3    0    0 -0.38321065010E-01  0.74030929026E-01  0.98161906736E-01  0.13034763558E+00  0.20141094600E-01 0.  0.
         14    1    1    2    0    0 -0.47993867834E-02  0.16069106173E-01  0.12676989943E-01  0.21022758161E-01  0.00000000000E+00 0. -1.
     999901    1    3    3    0    0  0.43120451793E-01 -0.90100035199E-01 -0.11083889668E+00  0.89255960626E+00  0.88000000000E+00 0. -1.
        -11    1    4    4    0    0 -0.96991583062E-02  0.20655076181E-01  0.41732131184E-01  0.47566140668E-01  0.51100000000E-03 0. -1.
         11    1    4    4    0    0 -0.28621906704E-01  0.53375852844E-01  0.56429775552E-01  0.82781494914E-01  0.51100000000E-03 0.  1.
</event>
<event>
 8    1  0.1208168E+005  0.1043930E+01  0.7957747E-01            NaN
         13   -1    0    0    0    0  0.00000000000E+00  0.00000000000E+00  0.74505805969E-08  0.10566000000E+00  0.10566000000E+00 0.  1.
     999900   -1    0    0    0    0 -0.00000000000E+00 -0.00000000000E+00 -0.74505805969E-08  0.93827000000E+00  0.93827000000E+00 0. -1.
     999902    2    1    2    0    0  0.22766330667E-01 -0.16550275334E-01 -0.11865568165E-01  0.10133848018E+01  0.10129243542E+01 0.  0.
     999903    2    3    3    0    0 -0.63842575904E-01 -0.10486338425E+00 -0.96884359749E-02  0.12473129912E+00  0.19794628927E-01 0.  0.
         14    1    1    2    0    0 -0.22766330667E-01  0.16550275334E-01  0.11865568165E-01  0.30545198208E-01  0.00000000000E+00 0.  1.
     999901    1    3    3    0    0  0.86608906571E-01  0.88313108917E-01 -0.21771321898E-02  0.88865350267E+00  0.88000000000E+00 0. -1.
        -11    1    4    4    0    0 -0.47704233792E-01 -0.60141300651E-01 -0.75471125200E-02  0.77135530037E-01  0.51100000000E-03 0. -1.
         11    1    4    4    0    0 -0.16138342112E-01 -0.44722083600E-01 -0.21413234549E-02  0.47595769085E-01  0.51100000000E-03 0.  1.
</event>
<event>
 8    1  0.1318565E+005  0.1043930E+01  0.7957747E-01            NaN
         13   -1    0    0    0    0  0.00000000000E+00  0.00000000000E+00  0.74505805969E-08  0.10566000000E+00  0.10566000000E+00 0. -1.
     999900   -1    0    0    0    0 -0.00000000000E+00 -0.00000000000E+00 -0.74505805969E-08  0.93827000000E+00  0.93827000000E+00 0.  1.
     999902    2    1    2    0    0  0.13626950465E-01 -0.20063779934E-01  0.33565767479E-02  0.10194449913E+01  0.10191509087E+01 0.  0.
     999903    2    3    3    0    0  0.21316756656E-01  0.18829152450E-01 -0.12459850479E+00  0.12930775681E+00  0.19666404863E-01 0.  0.
         14    1    1    2    0    0 -0.13626950465E-01  0.20063779934E-01 -0.33565767479E-02  0.24485008713E-01  0.00000000000E+00 0.  1.
     999901    1    3    3    0    0 -0.76898061907E-02 -0.38892932385E-01  0.12795508153E+00  0.89013723448E+00  0.88000000000E+00 0. -1.
        -11    1    4    4    0    0  0.21298710615E-01  0.69016946797E-02 -0.73669986297E-01  0.76998678335E-01  0.51100000000E-03 0. -1.
         11    1    4    4    0    0  0.18046040642E-04  0.11927457770E-01 -0.50928518490E-01  0.52309078477E-01  0.51100000000E-03 0.  1.
</event>
<event>
 8    1  0.1208168E+005  0.1043930E+01  0.7957747E-01            NaN
         13   -1    0    0    0    0  0.00000000000E+00  0.00000000000E+00  0.74505805969E-08  0.10566000000E+00  0.10566000000E+00 0.  1.
     999900   -1    0    0    0    0 -0.00000000000E+00 -0.00000000000E+00 -0.74505805969E-08  0.93827000000E+00  0.93827000000E+00 0.  1.
     999902    2    1    2    0    0 -0.15941140438E-01  0.79798757611E-02 -0.13531042994E-01  0.10215494839E+01  0.10213042938E+01 0.  0.
     999903    2    3    3    0    0 -0.53981651375E-01  0.74205168197E-01 -0.96009130440E-01  0.13439926849E+00  0.20615153879E-01 0.  0.
         14    1    1    2    0    0  0.15941140438E-01 -0.79798757611E-02  0.13531042994E-01  0.22380516083E-01  0.00000000000E+00 0.  1.
     999901    1    3    3    0    0  0.38040510938E-01 -0.66225292436E-01  0.82478087446E-01  0.88715021543E+00  0.88000000000E+00 0. -1.
        -11    1    4    4    0    0 -0.31387814629E-01  0.25993891994E-01 -0.43752406925E-01  0.59794745261E-01  0.51100000000E-03 0.  1.
         11    1    4    4    0    0 -0.22593836746E-01  0.48211276203E-01 -0.52256723516E-01  0.74604523225E-01  0.51100000000E-03 0. -1.
</event>
<event>
 8    1  0.1208168E+005  0.1043930E+01  0.7957747E-01            NaN
         13   -1    0    0    0    0  0.00000000000E+00  0.00000000000E+00  0.74505805969E-08  0.10566000000E+00  0.10566000000E+00 0. -1.
     999900   -1    0    0    0    0 -0.00000000000E+00 -0.00000000000E+00 -0.74505805969E-08  0.93827000000E+00  0.93827000000E+00 0.  1.
     999902    2    1    2    0    0  0.79281521563E-03 -0.22002899170E-01 -0.89354329210E-02  0.10201687271E+01  0.10198919716E+01 0.  0.
     999903    2    3    3    0    0  0.84106907187E-02  0.12538229739E+00  0.11496739385E-01  0.12764539304E+00  0.19227873815E-01 0.  0.
         14    1    1    2    0    0 -0.79281521563E-03  0.22002899170E-01  0.89354329210E-02  0.23761272889E-01  0.00000000000E+00 0. -1.
     999901    1    3    3    0    0 -0.76178755031E-02 -0.14738519656E+00 -0.20432172306E-01  0.89252333407E+00  0.88000000000E+00 0. -1.
        -11    1    4    4    0    0 -0.42554198126E-02  0.33015664217E-01  0.85193329491E-02  0.34365430833E-01  0.51100000000E-03 0.  1.
         11    1    4    4    0    0  0.12666110531E-01  0.92366633172E-01  0.29774064355E-02  0.93279962209E-01  0.51100000000E-03 0. -1.
</event>
<event>
 8    1  0.1208168E+005  0.1043930E+01  0.7957747E-01            NaN
         13   -1    0    0    0    0  0.00000000000E+00  0.00000000000E+00  0.74505805969E-08  0.10566000000E+00  0.10566000000E+00 0. -1.
     999900   -1    0    0    0    0 -0.00000000000E+00 -0.00000000000E+00 -0.74505805969E-08  0.93827000000E+00  0.93827000000E+00 0.  1.
     999902    2    1    2    0    0 -0.11015401375E-01  0.20414812404E-01 -0.24218184307E-03  0.10207316750E+01  0.10204680250E+01 0.  0.
     999903    2    3    3    0    0 -0.26327794617E-01  0.81443652623E-01 -0.99679006327E-01  0.13289910583E+00  0.20001167644E-01 0.  0.
         14    1    1    2    0    0  0.11015401375E-01 -0.20414812404E-01  0.24218184307E-03  0.23198325047E-01  0.00000000000E+00 0. -1.
     999901    1    3    3    0    0  0.15312393241E-01 -0.61028840218E-01  0.99436824484E-01  0.88783256912E+00  0.88000000000E+00 0.  1.
        -11    1    4    4    0    0 -0.21250274402E-01  0.76387364263E-01 -0.83244591130E-01  0.11496315347E+00  0.51100000000E-03 0. -1.
         11    1    4    4    0    0 -0.50775202145E-02  0.50562883600E-02 -0.16434415197E-01  0.17935952368E-01  0.51100000000E-03 0.  1.
</event>
<event>
 8    1  0.1208168E+005  0.1043930E+01  0.7957747E-01            NaN
         13   -1    0    0    0    0  0.00000000000E+00  0.00000000000E+00  0.74505805969E-08  0.10566000000E+00  0.10566000000E+00 0. -1.
     999900   -1    0    0    0    0 -0.00000000000E+00 -0.00000000000E+00 -0.74505805969E-08  0.93827000000E+00  0.93827000000E+00 0.  1.
     999902    2    1    2    0    0  0.21842828223E-01  0.12408921188E-02 -0.62879337538E-02  0.10211662773E+01  0.10209125227E+01 0.  0.
     999903    2    3    3    0    0 -0.70805068328E-01 -0.83695159765E-01  0.66071429610E-01  0.12929541051E+00  0.18265593344E-01 0.  0.
         14    1    1    2    0    0 -0.21842828223E-01 -0.12408921188E-02  0.62879337538E-02  0.22763722650E-01  0.00000000000E+00 0. -1.
     999901    1    3    3    0    0  0.92647896551E-01  0.84936051883E-01 -0.72359363363E-01  0.89187086684E+00  0.88000000000E+00 0.  1.
        -11    1    4    4    0    0 -0.33800884181E-01 -0.53564174979E-01  0.35293259008E-01  0.72508591664E-01  0.51100000000E-03 0.  1.
         11    1    4    4    0    0 -0.37004184147E-01 -0.30130984786E-01  0.30778170601E-01  0.56786818850E-01  0.51100000000E-03 0. -1.
</event>
<event>
 8    1  0.1208168E+005  0.1043930E+01  0.7957747E-01            NaN
         13   -1    0    0    0    0  0.00000000000E+00  0.00000000000E+00  0.74505805969E-08  0.10566000000E+00  0.10566000000E+00 0.  1.
     999900   -1    0    0    0    0 -0.00000000000E+00 -0.00000000000E+00 -0.74505805969E-08  0.93827000000E+00  0.93827000000E+00 0.  1.
     999902    2    1    2    0    0  0.89939849832E-02  0.11019391875E-01  0.18429705184E-01  0.10206496908E+01  0.10203841524E+01 0.  0.
     999903    2    3    3    0    0 -0.86754224534E-03  0.16793622671E-01 -0.12604813556E+00  0.12879519711E+00  0.20427724495E-01 0.  0.
         14    1    1    2    0    0 -0.89939849832E-02 -0.11019391875E-01 -0.18429705184E-01  0.23280309198E-01  0.00000000000E+00 0.  1.
     999901    1    3    3    0    0  0.98615272285E-02 -0.57742307957E-02  0.14447784074E+00  0.89185449370E+00  0.88000000000E+00 0. -1.
        -11    1    4    4    0    0 -0.10561208809E-01  0.98024345438E-02 -0.73771908992E-01  0.75167696065E-01  0.51100000000E-03 0.  1.
         11    1    4    4    0    0  0.96936665639E-02  0.69911881271E-02 -0.52276226566E-01  0.53627501040E-01  0.51100000000E-03 0. -1.
</event>
<event>
 8    1  0.1208168E+005  0.1043930E+01  0.7957747E-01            NaN
         13   -1    0    0    0    0  0.00000000000E+00  0.00000000000E+00  0.74505805969E-08  0.10566000000E+00  0.10566000000E+00 0.  1.
     999900   -1    0    0    0    0 -0.00000000000E+00 -0.00000000000E+00 -0.74505805969E-08  0.93827000000E+00  0.93827000000E+00 0. -1.
     999902    2    1    2    0    0  0.18020850954E-01  0.17204081803E-01 -0.64781740996E-02  0.10181870740E+01  0.10178615915E+01 0.  0.
     999903    2    3    3    0    0 -0.10152426269E-01  0.75479900090E-01 -0.10386709021E+00  0.13045152467E+00  0.20710885616E-01 0.  0.
         14    1    1    2    0    0 -0.18020850954E-01 -0.17204081803E-01  0.64781740996E-02  0.25742926008E-01  0.00000000000E+00 0.  1.
     999901    1    3    3    0    0  0.28173277223E-01 -0.58275818287E-01  0.97388916113E-01  0.88773554932E+00  0.88000000000E+00 0.  1.
        -11    1    4    4    0    0 -0.12132708650E-01  0.56684286881E-01 -0.64141973806E-01  0.86456722834E-01  0.51100000000E-03 0. -1.
         11    1    4    4    0    0  0.19802823812E-02  0.18795613210E-01 -0.39725116406E-01  0.43994801838E-01  0.51100000000E-03 0.  1.
</event>
<event>
 8    1  0.1208168E+005  0.1043930E+01  0.7957747E-01            NaN
         13   -1    0    0    0    0  0.00000000000E+00  0.00000000000E+00  0.74505805969E-08  0.10566000000E+00  0.10566000000E+00 0.  1.
     999900   -1    0    0    0    0 -0.00000000000E+00 -0.00000000000E+00 -0.74505805969E-08  0.93827000000E+00  0.93827000000E+00 0.  1.
     999902    2    1    2    0    0  0.16889961759E-01  0.76040961918E-03  0.13833135891E-01  0.10220849850E+01  0.10218515117E+01 0.  0.
     999903    2    3    3    0    0  0.32851985242E-02 -0.16896728538E-02  0.13248606554E+00  0.13401426137E+00  0.19839787441E-01 0.  0.
         14    1    1    2    0    0 -0.16889961759E-01 -0.76040961918E-03 -0.13833135891E-01  0.21845014983E-01  0.00000000000E+00 0. -1.
     999901    1    3    3    0    0  0.13604763235E-01  0.24500824730E-02 -0.11865292964E+00  0.88807072365E+00  0.88000000000E+00 0.  1.
        -11    1    4    4    0    0 -0.25381551576E-02  0.82342007055E-02  0.53079729354E-01  0.53776975391E-01  0.51100000000E-03 0. -1.
         11    1    4    4    0    0  0.58233536818E-02 -0.99238735593E-02  0.79406336181E-01  0.80237285979E-01  0.51100000000E-03 0.  1.
</event>
<event>
 8    1  0.1208168E+005  0.1043930E+01  0.7957747E-01            NaN
         13   -1    0    0    0    0  0.00000000000E+00  0.00000000000E+00  0.74505805969E-08  0.10566000000E+00  0.10566000000E+00 0. -1.
     999900   -1    0    0    0    0 -0.00000000000E+00 -0.00000000000E+00 -0.74505805969E-08  0.93827000000E+00  0.93827000000E+00 0.  1.
     999902    2    1    2    0    0 -0.20392360931E-01 -0.14312950896E-01  0.13186932819E-02  0.10189810942E+01  0.10186756218E+01 0.  0.
     999903    2    3    3    0    0 -0.12235704311E+00 -0.37625197253E-01  0.26583355693E-01  0.13242677529E+00  0.21054086260E-01 0.  0.
         14    1    1    2    0    0  0.20392360931E-01  0.14312950896E-01 -0.13186932819E-02  0.24948905781E-01  0.00000000000E+00 0.  1.
     999901    1    3    3    0    0  0.10196468218E+00  0.23312246356E-01 -0.25264662412E-01  0.88655431893E+00  0.88000000000E+00 0.  1.
        -11    1    4    4    0    0 -0.81090736638E-01 -0.35117785366E-01  0.19070946105E-01  0.90404250585E-01  0.51100000000E-03 0.  1.
         11    1    4    4    0    0 -0.41266306469E-01 -0.25074118869E-02  0.75124095880E-02  0.42022524707E-01  0.51100000000E-03 0. -1.
</event>
<event>
 7    1  0.1208168E+005  0.1043930E+01  0.7957747E-01            NaN
         13   -1    0    0    0    0  0.00000000000E+00  0.00000000000E+00  0.74505805969E-08  0.10566000000E+00  0.10566000000E+00 0. -1.
     999900   -1    0    0    0    0 -0.00000000000E+00 -0.00000000000E+00 -0.74505805969E-08  0.93827000000E+00  0.93827000000E+00 0. -1.
     999902    2    1    2    0    0 -0.23097308417E-01 -0.11934966811E-02 -0.23632384517E-03  0.10208006693E+01  0.10205386031E+01 0.  0.
         14    1    1    2    0    0  0.23097308417E-01  0.11934966811E-02  0.23632384517E-03  0.23129330716E-01  0.00000000000E+00 0. -1.
     999901    1    3    3    0    0 -0.99605306022E-01 -0.94704538804E-01  0.23565393438E-01  0.89098007521E+00  0.88000000000E+00 0.  1.
        -11    1    3    3    0    0  0.29712817257E-01  0.27320168643E-01  0.10636936182E-01  0.41745043495E-01  0.51100000000E-03 0. -1.
         11    1    3    3    0    0  0.46795180348E-01  0.66190873480E-01 -0.34438653465E-01  0.88075550576E-01  0.51100000000E-03 0.  1.
</event>
<event>
 8    1  0.1208168E+005  0.1043930E+01  0.7957747E-01            NaN
         13   -1    0    0    0    0  0.00000000000E+00  0.00000000000E+00  0.74505805969E-08  0.10566000000E+00  0.10566000000E+00 0.  1.
     999900   -1    0    0    0    0 -0.00000000000E+00 -0.00000000000E+00 -0.74505805969E-08  0.93827000000E+00  0.93827000000E+00 0.  1.
     999902    2    1    2    0    0 -0.20736471940E-01 -0.23250321278E-02  0.99384797755E-02  0.10208176565E+01  0.10205559795E+01 0.  0.
     999903    2    3    3    0    0  0.40140577220E-01 -0.12159888566E+00 -0.14353488836E-01  0.13035577240E+00  0.19724345944E-01 0.  0.
         14    1    1    2    0    0  0.20736471940E-01  0.23250321278E-02 -0.99384797755E-02  0.23112343524E-01  0.00000000000E+00 0. -1.
     999901    1    3    3    0    0 -0.60877049159E-01  0.11927385353E+00  0.24291968611E-01  0.89046188407E+00  0.88000000000E+00 0.  1.
        -11    1    4    4    0    0  0.10067978219E-01 -0.48430132006E-01 -0.13358590876E-01  0.51240169230E-01  0.51100000000E-03 0.  1.
         11    1    4    4    0    0  0.30072599001E-01 -0.73168753656E-01 -0.99489795942E-03  0.79115603172E-01  0.51100000000E-03 0. -1.
</event>
<event>
 8    1  0.1208168E+005  0.1043930E+01  0.7957747E-01            NaN
         13   -1    0    0    0    0  0.00000000000E+00  0.00000000000E+00  0.74505805969E-08  0.10566000000E+00  0.10566000000E+00 0.  1.
     999900   -1    0    0    0    0 -0.00000000000E+00 -0.00000000000E+00 -0.74505805969E-08  0.93827000000E+00  0.93827000000E+00 0.  1.
     999902    2    1    2    0    0 -0.65418243849E-03  0.18971709288E-01  0.13069498783E-01  0.10208829719E+01  0.10206227887E+01 0.  0.
     999903    2    3    3    0    0  0.12231374104E+00  0.41425276287E-01  0.19578062122E-01  0.13202548369E+00  0.19254170040E-01 0.  0.
         14    1    1    2    0    0  0.65418243849E-03 -0.18971709288E-01 -0.13069498783E-01  0.23047028147E-01  0.00000000000E+00 0.  1.
     999901    1    3    3    0    0 -0.12296792348E+00 -0.22453566999E-01 -0.65085633392E-02  0.88885748817E+00  0.88000000000E+00 0. -1.
        -11    1    4    4    0    0  0.48527709893E-01  0.19628963527E-01  0.17006308319E-01  0.55042805890E-01  0.51100000000E-03 0. -1.
         11    1    4    4    0    0  0.73786031143E-01  0.21796312761E-01  0.25717538034E-02  0.76982677795E-01  0.51100000000E-03 0.  1.
</event>
<event>
 8    1  0.1208168E+005  0.1043930E+01  0.7957747E-01            NaN
         13   -1    0    0    0    0  0.00000000000E+00  0.00000000000E+00  0.74505805969E-08  0.10566000000E+00  0.10566000000E+00 0.  1.
     999900   -1    0    0    0    0 -0.00000000000E+00 -0.00000000000E+00 -0.74505805969E-08  0.93827000000E+00  0.93827000000E+00 0. -1.
     999902    2    1    2    0    0 -0.11915504449E-01 -0.33450181668E-02  0.21260585405E-01  0.10193295755E+01  0.10190326799E+01 0.  0.
     999903    2    3    3    0    0 -0.61829638498E-01 -0.11334451170E+00 -0.39306766729E-02  0.13072060131E+00  0.20063470739E-01 0.  0.
         14    1    1    2    0    0  0.11915504449E-01  0.33450181668E-02 -0.21260585405E-01  0.24600424480E-01  0.00000000000E+00 0. -1.
     999901    1    3    3    0    0  0.49914134049E-01  0.10999949354E+00  0.25191262078E-01  0.88860897421E+00  0.88000000000E+00 0. -1.
        -11    1    4    4    0    0 -0.51690276033E-01 -0.93801357219E-01  0.43555338728E-02  0.10719053619E+00  0.51100000000E-03 0.  1.
         11    1    4    4    0    0 -0.10139362466E-01 -0.19543154485E-01 -0.82862105458E-02  0.23530065122E-01  0.51100000000E-03 0. -1.
</event>
<event>
 8    1  0.1208168E+005  0.1043930E+01  0.7957747E-01            NaN
         13   -1    0    0    0    0  0.00000000000E+00  0.00000000000E+00  0.74505805969E-08  0.10566000000E+00  0.10566000000E+00 0. -1.
     999900   -1    0    0    0    0 -0.00000000000E+00 -0.00000000000E+00 -0.74505805969E-08  0.93827000000E+00  0.93827000000E+00 0.  1.
     999902    2    1    2    0    0 -0.15811520181E-01  0.13067793092E-01  0.12430922914E-01  0.10199446038E+01  0.10196625400E+01 0.  0.
     999903    2    3    3    0    0 -0.85253551815E-03  0.12304121420E+00 -0.41537592851E-01  0.13133303214E+00  0.19573617523E-01 0.  0.
         14    1    1    2    0    0  0.15811520181E-01 -0.13067793092E-01 -0.12430922914E-01  0.23985396207E-01  0.00000000000E+00 0.  1.
     999901    1    3    3    0    0 -0.14958984663E-01 -0.10997342111E+00  0.53968515765E-01  0.88861157165E+00  0.88000000000E+00 0. -1.
        -11    1    4    4    0    0  0.29394253178E-02  0.29586848494E-01 -0.18441394754E-01  0.34990970070E-01  0.51100000000E-03 0.  1.
         11    1    4    4    0    0 -0.37919608359E-02  0.93454365710E-01 -0.23096198097E-01  0.96342062075E-01  0.51100000000E-03 0. -1.
</event>
<event>
 8    1  0.1208168E+005  0.1043930E+01  0.7957747E-01            NaN
         13   -1    0    0    0    0  0.00000000000E+00  0.00000000000E+00  0.74505805969E-08  0.10566000000E+00  0.10566000000E+00 0. -1.
     999900   -1    0    0    0    0 -0.00000000000E+00 -0.00000000000E+00 -0.74505805969E-08  0.93827000000E+00  0.93827000000E+00 0.  1.
     999902    2    1    2    0    0 -0.93608515669E-03 -0.23710583114E-01 -0.18268886663E-02  0.10201307242E+01  0.10198530722E+01 0.  0.
     999903    2    3    3    0    0 -0.14460631793E-01  0.42930347593E-01  0.11953196878E+00  0.12920317422E+00  0.18800107795E-01 0.  0.
         14    1    1    2    0    0  0.93608515669E-03  0.23710583114E-01  0.18268886663E-02  0.23799275813E-01  0.00000000000E+00 0.  1.
     999901    1    3    3    0    0  0.13524546636E-01 -0.66640930707E-01 -0.12135885744E+00  0.89092754997E+00  0.88000000000E+00 0.  1.
        -11    1    4    4    0    0  0.34608006345E-02  0.15704653143E-01  0.32456140730E-01  0.36225342834E-01  0.51100000000E-03 0. -1.
         11    1    4    4    0    0 -0.17921432427E-01  0.27225694450E-01  0.87075828047E-01  0.92977831388E-01  0.51100000000E-03 0.  1.
</event>
<event>
 8    1  0.1208168E+005  0.1043930E+01  0.7957747E-01            NaN
         13   -1    0    0    0    0  0.00000000000E+00  0.00000000000E+00  0.74505805969E-08  0.10566000000E+00  0.10566000000E+00 0. -1.
     999900   -1    0    0    0    0 -0.00000000000E+00 -0.00000000000E+00 -0.74505805969E-08  0.93827000000E+00  0.93827000000E+00 0.  1.
     999902    2    1    2    0    0  0.22682655995E-01 -0.29940264253E-02  0.57961478869E-02  0.10203278304E+01  0.10200548119E+01 0.  0.
     999903    2    3    3    0    0  0.38555815023E-01 -0.62056794370E-01  0.10868614097E+00  0.13222495442E+00  0.18252800674E-01 0.  0.
         14    1    1    2    0    0 -0.22682655995E-01  0.29940264253E-02 -0.57961478869E-02  0.23602169552E-01  0.00000000000E+00 0.  1.
     999901    1    3    3    0    0 -0.15873159028E-01  0.59062767945E-01 -0.10288999308E+00  0.88810287603E+00  0.88000000000E+00 0.  1.
        -11    1    4    4    0    0  0.66168468770E-02 -0.26740085275E-01  0.36093958539E-01  0.45407596139E-01  0.51100000000E-03 0.  1.
         11    1    4    4    0    0  0.31938968146E-01 -0.35316709095E-01  0.72592182431E-01  0.86817358280E-01  0.51100000000E-03 0. -1.
</event>
<event>
 8    1  0.1208168E+005  0.1043930E+01  0.7957747E-01            NaN
         13   -1    0    0    0    0  0.00000000000E+00  0.00000000000E+00  0.74505805969E-08  0.10566000000E+00  0.10566000000E+00 0. -1.
     999900   -1    0    0    0    0 -0.00000000000E+00 -0.00000000000E+00 -0.74505805969E-08  0.93827000000E+00  0.93827000000E+00 0. -1.
     999902    2    1    2    0    0 -0.33712913363E-02  0.17091195927E-01  0.13001282302E-01  0.10221927526E+01  0.10219616018E+01 0.  0.
     999903    2    3    3    0    0  0.41062445373E-02 -0.14229146736E-01  0.13131913680E+00  0.13369064674E+00  0.20227295323E-01 0.  0.
         14    1    1    2    0    0  0.33712913363E-02 -0.17091195927E-01 -0.13001282302E-01  0.21737247410E-01  0.00000000000E+00 0.  1.
     999901    1    3    3    0    0 -0.74775358736E-02  0.31320342663E-01 -0.11831785449E+00  0.88850210585E+00  0.88000000000E+00 0. -1.
        -11    1    4    4    0    0 -0.69179030304E-02 -0.69714414758E-02  0.31449886754E-01  0.32951705213E-01  0.51100000000E-03 0.  1.
         11    1    4    4    0    0  0.11024147568E-01 -0.72577052605E-02  0.99869250041E-01  0.10073894153E+00  0.51100000000E-03 0. -1.
</event>
<event>
 8    1  0.1208168E+005  0.1043930E+01  0.7957747E-01            NaN
         13   -1    0    0    0    0  0.00000000000E+00  0.00000000000E+00  0.74505805969E-08  0.10566000000E+00  0.10566000000E+00 0. -1.
     999900   -1    0    0    0    0 -0.00000000000E+00 -0.00000000000E+00 -0.74505805969E-08  0.93827000000E+00  0.93827000000E+00 0. -1.
     999902    2    1    2    0    0 -0.22770487997E-01 -0.46698377890E-02 -0.64740880908E-02  0.10198008408E+01  0.10195153449E+01 0.  0.
     999903    2    3    3    0    0 -0.11819170653E+00  0.46108151287E-01 -0.33633927588E-01  0.13277137677E+00  0.20043859355E-01 0.  0.
         14    1    1    2    0    0  0.22770487997E-01  0.46698377890E-02  0.64740880908E-02  0.24129159231E-01  0.00000000000E+00 0. -1.
     999901    1    3    3    0    0  0.95421218528E-01 -0.50777989076E-01  0.27159839497E-01  0.88702946400E+00  0.88000000000E+00 0.  1.
        -11    1    4    4    0    0 -0.50943991546E-01  0.30546960374E-01 -0.16441928642E-01  0.61636070618E-01  0.51100000000E-03 0.  1.
         11    1    4    4    0    0 -0.67247714980E-01  0.15561190913E-01 -0.17191998946E-01  0.71135306152E-01  0.51100000000E-03 0. -1.
</event>
<event>
 8    1  0.1208168E+005  0.1043930E+01  0.7957747E-01            NaN
         13   -1    0    0    0    0  0.00000000000E+00  0.00000000000E+00  0.74505805969E-08  0.10566000000E+00  0.10566000000E+00 0. -1.
     999900   -1    0    0    0    0 -0.00000000000E+00 -0.00000000000E+00 -0.74505805969E-08  0.93827000000E+00  0.93827000000E+00 0. -1.
     999902    2    1    2    0    0  0.57030521100E-02 -0.14459761761E-01  0.17966968689E-01  0.10201724438E+01  0.10198957758E+01 0.  0.
     999903    2    3    3    0    0  0.99622672554E-01  0.67728178699E-01 -0.42389251821E-01  0.12931969163E+00  0.20370343573E-01 0.  0.
         14    1    1    2    0    0 -0.57030521100E-02  0.14459761761E-01 -0.17966968689E-01  0.23757556217E-01  0.00000000000E+00 0.  1.
     999901    1    3    3    0    0 -0.93919620444E-01 -0.82187940459E-01  0.60356220509E-01  0.89085275215E+00  0.88000000000E+00 0.  1.
        -11    1    4    4    0    0  0.75135881631E-01  0.41408592278E-01 -0.24861104370E-01  0.89321933781E-01  0.51100000000E-03 0.  1.
         11    1    4    4    0    0  0.24486790923E-01  0.26319586420E-01 -0.17528147450E-01  0.39997757851E-01  0.51100000000E-03 0. -1.
</event>
<event>
 8    1  0.1208168E+005  0.1043930E+01  0.7957747E-01            NaN
         13   -1    0    0    0    0  0.00000000000E+00  0.00000000000E+00  0.74505805969E-08  0.10566000000E+00  0.10566000000E+00 0.  1.
     999900   -1    0    0    0    0 -0.00000000000E+00 -0.00000000000E+00 -0.74505805969E-08  0.93827000000E+00  0.93827000000E+00 0. -1.
     999902    2    1    2    0    0 -0.14636190464E-01 -0.73641154242E-02 -0.17476208075E-01  0.10199744972E+01  0.10196931444E+01 0.  0.
     999903    2    3    3    0    0  0.12033862644E+00 -0.34919413056E-01 -0.25271511318E-01  0.12922298166E+00  0.18952025836E-01 0.  0.
         14    1    1    2    0    0  0.14636190464E-01  0.73641154242E-02  0.17476208075E-01  0.23955502832E-01  0.00000000000E+00 0.  1.
     999901    1    3    3    0    0 -0.13497481690E+00  0.27555297632E-01  0.77953032431E-02  0.89075151551E+00  0.88000000000E+00 0.  1.
        -11    1    4    4    0    0  0.38353019853E-01 -0.19485244648E-01 -0.12673668359E-01  0.44849881622E-01  0.51100000000E-03 0. -1.
         11    1    4    4    0    0  0.81985606587E-01 -0.15434168408E-01 -0.12597842960E-01  0.84373100038E-01  0.51100000000E-03 0.  1.
</event>
<event>
 7    1  0.1208168E+005  0.1043930E+01  0.7957747E-01            NaN
         13   -1    0    0    0    0  0.00000000000E+00  0.00000000000E+00  0.74505805969E-08  0.10566000000E+00  0.10566000000E+00 0.  1.
     999900   -1    0    0    0    0 -0.00000000000E+00 -0.00000000000E+00 -0.74505805969E-08  0.93827000000E+00  0.93827000000E+00 0.  1.
     999903    2    1    2    0    0  0.34214874890E-02  0.34932052768E-03 -0.41376276358E-01  0.45256782703E-01  0.18009762182E-01 0.  0.
         14    1    1    2    0    0 -0.53372415912E-01  0.96781566298E-01  0.14930763860E-01  0.11152674148E+00  0.00000000000E+00 0.  1.
     999901    1    1    2    0    0  0.49950928423E-01 -0.97130886826E-01  0.26445512498E-01  0.88714647582E+00  0.88000000000E+00 0. -1.
        -11    1    3    3    0    0  0.80333373576E-02 -0.22415613846E-02 -0.38117914336E-01  0.39023013990E-01  0.51100000000E-03 0.  1.
         11    1    3    3    0    0 -0.46118498685E-02  0.25908819123E-02 -0.32583620223E-02  0.62337687126E-02  0.51100000000E-03 0. -1.
</event>
<event>
 8    1  0.1208168E+005  0.1043930E+01  0.7957747E-01            NaN
         13   -1    0    0    0    0  0.00000000000E+00  0.00000000000E+00  0.74505805969E-08  0.10566000000E+00  0.10566000000E+00 0. -1.
     999900   -1    0    0    0    0 -0.00000000000E+00 -0.00000000000E+00 -0.74505805969E-08  0.93827000000E+00  0.93827000000E+00 0. -1.
     999902    2    1    2    0    0 -0.14149756444E-01 -0.25216279758E-01  0.18518234292E-01  0.10095934106E+01  0.10090093425E+01 0.  0.
     999903    2    3    3    0    0 -0.68379833366E-01  0.14806838926E-01 -0.95042114264E-01  0.11974021817E+00  0.20240362452E-01 0.  0.
         14    1    1    2    0    0  0.14149756444E-01  0.25216279758E-01 -0.18518234292E-01  0.34336589428E-01  0.00000000000E+00 0.  1.
     999901    1    3    3    0    0  0.54230076922E-01 -0.40023118684E-01  0.11356034856E+00  0.88985319241E+00  0.88000000000E+00 0.  1.
        -11    1    4    4    0    0 -0.53241892980E-01  0.11614408629E-01 -0.86001722435E-01  0.10181429683E+00  0.51100000000E-03 0. -1.
         11    1    4    4    0    0 -0.15137940386E-01  0.31924302972E-02 -0.90403918298E-02  0.17925921337E-01  0.51100000000E-03 0.  1.
</event>
<event>
 8    1  0.1208168E+005  0.1043930E+01  0.7957747E-01            NaN
         13   -1    0    0    0    0  0.00000000000E+00  0.00000000000E+00  0.74505805969E-08  0.10566000000E+00  0.10566000000E+00 0. -1.
     999900   -1    0    0    0    0 -0.00000000000E+00 -0.00000000000E+00 -0.74505805969E-08  0.93827000000E+00  0.93827000000E+00 0. -1.
     999902    2    1    2    0    0  0.20938088575E-01  0.10315228554E-01 -0.31731237681E-02  0.10203741895E+01  0.10201022549E+01 0.  0.
     999903    2    3    3    0    0 -0.11854621030E+00 -0.13767426790E-01 -0.41592261556E-01  0.12823525747E+00  0.21716791211E-01 0.  0.
         14    1    1    2    0    0 -0.20938088575E-01 -0.10315228554E-01  0.31731237681E-02  0.23555810488E-01  0.00000000000E+00 0. -1.
     999901    1    3    3    0    0  0.13948429887E+00  0.24082655344E-01  0.38419137788E-01  0.89213893204E+00  0.88000000000E+00 0.  1.
        -11    1    4    4    0    0 -0.23154697610E-01  0.58968261474E-02 -0.86569762574E-02  0.25418830401E-01  0.51100000000E-03 0.  1.
         11    1    4    4    0    0 -0.95391512687E-01 -0.19664252937E-01 -0.32935285298E-01  0.10281642707E+00  0.51100000000E-03 0. -1.
</event>
<event>
 8    1  0.1208168E+005  0.1043930E+01  0.7957747E-01            NaN
         13   -1    0    0    0    0  0.00000000000E+00  0.00000000000E+00  0.74505805969E-08  0.10566000000E+00  0.10566000000E+00 0.  1.
     999900   -1    0    0    0    0 -0.00000000000E+00 -0.00000000000E+00 -0.74505805969E-08  0.93827000000E+00  0.93827000000E+00 0. -1.
     999902    2    1    2    0    0 -0.16790057139E-01 -0.17292686800E-01 -0.28485057006E-02  0.10196595031E+01  0.10193706123E+01 0.  0.
     999903    2    3    3    0    0 -0.12333267404E+00 -0.77593100836E-02 -0.42968727482E-01  0.13227466736E+00  0.19471022158E-01 0.  0.
         14    1    1    2    0    0  0.16790057139E-01  0.17292686800E-01  0.28485057006E-02  0.24270496909E-01  0.00000000000E+00 0.  1.
     999901    1    3    3    0    0  0.10654261691E+00 -0.95333767165E-02  0.40120221782E-01  0.88738483573E+00  0.88000000000E+00 0.  1.
        -11    1    4    4    0    0 -0.91860438228E-01 -0.10730928667E-01 -0.24569912182E-01  0.95694485981E-01  0.51100000000E-03 0.  1.
         11    1    4    4    0    0 -0.31472235817E-01  0.29716185838E-02 -0.18398815300E-01  0.36580181379E-01  0.51100000000E-03 0. -1.
</event>
<event>
 8    1  0.1208168E+005  0.1043930E+01  0.7957747E-01            NaN
         13   -1    0    0    0    0  0.00000000000E+00  0.00000000000E+00  0.74505805969E-08  0.10566000000E+00  0.10566000000E+00 0. -1.
     999900   -1    0    0    0    0 -0.00000000000E+00 -0.00000000000E+00 -0.74505805969E-08  0.93827000000E+00  0.93827000000E+00 0.  1.
     999902    2    1    2    0    0  0.35103635367E-02  0.19776502076E-01  0.49927304631E-02  0.10232331393E+01  0.10230238009E+01 0.  0.
     999903    2    3    3    0    0 -0.19960928525E-01  0.10407974100E+00 -0.80855184377E-01  0.13473564230E+00  0.19623998332E-01 0.  0.
         14    1    1    2    0    0 -0.35103635367E-02 -0.19776502076E-01 -0.49927304631E-02  0.20696860728E-01  0.00000000000E+00 0.  1.
     999901    1    3    3    0    0  0.23471292061E-01 -0.84303238927E-01  0.85847914840E-01  0.88849749697E+00  0.88000000000E+00 0.  1.
        -11    1    4    4    0    0 -0.10708147519E-01  0.18765036969E-01 -0.20781309403E-01  0.29981910834E-01  0.51100000000E-03 0.  1.
         11    1    4    4    0    0 -0.92527810059E-02  0.85314704033E-01 -0.60073874973E-01  0.10475373147E+00  0.51100000000E-03 0. -1.
</event>
<event>
 8    1  0.1208168E+005  0.1043930E+01  0.7957747E-01            NaN
         13   -1    0    0    0    0  0.00000000000E+00  0.00000000000E+00  0.74505805969E-08  0.10566000000E+00  0.10566000000E+00 0.  1.
     999900   -1    0    0    0    0 -0.00000000000E+00 -0.00000000000E+00 -0.74505805969E-08  0.93827000000E+00  0.93827000000E+00 0.  1.
     999902    2    1    2    0    0 -0.80183620021E-02 -0.16805805697E-01 -0.15660208966E-01  0.10195995380E+01  0.10193092007E+01 0.  0.
     999903    2    3    3    0    0 -0.12144297091E+00  0.11626321851E-02 -0.46883009991E-01  0.13158891312E+00  0.19180159916E-01 0.  0.
         14    1    1    2    0    0  0.80183620021E-02  0.16805805697E-01  0.15660208966E-01  0.24330461960E-01  0.00000000000E+00 0.  1.
     999901    1    3    3    0    0  0.11342460890E+00 -0.17968437882E-01  0.31222801025E-01  0.88801062492E+00  0.88000000000E+00 0. -1.
        -11    1    4    4    0    0 -0.10036000428E+00 -0.14546677350E-02 -0.45752964276E-01  0.11030793887E+00  0.51100000000E-03 0.  1.
         11    1    4    4    0    0 -0.21082966627E-01  0.26172999201E-02 -0.11300457148E-02  0.21280974249E-01  0.51100000000E-03 0. -1.
</event>
<event>
 8    1  0.1208168E+005  0.1043930E+01  0.7957747E-01            NaN
         13   -1    0    0    0    0  0.00000000000E+00  0.00000000000E+00  0.74505805969E-08  0.10566000000E+00  0.10566000000E+00 0.  1.
     999900   -1    0    0    0    0 -0.00000000000E+00 -0.00000000000E+00 -0.74505805969E-08  0.93827000000E+00  0.93827000000E+00 0. -1.
     999902    2    1    2    0    0 -0.45646980345E-02 -0.19051262653E-01  0.13896574399E-01  0.10199112187E+01  0.10196283598E+01 0.  0.
     999903    2    3    3    0    0  0.37352090006E-01  0.98223673345E-01  0.73425612161E-01  0.12915079404E+00  0.15669666483E-01 0.  0.
         14    1    1    2    0    0  0.45646980345E-02  0.19051262653E-01 -0.13896574399E-01  0.24018781336E-01  0.00000000000E+00 0.  1.
     999901    1    3    3    0    0 -0.41916788041E-01 -0.11727493600E+00 -0.59529037762E-01  0.89076042462E+00  0.88000000000E+00 0. -1.
        -11    1    4    4    0    0  0.21842702013E-01  0.62640206633E-01  0.55023054128E-01  0.86189887602E-01  0.51100000000E-03 0.  1.
         11    1    4    4    0    0  0.15509387993E-01  0.35583466712E-01  0.18402558034E-01  0.42960906442E-01  0.51100000000E-03 0. -1.
</event>
<event>
 8    1  0.1208168E+005  0.1043930E+01  0.7957747E-01            NaN
         13   -1    0    0    0    0  0.00000000000E+00  0.00000000000E+00  0.74505805969E-08  0.10566000000E+00  0.10566000000E+00 0. -1.
     999900   -1    0    0    0    0 -0.00000000000E+00 -0.00000000000E+00 -0.74505805969E-08  0.93827000000E+00  0.93827000000E+00 0.  1.
     999902    2    1    2    0    0  0.16908227422E-01 -0.20913373934E-02 -0.16712038031E-01  0.10200646682E+01  0.10197854545E+01 0.  0.
     999903    2    3    3    0    0  0.11989522770E+00 -0.48591958350E-01  0.18302787567E-01  0.13214875552E+00  0.19805491943E-01 0.  0.
         14    1    1    2    0    0 -0.16908227422E-01  0.20913373934E-02  0.16712038031E-01  0.23865331798E-01  0.00000000000E+00 0. -1.
     999901    1    3    3    0    0 -0.10298700028E+00  0.46500620956E-01 -0.35014825599E-01  0.88791591268E+00  0.88000000000E+00 0. -1.
        -11    1    4    4    0    0  0.87495338876E-01 -0.28369198353E-01  0.66810167959E-02  0.92223331357E-01  0.51100000000E-03 0.  1.
         11    1    4    4    0    0  0.32399888828E-01 -0.20222759997E-01  0.11621770772E-01  0.39925424166E-01  0.51100000000E-03 0. -1.
</event>
<event>
 8    1  0.1208168E+005  0.1043930E+01  0.7957747E-01            NaN
         13   -1    0    0    0    0  0.00000000000E+00  0.00000000000E+00  0.74505805969E-08  0.10566000000E+00  0.10566000000E+00 0. -1.
     999900   -1    0    0    0    0 -0.00000000000E+00 -0.00000000000E+00 -0.74505805969E-08  0.93827000000E+00  0.93827000000E+00 0. -1.
     999902    2    1    2    0    0 -0.20758368134E-01  0.61328328599E-02  0.95617681422E-02  0.10202667607E+01  0.10199923108E+01 0.  0.
     999903    2    3    3    0    0  0.62237146708E-01 -0.11050608014E+00 -0.62274382069E-02  0.12855930271E+00  0.20091220679E-01 0.  0.
         14    1    1    2    0    0  0.20758368134E-01 -0.61328328599E-02 -0.95617681422E-02  0.23663239349E-01  0.00000000000E+00 0.  1.
     999901    1    3    3    0    0 -0.82995514842E-01  0.11663891300E+00  0.15789206349E-01  0.89170745794E+00  0.88000000000E+00 0.  1.
        -11    1    4    4    0    0  0.13583356512E-01 -0.15124003307E-01  0.48708628625E-02  0.20910032907E-01  0.51100000000E-03 0.  1.
         11    1    4    4    0    0  0.48653790197E-01 -0.95382076833E-01 -0.11098301069E-01  0.10764926980E+00  0.51100000000E-03 0. -1.
</event>
<event>
 8    1  0.1208168E+005  0.1043930E+01  0.7957747E-01            NaN
         13   -1    0    0    0    0  0.00000000000E+00  0.00000000000E+00  0.74505805969E-08  0.10566000000E+00  0.10566000000E+00 0.  1.
     999900   -1    0    0    0    0 -0.00000000000E+00 -0.00000000000E+00 -0.74505805969E-08  0.93827000000E+00  0.93827000000E+00 0. -1.
     999902    2    1    2    0    0 -0.94653962446E-02  0.10026839932E-01 -0.19049372466E-01  0.10204138388E+01  0.10201428295E+01 0.  0.
     999903    2    3    3    0    0  0.10374608220E-01  0.75402180798E-01 -0.10798422619E+00  0.13329661479E+00  0.17727747876E-01 0.  0.
         14    1    1    2    0    0  0.94653962446E-02 -0.10026839932E-01  0.19049372466E-01  0.23516161175E-01  0.00000000000E+00 0.  1.
     999901    1    3    3    0    0 -0.19840004465E-01 -0.65375340866E-01  0.88934853721E-01  0.88711722403E+00  0.88000000000E+00 0.  1.
        -11    1    4    4    0    0 -0.33563394804E-03  0.45860059930E-01 -0.54177677318E-01  0.70984079817E-01  0.51100000000E-03 0. -1.
         11    1    4    4    0    0  0.10710242168E-01  0.29542120868E-01 -0.53806548869E-01  0.62312534974E-01  0.51100000000E-03 0.  1.
</event>
<event>
 8    1  0.1208168E+005  0.1043930E+01  0.7957747E-01            NaN
         13   -1    0    0    0    0  0.00000000000E+00  0.00000000000E+00  0.74505805969E-08  0.10566000000E+00  0.10566000000E+00 0. -1.
     999900   -1    0    0    0    0 -0.00000000000E+00 -0.00000000000E+00 -0.74505805969E-08  0.93827000000E+00  0.93827000000E+00 0.  1.
     999902    2    1    2    0    0 -0.16777875484E-01 -0.15339879707E-01 -0.11011283476E-02  0.10211699143E+01  0.10209162417E+01 0.  0.
     999903    2    3    3    0    0 -0.12829527150E+00  0.27436792896E-01  0.91029595220E-02  0.13304261675E+00  0.20125101401E-01 0.  0.
         14    1    1    2    0    0  0.16777875484E-01  0.15339879707E-01  0.11011283476E-02  0.22760085651E-01  0.00000000000E+00 0. -1.
     999901    1    3    3    0    0  0.11151739601E+00 -0.42776672603E-01 -0.10204087870E-01  0.88812729760E+00  0.88000000000E+00 0. -1.
        -11    1    4    4    0    0 -0.76611245781E-01  0.63757235323E-02  0.68909453630E-02  0.77186003133E-01  0.51100000000E-03 0. -1.
         11    1    4    4    0    0 -0.51684025717E-01  0.21061069364E-01  0.22120141590E-02  0.55856613616E-01  0.51100000000E-03 0.  1.
</event>
<event>
 8    1  0.1208168E+005  0.1043930E+01  0.7957747E-01            NaN
         13   -1    0    0    0    0  0.00000000000E+00  0.00000000000E+00  0.74505805969E-08  0.10566000000E+00  0.10566000000E+00 0. -1.
     999900   -1    0    0    0    0 -0.00000000000E+00 -0.00000000000E+00 -0.74505805969E-08  0.93827000000E+00  0.93827000000E+00 0. -1.
     999902    2    1    2    0    0 -0.47316957582E-02 -0.22003940920E-01 -0.12454400404E-01  0.10182069665E+01  0.10178819933E+01 0.  0.
     999903    2    3    3    0    0 -0.91061275472E-01 -0.82072911979E-01  0.39625248841E-01  0.13041568055E+00  0.20247731149E-01 0.  0.
         14    1    1    2    0    0  0.47316957582E-02  0.22003940920E-01  0.12454400404E-01  0.25723033456E-01  0.00000000000E+00 0. -1.
     999901    1    3    3    0    0  0.86329579714E-01  0.60068971059E-01 -0.52079649245E-01  0.88779128599E+00  0.88000000000E+00 0.  1.
        -11    1    4    4    0    0 -0.50604622856E-01 -0.35812340053E-01  0.12530742613E-01  0.63250550874E-01  0.51100000000E-03 0.  1.
         11    1    4    4    0    0 -0.40456652616E-01 -0.46260571927E-01  0.27094506227E-01  0.67165129678E-01  0.51100000000E-03 0. -1.
</event>
<event>
 8    1  0.1208168E+005  0.1043930E+01  0.7957747E-01            NaN
         13   -1    0    0    0    0  0.00000000000E+00  0.00000000000E+00  0.74505805969E-08  0.10566000000E+00  0.10566000000E+00 0. -1.
     999900   -1    0    0    0    0 -0.00000000000E+00 -0.00000000000E+00 -0.74505805969E-08  0.93827000000E+00  0.93827000000E+00 0. -1.
     999902    2    1    2    0    0  0.18928069692E-01  0.50467000164E-02 -0.12066645556E-01  0.10209225026E+01  0.10206632213E+01 0.  0.
     999903    2    3    3    0    0  0.87413669273E-01 -0.97170182645E-01 -0.48336030094E-03  0.13228717750E+00  0.20407589836E-01 0.  0.
         14    1    1    2    0    0 -0.18928069692E-01 -0.50467000164E-02  0.12066645556E-01  0.23007497437E-01  0.00000000000E+00 0. -1.
     999901    1    3    3    0    0 -0.68485599581E-01  0.10221688266E+00 -0.11583285255E-01  0.88863532506E+00  0.88000000000E+00 0. -1.
        -11    1    4    4    0    0  0.11622777366E-01 -0.25146609423E-01  0.90383805814E-03  0.27722174579E-01  0.51100000000E-03 0.  1.
         11    1    4    4    0    0  0.75790891907E-01 -0.72023573223E-01 -0.13871983591E-02  0.10456500292E+00  0.51100000000E-03 0. -1.
</event>
<event>
 8    1  0.1208168E+005  0.1043930E+01  0.7957747E-01            NaN
         13   -1    0    0    0    0  0.00000000000E+00  0.00000000000E+00  0.74505805969E-08  0.10566000000E+00  0.10566000000E+00 0. -1.
     999900   -1    0    0    0    0 -0.00000000000E+00 -0.00000000000E+00 -0.74505805969E-08  0.93827000000E+00  0.93827000000E+00 0.  1.
     999902    2    1    2    0    0 -0.17141029244E-01  0.99343789604E-02  0.11264883115E-01  0.10211395555E+01  0.10208851980E+01 0.  0.
     999903    2    3    3    0    0  0.11136323031E+00  0.63344629569E-01  0.13343666466E-01  0.13020166713E+00  0.18976552038E-01 0.  0.
         14    1    1    2    0    0  0.17141029244E-01 -0.99343789604E-02 -0.11264883115E-01  0.22790444499E-01  0.00000000000E+00 0.  1.
     999901    1    3    3    0    0 -0.12850425956E+00 -0.53410250609E-01 -0.20787833510E-02  0.89093788837E+00  0.88000000000E+00 0. -1.
        -11    1    4    4    0    0  0.49453960792E-01  0.18441093647E-01  0.94458337161E-02  0.53621386298E-01  0.51100000000E-03 0.  1.
         11    1    4    4    0    0  0.61909269522E-01  0.44903535923E-01  0.38978327503E-02  0.76580280832E-01  0.51100000000E-03 0. -1.
</event>
<event>
 8    1  0.1208168E+005  0.1043930E+01  0.7957747E-01            NaN
         13   -1    0    0    0    0  0.00000000000E+00  0.00000000000E+00  0.74505805969E-08  0.10566000000E+00  0.10566000000E+00 0.  1.
     999900   -1    0    0    0    0 -0.00000000000E+00 -0.00000000000E+00 -0.74505805969E-08  0.93827000000E+00  0.93827000000E+00 0. -1.
     999902    2    1    2    0    0 -0.15507593635E-01 -0.76105680896E-02 -0.16238743480E-01  0.10202212886E+01  0.10199457705E+01 0.  0.
     999903    2    3    3    0    0  0.11022464185E+00  0.42952361321E-01 -0.47331974386E-01  0.12930490986E+00  0.22024234423E-01 0.  0.
         14    1    1    2    0    0  0.15507593635E-01  0.76105680896E-02  0.16238743480E-01  0.23708711411E-01  0.00000000000E+00 0.  1.
     999901    1    3    3    0    0 -0.12573223548E+00 -0.50562929410E-01  0.31093230906E-01  0.89091637872E+00  0.88000000000E+00 0.  1.
        -11    1    4    4    0    0  0.69206670801E-01  0.16107008599E-01 -0.32067848026E-01  0.77959008507E-01  0.51100000000E-03 0. -1.
         11    1    4    4    0    0  0.41017971049E-01  0.26845352722E-01 -0.15264126360E-01  0.51345901358E-01  0.51100000000E-03 0.  1.
</event>
<event>
 8    1  0.1208168E+005  0.1043930E+01  0.7957747E-01            NaN
         13   -1    0    0    0    0  0.00000000000E+00  0.00000000000E+00  0.74505805969E-08  0.10566000000E+00  0.10566000000E+00 0.  1.
     999900   -1    0    0    0    0 -0.00000000000E+00 -0.00000000000E+00 -0.74505805969E-08  0.93827000000E+00  0.93827000000E+00 0. -1.
     999902    2    1    2    0    0 -0.10969715693E-01 -0.18625340674E-01 -0.10097322656E-01  0.10200722151E+01  0.10197931800E+01 0.  0.
     999903    2    3    3    0    0 -0.72516215861E-01 -0.68591534203E-01  0.83370254354E-01  0.13157866971E+00  0.19973654734E-01 0.  0.
         14    1    1    2    0    0  0.10969715693E-01  0.18625340674E-01  0.10097322656E-01  0.23857784944E-01  0.00000000000E+00 0. -1.
     999901    1    3    3    0    0  0.61546500168E-01  0.49966193529E-01 -0.93467577010E-01  0.88849354535E+00  0.88000000000E+00 0. -1.
        -11    1    4    4    0    0 -0.35370434722E-01 -0.28322511414E-01  0.49766629325E-01  0.67306840816E-01  0.51100000000E-03 0. -1.
         11    1    4    4    0    0 -0.37145781138E-01 -0.40269022789E-01  0.33603625029E-01  0.64271828890E-01  0.51100000000E-03 0.  1.
</event>
<event>
 8    1  0.1208168E+005  0.1043930E+01  0.7957747E-01            NaN
         13   -1    0    0    0    0  0.00000000000E+00  0.00000000000E+00  0.74505805969E-08  0.10566000000E+00  0.10566000000E+00 0. -1.
     999900   -1    0    0    0    0 -0.00000000000E+00 -0.00000000000E+00 -0.74505805969E-08  0.93827000000E+00  0.93827000000E+00 0.  1.
     999902    2    1    2    0    0 -0.21987125763E-01 -0.12594194937E-02 -0.72306855771E-02  0.10207502103E+01  0.10204869863E+01 0.  0.
     999903    2    3    3    0    0  0.55225628794E-01  0.30602720311E-01 -0.11244769895E+00  0.13055493659E+00  0.20339859944E-01 0.  0.
         14    1    1    2    0    0  0.21987125763E-01  0.12594194937E-02  0.72306855771E-02  0.23179789704E-01  0.00000000000E+00 0.  1.
     999901    1    3    3    0    0 -0.77212754557E-01 -0.31862139805E-01  0.10521701338E+00  0.89019527370E+00  0.88000000000E+00 0. -1.
        -11    1    4    4    0    0  0.15704153529E-01  0.15836860559E-01 -0.54368558156E-01  0.58767574626E-01  0.51100000000E-03 0.  1.
         11    1    4    4    0    0  0.39521475265E-01  0.14765859752E-01 -0.58079140799E-01  0.71787361968E-01  0.51100000000E-03 0. -1.
</event>
<event>
 8    1  0.1208168E+005  0.1043930E+01  0.7957747E-01            NaN
         13   -1    0    0    0    0  0.00000000000E+00  0.00000000000E+00  0.74505805969E-08  0.10566000000E+00  0.10566000000E+00 0.  1.
     999900   -1    0    0    0    0 -0.00000000000E+00 -0.00000000000E+00 -0.74505805969E-08  0.93827000000E+00  0.93827000000E+00 0.  1.
     999902    2    1    2    0    0 -0.90265299523E-02 -0.53682445475E-02  0.21231363150E-01  0.10202431456E+01  0.10199681412E+01 0.  0.
     999903    2    3    3    0    0  0.14190699118E-01  0.12170555513E+00  0.39941711445E-01  0.13061576995E+00  0.21249022429E-01 0.  0.
         14    1    1    2    0    0  0.90265299523E-02  0.53682445475E-02 -0.21231363150E-01  0.23686854450E-01  0.00000000000E+00 0. -1.
     999901    1    3    3    0    0 -0.23217229070E-01 -0.12707379968E+00 -0.18710348295E-01  0.88962737560E+00  0.88000000000E+00 0. -1.
        -11    1    4    4    0    0  0.84916607140E-03  0.49108977234E-01  0.25715322442E-01  0.55443229139E-01  0.51100000000E-03 0.  1.
         11    1    4    4    0    0  0.13341533047E-01  0.72596577898E-01  0.14226389003E-01  0.75172540808E-01  0.51100000000E-03 0. -1.
</event>
<event>
 8    1  0.1208168E+005  0.1043930E+01  0.7957747E-01            NaN
         13   -1    0    0    0    0  0.00000000000E+00  0.00000000000E+00  0.74505805969E-08  0.10566000000E+00  0.10566000000E+00 0. -1.
     999900   -1    0    0    0    0 -0.00000000000E+00 -0.00000000000E+00 -0.74505805969E-08  0.93827000000E+00  0.93827000000E+00 0.  1.
     999902    2    1    2    0    0  0.27499771687E-02 -0.23528170944E-01  0.19108653512E-02  0.10201647184E+01  0.10198878684E+01 0.  0.
     999903    2    3    3    0    0  0.54702975239E-01 -0.11578042529E+00 -0.30193827458E-01  0.13323726719E+00  0.21047084594E-01 0.  0.
         14    1    1    2    0    0 -0.27499771687E-02  0.23528170944E-01 -0.19108653512E-02  0.23765281585E-01  0.00000000000E+00 0.  1.
     999901    1    3    3    0    0 -0.51952998071E-01  0.92252254349E-01  0.32104692809E-01  0.88692745123E+00  0.88000000000E+00 0.  1.
        -11    1    4    4    0    0  0.43344472616E-02 -0.23993041205E-01 -0.43815255444E-03  0.24390706386E-01  0.51100000000E-03 0.  1.
         11    1    4    4    0    0  0.50368527978E-01 -0.91787384088E-01 -0.29755674904E-01  0.10884656080E+00  0.51100000000E-03 0. -1.
</event>
<event>
 8    1  0.1208168E+005  0.1043930E+01  0.7957747E-01            NaN
         13   -1    0    0    0    0  0.00000000000E+00  0.00000000000E+00  0.74505805969E-08  0.10566000000E+00  0.10566000000E+00 0.  1.
     999900   -1    0    0    0    0 -0.00000000000E+00 -0.00000000000E+00 -0.74505805969E-08  0.93827000000E+00  0.93827000000E+00 0.  1.
     999902    2    1    2    0    0 -0.17439413010E-01  0.11309372716E-01 -0.80417790770E-02  0.10216431149E+01  0.10213999946E+01 0.  0.
     999903    2    3    3    0    0 -0.49193903964E-01  0.11426850646E-01  0.12017969173E+00  0.13178407713E+00  0.19320237549E-01 0.  0.
         14    1    1    2    0    0  0.17439413010E-01 -0.11309372716E-01  0.80417790770E-02  0.22286885114E-01  0.00000000000E+00 0. -1.
     999901    1    3    3    0    0  0.31754490953E-01 -0.11747793005E-03 -0.12822147080E+00  0.88985903775E+00  0.88000000000E+00 0.  1.
        -11    1    4    4    0    0 -0.21742915813E-01  0.12815810614E-01  0.43099499847E-01  0.49948247195E-01  0.51100000000E-03 0.  1.
         11    1    4    4    0    0 -0.27450988150E-01 -0.13889599677E-02  0.77080191880E-01  0.81835829937E-01  0.51100000000E-03 0. -1.
</event>
<event>
 8    1  0.1208168E+005  0.1043930E+01  0.7957747E-01            NaN
         13   -1    0    0    0    0  0.00000000000E+00  0.00000000000E+00  0.74505805969E-08  0.10566000000E+00  0.10566000000E+00 0. -1.
     999900   -1    0    0    0    0 -0.00000000000E+00 -0.00000000000E+00 -0.74505805969E-08  0.93827000000E+00  0.93827000000E+00 0. -1.
     999902    2    1    2    0    0  0.51894470924E-02  0.23008843990E-01 -0.40678511395E-02  0.10199949906E+01  0.10197141247E+01 0.  0.
     999903    2    3    3    0    0  0.29463844931E-01  0.28946068746E-01  0.12242949264E+00  0.13059852387E+00  0.19000018812E-01 0.  0.
         14    1    1    2    0    0 -0.51894470924E-02 -0.23008843990E-01  0.40678511395E-02  0.23935009417E-01  0.00000000000E+00 0.  1.
     999901    1    3    3    0    0 -0.24274397839E-01 -0.59372247557E-02 -0.12649734378E+00  0.88939646672E+00  0.88000000000E+00 0. -1.
        -11    1    4    4    0    0  0.14771073392E-01  0.35344512329E-02  0.30178774814E-01  0.33789000059E-01  0.51100000000E-03 0. -1.
         11    1    4    4    0    0  0.14692771539E-01  0.25411617513E-01  0.92250717821E-01  0.96809523806E-01  0.51100000000E-03 0.  1.
</event>
<event>
 8    1  0.1208168E+005  0.1043930E+01  0.7957747E-01            NaN
         13   -1    0    0    0    0  0.00000000000E+00  0.00000000000E+00  0.74505805969E-08  0.10566000000E+00  0.10566000000E+00 0.  1.
     999900   -1    0    0    0    0 -0.00000000000E+00 -0.00000000000E+00 -0.74505805969E-08  0.93827000000E+00  0.93827000000E+00 0. -1.
     999902    2    1    2    0    0  0.20682095215E-01  0.11491240906E-01 -0.20973550657E-02  0.10201771775E+01  0.10199006211E+01 0.  0.
     999903    2    3    3    0    0 -0.40466301622E-01  0.10415404374E+00  0.65164864453E-01  0.13065498683E+00  0.18403250476E-01 0.  0.
         14    1    1    2    0    0 -0.20682095215E-01 -0.11491240906E-01  0.20973550657E-02  0.23752822534E-01  0.00000000000E+00 0. -1.
     999901    1    3    3    0    0  0.61148396838E-01 -0.92662802838E-01 -0.67262219519E-01  0.88952219064E+00  0.88000000000E+00 0. -1.
        -11    1    4    4    0    0 -0.38229056319E-01  0.78615643793E-01  0.53444973946E-01  0.10246222015E+00  0.51100000000E-03 0.  1.
         11    1    4    4    0    0 -0.22372453031E-02  0.25538399951E-01  0.11719890507E-01  0.28192766681E-01  0.51100000000E-03 0. -1.
</event>
<event>
 8    1  0.1208168E+005  0.1043930E+01  0.7957747E-01            NaN
         13   -1    0    0    0    0  0.00000000000E+00  0.00000000000E+00  0.74505805969E-08  0.10566000000E+00  0.10566000000E+00 0.  1.
     999900   -1    0    0    0    0 -0.00000000000E+00 -0.00000000000E+00 -0.74505805969E-08  0.93827000000E+00  0.93827000000E+00 0.  1.
     999902    2    1    2    0    0  0.65647991624E-03  0.19852862542E-01  0.13172062615E-01  0.10200957735E+01  0.10198172958E+01 0.  0.
     999903    2    3    3    0    0 -0.12501470708E+00  0.18308456900E-01  0.28283340521E-01  0.13103785465E+00  0.20176605761E-01 0.  0.
         14    1    1    2    0    0 -0.65647991624E-03 -0.19852862542E-01 -0.13172062615E-01  0.23834226451E-01  0.00000000000E+00 0.  1.
     999901    1    3    3    0    0  0.12567118700E+00  0.15444056423E-02 -0.15111277906E-01  0.88905791890E+00  0.88000000000E+00 0. -1.
        -11    1    4    4    0    0 -0.47816879775E-01  0.16931756662E-01  0.11958902738E-01  0.52119236859E-01  0.51100000000E-03 0.  1.
         11    1    4    4    0    0 -0.77197827308E-01  0.13767002375E-02  0.16324437782E-01  0.78918617794E-01  0.51100000000E-03 0. -1.
</event>
<event>
 8    1  0.1208168E+005  0.1043930E+01  0.7957747E-01            NaN
         13   -1    0    0    0    0  0.00000000000E+00  0.00000000000E+00  0.74505805969E-08  0.10566000000E+00  0.10566000000E+00 0. -1.
     999900   -1    0    0    0    0 -0.00000000000E+00 -0.00000000000E+00 -0.74505805969E-08  0.93827000000E+00  0.93827000000E+00 0.  1.
     999902    2    1    2    0    0 -0.98018582273E-02 -0.18474689121E-01 -0.10444838807E-01  0.10205529767E+01  0.10202852018E+01 0.  0.
     999903    2    3    3    0    0 -0.50532488244E-01 -0.10451991000E+00  0.60482800062E-01  0.13258141505E+00  0.21017101618E-01 0.  0.
         14    1    1    2    0    0  0.98018582273E-02  0.18474689121E-01  0.10444838807E-01  0.23377023346E-01  0.00000000000E+00 0. -1.
     999901    1    3    3    0    0  0.40730630017E-01  0.86045220874E-01 -0.70927638869E-01  0.88797156160E+00  0.88000000000E+00 0.  1.
        -11    1    4    4    0    0  0.64336860280E-03 -0.11698366090E-02  0.38341442338E-02  0.40919706568E-02  0.51100000000E-03 0.  1.
         11    1    4    4    0    0 -0.51175856847E-01 -0.10335007339E+00  0.56648655829E-01  0.12848944440E+00  0.51100000000E-03 0. -1.
</event>
<event>
 8    1  0.1615799E+005  0.1043930E+01  0.7957747E-01            NaN
         13   -1    0    0    0    0  0.00000000000E+00  0.00000000000E+00  0.74505805969E-08  0.10566000000E+00  0.10566000000E+00 0.  1.
     999900   -1    0    0    0    0 -0.00000000000E+00 -0.00000000000E+00 -0.74505805969E-08  0.93827000000E+00  0.93827000000E+00 0.  1.
     999902    2    1    2    0    0 -0.14234750784E-01  0.14892557936E-01 -0.10148429957E-01  0.10209646556E+01  0.10207063344E+01 0.  0.
     999903    2    3    3    0    0 -0.71657914944E-01  0.48624917647E-01  0.97585595516E-01  0.13189665366E+00  0.19353020532E-01 0.  0.
         14    1    1    2    0    0  0.14234750784E-01 -0.14892557936E-01  0.10148429957E-01  0.22965344377E-01  0.00000000000E+00 0. -1.
     999901    1    3    3    0    0  0.57423164160E-01 -0.33732359711E-01 -0.10773402547E+00  0.88906800197E+00  0.88000000000E+00 0.  1.
        -11    1    4    4    0    0 -0.27462516617E-01  0.30024450759E-01  0.41869505400E-01  0.58386420217E-01  0.51100000000E-03 0.  1.
         11    1    4    4    0    0 -0.44195398327E-01  0.18600466888E-01  0.55716090116E-01  0.73510233441E-01  0.51100000000E-03 0. -1.
</event>
<event>
 8    1  0.1208168E+005  0.1043930E+01  0.7957747E-01            NaN
         13   -1    0    0    0    0  0.00000000000E+00  0.00000000000E+00  0.74505805969E-08  0.10566000000E+00  0.10566000000E+00 0.  1.
     999900   -1    0    0    0    0 -0.00000000000E+00 -0.00000000000E+00 -0.74505805969E-08  0.93827000000E+00  0.93827000000E+00 0. -1.
     999902    2    1    2    0    0 -0.15561010029E-02  0.22586417212E-01  0.10886342995E-01  0.10188086912E+01  0.10184989293E+01 0.  0.
     999903    2    3    3    0    0 -0.49763057183E-01 -0.80139176972E-01 -0.82038788992E-01  0.12666994722E+00  0.20402526408E-01 0.  0.
         14    1    1    2    0    0  0.15561010029E-02 -0.22586417212E-01 -0.10886342995E-01  0.25121308815E-01  0.00000000000E+00 0. -1.
     999901    1    3    3    0    0  0.48206956181E-01  0.10272559418E+00  0.92925131987E-01  0.89213874396E+00  0.88000000000E+00 0.  1.
        -11    1    4    4    0    0 -0.16844966437E-01 -0.41153730470E-01 -0.29116218413E-01  0.53154470381E-01  0.51100000000E-03 0.  1.
         11    1    4    4    0    0 -0.32918090747E-01 -0.38985446503E-01 -0.52922570579E-01  0.73515476841E-01  0.51100000000E-03 0. -1.
</event>
<event>
 8    1  0.1208168E+005  0.1043930E+01  0.7957747E-01            NaN
         13   -1    0    0    0    0  0.00000000000E+00  0.00000000000E+00  0.74505805969E-08  0.10566000000E+00  0.10566000000E+00 0. -1.
     999900   -1    0    0    0    0 -0.00000000000E+00 -0.00000000000E+00 -0.74505805969E-08  0.93827000000E+00  0.93827000000E+00 0. -1.
     999902    2    1    2    0    0 -0.20019369965E-01  0.10147931801E-01 -0.45678684909E-02  0.10210253909E+01  0.10207684497E+01 0.  0.
     999903    2    3    3    0    0  0.11777908022E+00  0.32582521665E-01 -0.37633563772E-01  0.12940604172E+00  0.19902413352E-01 0.  0.
         14    1    1    2    0    0  0.20019369965E-01 -0.10147931801E-01  0.45678684909E-02  0.22904609060E-01  0.00000000000E+00 0. -1.
     999901    1    3    3    0    0 -0.13779845018E+00 -0.22434589864E-01  0.33065695281E-01  0.89161934922E+00  0.88000000000E+00 0.  1.
        -11    1    4    4    0    0  0.11226434688E+00  0.28338461545E-01 -0.31203988187E-01  0.11991789684E+00  0.51100000000E-03 0. -1.
         11    1    4    4    0    0  0.55147333379E-02  0.42440601200E-02 -0.64295755848E-02  0.94881448815E-02  0.51100000000E-03 0.  1.
</event>
<event>
 8    1  0.1208168E+005  0.1043930E+01  0.7957747E-01            NaN
         13   -1    0    0    0    0  0.00000000000E+00  0.00000000000E+00  0.74505805969E-08  0.10566000000E+00  0.10566000000E+00 0.  1.
     999900   -1    0    0    0    0 -0.00000000000E+00 -0.00000000000E+00 -0.74505805969E-08  0.93827000000E+00  0.93827000000E+00 0. -1.
     999902    2    1    2    0    0  0.68865716453E-02  0.11427524344E-01  0.19890997742E-01  0.10199786958E+01  0.10196974428E+01 0.  0.
     999903    2    3    3    0    0 -0.59672741184E-01 -0.87223644829E-01  0.73688433233E-01  0.13034036515E+00  0.19743994948E-01 0.  0.
         14    1    1    2    0    0 -0.68865716453E-02 -0.11427524344E-01 -0.19890997742E-01  0.23951304199E-01  0.00000000000E+00 0. -1.
     999901    1    3    3    0    0  0.66559312830E-01  0.98651169173E-01 -0.53797435491E-01  0.88963833065E+00  0.88000000000E+00 0.  1.
        -11    1    4    4    0    0 -0.16802512178E-02 -0.73578381652E-02  0.11219862878E-01  0.13531720904E-01  0.51100000000E-03 0. -1.
         11    1    4    4    0    0 -0.57992489967E-01 -0.79865806664E-01  0.62468570355E-01  0.11680864424E+00  0.51100000000E-03 0.  1.
</event>
<event>
 8    1  0.1208168E+005  0.1043930E+01  0.7957747E-01            NaN
         13   -1    0    0    0    0  0.00000000000E+00  0.00000000000E+00  0.74505805969E-08  0.10566000000E+00  0.10566000000E+00 0.  1.
     999900   -1    0    0    0    0 -0.00000000000E+00 -0.00000000000E+00 -0.74505805969E-08  0.93827000000E+00  0.93827000000E+00 0.  1.
     999902    2    1    2    0    0  0.62350439399E-02 -0.22134477116E-01 -0.20869646001E-02  0.10208396065E+01  0.10205784320E+01 0.  0.
     999903    2    3    3    0    0  0.52692646480E-04  0.97381577718E-01  0.79074299536E-01  0.12903836205E+00  0.30248629360E-01 0.  0.
         14    1    1    2    0    0 -0.62350439399E-02  0.22134477116E-01  0.20869646001E-02  0.23090393486E-01  0.00000000000E+00 0. -1.
     999901    1    3    3    0    0  0.61823512934E-02 -0.11951605483E+00 -0.81161264136E-01  0.89180124446E+00  0.88000000000E+00 0. -1.
        -11    1    4    4    0    0 -0.89086019976E-02  0.74739274995E-01  0.70742781515E-01  0.10329629555E+00  0.51100000000E-03 0.  1.
         11    1    4    4    0    0  0.89612946441E-02  0.22642302723E-01  0.83315180205E-02  0.25742066503E-01  0.51100000000E-03 0. -1.
</event>
<event>
 8    1  0.1208168E+005  0.1043930E+01  0.7957747E-01            NaN
         13   -1    0    0    0    0  0.00000000000E+00  0.00000000000E+00  0.74505805969E-08  0.10566000000E+00  0.10566000000E+00 0.  1.
     999900   -1    0    0    0    0 -0.00000000000E+00 -0.00000000000E+00 -0.74505805969E-08  0.93827000000E+00  0.93827000000E+00 0. -1.
     999902    2    1    2    0    0 -0.21611507634E-01 -0.10268758158E-01  0.33112252787E-02  0.10197748997E+01  0.10194887823E+01 0.  0.
     999903    2    3    3    0    0 -0.11868024470E+00 -0.54256624342E-01  0.18375796865E-01  0.13321739262E+00  0.19504410275E-01 0.  0.
         14    1    1    2    0    0  0.21611507634E-01  0.10268758158E-01 -0.33112252787E-02  0.24155100272E-01  0.00000000000E+00 0.  1.
     999901    1    3    3    0    0  0.97068737065E-01  0.43987866184E-01 -0.15064571586E-01  0.88655750710E+00  0.88000000000E+00 0.  1.
        -11    1    4    4    0    0 -0.56404939771E-01 -0.32835815381E-01  0.16548542709E-01  0.67333672030E-01  0.51100000000E-03 0.  1.
         11    1    4    4    0    0 -0.62275304928E-01 -0.21420808961E-01  0.18272541553E-02  0.65883720593E-01  0.51100000000E-03 0. -1.
</event>
<event>
 8    1  0.1208168E+005  0.1043930E+01  0.7957747E-01            NaN
         13   -1    0    0    0    0  0.00000000000E+00  0.00000000000E+00  0.74505805969E-08  0.10566000000E+00  0.10566000000E+00 0. -1.
     999900   -1    0    0    0    0 -0.00000000000E+00 -0.00000000000E+00 -0.74505805969E-08  0.93827000000E+00  0.93827000000E+00 0.  1.
     999902    2    1    2    0    0 -0.95937287438E-02 -0.15013521366E-02  0.20637510166E-01  0.10211220953E+01  0.10208673435E+01 0.  0.
     999903    2    3    3    0    0 -0.13889487497E-01 -0.12939199879E+00  0.45347688760E-02  0.13172130305E+00  0.19867821568E-01 0.  0.
         14    1    1    2    0    0  0.95937287438E-02  0.15013521366E-02 -0.20637510166E-01  0.22807904667E-01  0.00000000000E+00 0.  1.
     999901    1    3    3    0    0  0.42957587527E-02  0.12789064665E+00  0.16102741290E-01  0.88940079229E+00  0.88000000000E+00 0.  1.
        -11    1    4    4    0    0 -0.15009546831E-01 -0.77869065436E-01 -0.43505577202E-02  0.79423336126E-01  0.51100000000E-03 0.  1.
         11    1    4    4    0    0  0.11200593349E-02 -0.51522933353E-01  0.88853265961E-02  0.52297966920E-01  0.51100000000E-03 0. -1.
</event>
<event>
 8    1  0.1208168E+005  0.1043930E+01  0.7957747E-01            NaN
         13   -1    0    0    0    0  0.00000000000E+00  0.00000000000E+00  0.74505805969E-08  0.10566000000E+00  0.10566000000E+00 0. -1.
     999900   -1    0    0    0    0 -0.00000000000E+00 -0.00000000000E+00 -0.74505805969E-08  0.93827000000E+00  0.93827000000E+00 0. -1.
     999902    2    1    2    0    0  0.14583952618E-01  0.15600927145E-01 -0.98580175111E-02  0.10204084968E+01  0.10201373630E+01 0.  0.
     999903    2    3    3    0    0  0.12255137339E+00 -0.26785485529E-01 -0.37621570689E-01  0.13236323515E+00  0.19192240177E-01 0.  0.
         14    1    1    2    0    0 -0.14583952618E-01 -0.15600927145E-01  0.98580175111E-02  0.23521503162E-01  0.00000000000E+00 0. -1.
     999901    1    3    3    0    0 -0.10796742077E+00  0.42386412674E-01  0.27763553178E-01  0.88804526169E+00  0.88000000000E+00 0.  1.
        -11    1    4    4    0    0  0.74848321230E-01 -0.20476744431E-01 -0.14372644745E-01  0.78920227390E-01  0.51100000000E-03 0. -1.
         11    1    4    4    0    0  0.47703052159E-01 -0.63087410976E-02 -0.23248925944E-01  0.53443007756E-01  0.51100000000E-03 0.  1.
</event>
<event>
 8    1  0.1208168E+005  0.1043930E+01  0.7957747E-01            NaN
         13   -1    0    0    0    0  0.00000000000E+00  0.00000000000E+00  0.74505805969E-08  0.10566000000E+00  0.10566000000E+00 0.  1.
     999900   -1    0    0    0    0 -0.00000000000E+00 -0.00000000000E+00 -0.74505805969E-08  0.93827000000E+00  0.93827000000E+00 0.  1.
     999902    2    1    2    0    0  0.11771849139E-01 -0.12968942833E-01 -0.16942654134E-01  0.10195615072E+01  0.10192702505E+01 0.  0.
     999903    2    3    3    0    0 -0.39438685434E-01  0.64864062309E-01 -0.10408134590E+00  0.13036319013E+00  0.19971937532E-01 0.  0.
         14    1    1    2    0    0 -0.11771849139E-01  0.12968942833E-01  0.16942654134E-01  0.24368492761E-01  0.00000000000E+00 0.  1.
     999901    1    3    3    0    0  0.51210534572E-01 -0.77833005142E-01  0.87138691768E-01  0.88919831711E+00  0.88000000000E+00 0. -1.
        -11    1    4    4    0    0 -0.28993929424E-01  0.32484081922E-01 -0.48373658059E-01  0.65085600840E-01  0.51100000000E-03 0.  1.
         11    1    4    4    0    0 -0.10444756010E-01  0.32379980388E-01 -0.55707687843E-01  0.65277589293E-01  0.51100000000E-03 0. -1.
</event>
<event>
 8    1  0.1208168E+005  0.1043930E+01  0.7957747E-01            NaN
         13   -1    0    0    0    0  0.00000000000E+00  0.00000000000E+00  0.74505805969E-08  0.10566000000E+00  0.10566000000E+00 0. -1.
     999900   -1    0    0    0    0 -0.00000000000E+00 -0.00000000000E+00 -0.74505805969E-08  0.93827000000E+00  0.93827000000E+00 0.  1.
     999902    2    1    2    0    0 -0.14649137911E-01 -0.10428251320E-01  0.14147512733E-01  0.10210499261E+01  0.10207935412E+01 0.  0.
     999903    2    3    3    0    0 -0.11553927824E-01 -0.10745950546E+00  0.75665844024E-01  0.13357646184E+00  0.20888098161E-01 0.  0.
         14    1    1    2    0    0  0.14649137911E-01  0.10428251320E-01 -0.14147512733E-01  0.22880073943E-01  0.00000000000E+00 0.  1.
     999901    1    3    3    0    0 -0.30952100874E-02  0.97031254136E-01 -0.61518331291E-01  0.88747346422E+00  0.88000000000E+00 0.  1.
        -11    1    4    4    0    0 -0.55174505182E-02 -0.21832814217E-01  0.68094122645E-02  0.23531749898E-01  0.51100000000E-03 0. -1.
         11    1    4    4    0    0 -0.60364773053E-02 -0.85626691239E-01  0.68856431760E-01  0.11004471194E+00  0.51100000000E-03 0.  1.
</event>
<event>
 8    1  0.1208168E+005  0.1043930E+01  0.7957747E-01            NaN
         13   -1    0    0    0    0  0.00000000000E+00  0.00000000000E+00  0.74505805969E-08  0.10566000000E+00  0.10566000000E+00 0. -1.
     999900   -1    0    0    0    0 -0.00000000000E+00 -0.00000000000E+00 -0.74505805969E-08  0.93827000000E+00  0.93827000000E+00 0. -1.
     999902    2    1    2    0    0  0.53879610855E-02  0.16207296113E-01 -0.94107652724E-02  0.10244295109E+01  0.10242438937E+01 0.  0.
     999903    2    3    3    0    0 -0.64311609048E-01  0.84604306424E-01  0.80009046036E-01  0.13452385088E+00  0.20033653761E-01 0.  0.
         14    1    1    2    0    0 -0.53879610855E-02 -0.16207296113E-01  0.94107652724E-02  0.19500489096E-01  0.00000000000E+00 0.  1.
     999901    1    3    3    0    0  0.69699570134E-01 -0.68397010311E-01 -0.89419811308E-01  0.88990566003E+00  0.88000000000E+00 0. -1.
        -11    1    4    4    0    0 -0.23202440193E-01  0.44625172869E-01  0.43851453482E-01  0.66730580531E-01  0.51100000000E-03 0. -1.
         11    1    4    4    0    0 -0.41109168855E-01  0.39979133555E-01  0.36157592554E-01  0.67793270345E-01  0.51100000000E-03 0.  1.
</event>
<event>
 8    1  0.1208168E+005  0.1043930E+01  0.7957747E-01            NaN
         13   -1    0    0    0    0  0.00000000000E+00  0.00000000000E+00  0.74505805969E-08  0.10566000000E+00  0.10566000000E+00 0.  1.
     999900   -1    0    0    0    0 -0.00000000000E+00 -0.00000000000E+00 -0.74505805969E-08  0.93827000000E+00  0.93827000000E+00 0. -1.
     999902    2    1    2    0    0  0.30365020850E-02  0.11765577271E-01 -0.21921137868E-01  0.10188663722E+01  0.10185580489E+01 0.  0.
     999903    2    3    3    0    0 -0.37847110682E-01  0.10519387452E+00  0.61840929970E-01  0.12902571200E+00  0.18032712332E-01 0.  0.
         14    1    1    2    0    0 -0.30365020850E-02 -0.11765577271E-01  0.21921137868E-01  0.25063627807E-01  0.00000000000E+00 0.  1.
     999901    1    3    3    0    0  0.40883612767E-01 -0.93428297251E-01 -0.83762067837E-01  0.88984066019E+00  0.88000000000E+00 0. -1.
        -11    1    4    4    0    0 -0.25096416251E-01  0.64430957113E-01  0.47808931877E-01  0.84066244304E-01  0.51100000000E-03 0. -1.
         11    1    4    4    0    0 -0.12750694431E-01  0.40762917410E-01  0.14031998093E-01  0.44959467698E-01  0.51100000000E-03 0.  1.
</event>
<event>
 8    1  0.1208168E+005  0.1043930E+01  0.7957747E-01            NaN
         13   -1    0    0    0    0  0.00000000000E+00  0.00000000000E+00  0.74505805969E-08  0.10566000000E+00  0.10566000000E+00 0. -1.
     999900   -1    0    0    0    0 -0.00000000000E+00 -0.00000000000E+00 -0.74505805969E-08  0.93827000000E+00  0.93827000000E+00 0.  1.
     999902    2    1    2    0    0  0.14271979034E-01  0.94804094907E-02  0.13918207041E-01  0.10218554890E+01  0.10216170302E+01 0.  0.
     999903    2    3    3    0    0  0.11398652817E+00  0.65823665707E-01 -0.14894514882E-01  0.13396601006E+00  0.19984036282E-01 0.  0.
         14    1    1    2    0    0 -0.14271979034E-01 -0.94804094907E-02 -0.13918207041E-01  0.22074511023E-01  0.00000000000E+00 0.  1.
     999901    1    3    3    0    0 -0.99714549135E-01 -0.56343256216E-01  0.28812721923E-01  0.88788947892E+00  0.88000000000E+00 0.  1.
        -11    1    4    4    0    0  0.20711329343E-01  0.21310122247E-01 -0.16451320436E-02  0.29766559320E-01  0.51100000000E-03 0. -1.
         11    1    4    4    0    0  0.93275198826E-01  0.44513543460E-01 -0.13249382839E-01  0.10419945074E+00  0.51100000000E-03 0.  1.
</event>
<event>
 8    1  0.1208168E+005  0.1043930E+01  0.7957747E-01            NaN
         13   -1    0    0    0    0  0.00000000000E+00  0.00000000000E+00  0.74505805969E-08  0.10566000000E+00  0.10566000000E+00 0. -1.
     999900   -1    0    0    0    0 -0.00000000000E+00 -0.00000000000E+00 -0.74505805969E-08  0.93827000000E+00  0.93827000000E+00 0.  1.
     999902    2    1    2    0    0  0.46574149652E-02 -0.21629560332E-01  0.86170252577E-02  0.10201858951E+01  0.10199095440E+01 0.  0.
     999903    2    3    3    0    0  0.12445361757E+00  0.29956659343E-01  0.15696444590E-01  0.13054417708E+00  0.20231150047E-01 0.  0.
         14    1    1    2    0    0 -0.46574149652E-02  0.21629560332E-01 -0.86170252577E-02  0.23744104923E-01  0.00000000000E+00 0.  1.
     999901    1    3    3    0    0 -0.11979620260E+00 -0.51586219675E-01 -0.70794193325E-02  0.88964171799E+00  0.88000000000E+00 0. -1.
        -11    1    4    4    0    0  0.87506814928E-01  0.25871406335E-01  0.19042903616E-01  0.93218375998E-01  0.51100000000E-03 0.  1.
         11    1    4    4    0    0  0.36946802641E-01  0.40852530075E-02 -0.33464590259E-02  0.37325801084E-01  0.51100000000E-03 0. -1.
</event>
<event>
 8    1  0.1208168E+005  0.1043930E+01  0.7957747E-01            NaN
         13   -1    0    0    0    0  0.00000000000E+00  0.00000000000E+00  0.74505805969E-08  0.10566000000E+00  0.10566000000E+00 0. -1.
     999900   -1    0    0    0    0 -0.00000000000E+00 -0.00000000000E+00 -0.74505805969E-08  0.93827000000E+00  0.93827000000E+00 0. -1.
     999902    2    1    2    0    0  0.20005704162E-01  0.15165007087E-03  0.11190632589E-01  0.10210066177E+01  0.10207492503E+01 0.  0.
     999903    2    3    3    0    0  0.35214646975E-01  0.12415946675E+00  0.22083339873E-01  0.13211522864E+00  0.17638457782E-01 0.  0.
         14    1    1    2    0    0 -0.20005704162E-01 -0.15165007087E-03 -0.11190632589E-01  0.22923382266E-01  0.00000000000E+00 0.  1.
     999901    1    3    3    0    0 -0.15208942813E-01 -0.12400781668E+00 -0.10892707284E-01  0.88889138910E+00  0.88000000000E+00 0. -1.
        -11    1    4    4    0    0  0.24006527598E-01  0.10754200710E+00  0.17936576265E-01  0.11164039837E+00  0.51100000000E-03 0.  1.
         11    1    4    4    0    0  0.11208119377E-01  0.16617459646E-01  0.41467636078E-02  0.20474830267E-01  0.51100000000E-03 0. -1.
</event>
<event>
 8    1  0.1208168E+005  0.1043930E+01  0.7957747E-01            NaN
         13   -1    0    0    0    0  0.00000000000E+00  0.00000000000E+00  0.74505805969E-08  0.10566000000E+00  0.10566000000E+00 0.  1.
     999900   -1    0    0    0    0 -0.00000000000E+00 -0.00000000000E+00 -0.74505805969E-08  0.93827000000E+00  0.93827000000E+00 0. -1.
     999902    2    1    2    0    0  0.47982816244E-02  0.16508433138E-01 -0.17674338283E-01  0.10192736802E+01  0.10189754173E+01 0.  0.
     999903    2    3    3    0    0 -0.10270578755E+00  0.96439641663E-02 -0.77750001629E-01  0.13067178334E+00  0.19712112141E-01 0.  0.
         14    1    1    2    0    0 -0.47982816244E-02 -0.16508433138E-01  0.17674338283E-01  0.24656319777E-01  0.00000000000E+00 0. -1.
     999901    1    3    3    0    0  0.10750406918E+00  0.68644689717E-02  0.60075663346E-01  0.88860189689E+00  0.88000000000E+00 0.  1.
        -11    1    4    4    0    0 -0.16575484125E-01  0.86049263856E-02 -0.10842258625E-01  0.21601090833E-01  0.51100000000E-03 0.  1.
         11    1    4    4    0    0 -0.86130303428E-01  0.10390377807E-02 -0.66907743004E-01  0.10907069250E+00  0.51100000000E-03 0. -1.
</event>
<event>
 8    1  0.1208168E+005  0.1043930E+01  0.7957747E-01            NaN
         13   -1    0    0    0    0  0.00000000000E+00  0.00000000000E+00  0.74505805969E-08  0.10566000000E+00  0.10566000000E+00 0. -1.
     999900   -1    0    0    0    0 -0.00000000000E+00 -0.00000000000E+00 -0.74505805969E-08  0.93827000000E+00  0.93827000000E+00 0. -1.
     999902    2    1    2    0    0  0.27178204148E-02 -0.82211095797E-02  0.22615738199E-01  0.10197133775E+01  0.10194257832E+01 0.  0.
     999903    2    3    3    0    0  0.67951139480E-01  0.76410494542E-01 -0.76131549827E-01  0.12776667438E+00  0.85081825540E-02 0.  0.
         14    1    1    2    0    0 -0.27178204148E-02  0.82211095797E-02 -0.22615738199E-01  0.24216622489E-01  0.00000000000E+00 0.  1.
     999901    1    3    3    0    0 -0.65233319065E-01 -0.84631604121E-01  0.98747288026E-01  0.89194670313E+00  0.88000000000E+00 0.  1.
        -11    1    4    4    0    0  0.31983652615E-01  0.36507816965E-01 -0.41381929150E-01  0.63784793762E-01  0.51100000000E-03 0.  1.
         11    1    4    4    0    0  0.35967486865E-01  0.39902677577E-01 -0.34749620677E-01  0.63981880618E-01  0.51100000000E-03 0. -1.
</event>
<event>
 8    1  0.1208168E+005  0.1043930E+01  0.7957747E-01            NaN
         13   -1    0    0    0    0  0.00000000000E+00  0.00000000000E+00  0.74505805969E-08  0.10566000000E+00  0.10566000000E+00 0. -1.
     999900   -1    0    0    0    0 -0.00000000000E+00 -0.00000000000E+00 -0.74505805969E-08  0.93827000000E+00  0.93827000000E+00 0. -1.
     999902    2    1    2    0    0  0.17203752882E-01  0.12176508446E-01  0.75321034991E-02  0.10215476620E+01  0.10213024315E+01 0.  0.
     999903    2    3    3    0    0  0.12201398740E+00 -0.29442879021E-01  0.41632076512E-01  0.13369622914E+00  0.19676271099E-01 0.  0.
         14    1    1    2    0    0 -0.17203752882E-01 -0.12176508446E-01 -0.75321034991E-02  0.22382337999E-01  0.00000000000E+00 0. -1.
     999901    1    3    3    0    0 -0.10481023452E+00  0.41619387467E-01 -0.34099973013E-01  0.88785143286E+00  0.88000000000E+00 0. -1.
        -11    1    4    4    0    0  0.51537298587E-01 -0.15059585695E-01  0.79884443699E-02  0.54285915589E-01  0.51100000000E-03 0.  1.
         11    1    4    4    0    0  0.70476688817E-01 -0.14383293327E-01  0.33643632143E-01  0.79410313551E-01  0.51100000000E-03 0. -1.
</event>
<event>
 8    1  0.1208168E+005  0.1043930E+01  0.7957747E-01            NaN
         13   -1    0    0    0    0  0.00000000000E+00  0.00000000000E+00  0.74505805969E-08  0.10566000000E+00  0.10566000000E+00 0.  1.
     999900   -1    0    0    0    0 -0.00000000000E+00 -0.00000000000E+00 -0.74505805969E-08  0.93827000000E+00  0.93827000000E+00 0.  1.
     999902    2    1    2    0    0 -0.21624172527E-01 -0.84120658902E-02 -0.38594063363E-02  0.10204084629E+01  0.10201373282E+01 0.  0.
     999903    2    3    3    0    0  0.67888183732E-01 -0.27017548294E-01  0.10437806348E+00  0.12907576645E+00  0.20664460839E-01 0.  0.
         14    1    1    2    0    0  0.21624172527E-01  0.84120658902E-02  0.38594063363E-02  0.23521537095E-01  0.00000000000E+00 0. -1.
     999901    1    3    3    0    0 -0.89512356259E-01  0.18605482404E-01 -0.10823746982E+00  0.89133269646E+00  0.88000000000E+00 0.  1.
        -11    1    4    4    0    0  0.41835608959E-01 -0.17561244137E-01  0.46870866630E-01  0.65236145903E-01  0.51100000000E-03 0. -1.
         11    1    4    4    0    0  0.26052574773E-01 -0.94563041568E-02  0.57507196853E-01  0.63839620546E-01  0.51100000000E-03 0.  1.
</event>
<event>
 8    1  0.1208168E+005  0.1043930E+01  0.7957747E-01            NaN
         13   -1    0    0    0    0  0.00000000000E+00  0.00000000000E+00  0.74505805969E-08  0.10566000000E+00  0.10566000000E+00 0. -1.
     999900   -1    0    0    0    0 -0.00000000000E+00 -0.00000000000E+00 -0.74505805969E-08  0.93827000000E+00  0.93827000000E+00 0.  1.
     999902    2    1    2    0    0  0.26829349336E-02 -0.27539014807E-01  0.12318409342E-01  0.10136424005E+01  0.10131898032E+01 0.  0.
     999903    2    3    3    0    0 -0.11936144685E+00 -0.31408300562E-01  0.95001353178E-02  0.12520683997E+00  0.18784671065E-01 0.  0.
         14    1    1    2    0    0 -0.26829349336E-02  0.27539014807E-01 -0.12318409342E-01  0.30287599528E-01  0.00000000000E+00 0. -1.
     999901    1    3    3    0    0  0.12204438178E+00  0.38692857546E-02  0.28182740244E-02  0.88843556050E+00  0.88000000000E+00 0. -1.
        -11    1    4    4    0    0 -0.97299545132E-01 -0.31727685844E-01  0.38052666438E-02  0.10241381112E+00  0.51100000000E-03 0.  1.
         11    1    4    4    0    0 -0.22061901714E-01  0.31938528169E-03  0.56948686739E-02  0.22793028855E-01  0.51100000000E-03 0. -1.
</event>
<event>
 8    1  0.1208168E+005  0.1043930E+01  0.7957747E-01            NaN
         13   -1    0    0    0    0  0.00000000000E+00  0.00000000000E+00  0.74505805969E-08  0.10566000000E+00  0.10566000000E+00 0. -1.
     999900   -1    0    0    0    0 -0.00000000000E+00 -0.00000000000E+00 -0.74505805969E-08  0.93827000000E+00  0.93827000000E+00 0.  1.
     999902    2    1    2    0    0 -0.41189375985E-02 -0.25192945983E-02  0.23077585214E-01  0.10203527349E+01  0.10200802989E+01 0.  0.
     999903    2    3    3    0    0  0.26330291258E-01  0.69252311720E-01  0.10819524859E+00  0.13281494094E+00  0.21081503845E-01 0.  0.
         14    1    1    2    0    0  0.41189375985E-02  0.25192945983E-02 -0.23077585214E-01  0.23577265141E-01  0.00000000000E+00 0.  1.
     999901    1    3    3    0    0 -0.30449228857E-01 -0.71771606319E-01 -0.85117663373E-01  0.88753779392E+00  0.88000000000E+00 0.  1.
        -11    1    4    4    0    0  0.49996291765E-02  0.29427595358E-01  0.28894291293E-01  0.41546610581E-01  0.51100000000E-03 0. -1.
         11    1    4    4    0    0  0.21330662081E-01  0.39824716362E-01  0.79300957294E-01  0.91268330361E-01  0.51100000000E-03 0.  1.
</event>
<event>
 8    1  0.1208168E+005  0.1043930E+01  0.7957747E-01            NaN
         13   -1    0    0    0    0  0.00000000000E+00  0.00000000000E+00  0.74505805969E-08  0.10566000000E+00  0.10566000000E+00 0.  1.
     999900   -1    0    0    0    0 -0.00000000000E+00 -0.00000000000E+00 -0.74505805969E-08  0.93827000000E+00  0.93827000000E+00 0. -1.
     999902    2    1    2    0    0  0.20992430819E-01  0.19100795986E-02  0.10104059907E-01  0.10205543164E+01  0.10202865726E+01 0.  0.
     999903    2    3    3    0    0  0.27993577324E-02  0.10425492574E+00 -0.75584760125E-01  0.13030265015E+00  0.19717979783E-01 0.  0.
         14    1    1    2    0    0 -0.20992430819E-01 -0.19100795986E-02 -0.10104059907E-01  0.23375683570E-01  0.00000000000E+00 0. -1.
     999901    1    3    3    0    0  0.18193073087E-01 -0.10234484614E+00  0.85688820032E-01  0.89025166628E+00  0.88000000000E+00 0.  1.
        -11    1    4    4    0    0  0.23466226532E-03  0.82135880591E-01 -0.49088916744E-01  0.95688770579E-01  0.51100000000E-03 0. -1.
         11    1    4    4    0    0  0.25646954671E-02  0.22119045153E-01 -0.26495843380E-01  0.34613879568E-01  0.51100000000E-03 0.  1.
</event>
<event>
 8    1  0.1208168E+005  0.1043930E+01  0.7957747E-01            NaN
         13   -1    0    0    0    0  0.00000000000E+00  0.00000000000E+00  0.74505805969E-08  0.10566000000E+00  0.10566000000E+00 0.  1.
     999900   -1    0    0    0    0 -0.00000000000E+00 -0.00000000000E+00 -0.74505805969E-08  0.93827000000E+00  0.93827000000E+00 0.  1.
     999902    2    1    2    0    0  0.72685887719E-02  0.15995870718E-01 -0.16194492007E-01  0.10200351923E+01  0.10197552803E+01 0.  0.
     999903    2    3    3    0    0 -0.39729297502E-01 -0.11581352742E+00 -0.34331926552E-01  0.12879365082E+00  0.20443412087E-01 0.  0.
         14    1    1    2    0    0 -0.72685887719E-02 -0.15995870718E-01  0.16194492007E-01  0.23894807681E-01  0.00000000000E+00 0.  1.
     999901    1    3    3    0    0  0.46997886274E-01  0.13180939814E+00  0.18137434545E-01  0.89124154149E+00  0.88000000000E+00 0.  1.
        -11    1    4    4    0    0 -0.11372712154E-01 -0.30377244511E-01  0.22700981105E-04  0.32440363780E-01  0.51100000000E-03 0. -1.
         11    1    4    4    0    0 -0.28356585348E-01 -0.85436282912E-01 -0.34354627533E-01  0.96353287045E-01  0.51100000000E-03 0.  1.
</event>
<event>
 8    1  0.1208168E+005  0.1043930E+01  0.7957747E-01            NaN
         13   -1    0    0    0    0  0.00000000000E+00  0.00000000000E+00  0.74505805969E-08  0.10566000000E+00  0.10566000000E+00 0.  1.
     999900   -1    0    0    0    0 -0.00000000000E+00 -0.00000000000E+00 -0.74505805969E-08  0.93827000000E+00  0.93827000000E+00 0.  1.
     999902    2    1    2    0    0  0.73793643114E-03  0.19387183402E-01 -0.13418949601E-01  0.10203402641E+01  0.10200675365E+01 0.  0.
     999903    2    3    3    0    0 -0.52302182096E-01  0.53096668508E-01  0.10405452219E+00  0.13031239931E+00  0.24478630838E-01 0.  0.
         14    1    1    2    0    0 -0.73793643114E-03 -0.19387183402E-01  0.13418949601E-01  0.23589735879E-01  0.00000000000E+00 0.  1.
     999901    1    3    3    0    0  0.53040118527E-01 -0.33709485106E-01 -0.11747347179E+00  0.89002786481E+00  0.88000000000E+00 0.  1.
        -11    1    4    4    0    0 -0.11097371248E-01  0.21535900122E-01  0.48898840272E-01  0.54573843035E-01  0.51100000000E-03 0.  1.
         11    1    4    4    0    0 -0.41204810848E-01  0.31560768387E-01  0.55155681919E-01  0.75738556278E-01  0.51100000000E-03 0. -1.
</event>
<event>
 8    1  0.1208168E+005  0.1043930E+01  0.7957747E-01            NaN
         13   -1    0    0    0    0  0.00000000000E+00  0.00000000000E+00  0.74505805969E-08  0.10566000000E+00  0.10566000000E+00 0.  1.
     999900   -1    0    0    0    0 -0.00000000000E+00 -0.00000000000E+00 -0.74505805969E-08  0.93827000000E+00  0.93827000000E+00 0. -1.
     999902    2    1    2    0    0 -0.27426996648E-02 -0.20083233927E-02 -0.29532040182E-01  0.10142029557E+01  0.10137672012E+01 0.  0.
     999903    2    3    3    0    0 -0.80606983733E-01  0.90257316370E-01 -0.28445136149E-01  0.12595919617E+00  0.20315618258E-01 0.  0.
         14    1    1    2    0    0  0.27426996648E-02  0.20083233927E-02  0.29532040182E-01  0.29727044280E-01  0.00000000000E+00 0.  1.
     999901    1    3    3    0    0  0.77864284069E-01 -0.92265639762E-01 -0.10869040324E-02  0.88824375955E+00  0.88000000000E+00 0.  1.
        -11    1    4    4    0    0 -0.39233508354E-01  0.58667869620E-01 -0.18456687279E-01  0.72952707488E-01  0.51100000000E-03 0.  1.
         11    1    4    4    0    0 -0.41373475379E-01  0.31589446750E-01 -0.99884488706E-02  0.53006488685E-01  0.51100000000E-03 0. -1.
</event>
<event>
 8    1  0.1208168E+005  0.1043930E+01  0.7957747E-01            NaN
         13   -1    0    0    0    0  0.00000000000E+00  0.00000000000E+00  0.74505805969E-08  0.10566000000E+00  0.10566000000E+00 0. -1.
     999900   -1    0    0    0    0 -0.00000000000E+00 -0.00000000000E+00 -0.74505805969E-08  0.93827000000E+00  0.93827000000E+00 0.  1.
     999902    2    1    2    0    0  0.16043385595E-01  0.18434369885E-01  0.17098709461E-02  0.10194322476E+01  0.10191378550E+01 0.  0.
     999903    2    3    3    0    0  0.70499105049E-01  0.10902213101E+00  0.20191340666E-01  0.13291482951E+00  0.20067705433E-01 0.  0.
         14    1    1    2    0    0 -0.16043385595E-01 -0.18434369885E-01 -0.17098709461E-02  0.24497752408E-01  0.00000000000E+00 0. -1.
     999901    1    3    3    0    0 -0.54455719454E-01 -0.90587761127E-01 -0.18481469720E-01  0.88651741809E+00  0.88000000000E+00 0. -1.
        -11    1    4    4    0    0  0.12880157574E-01  0.36309100294E-01  0.78599591015E-02  0.39322885212E-01  0.51100000000E-03 0. -1.
         11    1    4    4    0    0  0.57618947475E-01  0.72713030718E-01  0.12331381564E-01  0.93591944293E-01  0.51100000000E-03 0.  1.
</event>
<event>
 8    1  0.1208168E+005  0.1043930E+01  0.7957747E-01            NaN
         13   -1    0    0    0    0  0.00000000000E+00  0.00000000000E+00  0.74505805969E-08  0.10566000000E+00  0.10566000000E+00 0.  1.
     999900   -1    0    0    0    0 -0.00000000000E+00 -0.00000000000E+00 -0.74505805969E-08  0.93827000000E+00  0.93827000000E+00 0.  1.
     999902    2    1    2    0    0  0.52722457982E-02 -0.24035762186E-01  0.39367366832E-02  0.10190098809E+01  0.10187051217E+01 0.  0.
     999903    2    3    3    0    0 -0.28406603456E-01 -0.10802908022E+00 -0.66596108355E-01  0.13156184041E+00  0.19906253066E-01 0.  0.
         14    1    1    2    0    0 -0.52722457982E-02  0.24035762186E-01 -0.39367366832E-02  0.24920119087E-01  0.00000000000E+00 0. -1.
     999901    1    3    3    0    0  0.33678849254E-01  0.83993318035E-01  0.70532845038E-01  0.88744804050E+00  0.88000000000E+00 0. -1.
        -11    1    4    4    0    0 -0.23238239278E-01 -0.65265963692E-01 -0.49814301421E-01  0.85331046686E-01  0.51100000000E-03 0. -1.
         11    1    4    4    0    0 -0.51683641774E-02 -0.42763116529E-01 -0.16781806934E-01  0.46230793726E-01  0.51100000000E-03 0.  1.
</event>
<event>
 8    1  0.1208168E+005  0.1043930E+01  0.7957747E-01            NaN
         13   -1    0    0    0    0  0.00000000000E+00  0.00000000000E+00  0.74505805969E-08  0.10566000000E+00  0.10566000000E+00 0.  1.
     999900   -1    0    0    0    0 -0.00000000000E+00 -0.00000000000E+00 -0.74505805969E-08  0.93827000000E+00  0.93827000000E+00 0. -1.
     999902    2    1    2    0    0  0.13709279181E-01  0.10285639513E-01  0.16318057317E-01  0.10202653067E+01  0.10199908226E+01 0.  0.
     999903    2    3    3    0    0  0.12642029194E+00 -0.31657669406E-01  0.64386348770E-02  0.13203075626E+00  0.20158529988E-01 0.  0.
         14    1    1    2    0    0 -0.13709279181E-01 -0.10285639513E-01 -0.16318057317E-01  0.23664693331E-01  0.00000000000E+00 0.  1.
     999901    1    3    3    0    0 -0.11271101276E+00  0.41943308919E-01  0.98794224400E-02  0.88823455041E+00  0.88000000000E+00 0. -1.
        -11    1    4    4    0    0  0.12201868155E+00 -0.26486002109E-01  0.77248711851E-02  0.12509996687E+00  0.51100000000E-03 0.  1.
         11    1    4    4    0    0  0.44016103933E-02 -0.51716672967E-02 -0.12862363081E-02  0.69307893867E-02  0.51100000000E-03 0. -1.
</event>
<event>
 8    1  0.1208168E+005  0.1043930E+01  0.7957747E-01            NaN
         13   -1    0    0    0    0  0.00000000000E+00  0.00000000000E+00  0.74505805969E-08  0.10566000000E+00  0.10566000000E+00 0. -1.
     999900   -1    0    0    0    0 -0.00000000000E+00 -0.00000000000E+00 -0.74505805969E-08  0.93827000000E+00  0.93827000000E+00 0. -1.
     999902    2    1    2    0    0 -0.19840365218E-03  0.18062891344E-01  0.16124759261E-01  0.10197160522E+01  0.10194285222E+01 0.  0.
     999903    2    3    3    0    0 -0.91868558607E-01 -0.25610285413E-01 -0.83174045533E-01  0.12832892174E+00  0.21323028070E-01 0.  0.
         14    1    1    2    0    0  0.19840365218E-03 -0.18062891344E-01 -0.16124759261E-01  0.24213947818E-01  0.00000000000E+00 0.  1.
     999901    1    3    3    0    0  0.91670154955E-01  0.43673176757E-01  0.99298804794E-01  0.89138713044E+00  0.88000000000E+00 0.  1.
        -11    1    4    4    0    0 -0.71724735741E-01 -0.17993166718E-01 -0.51861840924E-01  0.90322220027E-01  0.51100000000E-03 0.  1.
         11    1    4    4    0    0 -0.20143822867E-01 -0.76171186956E-02 -0.31312204609E-01  0.38006701717E-01  0.51100000000E-03 0. -1.
</event>
<event>
 8    1  0.1208168E+005  0.1043930E+01  0.7957747E-01            NaN
         13   -1    0    0    0    0  0.00000000000E+00  0.00000000000E+00  0.74505805969E-08  0.10566000000E+00  0.10566000000E+00 0. -1.
     999900   -1    0    0    0    0 -0.00000000000E+00 -0.00000000000E+00 -0.74505805969E-08  0.93827000000E+00  0.93827000000E+00 0. -1.
     999902    2    1    2    0    0  0.72672719883E-02  0.82980158476E-02 -0.20402459917E-01  0.10207366673E+01  0.10204731321E+01 0.  0.
     999903    2    3    3    0    0 -0.61503241615E-01  0.72542431711E-02  0.11076583792E+00  0.12836029195E+00  0.19287843977E-01 0.  0.
         14    1    1    2    0    0 -0.72672719883E-02 -0.82980158476E-02  0.20402459917E-01  0.23193332659E-01  0.00000000000E+00 0. -1.
     999901    1    3    3    0    0  0.68770513603E-01  0.10437726765E-02 -0.13116829784E+00  0.89237637539E+00  0.88000000000E+00 0. -1.
        -11    1    4    4    0    0 -0.27999707919E-01  0.87972680127E-02  0.36261378589E-01  0.46653234252E-01  0.51100000000E-03 0. -1.
         11    1    4    4    0    0 -0.33503533696E-01 -0.15430248416E-02  0.74504459333E-01  0.81707057696E-01  0.51100000000E-03 0.  1.
</event>
<event>
 8    1  0.1208168E+005  0.1043930E+01  0.7957747E-01            NaN
         13   -1    0    0    0    0  0.00000000000E+00  0.00000000000E+00  0.74505805969E-08  0.10566000000E+00  0.10566000000E+00 0.  1.
     999900   -1    0    0    0    0 -0.00000000000E+00 -0.00000000000E+00 -0.74505805969E-08  0.93827000000E+00  0.93827000000E+00 0. -1.
     999902    2    1    2    0    0  0.16876033133E-01  0.51068459174E-02  0.15354999835E-01  0.10205493159E+01  0.10202814562E+01 0.  0.
     999903    2    3    3    0    0  0.65765851512E-01 -0.12067985734E-01 -0.10984839548E+00  0.13017800044E+00  0.20220244917E-01 0.  0.
         14    1    1    2    0    0 -0.16876033133E-01 -0.51068459174E-02 -0.15354999835E-01  0.23380684110E-01  0.00000000000E+00 0. -1.
     999901    1    3    3    0    0 -0.48889818380E-01  0.17174831652E-01  0.12520339531E+00  0.89037131545E+00  0.88000000000E+00 0.  1.
        -11    1    4    4    0    0  0.22924261007E-01  0.44160648462E-02 -0.29306054428E-01  0.37471713580E-01  0.51100000000E-03 0.  1.
         11    1    4    4    0    0  0.42841590505E-01 -0.16484050580E-01 -0.80542341047E-01  0.92706286858E-01  0.51100000000E-03 0. -1.
</event>
<event>
 8    1  0.1208168E+005  0.1043930E+01  0.7957747E-01            NaN
         13   -1    0    0    0    0  0.00000000000E+00  0.00000000000E+00  0.74505805969E-08  0.10566000000E+00  0.10566000000E+00 0. -1.
     999900   -1    0    0    0    0 -0.00000000000E+00 -0.00000000000E+00 -0.74505805969E-08  0.93827000000E+00  0.93827000000E+00 0.  1.
     999902    2    1    2    0    0 -0.16556970465E-01  0.52253209883E-02  0.16118684129E-01  0.10202393008E+01  0.10199642061E+01 0.  0.
     999903    2    3    3    0    0 -0.97570263619E-01  0.61050945682E-01 -0.60192299313E-01  0.13147441613E+00  0.20377313065E-01 0.  0.
         14    1    1    2    0    0  0.16556970465E-01 -0.52253209883E-02 -0.16118684129E-01  0.23690699197E-01  0.00000000000E+00 0.  1.
     999901    1    3    3    0    0  0.81013293154E-01 -0.55825624694E-01  0.76310983442E-01  0.88876488468E+00  0.88000000000E+00 0. -1.
        -11    1    4    4    0    0 -0.41292092877E-01  0.21444276895E-01 -0.14008266348E-01  0.48594100391E-01  0.51100000000E-03 0. -1.
         11    1    4    4    0    0 -0.56278170741E-01  0.39606668787E-01 -0.46184032965E-01  0.82880315735E-01  0.51100000000E-03 0.  1.
</event>
<event>
 8    1  0.1208168E+005  0.1043930E+01  0.7957747E-01            NaN
         13   -1    0    0    0    0  0.00000000000E+00  0.00000000000E+00  0.74505805969E-08  0.10566000000E+00  0.10566000000E+00 0. -1.
     999900   -1    0    0    0    0 -0.00000000000E+00 -0.00000000000E+00 -0.74505805969E-08  0.93827000000E+00  0.93827000000E+00 0.  1.
     999902    2    1    2    0    0 -0.12042139276E-01 -0.19239213306E-01  0.34537906884E-02  0.10209715785E+01  0.10207134147E+01 0.  0.
     999903    2    3    3    0    0 -0.62310455310E-01 -0.11689845567E+00  0.23929588521E-02  0.13414275818E+00  0.20993130816E-01 0.  0.
         14    1    1    2    0    0  0.12042139276E-01  0.19239213306E-01 -0.34537906884E-02  0.22958421485E-01  0.00000000000E+00 0. -1.
     999901    1    3    3    0    0  0.50268316034E-01  0.97659242361E-01  0.10608318363E-02  0.88682882034E+00  0.88000000000E+00 0.  1.
        -11    1    4    4    0    0 -0.32348633247E-01 -0.52979197127E-01 -0.86946363900E-02  0.62682431543E-01  0.51100000000E-03 0.  1.
         11    1    4    4    0    0 -0.29961822062E-01 -0.63919258540E-01  0.11087595242E-01  0.71460326636E-01  0.51100000000E-03 0. -1.
</event>
<event>
 8    1  0.1208168E+005  0.1043930E+01  0.7957747E-01            NaN
         13   -1    0    0    0    0  0.00000000000E+00  0.00000000000E+00  0.74505805969E-08  0.10566000000E+00  0.10566000000E+00 0. -1.
     999900   -1    0    0    0    0 -0.00000000000E+00 -0.00000000000E+00 -0.74505805969E-08  0.93827000000E+00  0.93827000000E+00 0. -1.
     999902    2    1    2    0    0  0.18608634230E-01  0.20254366493E-02 -0.14296658988E-01  0.10203762716E+01  0.10201043856E+01 0.  0.
     999903    2    3    3    0    0  0.11020166963E+00 -0.55898050675E-01 -0.45697568148E-01  0.13317255681E+00  0.19433530117E-01 0.  0.
         14    1    1    2    0    0 -0.18608634230E-01 -0.20254366493E-02  0.14296658988E-01  0.23553728361E-01  0.00000000000E+00 0.  1.
     999901    1    3    3    0    0 -0.91593035401E-01  0.57923487325E-01  0.31400909161E-01  0.88720371483E+00  0.88000000000E+00 0.  1.
        -11    1    4    4    0    0  0.35473896884E-01 -0.25496991499E-01 -0.22949509898E-01  0.49350127266E-01  0.51100000000E-03 0. -1.
         11    1    4    4    0    0  0.74727772747E-01 -0.30401059176E-01 -0.22748058250E-01  0.83822429539E-01  0.51100000000E-03 0.  1.
</event>
<event>
 8    1  0.1208168E+005  0.1043930E+01  0.7957747E-01            NaN
         13   -1    0    0    0    0  0.00000000000E+00  0.00000000000E+00  0.74505805969E-08  0.10566000000E+00  0.10566000000E+00 0.  1.
     999900   -1    0    0    0    0 -0.00000000000E+00 -0.00000000000E+00 -0.74505805969E-08  0.93827000000E+00  0.93827000000E+00 0. -1.
     999902    2    1    2    0    0  0.12960303019E-01 -0.91697340961E-02  0.17066018776E-01  0.10206211503E+01  0.10203549529E+01 0.  0.
     999903    2    3    3    0    0 -0.10043825131E-01 -0.13000061943E+00  0.33789725644E-02  0.13196113207E+00  0.20032060413E-01 0.  0.
         14    1    1    2    0    0 -0.12960303019E-01  0.91697340961E-02 -0.17066018776E-01  0.23308849706E-01  0.00000000000E+00 0. -1.
     999901    1    3    3    0    0  0.23004128150E-01  0.12083088534E+00  0.13687046212E-01  0.88866001823E+00  0.88000000000E+00 0. -1.
        -11    1    4    4    0    0  0.48145153597E-02 -0.55749802975E-01  0.53175546961E-02  0.56211721187E-01  0.51100000000E-03 0. -1.
         11    1    4    4    0    0 -0.14858340491E-01 -0.74250816458E-01 -0.19385821318E-02  0.75749410879E-01  0.51100000000E-03 0.  1.
</event>
<event>
 8    1  0.1208168E+005  0.1043930E+01  0.7957747E-01            NaN
         13   -1    0    0    0    0  0.00000000000E+00  0.00000000000E+00  0.74505805969E-08  0.10566000000E+00  0.10566000000E+00 0.  1.
     999900   -1    0    0    0    0 -0.00000000000E+00 -0.00000000000E+00 -0.74505805969E-08  0.93827000000E+00  0.93827000000E+00 0.  1.
     999902    2    1    2    0    0  0.10985997506E-01 -0.18859278663E-01 -0.87690030839E-02  0.10204085216E+01  0.10201373883E+01 0.  0.
     999903    2    3    3    0    0  0.70164347577E-02 -0.12298577891E+00 -0.47288499636E-01  0.13342383336E+00  0.19773339112E-01 0.  0.
         14    1    1    2    0    0 -0.10985997506E-01  0.18859278663E-01  0.87690030839E-02  0.23521478439E-01  0.00000000000E+00 0.  1.
     999901    1    3    3    0    0  0.39695627482E-02  0.10412650025E+00  0.38519496552E-01  0.88698468820E+00  0.88000000000E+00 0.  1.
        -11    1    4    4    0    0  0.73580634841E-02 -0.20991776011E-01 -0.13259341052E-01  0.25901100449E-01  0.51100000000E-03 0.  1.
         11    1    4    4    0    0 -0.34162872634E-03 -0.10199400290E+00 -0.34029158584E-01  0.10752273291E+00  0.51100000000E-03 0. -1.
</event>
<event>
 8    1  0.1208168E+005  0.1043930E+01  0.7957747E-01            NaN
         13   -1    0    0    0    0  0.00000000000E+00  0.00000000000E+00  0.74505805969E-08  0.10566000000E+00  0.10566000000E+00 0. -1.
     999900   -1    0    0    0    0 -0.00000000000E+00 -0.00000000000E+00 -0.74505805969E-08  0.93827000000E+00  0.93827000000E+00 0.  1.
     999902    2    1    2    0    0  0.25232432831E-01 -0.54240579272E-02 -0.58696648340E-02  0.10174621131E+01  0.10171177919E+01 0.  0.
     999903    2    3    3    0    0 -0.27891448274E-01 -0.26115296121E-01 -0.12062056713E+00  0.12818260494E+00  0.20530889310E-01 0.  0.
         14    1    1    2    0    0 -0.25232432831E-01  0.54240579272E-02  0.58696648340E-02  0.26467886886E-01  0.00000000000E+00 0.  1.
     999901    1    3    3    0    0  0.53123881105E-01  0.20691238194E-01  0.11475090230E+00  0.88927950817E+00  0.88000000000E+00 0. -1.
        -11    1    4    4    0    0 -0.45808895918E-02 -0.10258517548E-01 -0.14334198127E-01  0.18219552373E-01  0.51100000000E-03 0.  1.
         11    1    4    4    0    0 -0.23310558682E-01 -0.15856778574E-01 -0.10628636900E+00  0.10996305257E+00  0.51100000000E-03 0. -1.
</event>
<event>
 8    1  0.1208168E+005  0.1043930E+01  0.7957747E-01            NaN
         13   -1    0    0    0    0  0.00000000000E+00  0.00000000000E+00  0.74505805969E-08  0.10566000000E+00  0.10566000000E+00 0. -1.
     999900   -1    0    0    0    0 -0.00000000000E+00 -0.00000000000E+00 -0.74505805969E-08  0.93827000000E+00  0.93827000000E+00 0.  1.
     999902    2    1    2    0    0  0.17050467681E-01 -0.11158217947E-01 -0.12360639773E-01  0.10200970461E+01  0.10198185985E+01 0.  0.
     999903    2    3    3    0    0  0.11263373751E+00  0.64123178338E-01  0.92699345605E-02  0.13146251389E+00  0.19957956927E-01 0.  0.
         14    1    1    2    0    0 -0.17050467681E-01  0.11158217947E-01  0.12360639773E-01  0.23832953898E-01  0.00000000000E+00 0. -1.
     999901    1    3    3    0    0 -0.95583269831E-01 -0.75281396285E-01 -0.21630574333E-01  0.88863453221E+00  0.88000000000E+00 0. -1.
        -11    1    4    4    0    0  0.74674338700E-01  0.37681589113E-01  0.14542157464E-01  0.84899319686E-01  0.51100000000E-03 0.  1.
         11    1    4    4    0    0  0.37959398812E-01  0.26441589226E-01 -0.52722229035E-02  0.46563194202E-01  0.51100000000E-03 0. -1.
</event>
<event>
 8    1  0.1208168E+005  0.1043930E+01  0.7957747E-01            NaN
         13   -1    0    0    0    0  0.00000000000E+00  0.00000000000E+00  0.74505805969E-08  0.10566000000E+00  0.10566000000E+00 0. -1.
     999900   -1    0    0    0    0 -0.00000000000E+00 -0.00000000000E+00 -0.74505805969E-08  0.93827000000E+00  0.93827000000E+00 0. -1.
     999902    2    1    2    0    0  0.99135763798E-02 -0.20527820778E-01  0.83114541403E-02  0.10196658146E+01  0.10193770759E+01 0.  0.
     999903    2    3    3    0    0  0.26519277660E-01 -0.12895356289E+00 -0.36067257914E-02  0.13277577978E+00  0.16855437004E-01 0.  0.
         14    1    1    2    0    0 -0.99135763798E-02  0.20527820778E-01 -0.83114541403E-02  0.24264185387E-01  0.00000000000E+00 0.  1.
     999901    1    3    3    0    0 -0.16605701280E-01  0.10842574211E+00  0.11918179932E-01  0.88689003483E+00  0.88000000000E+00 0.  1.
        -11    1    4    4    0    0 -0.17227164579E-03 -0.29470737752E-01 -0.41869629928E-02  0.29771560948E-01  0.51100000000E-03 0.  1.
         11    1    4    4    0    0  0.26691549306E-01 -0.99482825138E-01  0.58023720143E-03  0.10300421884E+00  0.51100000000E-03 0. -1.
</event>
<event>
 8    1  0.1208168E+005  0.1043930E+01  0.7957747E-01            NaN
         13   -1    0    0    0    0  0.00000000000E+00  0.00000000000E+00  0.74505805969E-08  0.10566000000E+00  0.10566000000E+00 0. -1.
     999900   -1    0    0    0    0 -0.00000000000E+00 -0.00000000000E+00 -0.74505805969E-08  0.93827000000E+00  0.93827000000E+00 0.  1.
     999902    2    1    2    0    0 -0.12478188852E-01  0.13980276366E-01  0.12482941364E-01  0.10214138469E+01  0.10211656426E+01 0.  0.
     999903    2    3    3    0    0  0.17979590044E-01 -0.12549552799E+00  0.18703921679E-01  0.12988713566E+00  0.21176357553E-01 0.  0.
         14    1    1    2    0    0  0.12478188852E-01 -0.13980276366E-01 -0.12482941364E-01  0.22516153077E-01  0.00000000000E+00 0.  1.
     999901    1    3    3    0    0 -0.30457778896E-01  0.13947580436E+00 -0.62209803148E-02  0.89152671126E+00  0.88000000000E+00 0.  1.
        -11    1    4    4    0    0  0.41627664774E-02 -0.78393633916E-01  0.38512987643E-02  0.78600153222E-01  0.51100000000E-03 0. -1.
         11    1    4    4    0    0  0.13816823567E-01 -0.47101894079E-01  0.14852622915E-01  0.51286982439E-01  0.51100000000E-03 0.  1.
</event>
<event>
 8    1  0.1208168E+005  0.1043930E+01  0.7957747E-01            NaN
         13   -1    0    0    0    0  0.00000000000E+00  0.00000000000E+00  0.74505805969E-08  0.10566000000E+00  0.10566000000E+00 0. -1.
     999900   -1    0    0    0    0 -0.00000000000E+00 -0.00000000000E+00 -0.74505805969E-08  0.93827000000E+00  0.93827000000E+00 0. -1.
     999902    2    1    2    0    0 -0.19622616560E-02 -0.20885396248E-01  0.41008191059E-02  0.10225555535E+01  0.10223321344E+01 0.  0.
     999903    2    3    3    0    0 -0.45095093099E-01 -0.95879734810E-01 -0.80204424957E-01  0.13430335609E+00  0.19446097455E-01 0.  0.
         14    1    1    2    0    0  0.19622616560E-02  0.20885396248E-01 -0.41008191059E-02  0.21374446532E-01  0.00000000000E+00 0.  1.
     999901    1    3    3    0    0  0.43132831443E-01  0.74994338563E-01  0.84305244063E-01  0.88825219737E+00  0.88000000000E+00 0.  1.
        -11    1    4    4    0    0 -0.76687403825E-03 -0.18072735962E-01 -0.15443074689E-01  0.23789946570E-01  0.51100000000E-03 0.  1.
         11    1    4    4    0    0 -0.44328219061E-01 -0.77806998848E-01 -0.64761350268E-01  0.11051340952E+00  0.51100000000E-03 0. -1.
</event>
<event>
 8    1  0.1208168E+005  0.1043930E+01  0.7957747E-01            NaN
         13   -1    0    0    0    0  0.00000000000E+00  0.00000000000E+00  0.74505805969E-08  0.10566000000E+00  0.10566000000E+00 0. -1.
     999900   -1    0    0    0    0 -0.00000000000E+00 -0.00000000000E+00 -0.74505805969E-08  0.93827000000E+00  0.93827000000E+00 0.  1.
     999902    2    1    2    0    0  0.12118211553E-01 -0.12167191166E-01 -0.16154407762E-01  0.10203533912E+01  0.10200809705E+01 0.  0.
     999903    2    3    3    0    0  0.19250452529E-01 -0.40325255101E-01  0.11980957840E+00  0.12943815901E+00  0.20079736269E-01 0.  0.
         14    1    1    2    0    0 -0.12118211553E-01  0.12167191166E-01  0.16154407762E-01  0.23576608794E-01  0.00000000000E+00 0. -1.
     999901    1    3    3    0    0 -0.71322409759E-02  0.28158063936E-01 -0.13596398617E+00  0.89091523220E+00  0.88000000000E+00 0.  1.
        -11    1    4    4    0    0 -0.15202496563E-02 -0.93507331840E-02  0.43229029264E-01  0.44257851984E-01  0.51100000000E-03 0. -1.
         11    1    4    4    0    0  0.20770702185E-01 -0.30974521917E-01  0.76580549140E-01  0.85180307025E-01  0.51100000000E-03 0.  1.
</event>
<event>
 8    1  0.1208168E+005  0.1043930E+01  0.7957747E-01            NaN
         13   -1    0    0    0    0  0.00000000000E+00  0.00000000000E+00  0.74505805969E-08  0.10566000000E+00  0.10566000000E+00 0.  1.
     999900   -1    0    0    0    0 -0.00000000000E+00 -0.00000000000E+00 -0.74505805969E-08  0.93827000000E+00  0.93827000000E+00 0. -1.
     999902    2    1    2    0    0 -0.53873238524E-02  0.16975456659E-01  0.12223997126E-01  0.10223287155E+01  0.10221004779E+01 0.  0.
     999903    2    3    3    0    0 -0.83225713249E-01  0.48700445195E-02  0.10316064757E+00  0.13414245672E+00  0.20046017255E-01 0.  0.
         14    1    1    2    0    0  0.53873238524E-02 -0.16975456659E-01 -0.12223997126E-01  0.21601284518E-01  0.00000000000E+00 0. -1.
     999901    1    3    3    0    0  0.77838389397E-01  0.12105412139E-01 -0.90936650442E-01  0.88818625877E+00  0.88000000000E+00 0. -1.
        -11    1    4    4    0    0 -0.59634837375E-01  0.80181840533E-02  0.60746581968E-01  0.85504464480E-01  0.51100000000E-03 0. -1.
         11    1    4    4    0    0 -0.23590875874E-01 -0.31481395338E-02  0.42414065600E-01  0.48637992236E-01  0.51100000000E-03 0.  1.
</event>
<event>
 8    1  0.1208168E+005  0.1043930E+01  0.7957747E-01            NaN
         13   -1    0    0    0    0  0.00000000000E+00  0.00000000000E+00  0.74505805969E-08  0.10566000000E+00  0.10566000000E+00 0. -1.
     999900   -1    0    0    0    0 -0.00000000000E+00 -0.00000000000E+00 -0.74505805969E-08  0.93827000000E+00  0.93827000000E+00 0. -1.
     999902    2    1    2    0    0 -0.46073953398E-02  0.14749451627E-01  0.17520655178E-01  0.10205687549E+01  0.10203013455E+01 0.  0.
     999903    2    3    3    0    0 -0.55931974036E-01  0.92020569811E-01 -0.72675076094E-01  0.13110807109E+00  0.17649040561E-01 0.  0.
         14    1    1    2    0    0  0.46073953398E-02 -0.14749451627E-01 -0.17520655178E-01  0.23361245108E-01  0.00000000000E+00 0.  1.
     999901    1    3    3    0    0  0.51324578697E-01 -0.77271118183E-01  0.90195731272E-01  0.88946068380E+00  0.88000000000E+00 0.  1.
        -11    1    4    4    0    0 -0.45941931357E-01  0.64495053593E-01 -0.46507873494E-01  0.91834178892E-01  0.51100000000E-03 0.  1.
         11    1    4    4    0    0 -0.99900426799E-02  0.27525516217E-01 -0.26167202601E-01  0.39273892202E-01  0.51100000000E-03 0. -1.
</event>
<event>
 8    1  0.1208168E+005  0.1043930E+01  0.7957747E-01            NaN
         13   -1    0    0    0    0  0.00000000000E+00  0.00000000000E+00  0.74505805969E-08  0.10566000000E+00  0.10566000000E+00 0.  1.
     999900   -1    0    0    0    0 -0.00000000000E+00 -0.00000000000E+00 -0.74505805969E-08  0.93827000000E+00  0.93827000000E+00 0.  1.
     999902    2    1    2    0    0 -0.18215459323E-01 -0.14331014766E-01 -0.18566421077E-02  0.10206785901E+01  0.10204137182E+01 0.  0.
     999903    2    3    3    0    0 -0.15123463779E-01 -0.88643017349E-01 -0.95286916072E-01  0.13261268587E+00  0.20499375516E-01 0.  0.
         14    1    1    2    0    0  0.18215459323E-01  0.14331014766E-01  0.18566421077E-02  0.23251409903E-01  0.00000000000E+00 0. -1.
     999901    1    3    3    0    0 -0.30919955438E-02  0.74312002583E-01  0.93430273965E-01  0.88806590423E+00  0.88000000000E+00 0. -1.
        -11    1    4    4    0    0 -0.16460025090E-01 -0.56091900883E-01 -0.50652215400E-01  0.77350771273E-01  0.51100000000E-03 0. -1.
         11    1    4    4    0    0  0.13365613112E-02 -0.32551116466E-01 -0.44634700672E-01  0.55261914593E-01  0.51100000000E-03 0.  1.
</event>
<event>
 8    1  0.1208168E+005  0.1043930E+01  0.7957747E-01            NaN
         13   -1    0    0    0    0  0.00000000000E+00  0.00000000000E+00  0.74505805969E-08  0.10566000000E+00  0.10566000000E+00 0. -1.
     999900   -1    0    0    0    0 -0.00000000000E+00 -0.00000000000E+00 -0.74505805969E-08  0.93827000000E+00  0.93827000000E+00 0. -1.
     999902    2    1    2    0    0 -0.13097667439E-01  0.19818760663E-01  0.22802806206E-02  0.10200651336E+01  0.10197859310E+01 0.  0.
     999903    2    3    3    0    0  0.85873105532E-01 -0.73295095005E-01 -0.56262843343E-01  0.12771279214E+00  0.19967186324E-01 0.  0.
         14    1    1    2    0    0  0.13097667439E-01 -0.19818760663E-01 -0.22802806206E-02  0.23864866357E-01  0.00000000000E+00 0.  1.
     999901    1    3    3    0    0 -0.98970772972E-01  0.93113855668E-01  0.58543123964E-01  0.89235234150E+00  0.88000000000E+00 0. -1.
        -11    1    4    4    0    0  0.77824599064E-01 -0.59752118256E-01 -0.43059326580E-01  0.10715106431E+00  0.51100000000E-03 0.  1.
         11    1    4    4    0    0  0.80485064686E-02 -0.13542976750E-01 -0.13203516763E-01  0.20561727834E-01  0.51100000000E-03 0. -1.
</event>
<event>
 8    1  0.1208168E+005  0.1043930E+01  0.7957747E-01            NaN
         13   -1    0    0    0    0  0.00000000000E+00  0.00000000000E+00  0.74505805969E-08  0.10566000000E+00  0.10566000000E+00 0. -1.
     999900   -1    0    0    0    0 -0.00000000000E+00 -0.00000000000E+00 -0.74505805969E-08  0.93827000000E+00  0.93827000000E+00 0.  1.
     999902    2    1    2    0    0  0.19061497956E-01 -0.38415991070E-02  0.13274159084E-01  0.10203863833E+01  0.10201147334E+01 0.  0.
     999903    2    3    3    0    0  0.24162843844E-01  0.77743935443E-01 -0.99023223073E-01  0.12949193095E+00  0.18292046183E-01 0.  0.
         14    1    1    2    0    0 -0.19061497956E-01  0.38415991070E-02 -0.13274159084E-01  0.23543616702E-01  0.00000000000E+00 0.  1.
     999901    1    3    3    0    0 -0.51013458878E-02 -0.81585534550E-01  0.11229738216E+00  0.89089445234E+00  0.88000000000E+00 0.  1.
        -11    1    4    4    0    0  0.11105899565E-01  0.57974552693E-01 -0.62643943136E-01  0.86075051541E-01  0.51100000000E-03 0. -1.
         11    1    4    4    0    0  0.13056944279E-01  0.19769382750E-01 -0.36379279937E-01  0.43416879413E-01  0.51100000000E-03 0.  1.
</event>
<event>
 8    1  0.1208168E+005  0.1043930E+01  0.7957747E-01            NaN
         13   -1    0    0    0    0  0.00000000000E+00  0.00000000000E+00  0.74505805969E-08  0.10566000000E+00  0.10566000000E+00 0.  1.
     999900   -1    0    0    0    0 -0.00000000000E+00 -0.00000000000E+00 -0.74505805969E-08  0.93827000000E+00  0.93827000000E+00 0.  1.
     999902    2    1    2    0    0 -0.26818755440E-02  0.22433752514E-01 -0.13062147121E-01  0.10178323872E+01  0.10174977558E+01 0.  0.
     999903    2    3    3    0    0 -0.48960917839E-01 -0.10228928383E+00  0.49265920769E-01  0.12565394448E+00  0.22394502728E-01 0.  0.
         14    1    1    2    0    0  0.26818755440E-02 -0.22433752514E-01  0.13062147121E-01  0.26097612835E-01  0.00000000000E+00 0.  1.
     999901    1    3    3    0    0  0.46279042295E-01  0.12472303634E+00 -0.62328067889E-01  0.89217844269E+00  0.88000000000E+00 0.  1.
        -11    1    4    4    0    0 -0.38395133911E-01 -0.89850187864E-01  0.49031910278E-01  0.10932351949E+00  0.51100000000E-03 0.  1.
         11    1    4    4    0    0 -0.10565783928E-01 -0.12439095961E-01  0.23401049068E-03  0.16330424987E-01  0.51100000000E-03 0. -1.
</event>
<event>
 8    1  0.1208168E+005  0.1043930E+01  0.7957747E-01            NaN
         13   -1    0    0    0    0  0.00000000000E+00  0.00000000000E+00  0.74505805969E-08  0.10566000000E+00  0.10566000000E+00 0.  1.
     999900   -1    0    0    0    0 -0.00000000000E+00 -0.00000000000E+00 -0.74505805969E-08  0.93827000000E+00  0.93827000000E+00 0.  1.
     999902    2    1    2    0    0  0.16716147192E-03  0.52202540058E-02  0.23378380553E-01  0.10199752996E+01  0.10196939659E+01 0.  0.
     999903    2    3    3    0    0 -0.44976607828E-01  0.11632316260E+00  0.37354610797E-01  0.13173144161E+00  0.20095580442E-01 0.  0.
         14    1    1    2    0    0 -0.16716147192E-03 -0.52202540058E-02 -0.23378380553E-01  0.23954700419E-01  0.00000000000E+00 0. -1.
     999901    1    3    3    0    0  0.45143769300E-01 -0.11110290859E+00 -0.13976230244E-01  0.88824385797E+00  0.88000000000E+00 0.  1.
        -11    1    4    4    0    0 -0.28640400814E-01  0.71218213840E-01  0.12748822195E-01  0.77814523899E-01  0.51100000000E-03 0.  1.
         11    1    4    4    0    0 -0.16336207014E-01  0.45104948759E-01  0.24605788602E-01  0.53916917715E-01  0.51100000000E-03 0. -1.
</event>
<event>
 8    1  0.1208168E+005  0.1043930E+01  0.7957747E-01            NaN
         13   -1    0    0    0    0  0.00000000000E+00  0.00000000000E+00  0.74505805969E-08  0.10566000000E+00  0.10566000000E+00 0. -1.
     999900   -1    0    0    0    0 -0.00000000000E+00 -0.00000000000E+00 -0.74505805969E-08  0.93827000000E+00  0.93827000000E+00 0. -1.
     999902    2    1    2    0    0  0.18934666982E-01  0.85240489506E-02  0.10363989491E-01  0.10207223870E+01  0.10204585234E+01 0.  0.
     999903    2    3    3    0    0 -0.11111075953E+00  0.62144825758E-01 -0.10099007677E-01  0.12931578227E+00  0.20322434306E-01 0.  0.
         14    1    1    2    0    0 -0.18934666982E-01 -0.85240489506E-02 -0.10363989491E-01  0.23207613027E-01  0.00000000000E+00 0. -1.
     999901    1    3    3    0    0  0.13004542651E+00 -0.53620776807E-01  0.20462997167E-01  0.89140660471E+00  0.88000000000E+00 0.  1.
        -11    1    4    4    0    0 -0.20028254961E-01  0.11373970692E-01  0.59885529131E-02  0.23803825177E-01  0.51100000000E-03 0. -1.
         11    1    4    4    0    0 -0.91082504566E-01  0.50770855066E-01 -0.16087560590E-01  0.10551195709E+00  0.51100000000E-03 0.  1.
</event>
<event>
 8    1  0.1208168E+005  0.1043930E+01  0.7957747E-01            NaN
         13   -1    0    0    0    0  0.00000000000E+00  0.00000000000E+00  0.74505805969E-08  0.10566000000E+00  0.10566000000E+00 0.  1.
     999900   -1    0    0    0    0 -0.00000000000E+00 -0.00000000000E+00 -0.74505805969E-08  0.93827000000E+00  0.93827000000E+00 0. -1.
     999902    2    1    2    0    0 -0.13163459451E-02  0.46500650107E-02 -0.22601340434E-01  0.10208177422E+01  0.10205560672E+01 0.  0.
     999903    2    3    3    0    0 -0.93087279489E-01  0.82621021760E-02 -0.92921061941E-01  0.13324813124E+00  0.19678333085E-01 0.  0.
         14    1    1    2    0    0  0.13163459451E-02 -0.46500650107E-02  0.22601340434E-01  0.23112257801E-01  0.00000000000E+00 0.  1.
     999901    1    3    3    0    0  0.91770933544E-01 -0.36120371653E-02  0.70319721507E-01  0.88756961095E+00  0.88000000000E+00 0.  1.
        -11    1    4    4    0    0 -0.28959152730E-02  0.14015791482E-02 -0.10076352535E-01  0.10589841868E-01  0.51100000000E-03 0. -1.
         11    1    4    4    0    0 -0.90191364216E-01  0.68605230279E-02 -0.82844709406E-01  0.12265828938E+00  0.51100000000E-03 0.  1.
</event>
<event>
 8    1  0.1208168E+005  0.1043930E+01  0.7957747E-01            NaN
         13   -1    0    0    0    0  0.00000000000E+00  0.00000000000E+00  0.74505805969E-08  0.10566000000E+00  0.10566000000E+00 0. -1.
     999900   -1    0    0    0    0 -0.00000000000E+00 -0.00000000000E+00 -0.74505805969E-08  0.93827000000E+00  0.93827000000E+00 0.  1.
     999902    2    1    2    0    0 -0.18797793177E-01 -0.13230968193E-01 -0.61090084564E-02  0.10201448044E+01  0.10198674847E+01 0.  0.
     999903    2    3    3    0    0  0.95409381009E-01  0.71502668614E-01 -0.42715899128E-01  0.12797714506E+00  0.18382600908E-01 0.  0.
         14    1    1    2    0    0  0.18797793177E-01  0.13230968193E-01  0.61090084564E-02  0.23785195647E-01  0.00000000000E+00 0. -1.
     999901    1    3    3    0    0 -0.11420717419E+00 -0.84733636808E-01  0.36606890671E-01  0.89216765929E+00  0.88000000000E+00 0. -1.
        -11    1    4    4    0    0  0.56858187281E-01  0.32801300989E-01 -0.18340168388E-01  0.68157183810E-01  0.51100000000E-03 0. -1.
         11    1    4    4    0    0  0.38551193728E-01  0.38701367626E-01 -0.24375730739E-01  0.59819961251E-01  0.51100000000E-03 0.  1.
</event>
<event>
 8    1  0.1208168E+005  0.1043930E+01  0.7957747E-01            NaN
         13   -1    0    0    0    0  0.00000000000E+00  0.00000000000E+00  0.74505805969E-08  0.10566000000E+00  0.10566000000E+00 0. -1.
     999900   -1    0    0    0    0 -0.00000000000E+00 -0.00000000000E+00 -0.74505805969E-08  0.93827000000E+00  0.93827000000E+00 0. -1.
     999902    2    1    2    0    0  0.13242674191E-01 -0.12152076149E-01  0.15263746148E-01  0.10203498532E+01  0.10200773499E+01 0.  0.
     999903    2    3    3    0    0  0.37227198462E-01 -0.61171820850E-01  0.11103360159E+00  0.13347327898E+00  0.18942004854E-01 0.  0.
         14    1    1    2    0    0 -0.13242674191E-01  0.12152076149E-01 -0.15263746148E-01  0.23580146754E-01  0.00000000000E+00 0. -1.
     999901    1    3    3    0    0 -0.23984524271E-01  0.49019744701E-01 -0.95769855441E-01  0.88687657427E+00  0.88000000000E+00 0. -1.
        -11    1    4    4    0    0  0.14001604031E-01 -0.17790179749E-01  0.51328101971E-01  0.56101431211E-01  0.51100000000E-03 0. -1.
         11    1    4    4    0    0  0.23225594431E-01 -0.43381641101E-01  0.59705499617E-01  0.77371847767E-01  0.51100000000E-03 0.  1.
</event>
<event>
 8    1  0.1208168E+005  0.1043930E+01  0.7957747E-01            NaN
         13   -1    0    0    0    0  0.00000000000E+00  0.00000000000E+00  0.74505805969E-08  0.10566000000E+00  0.10566000000E+00 0. -1.
     999900   -1    0    0    0    0 -0.00000000000E+00 -0.00000000000E+00 -0.74505805969E-08  0.93827000000E+00  0.93827000000E+00 0.  1.
     999902    2    1    2    0    0  0.10478959304E-01  0.15416562465E-01 -0.14515957714E-01  0.10203039124E+01  0.10200303337E+01 0.  0.
     999903    2    3    3    0    0 -0.74869189562E-01  0.10191756109E+00 -0.31252920554E-01  0.13179569343E+00  0.20019364575E-01 0.  0.
         14    1    1    2    0    0 -0.10478959304E-01 -0.15416562465E-01  0.14515957714E-01  0.23626087587E-01  0.00000000000E+00 0. -1.
     999901    1    3    3    0    0  0.85348148866E-01 -0.86500998629E-01  0.16736962840E-01  0.88850821898E+00  0.88000000000E+00 0.  1.
        -11    1    4    4    0    0 -0.23692238630E-01  0.32665441089E-01 -0.50516316100E-03  0.40359255737E-01  0.51100000000E-03 0.  1.
         11    1    4    4    0    0 -0.51176950932E-01  0.69252120004E-01 -0.30747757393E-01  0.91436437690E-01  0.51100000000E-03 0. -1.
</event>
<event>
 8    1  0.1208168E+005  0.1043930E+01  0.7957747E-01            NaN
         13   -1    0    0    0    0  0.00000000000E+00  0.00000000000E+00  0.74505805969E-08  0.10566000000E+00  0.10566000000E+00 0. -1.
     999900   -1    0    0    0    0 -0.00000000000E+00 -0.00000000000E+00 -0.74505805969E-08  0.93827000000E+00  0.93827000000E+00 0. -1.
     999902    2    1    2    0    0  0.14107317190E-01  0.27604395045E-02  0.16847509569E-01  0.10217833297E+01  0.10215432923E+01 0.  0.
     999903    2    3    3    0    0 -0.10661872254E+00 -0.56008698198E-01 -0.43325638698E-01  0.12956732676E+00  0.20150804604E-01 0.  0.
         14    1    1    2    0    0 -0.14107317190E-01 -0.27604395045E-02 -0.16847509569E-01  0.22146670252E-01  0.00000000000E+00 0.  1.
     999901    1    3    3    0    0  0.12072603973E+00  0.58769137702E-01  0.60173148267E-01  0.89221600299E+00  0.88000000000E+00 0.  1.
        -11    1    4    4    0    0 -0.26816223548E-01 -0.10957715416E-01 -0.19350647141E-01  0.34840924762E-01  0.51100000000E-03 0.  1.
         11    1    4    4    0    0 -0.79802498989E-01 -0.45050982782E-01 -0.23974991557E-01  0.94726401999E-01  0.51100000000E-03 0. -1.
</event>
<event>
 8    1  0.1208168E+005  0.1043930E+01  0.7957747E-01            NaN
         13   -1    0    0    0    0  0.00000000000E+00  0.00000000000E+00  0.74505805969E-08  0.10566000000E+00  0.10566000000E+00 0.  1.
     999900   -1    0    0    0    0 -0.00000000000E+00 -0.00000000000E+00 -0.74505805969E-08  0.93827000000E+00  0.93827000000E+00 0.  1.
     999902    2    1    2    0    0  0.13809979284E-02  0.12676580729E-01  0.19685716329E-01  0.10204751438E+01  0.10202055620E+01 0.  0.
     999903    2    3    3    0    0 -0.11302905307E+00  0.61400152446E-01 -0.14903259066E-01  0.13105958091E+00  0.20222785605E-01 0.  0.
         14    1    1    2    0    0 -0.13809979284E-02 -0.12676580729E-01 -0.19685716329E-01  0.23454856248E-01  0.00000000000E+00 0. -1.
     999901    1    3    3    0    0  0.11441005100E+00 -0.48723571718E-01  0.34588975395E-01  0.88941556284E+00  0.88000000000E+00 0. -1.
        -11    1    4    4    0    0 -0.24599914764E-01  0.78730817675E-02 -0.95818456367E-02  0.27553840200E-01  0.51100000000E-03 0.  1.
         11    1    4    4    0    0 -0.88429138309E-01  0.53527070679E-01 -0.53214134292E-02  0.10350574071E+00  0.51100000000E-03 0. -1.
</event>
<event>
 8    1  0.1208168E+005  0.1043930E+01  0.7957747E-01            NaN
         13   -1    0    0    0    0  0.00000000000E+00  0.00000000000E+00  0.74505805969E-08  0.10566000000E+00  0.10566000000E+00 0. -1.
     999900   -1    0    0    0    0 -0.00000000000E+00 -0.00000000000E+00 -0.74505805969E-08  0.93827000000E+00  0.93827000000E+00 0. -1.
     999902    2    1    2    0    0  0.19285014494E-01  0.12996886488E-02 -0.13480249559E-01  0.10203648116E+01  0.10200926579E+01 0.  0.
     999903    2    3    3    0    0 -0.50479636423E-01 -0.11382628867E+00  0.27198934621E-01  0.12919934260E+00  0.21167673421E-01 0.  0.
         14    1    1    2    0    0 -0.19285014494E-01 -0.12996886488E-02  0.13480249559E-01  0.23565188367E-01  0.00000000000E+00 0. -1.
     999901    1    3    3    0    0  0.69764650917E-01  0.11512597732E+00 -0.40679184179E-01  0.89116546903E+00  0.88000000000E+00 0.  1.
        -11    1    4    4    0    0 -0.37967429014E-01 -0.61280927915E-01  0.19101278101E-01  0.74578802204E-01  0.51100000000E-03 0. -1.
         11    1    4    4    0    0 -0.12512207409E-01 -0.52545360754E-01  0.80976565200E-02  0.54620540396E-01  0.51100000000E-03 0.  1.
</event>
<event>
 8    1  0.1208168E+005  0.1043930E+01  0.7957747E-01            NaN
         13   -1    0    0    0    0  0.00000000000E+00  0.00000000000E+00  0.74505805969E-08  0.10566000000E+00  0.10566000000E+00 0.  1.
     999900   -1    0    0    0    0 -0.00000000000E+00 -0.00000000000E+00 -0.74505805969E-08  0.93827000000E+00  0.93827000000E+00 0. -1.
     999902    2    1    2    0    0 -0.61150430391E-02  0.19769177616E-01  0.11537078463E-01  0.10202378428E+01  0.10199627138E+01 0.  0.
     999903    2    3    3    0    0  0.84467252675E-01  0.34654383874E-01 -0.89860106261E-01  0.12967166851E+00  0.20106213471E-01 0.  0.
         14    1    1    2    0    0  0.61150430391E-02 -0.19769177616E-01 -0.11537078463E-01  0.23692157235E-01  0.00000000000E+00 0. -1.
     999901    1    3    3    0    0 -0.90582295714E-01 -0.14885206258E-01  0.10139718472E+00  0.89056617426E+00  0.88000000000E+00 0.  1.
        -11    1    4    4    0    0  0.64471016249E-01  0.31906010896E-01 -0.78616856093E-01  0.10656160965E+00  0.51100000000E-03 0.  1.
         11    1    4    4    0    0  0.19996236426E-01  0.27483729773E-02 -0.11243250168E-01  0.23110058861E-01  0.51100000000E-03 0. -1.
</event>
<event>
 8    1  0.1208168E+005  0.1043930E+01  0.7957747E-01            NaN
         13   -1    0    0    0    0  0.00000000000E+00  0.00000000000E+00  0.74505805969E-08  0.10566000000E+00  0.10566000000E+00 0.  1.
     999900   -1    0    0    0    0 -0.00000000000E+00 -0.00000000000E+00 -0.74505805969E-08  0.93827000000E+00  0.93827000000E+00 0.  1.
     999902    2    1    2    0    0  0.59183928692E-02  0.17363456588E-01 -0.10759572092E-01  0.10226629976E+01  0.10224418425E+01 0.  0.
     999903    2    3    3    0    0  0.77712038087E-01 -0.99206694075E-01 -0.33232118358E-01  0.13179379125E+00  0.19598487386E-01 0.  0.
         14    1    1    2    0    0 -0.59183928692E-02 -0.17363456588E-01  0.10759572092E-01  0.21267002385E-01  0.00000000000E+00 0.  1.
     999901    1    3    3    0    0 -0.71793645218E-01  0.11657015066E+00  0.22472546266E-01  0.89086920637E+00  0.88000000000E+00 0. -1.
        -11    1    4    4    0    0  0.44239307858E-01 -0.57586737410E-01 -0.29060867780E-01  0.78218564564E-01  0.51100000000E-03 0.  1.
         11    1    4    4    0    0  0.33472730229E-01 -0.41619956665E-01 -0.41712505777E-02  0.53575226683E-01  0.51100000000E-03 0. -1.
</event>
<event>
 8    1  0.1208168E+005  0.1043930E+01  0.7957747E-01            NaN
         13   -1    0    0    0    0  0.00000000000E+00  0.00000000000E+00  0.74505805969E-08  0.10566000000E+00  0.10566000000E+00 0.  1.
     999900   -1    0    0    0    0 -0.00000000000E+00 -0.00000000000E+00 -0.74505805969E-08  0.93827000000E+00  0.93827000000E+00 0.  1.
     999902    2    1    2    0    0  0.20498623796E-01 -0.58276147211E-02 -0.11353994775E-01  0.10197832017E+01  0.10194972833E+01 0.  0.
     999903    2    3    3    0    0  0.11338112761E+00 -0.29549337372E-02 -0.66800719054E-01  0.13315489680E+00  0.20096734672E-01 0.  0.
         14    1    1    2    0    0 -0.20498623796E-01  0.58276147211E-02  0.11353994775E-01  0.24146798302E-01  0.00000000000E+00 0.  1.
     999901    1    3    3    0    0 -0.92882503815E-01 -0.28726809839E-02  0.55446724279E-01  0.88662830490E+00  0.88000000000E+00 0. -1.
        -11    1    4    4    0    0  0.10154352076E+00 -0.66340245747E-02 -0.64655666194E-01  0.12056414551E+00  0.51100000000E-03 0.  1.
         11    1    4    4    0    0  0.11837606847E-01  0.36790908376E-02 -0.21450528599E-02  0.12590751289E-01  0.51100000000E-03 0. -1.
</event>
<event>
 8    1  0.1208168E+005  0.1043930E+01  0.7957747E-01            NaN
         13   -1    0    0    0    0  0.00000000000E+00  0.00000000000E+00  0.74505805969E-08  0.10566000000E+00  0.10566000000E+00 0. -1.
     999900   -1    0    0    0    0 -0.00000000000E+00 -0.00000000000E+00 -0.74505805969E-08  0.93827000000E+00  0.93827000000E+00 0.  1.
     999902    2    1    2    0    0  0.32352751891E-01 -0.67121629186E-03  0.43305735841E-03  0.10115673885E+01  0.10110495748E+01 0.  0.
     999903    2    3    3    0    0 -0.75166641937E-01  0.57845634146E-01  0.70723065252E-01  0.12031808157E+00  0.21875725024E-01 0.  0.
         14    1    1    2    0    0 -0.32352751891E-01  0.67121629186E-03 -0.43305735841E-03  0.32362611528E-01  0.00000000000E+00 0.  1.
     999901    1    3    3    0    0  0.10751939383E+00 -0.58516850438E-01 -0.70290007894E-01  0.89124930690E+00  0.88000000000E+00 0.  1.
        -11    1    4    4    0    0 -0.22704098014E-01  0.10356774882E-01  0.28618382803E-01  0.37973830566E-01  0.51100000000E-03 0.  1.
         11    1    4    4    0    0 -0.52462543922E-01  0.47488859265E-01  0.42104682449E-01  0.82344251009E-01  0.51100000000E-03 0. -1.
</event>
<event>
 8    1  0.1208168E+005  0.1043930E+01  0.7957747E-01            NaN
         13   -1    0    0    0    0  0.00000000000E+00  0.00000000000E+00  0.74505805969E-08  0.10566000000E+00  0.10566000000E+00 0.  1.
     999900   -1    0    0    0    0 -0.00000000000E+00 -0.00000000000E+00 -0.74505805969E-08  0.93827000000E+00  0.93827000000E+00 0. -1.
     999902    2    1    2    0    0 -0.19474411960E-01 -0.99496895604E-02 -0.74950374267E-02  0.10208123740E+01  0.10205505761E+01 0.  0.
     999903    2    3    3    0    0  0.50120735614E-01  0.10983878330E+00  0.39045892870E-01  0.12875922485E+00  0.21856572904E-01 0.  0.
         14    1    1    2    0    0  0.19474411960E-01  0.99496895604E-02  0.74950374267E-02  0.23117625950E-01  0.00000000000E+00 0.  1.
     999901    1    3    3    0    0 -0.69595147574E-01 -0.11978847286E+00 -0.46540930296E-01  0.89205314920E+00  0.88000000000E+00 0. -1.
        -11    1    4    4    0    0  0.35267259994E-01  0.53618142282E-01  0.15521251421E-01  0.66029199419E-01  0.51100000000E-03 0.  1.
         11    1    4    4    0    0  0.14853475620E-01  0.56220641021E-01  0.23524641448E-01  0.62730025435E-01  0.51100000000E-03 0. -1.
</event>
<event>
 8    1  0.1208168E+005  0.1043930E+01  0.7957747E-01            NaN
         13   -1    0    0    0    0  0.00000000000E+00  0.00000000000E+00  0.74505805969E-08  0.10566000000E+00  0.10566000000E+00 0. -1.
     999900   -1    0    0    0    0 -0.00000000000E+00 -0.00000000000E+00 -0.74505805969E-08  0.93827000000E+00  0.93827000000E+00 0. -1.
     999902    2    1    2    0    0  0.10877562145E-01  0.17521058376E-01  0.48987886294E-02  0.10227331376E+01  0.10225134541E+01 0.  0.
     999903    2    3    3    0    0 -0.52631993235E-01 -0.10417254823E+00 -0.53852217627E-01  0.13015570218E+00  0.20454802606E-01 0.  0.
         14    1    1    2    0    0 -0.10877562145E-01 -0.17521058376E-01 -0.48987886294E-02  0.21196862383E-01  0.00000000000E+00 0.  1.
     999901    1    3    3    0    0  0.63509555380E-01  0.12169360661E+00  0.58751006257E-01  0.89257743544E+00  0.88000000000E+00 0. -1.
        -11    1    4    4    0    0 -0.21938536861E-01 -0.39557819237E-01 -0.10266180178E-01  0.46387240043E-01  0.51100000000E-03 0. -1.
         11    1    4    4    0    0 -0.30693456374E-01 -0.64614728996E-01 -0.43586037449E-01  0.83768462138E-01  0.51100000000E-03 0.  1.
</event>
<event>
 8    1  0.1208168E+005  0.1043930E+01  0.7957747E-01            NaN
         13   -1    0    0    0    0  0.00000000000E+00  0.00000000000E+00  0.74505805969E-08  0.10566000000E+00  0.10566000000E+00 0. -1.
     999900   -1    0    0    0    0 -0.00000000000E+00 -0.00000000000E+00 -0.74505805969E-08  0.93827000000E+00  0.93827000000E+00 0. -1.
     999902    2    1    2    0    0 -0.14644189917E-01 -0.16300923808E-01  0.13376053402E-01  0.10182572280E+01  0.10179335397E+01 0.  0.
     999903    2    3    3    0    0  0.30046961907E-01  0.98772019279E-01  0.72585675036E-01  0.12767042117E+00  0.19295712199E-01 0.  0.
         14    1    1    2    0    0  0.14644189917E-01  0.16300923808E-01 -0.13376053402E-01  0.25672771957E-01  0.00000000000E+00 0.  1.
     999901    1    3    3    0    0 -0.44691151824E-01 -0.11507294309E+00 -0.59209621634E-01  0.89058680687E+00  0.88000000000E+00 0. -1.
        -11    1    4    4    0    0  0.68509306499E-03  0.32446757243E-01  0.23975484585E-01  0.40352774256E-01  0.51100000000E-03 0. -1.
         11    1    4    4    0    0  0.29361868842E-01  0.66325262036E-01  0.48610190450E-01  0.87317646914E-01  0.51100000000E-03 0.  1.
</event>
<event>
 8    1  0.1208168E+005  0.1043930E+01  0.7957747E-01            NaN
         13   -1    0    0    0    0  0.00000000000E+00  0.00000000000E+00  0.74505805969E-08  0.10566000000E+00  0.10566000000E+00 0.  1.
     999900   -1    0    0    0    0 -0.00000000000E+00 -0.00000000000E+00 -0.74505805969E-08  0.93827000000E+00  0.93827000000E+00 0.  1.
     999902    2    1    2    0    0  0.15090592914E-01  0.15116020872E-02  0.17440397525E-01  0.10208177002E+01  0.10205560243E+01 0.  0.
     999903    2    3    3    0    0 -0.11600824921E-01  0.12636891080E+00  0.27572817201E-01  0.13154583782E+00  0.20984909913E-01 0.  0.
         14    1    1    2    0    0 -0.15090592914E-01 -0.15116020872E-02 -0.17440397525E-01  0.23112299782E-01  0.00000000000E+00 0. -1.
     999901    1    3    3    0    0  0.26691417835E-01 -0.12485730871E+00 -0.10132419676E-01  0.88927186240E+00  0.88000000000E+00 0. -1.
        -11    1    4    4    0    0  0.21493360520E-02  0.80409101369E-01  0.13634691061E-01  0.81586819706E-01  0.51100000000E-03 0. -1.
         11    1    4    4    0    0 -0.13750160973E-01  0.45959809429E-01  0.13938126140E-01  0.49959018113E-01  0.51100000000E-03 0.  1.
</event>
<event>
 8    1  0.1208168E+005  0.1043930E+01  0.7957747E-01            NaN
         13   -1    0    0    0    0  0.00000000000E+00  0.00000000000E+00  0.74505805969E-08  0.10566000000E+00  0.10566000000E+00 0.  1.
     999900   -1    0    0    0    0 -0.00000000000E+00 -0.00000000000E+00 -0.74505805969E-08  0.93827000000E+00  0.93827000000E+00 0. -1.
     999902    2    1    2    0    0 -0.86470427260E-02  0.63229249744E-02  0.18439564467E-01  0.10226047036E+01  0.10223823216E+01 0.  0.
     999903    2    3    3    0    0  0.90293237676E-01  0.85262480578E-01 -0.38317923256E-01  0.13173880746E+00  0.21547407809E-01 0.  0.
         14    1    1    2    0    0  0.86470427260E-02 -0.63229249744E-02 -0.18439564467E-01  0.21325296384E-01  0.00000000000E+00 0. -1.
     999901    1    3    3    0    0 -0.98940280402E-01 -0.78939555604E-01  0.56757487723E-01  0.89086589616E+00  0.88000000000E+00 0.  1.
        -11    1    4    4    0    0  0.23590532513E-01  0.28970735884E-01 -0.20632824546E-01  0.42682447583E-01  0.51100000000E-03 0.  1.
         11    1    4    4    0    0  0.66702705163E-01  0.56291744694E-01 -0.17685098710E-01  0.89056359875E-01  0.51100000000E-03 0. -1.
</event>
<event>
 8    1  0.1208168E+005  0.1043930E+01  0.7957747E-01            NaN
         13   -1    0    0    0    0  0.00000000000E+00  0.00000000000E+00  0.74505805969E-08  0.10566000000E+00  0.10566000000E+00 0. -1.
     999900   -1    0    0    0    0 -0.00000000000E+00 -0.00000000000E+00 -0.74505805969E-08  0.93827000000E+00  0.93827000000E+00 0. -1.
     999902    2    1    2    0    0  0.16626686645E-01  0.11699434913E-01  0.12757822551E-01  0.10199282184E+01  0.10196457645E+01 0.  0.
     999903    2    3    3    0    0 -0.73503592707E-01 -0.81233008228E-01  0.64986400549E-01  0.12892444136E+00  0.19917318050E-01 0.  0.
         14    1    1    2    0    0 -0.16626686645E-01 -0.11699434913E-01 -0.12757822551E-01  0.24001781649E-01  0.00000000000E+00 0.  1.
     999901    1    3    3    0    0  0.90130279352E-01  0.92932443141E-01 -0.52228577998E-01  0.89100377699E+00  0.88000000000E+00 0. -1.
        -11    1    4    4    0    0 -0.65178099622E-01 -0.79537622648E-01  0.60250788610E-01  0.11918404564E+00  0.51100000000E-03 0.  1.
         11    1    4    4    0    0 -0.83254930850E-02 -0.16953855802E-02  0.47356119393E-02  0.97403957215E-02  0.51100000000E-03 0. -1.
</event>
<event>
 8    1  0.1208168E+005  0.1043930E+01  0.7957747E-01            NaN
         13   -1    0    0    0    0  0.00000000000E+00  0.00000000000E+00  0.74505805969E-08  0.10566000000E+00  0.10566000000E+00 0.  1.
     999900   -1    0    0    0    0 -0.00000000000E+00 -0.00000000000E+00 -0.74505805969E-08  0.93827000000E+00  0.93827000000E+00 0.  1.
     999902    2    1    2    0    0  0.98187083509E-02 -0.17138795006E-01  0.13334745990E-01  0.10200980723E+01  0.10198196489E+01 0.  0.
     999903    2    3    3    0    0 -0.88911113944E-01 -0.79210911795E-01  0.52274844394E-01  0.13155046143E+00  0.19832040137E-01 0.  0.
         14    1    1    2    0    0 -0.98187083509E-02  0.17138795006E-01 -0.13334745990E-01  0.23831927714E-01  0.00000000000E+00 0. -1.
     999901    1    3    3    0    0  0.98729822295E-01  0.62072116789E-01 -0.38940098404E-01  0.88854761086E+00  0.88000000000E+00 0. -1.
        -11    1    4    4    0    0 -0.29800622287E-01 -0.24988643091E-01  0.72526013258E-02  0.39564766134E-01  0.51100000000E-03 0.  1.
         11    1    4    4    0    0 -0.59110491657E-01 -0.54222268704E-01  0.45022243068E-01  0.91985695297E-01  0.51100000000E-03 0. -1.
</event>
<event>
 8    1  0.1208168E+005  0.1043930E+01  0.7957747E-01            NaN
         13   -1    0    0    0    0  0.00000000000E+00  0.00000000000E+00  0.74505805969E-08  0.10566000000E+00  0.10566000000E+00 0.  1.
     999900   -1    0    0    0    0 -0.00000000000E+00 -0.00000000000E+00 -0.74505805969E-08  0.93827000000E+00  0.93827000000E+00 0.  1.
     999902    2    1    2    0    0 -0.22882709049E-01 -0.25562358859E-02  0.30875595342E-02  0.10206988627E+01  0.10204344578E+01 0.  0.
     999903    2    3    3    0    0  0.12314675254E+00 -0.29194224258E-01 -0.45309775174E-02  0.12823473001E+00  0.20154176504E-01 0.  0.
         14    1    1    2    0    0  0.22882709049E-01  0.25562358859E-02 -0.30875595342E-02  0.23231137277E-01  0.00000000000E+00 0. -1.
     999901    1    3    3    0    0 -0.14602946159E+00  0.26637988372E-01  0.76185370516E-02  0.89246413272E+00  0.88000000000E+00 0.  1.
        -11    1    4    4    0    0  0.76639752517E-01 -0.26691225922E-01 -0.78768854036E-02  0.81537596553E-01  0.51100000000E-03 0.  1.
         11    1    4    4    0    0  0.46507000027E-01 -0.25029983359E-02  0.33459078862E-02  0.46697133453E-01  0.51100000000E-03 0. -1.
</event>
<event>
 8    1  0.1208168E+005  0.1043930E+01  0.7957747E-01            NaN
         13   -1    0    0    0    0  0.00000000000E+00  0.00000000000E+00  0.74505805969E-08  0.10566000000E+00  0.10566000000E+00 0.  1.
     999900   -1    0    0    0    0 -0.00000000000E+00 -0.00000000000E+00 -0.74505805969E-08  0.93827000000E+00  0.93827000000E+00 0.  1.
     999902    2    1    2    0    0  0.11396543279E-01 -0.22465721808E-02  0.20417162363E-01  0.10204398147E+01  0.10201694108E+01 0.  0.
     999903    2    3    3    0    0  0.53720208239E-01 -0.56990808852E-01 -0.10131461385E+00  0.12936919496E+00  0.18382724442E-01 0.  0.
         14    1    1    2    0    0 -0.11396543279E-01  0.22465721808E-02 -0.20417162363E-01  0.23490185274E-01  0.00000000000E+00 0. -1.
     999901    1    3    3    0    0 -0.42323664960E-01  0.54744236671E-01  0.12173177622E+00  0.89107061976E+00  0.88000000000E+00 0. -1.
        -11    1    4    4    0    0  0.21359513252E-01 -0.35731056147E-01 -0.55588361140E-01  0.69449724225E-01  0.51100000000E-03 0.  1.
         11    1    4    4    0    0  0.32360694987E-01 -0.21259752705E-01 -0.45726252714E-01  0.59919470737E-01  0.51100000000E-03 0. -1.
</event>
<event>
 8    1  0.1208168E+005  0.1043930E+01  0.7957747E-01            NaN
         13   -1    0    0    0    0  0.00000000000E+00  0.00000000000E+00  0.74505805969E-08  0.10566000000E+00  0.10566000000E+00 0.  1.
     999900   -1    0    0    0    0 -0.00000000000E+00 -0.00000000000E+00 -0.74505805969E-08  0.93827000000E+00  0.93827000000E+00 0. -1.
     999902    2    1    2    0    0  0.18918799007E-01  0.80632743060E-02 -0.90203344456E-02  0.10214732909E+01  0.10212264099E+01 0.  0.
     999903    2    3    3    0    0 -0.27190690630E-01 -0.82509181243E-01 -0.96540344862E-01  0.13131082994E+00  0.19375170408E-01 0.  0.
         14    1    1    2    0    0 -0.18918799007E-01 -0.80632743060E-02  0.90203344456E-02  0.22456709062E-01  0.00000000000E+00 0.  1.
     999901    1    3    3    0    0  0.46109489637E-01  0.90572455549E-01  0.87520010416E-01  0.89016246099E+00  0.88000000000E+00 0.  1.
        -11    1    4    4    0    0 -0.91774623450E-02 -0.11456607531E-01 -0.24298700041E-01  0.28393090989E-01  0.51100000000E-03 0.  1.
         11    1    4    4    0    0 -0.18013228285E-01 -0.71052573712E-01 -0.72241644820E-01  0.10291773896E+00  0.51100000000E-03 0. -1.
</event>
<event>
 8    1  0.1208168E+005  0.1043930E+01  0.7957747E-01            NaN
         13   -1    0    0    0    0  0.00000000000E+00  0.00000000000E+00  0.74505805969E-08  0.10566000000E+00  0.10566000000E+00 0. -1.
     999900   -1    0    0    0    0 -0.00000000000E+00 -0.00000000000E+00 -0.74505805969E-08  0.93827000000E+00  0.93827000000E+00 0. -1.
     999902    2    1    2    0    0 -0.26606700358E-01  0.84620687032E-02 -0.22495749406E-02  0.10159195788E+01  0.10155333608E+01 0.  0.
     999903    2    3    3    0    0  0.98602865936E-01 -0.36436609539E-01 -0.62162853975E-01  0.12390896907E+00  0.20953770907E-01 0.  0.
         14    1    1    2    0    0  0.26606700358E-01 -0.84620687032E-02  0.22495749406E-02  0.28010421241E-01  0.00000000000E+00 0.  1.
     999901    1    3    3    0    0 -0.12520956629E+00  0.44898678243E-01  0.59913279035E-01  0.89201060969E+00  0.88000000000E+00 0.  1.
        -11    1    4    4    0    0  0.96774316916E-02 -0.15795902382E-03 -0.12405433493E-01  0.15742729634E-01  0.51100000000E-03 0.  1.
         11    1    4    4    0    0  0.88925434244E-01 -0.36278650516E-01 -0.49757420482E-01  0.10816623943E+00  0.51100000000E-03 0. -1.
</event>
<event>
 8    1  0.1208168E+005  0.1043930E+01  0.7957747E-01            NaN
         13   -1    0    0    0    0  0.00000000000E+00  0.00000000000E+00  0.74505805969E-08  0.10566000000E+00  0.10566000000E+00 0. -1.
     999900   -1    0    0    0    0 -0.00000000000E+00 -0.00000000000E+00 -0.74505805969E-08  0.93827000000E+00  0.93827000000E+00 0.  1.
     999902    2    1    2    0    0  0.38002747476E-02  0.23209695188E-01  0.34623533469E-02  0.10201577487E+01  0.10198807344E+01 0.  0.
     999903    2    3    3    0    0 -0.32315139952E-01  0.11864798986E+00  0.50056931754E-01  0.13303664878E+00  0.84522029209E-02 0.  0.
         14    1    1    2    0    0 -0.38002747476E-02 -0.23209695188E-01 -0.34623533469E-02  0.23772251252E-01  0.00000000000E+00 0.  1.
     999901    1    3    3    0    0  0.36115414700E-01 -0.95438294674E-01 -0.46594578407E-01  0.88712109997E+00  0.88000000000E+00 0.  1.
        -11    1    4    4    0    0 -0.80621934538E-02  0.40766829333E-01  0.19788689082E-01  0.46030279966E-01  0.51100000000E-03 0. -1.
         11    1    4    4    0    0 -0.24252946498E-01  0.77881160528E-01  0.30268242672E-01  0.87006368816E-01  0.51100000000E-03 0.  1.
</event>
<event>
 8    1  0.1208168E+005  0.1043930E+01  0.7957747E-01            NaN
         13   -1    0    0    0    0  0.00000000000E+00  0.00000000000E+00  0.74505805969E-08  0.10566000000E+00  0.10566000000E+00 0. -1.
     999900   -1    0    0    0    0 -0.00000000000E+00 -0.00000000000E+00 -0.74505805969E-08  0.93827000000E+00  0.93827000000E+00 0. -1.
     999902    2    1    2    0    0 -0.72314248894E-02  0.15301583762E-01  0.17615954584E-01  0.10195014547E+01  0.10192087432E+01 0.  0.
     999903    2    3    3    0    0 -0.52287887385E-01  0.11324860016E+00 -0.35993818762E-01  0.13130231560E+00  0.19633504187E-01 0.  0.
         14    1    1    2    0    0  0.72314248894E-02 -0.15301583762E-01 -0.17615954584E-01  0.24428545340E-01  0.00000000000E+00 0.  1.
     999901    1    3    3    0    0  0.45056462496E-01 -0.97947016398E-01  0.53609773346E-01  0.88819913906E+00  0.88000000000E+00 0.  1.
        -11    1    4    4    0    0 -0.12508443430E-01  0.49778271469E-01 -0.16189148582E-01  0.53820879966E-01  0.51100000000E-03 0.  1.
         11    1    4    4    0    0 -0.39779443955E-01  0.63470328690E-01 -0.19804670179E-01  0.77481435630E-01  0.51100000000E-03 0. -1.
</event>
<event>
 8    1  0.1208168E+005  0.1043930E+01  0.7957747E-01            NaN
         13   -1    0    0    0    0  0.00000000000E+00  0.00000000000E+00  0.74505805969E-08  0.10566000000E+00  0.10566000000E+00 0. -1.
     999900   -1    0    0    0    0 -0.00000000000E+00 -0.00000000000E+00 -0.74505805969E-08  0.93827000000E+00  0.93827000000E+00 0. -1.
     999902    2    1    2    0    0  0.15142928991E-01  0.17237564631E-01 -0.64267652719E-02  0.10201025947E+01  0.10198242782E+01 0.  0.
     999903    2    3    3    0    0  0.10226114422E+00 -0.63820475104E-01  0.45723622852E-01  0.13056358360E+00  0.20635043401E-01 0.  0.
         14    1    1    2    0    0 -0.15142928991E-01 -0.17237564631E-01  0.64267652719E-02  0.23827405329E-01  0.00000000000E+00 0. -1.
     999901    1    3    3    0    0 -0.87118215232E-01  0.81058039736E-01 -0.52150388123E-01  0.88953901107E+00  0.88000000000E+00 0. -1.
        -11    1    4    4    0    0  0.50079101901E-01 -0.35176653476E-01  0.12759381105E-01  0.62517008279E-01  0.51100000000E-03 0. -1.
         11    1    4    4    0    0  0.52182042323E-01 -0.28643821628E-01  0.32964241746E-01  0.68046575324E-01  0.51100000000E-03 0.  1.
</event>
<event>
 8    1  0.1208168E+005  0.1043930E+01  0.7957747E-01            NaN
         13   -1    0    0    0    0  0.00000000000E+00  0.00000000000E+00  0.74505805969E-08  0.10566000000E+00  0.10566000000E+00 0. -1.
     999900   -1    0    0    0    0 -0.00000000000E+00 -0.00000000000E+00 -0.74505805969E-08  0.93827000000E+00  0.93827000000E+00 0. -1.
     999902    2    1    2    0    0  0.21846308822E-01 -0.34416780383E-02  0.31831998841E-03  0.10218119602E+01  0.10215725497E+01 0.  0.
     999903    2    3    3    0    0  0.76274468818E-01 -0.84463264496E-01  0.67952614306E-01  0.13383599215E+00  0.18511546686E-01 0.  0.
         14    1    1    2    0    0 -0.21846308822E-01  0.34416780383E-02 -0.31831998841E-03  0.22118039798E-01  0.00000000000E+00 0.  1.
     999901    1    3    3    0    0 -0.54428159995E-01  0.81021586458E-01 -0.67634294318E-01  0.88797596805E+00  0.88000000000E+00 0. -1.
        -11    1    4    4    0    0  0.56908808045E-01 -0.54664825792E-01  0.54167123537E-01  0.95714126467E-01  0.51100000000E-03 0. -1.
         11    1    4    4    0    0  0.19365660773E-01 -0.29798438704E-01  0.13785490769E-01  0.38121865682E-01  0.51100000000E-03 0.  1.
</event>
<event>
 8    1  0.1208168E+005  0.1043930E+01  0.7957747E-01            NaN
         13   -1    0    0    0    0  0.00000000000E+00  0.00000000000E+00  0.74505805969E-08  0.10566000000E+00  0.10566000000E+00 0. -1.
     999900   -1    0    0    0    0 -0.00000000000E+00 -0.00000000000E+00 -0.74505805969E-08  0.93827000000E+00  0.93827000000E+00 0.  1.
     999902    2    1    2    0    0 -0.13799229503E-01 -0.21677514484E-01 -0.13861538639E-02  0.10181956884E+01  0.10178704265E+01 0.  0.
     999903    2    3    3    0    0  0.67098669289E-01 -0.72129674492E-01 -0.81323426862E-01  0.12944383438E+00  0.20911363878E-01 0.  0.
         14    1    1    2    0    0  0.13799229503E-01  0.21677514484E-01  0.13861538639E-02  0.25734311563E-01  0.00000000000E+00 0.  1.
     999901    1    3    3    0    0 -0.80897898792E-01  0.50452160009E-01  0.79937272999E-01  0.88875185406E+00  0.88000000000E+00 0. -1.
        -11    1    4    4    0    0  0.22922805963E-01 -0.13732973882E-01 -0.15004386977E-01  0.30650323888E-01  0.51100000000E-03 0. -1.
         11    1    4    4    0    0  0.44175863326E-01 -0.58396700610E-01 -0.66319039886E-01  0.98793510491E-01  0.51100000000E-03 0.  1.
</event>
<event>
 8    1  0.1208168E+005  0.1043930E+01  0.7957747E-01            NaN
         13   -1    0    0    0    0  0.00000000000E+00  0.00000000000E+00  0.74505805969E-08  0.10566000000E+00  0.10566000000E+00 0. -1.
     999900   -1    0    0    0    0 -0.00000000000E+00 -0.00000000000E+00 -0.74505805969E-08  0.93827000000E+00  0.93827000000E+00 0.  1.
     999902    2    1    2    0    0 -0.13549925603E-01  0.18930433558E-01 -0.52323491314E-02  0.10200691686E+01  0.10197900614E+01 0.  0.
     999903    2    3    3    0    0 -0.10386926876E+00  0.57001045525E-01 -0.55350203395E-01  0.13321024262E+00  0.25364927321E-01 0.  0.
         14    1    1    2    0    0  0.13549925603E-01 -0.18930433558E-01  0.52323491314E-02  0.23860831418E-01  0.00000000000E+00 0.  1.
     999901    1    3    3    0    0  0.90319343162E-01 -0.38070611967E-01  0.50117854264E-01  0.88685892596E+00  0.88000000000E+00 0. -1.
        -11    1    4    4    0    0 -0.76504247519E-01  0.46123535992E-01 -0.29662392319E-01  0.94129692977E-01  0.51100000000E-03 0.  1.
         11    1    4    4    0    0 -0.27365021246E-01  0.10877509533E-01 -0.25687811076E-01  0.39080549642E-01  0.51100000000E-03 0. -1.
</event>
<event>
 8    1  0.1208168E+005  0.1043930E+01  0.7957747E-01            NaN
         13   -1    0    0    0    0  0.00000000000E+00  0.00000000000E+00  0.74505805969E-08  0.10566000000E+00  0.10566000000E+00 0. -1.
     999900   -1    0    0    0    0 -0.00000000000E+00 -0.00000000000E+00 -0.74505805969E-08  0.93827000000E+00  0.93827000000E+00 0. -1.
     999902    2    1    2    0    0  0.17630048217E-01  0.76689516363E-02  0.14896994417E-01  0.10196081608E+01  0.10193180317E+01 0.  0.
     999903    2    3    3    0    0 -0.29171775874E-01  0.12355720897E+00 -0.18437778250E-01  0.13015231255E+00  0.21961247678E-01 0.  0.
         14    1    1    2    0    0 -0.17630048217E-01 -0.76689516363E-02 -0.14896994417E-01  0.24321839198E-01  0.00000000000E+00 0.  1.
     999901    1    3    3    0    0  0.46801824091E-01 -0.11588825733E+00  0.33334772667E-01  0.88945584825E+00  0.88000000000E+00 0.  1.
        -11    1    4    4    0    0 -0.32248616285E-01  0.99937840191E-01 -0.14750678799E-01  0.10604427755E+00  0.51100000000E-03 0. -1.
         11    1    4    4    0    0  0.30768404112E-02  0.23619368775E-01 -0.36870994511E-02  0.24108035001E-01  0.51100000000E-03 0.  1.
</event>
<event>
 8    1  0.1208168E+005  0.1043930E+01  0.7957747E-01            NaN
         13   -1    0    0    0    0  0.00000000000E+00  0.00000000000E+00  0.74505805969E-08  0.10566000000E+00  0.10566000000E+00 0. -1.
     999900   -1    0    0    0    0 -0.00000000000E+00 -0.00000000000E+00 -0.74505805969E-08  0.93827000000E+00  0.93827000000E+00 0. -1.
     999902    2    1    2    0    0 -0.22872105753E-02 -0.22158950562E-01 -0.67496913824E-02  0.10206532142E+01  0.10203877572E+01 0.  0.
     999903    2    3    3    0    0 -0.85845797068E-01 -0.23300169855E-01 -0.96107754688E-01  0.13218925703E+00  0.18024993021E-01 0.  0.
         14    1    1    2    0    0  0.22872105753E-02  0.22158950562E-01  0.67496913824E-02  0.23276785774E-01  0.00000000000E+00 0. -1.
     999901    1    3    3    0    0  0.83558586493E-01  0.11412192923E-02  0.89358063305E-01  0.88846395720E+00  0.88000000000E+00 0.  1.
        -11    1    4    4    0    0 -0.44984429924E-01 -0.77878289424E-02 -0.60603039045E-01  0.75876469856E-01  0.51100000000E-03 0. -1.
         11    1    4    4    0    0 -0.40861367144E-01 -0.15512340912E-01 -0.35504715643E-01  0.56312787174E-01  0.51100000000E-03 0.  1.
</event>
<event>
 8    1  0.1208168E+005  0.1043930E+01  0.7957747E-01            NaN
         13   -1    0    0    0    0  0.00000000000E+00  0.00000000000E+00  0.74505805969E-08  0.10566000000E+00  0.10566000000E+00 0. -1.
     999900   -1    0    0    0    0 -0.00000000000E+00 -0.00000000000E+00 -0.74505805969E-08  0.93827000000E+00  0.93827000000E+00 0.  1.
     999902    2    1    2    0    0  0.89215528616E-02 -0.17345898318E-01  0.12079844102E-01  0.10209866583E+01  0.10207288374E+01 0.  0.
     999903    2    3    3    0    0 -0.37297536342E-01 -0.12242703929E+00 -0.28276444388E-01  0.13261349325E+00  0.20181553950E-01 0.  0.
         14    1    1    2    0    0 -0.89215528616E-02  0.17345898318E-01 -0.12079844102E-01  0.22943341680E-01  0.00000000000E+00 0.  1.
     999901    1    3    3    0    0  0.46219089203E-01  0.10508114097E+00  0.40356288490E-01  0.88837316507E+00  0.88000000000E+00 0. -1.
        -11    1    4    4    0    0 -0.29902877118E-02 -0.27969463309E-01 -0.12891557262E-01  0.30946503325E-01  0.51100000000E-03 0.  1.
         11    1    4    4    0    0 -0.34307248630E-01 -0.94457575976E-01 -0.15384887126E-01  0.10166698993E+00  0.51100000000E-03 0. -1.
</event>
<event>
 8    1  0.1208168E+005  0.1043930E+01  0.7957747E-01            NaN
         13   -1    0    0    0    0  0.00000000000E+00  0.00000000000E+00  0.74505805969E-08  0.10566000000E+00  0.10566000000E+00 0.  1.
     999900   -1    0    0    0    0 -0.00000000000E+00 -0.00000000000E+00 -0.74505805969E-08  0.93827000000E+00  0.93827000000E+00 0. -1.
     999902    2    1    2    0    0 -0.20640729398E-01  0.10550658782E-01  0.35807324521E-02  0.10204741317E+01  0.10202045265E+01 0.  0.
     999903    2    3    3    0    0 -0.39510373121E-01  0.29302301460E-01  0.12125436854E+00  0.13224287121E+00  0.19127483939E-01 0.  0.
         14    1    1    2    0    0  0.20640729398E-01 -0.10550658782E-01 -0.35807324521E-02  0.23455868257E-01  0.00000000000E+00 0.  1.
     999901    1    3    3    0    0  0.18869643724E-01 -0.18751642678E-01 -0.11767363608E+00  0.88823126053E+00  0.88000000000E+00 0. -1.
        -11    1    4    4    0    0 -0.10687584284E-01  0.16142880913E-01  0.63226682957E-01  0.66126330767E-01  0.51100000000E-03 0.  1.
         11    1    4    4    0    0 -0.28822788837E-01  0.13159420547E-01  0.58027685580E-01  0.66116540444E-01  0.51100000000E-03 0. -1.
</event>
<event>
 8    1  0.1208168E+005  0.1043930E+01  0.7957747E-01            NaN
         13   -1    0    0    0    0  0.00000000000E+00  0.00000000000E+00  0.74505805969E-08  0.10566000000E+00  0.10566000000E+00 0. -1.
     999900   -1    0    0    0    0 -0.00000000000E+00 -0.00000000000E+00 -0.74505805969E-08  0.93827000000E+00  0.93827000000E+00 0.  1.
     999902    2    1    2    0    0 -0.23285073635E-01 -0.18736797370E-03  0.40562564895E-02  0.10202935244E+01  0.10200197023E+01 0.  0.
     999903    2    3    3    0    0  0.11367027559E+00  0.34422455440E-01 -0.42930387862E-01  0.12779010577E+00  0.19530897065E-01 0.  0.
         14    1    1    2    0    0  0.23285073635E-01  0.18736797370E-03 -0.40562564895E-02  0.23636475576E-01  0.00000000000E+00 0. -1.
     999901    1    3    3    0    0 -0.13695534922E+00 -0.34609823414E-01  0.46986644351E-01  0.89250341865E+00  0.88000000000E+00 0.  1.
        -11    1    4    4    0    0  0.90732149911E-01  0.33026643794E-01 -0.28605425288E-01  0.10070557931E+00  0.51100000000E-03 0. -1.
         11    1    4    4    0    0  0.22938125679E-01  0.13958116459E-02 -0.14324962574E-01  0.27084526460E-01  0.51100000000E-03 0.  1.
</event>
<event>
 8    1  0.1208168E+005  0.1043930E+01  0.7957747E-01            NaN
         13   -1    0    0    0    0  0.00000000000E+00  0.00000000000E+00  0.74505805969E-08  0.10566000000E+00  0.10566000000E+00 0.  1.
     999900   -1    0    0    0    0 -0.00000000000E+00 -0.00000000000E+00 -0.74505805969E-08  0.93827000000E+00  0.93827000000E+00 0. -1.
     999902    2    1    2    0    0 -0.22760932904E-02 -0.27042413064E-03 -0.24058686437E-01  0.10197623745E+01  0.10194759567E+01 0.  0.
     999903    2    3    3    0    0 -0.10646780157E-01  0.12323626350E+00 -0.38648031985E-01  0.13097847539E+00  0.19004211949E-01 0.  0.
         14    1    1    2    0    0  0.22760932904E-02  0.27042413064E-03  0.24058686437E-01  0.24167625513E-01  0.00000000000E+00 0.  1.
     999901    1    3    3    0    0  0.83706868670E-02 -0.12350668763E+00  0.14589345548E-01  0.88878389909E+00  0.88000000000E+00 0. -1.
        -11    1    4    4    0    0 -0.13615447710E-01  0.57234645404E-01 -0.14142410056E-01  0.60509949050E-01  0.51100000000E-03 0.  1.
         11    1    4    4    0    0  0.29686675529E-02  0.66001618091E-01 -0.24505621929E-01  0.70468526342E-01  0.51100000000E-03 0. -1.
</event>
<event>
 8    1  0.1208168E+005  0.1043930E+01  0.7957747E-01            NaN
         13   -1    0    0    0    0  0.00000000000E+00  0.00000000000E+00  0.74505805969E-08  0.10566000000E+00  0.10566000000E+00 0.  1.
     999900   -1    0    0    0    0 -0.00000000000E+00 -0.00000000000E+00 -0.74505805969E-08  0.93827000000E+00  0.93827000000E+00 0.  1.
     999902    2    1    2    0    0  0.80896117279E-02  0.21789633117E-01 -0.57357807393E-02  0.10199898849E+01  0.10197088978E+01 0.  0.
     999903    2    3    3    0    0  0.46286137410E-01 -0.38648797559E-01 -0.11424901705E+00  0.13044679944E+00  0.18094018829E-01 0.  0.
         14    1    1    2    0    0 -0.80896117279E-02 -0.21789633117E-01  0.57357807393E-02  0.23940115079E-01  0.00000000000E+00 0.  1.
     999901    1    3    3    0    0 -0.38196525683E-01  0.60438430677E-01  0.10851323631E+00  0.88954308548E+00  0.88000000000E+00 0. -1.
        -11    1    4    4    0    0  0.24920422330E-01 -0.27558013374E-01 -0.53856615331E-01  0.65431396792E-01  0.51100000000E-03 0.  1.
         11    1    4    4    0    0  0.21365715081E-01 -0.11090784185E-01 -0.60392401719E-01  0.65015402646E-01  0.51100000000E-03 0. -1.
</event>
<event>
 8    1  0.1208168E+005  0.1043930E+01  0.7957747E-01            NaN
         13   -1    0    0    0    0  0.00000000000E+00  0.00000000000E+00  0.74505805969E-08  0.10566000000E+00  0.10566000000E+00 0. -1.
     999900   -1    0    0    0    0 -0.00000000000E+00 -0.00000000000E+00 -0.74505805969E-08  0.93827000000E+00  0.93827000000E+00 0. -1.
     999902    2    1    2    0    0  0.23153090131E-01  0.23863749092E-02 -0.35805912451E-02  0.10203804564E+01  0.10201086682E+01 0.  0.
     999903    2    3    3    0    0  0.33343148015E-01 -0.87819938284E-01 -0.89844056455E-01  0.13151466138E+00  0.20001114891E-01 0.  0.
         14    1    1    2    0    0 -0.23153090131E-01 -0.23863749092E-02  0.35805912451E-02  0.23549543551E-01  0.00000000000E+00 0. -1.
     999901    1    3    3    0    0 -0.10190057885E-01  0.90206313193E-01  0.86263465210E-01  0.88886579507E+00  0.88000000000E+00 0.  1.
        -11    1    4    4    0    0  0.23218338889E-01 -0.42291524199E-01 -0.35517823684E-01  0.59911945387E-01  0.51100000000E-03 0. -1.
         11    1    4    4    0    0  0.10124809126E-01 -0.45528414085E-01 -0.54326232771E-01  0.71602715989E-01  0.51100000000E-03 0.  1.
</event>
<event>
 8    1  0.1208168E+005  0.1043930E+01  0.7957747E-01            NaN
         13   -1    0    0    0    0  0.00000000000E+00  0.00000000000E+00  0.74505805969E-08  0.10566000000E+00  0.10566000000E+00 0.  1.
     999900   -1    0    0    0    0 -0.00000000000E+00 -0.00000000000E+00 -0.74505805969E-08  0.93827000000E+00  0.93827000000E+00 0.  1.
     999902    2    1    2    0    0  0.14497910534E-01  0.15501279326E-01 -0.84677510451E-02  0.10210787007E+01  0.10208229676E+01 0.  0.
     999903    2    3    3    0    0 -0.12599923210E-01  0.13018860851E+00 -0.15039354662E-01  0.13319883158E+00  0.20196898160E-01 0.  0.
         14    1    1    2    0    0 -0.14497910534E-01 -0.15501279326E-01  0.84677510451E-02  0.22851299270E-01  0.00000000000E+00 0.  1.
     999901    1    3    3    0    0  0.27097833744E-01 -0.11468732918E+00  0.65716036165E-02  0.88787986915E+00  0.88000000000E+00 0.  1.
        -11    1    4    4    0    0 -0.16607607746E-01  0.76702211689E-01 -0.50984133053E-02  0.78646658240E-01  0.51100000000E-03 0. -1.
         11    1    4    4    0    0  0.40076845360E-02  0.53486396819E-01 -0.99409413563E-02  0.54552173340E-01  0.51100000000E-03 0.  1.
</event>
<event>
 8    1  0.1208168E+005  0.1043930E+01  0.7957747E-01            NaN
         13   -1    0    0    0    0  0.00000000000E+00  0.00000000000E+00  0.74505805969E-08  0.10566000000E+00  0.10566000000E+00 0.  1.
     999900   -1    0    0    0    0 -0.00000000000E+00 -0.00000000000E+00 -0.74505805969E-08  0.93827000000E+00  0.93827000000E+00 0. -1.
     999902    2    1    2    0    0  0.16492467392E-01 -0.15338647217E-01 -0.10177371857E-01  0.10192145296E+01  0.10189148163E+01 0.  0.
     999903    2    3    3    0    0  0.86558668617E-01 -0.90766918660E-01  0.35837705843E-01  0.13201890063E+00  0.20337461195E-01 0.  0.
         14    1    1    2    0    0 -0.16492467392E-01  0.15338647217E-01  0.10177371857E-01  0.24715470399E-01  0.00000000000E+00 0.  1.
     999901    1    3    3    0    0 -0.70066201225E-01  0.75428271443E-01 -0.46015077700E-01  0.88719562897E+00  0.88000000000E+00 0. -1.
        -11    1    4    4    0    0  0.74786783807E-01 -0.66468533251E-01  0.28260068372E-01  0.10397125338E+00  0.51100000000E-03 0. -1.
         11    1    4    4    0    0  0.11771884810E-01 -0.24298385409E-01  0.75776374712E-02  0.28047647248E-01  0.51100000000E-03 0.  1.
</event>
<event>
 8    1  0.1208168E+005  0.1043930E+01  0.7957747E-01            NaN
         13   -1    0    0    0    0  0.00000000000E+00  0.00000000000E+00  0.74505805969E-08  0.10566000000E+00  0.10566000000E+00 0. -1.
     999900   -1    0    0    0    0 -0.00000000000E+00 -0.00000000000E+00 -0.74505805969E-08  0.93827000000E+00  0.93827000000E+00 0.  1.
     999902    2    1    2    0    0  0.17331783893E-01  0.15470109942E-01 -0.24060834339E-02  0.10205739671E+01  0.10203066784E+01 0.  0.
     999903    2    3    3    0    0 -0.87589908409E-01  0.38580650923E-01 -0.85889611240E-01  0.13011781545E+00  0.19828310537E-01 0.  0.
         14    1    1    2    0    0 -0.17331783893E-01 -0.15470109942E-01  0.24060834339E-02  0.23356032883E-01  0.00000000000E+00 0. -1.
     999901    1    3    3    0    0  0.10492169230E+00 -0.23110540981E-01  0.83483527807E-01  0.89045615166E+00  0.88000000000E+00 0. -1.
        -11    1    4    4    0    0 -0.12400570155E-01  0.85685274075E-02 -0.23433207151E-01  0.27867007742E-01  0.51100000000E-03 0.  1.
         11    1    4    4    0    0 -0.75189338254E-01  0.30012123515E-01 -0.62456404089E-01  0.10225080771E+00  0.51100000000E-03 0. -1.
</event>
<event>
 8    1  0.1208168E+005  0.1043930E+01  0.7957747E-01            NaN
         13   -1    0    0    0    0  0.00000000000E+00  0.00000000000E+00  0.74505805969E-08  0.10566000000E+00  0.10566000000E+00 0. -1.
     999900   -1    0    0    0    0 -0.00000000000E+00 -0.00000000000E+00 -0.74505805969E-08  0.93827000000E+00  0.93827000000E+00 0.  1.
     999902    2    1    2    0    0 -0.19297006437E-01 -0.11008379872E-02  0.12851540389E-01  0.10207190459E+01  0.10204551054E+01 0.  0.
     999903    2    3    3    0    0 -0.54479597611E-01 -0.40242798737E-01 -0.10982492836E+00  0.13065195637E+00  0.20516076794E-01 0.  0.
         14    1    1    2    0    0  0.19297006437E-01  0.11008379872E-02 -0.12851540389E-01  0.23210954140E-01  0.00000000000E+00 0.  1.
     999901    1    3    3    0    0  0.35182591174E-01  0.39141960750E-01  0.12267646875E+00  0.89006708949E+00  0.88000000000E+00 0.  1.
        -11    1    4    4    0    0 -0.71560777484E-02 -0.80282079321E-02 -0.33854855079E-01  0.35525679512E-01  0.51100000000E-03 0.  1.
         11    1    4    4    0    0 -0.47323519863E-01 -0.32214590805E-01 -0.75970073282E-01  0.95126276855E-01  0.51100000000E-03 0. -1.
</event>
<event>
 8    1  0.1208168E+005  0.1043930E+01  0.7957747E-01            NaN
         13   -1    0    0    0    0  0.00000000000E+00  0.00000000000E+00  0.74505805969E-08  0.10566000000E+00  0.10566000000E+00 0. -1.
     999900   -1    0    0    0    0 -0.00000000000E+00 -0.00000000000E+00 -0.74505805969E-08  0.93827000000E+00  0.93827000000E+00 0.  1.
     999902    2    1    2    0    0  0.69446616455E-02  0.21753225512E-01 -0.46500482404E-02  0.10206264789E+01  0.10203604047E+01 0.  0.
     999903    2    3    3    0    0  0.12340426655E+00 -0.38198916053E-01 -0.63210982433E-02  0.13092996255E+00  0.20369796749E-01 0.  0.
         14    1    1    2    0    0 -0.69446616455E-02 -0.21753225512E-01  0.46500482404E-02  0.23303521068E-01  0.00000000000E+00 0.  1.
     999901    1    3    3    0    0 -0.11645960491E+00  0.59952141565E-01  0.16710500029E-02  0.88969651638E+00  0.88000000000E+00 0. -1.
        -11    1    4    4    0    0  0.64675975957E-01 -0.11033816812E-01  0.22807480682E-02  0.65652036618E-01  0.51100000000E-03 0. -1.
         11    1    4    4    0    0  0.58728290595E-01 -0.27165099241E-01 -0.86018463114E-02  0.65277925932E-01  0.51100000000E-03 0.  1.
</event>
<event>
 8    1  0.1208168E+005  0.1043930E+01  0.7957747E-01            NaN
         13   -1    0    0    0    0  0.00000000000E+00  0.00000000000E+00  0.74505805969E-08  0.10566000000E+00  0.10566000000E+00 0.  1.
     999900   -1    0    0    0    0 -0.00000000000E+00 -0.00000000000E+00 -0.74505805969E-08  0.93827000000E+00  0.93827000000E+00 0.  1.
     999902    2    1    2    0    0 -0.81841816138E-02  0.10046215805E-01 -0.20818764429E-01  0.10194080051E+01  0.10191130225E+01 0.  0.
     999903    2    3    3    0    0  0.33648162888E-01  0.19613775783E-01 -0.12482217688E+00  0.13224500259E+00  0.19780439941E-01 0.  0.
         14    1    1    2    0    0  0.81841816138E-02 -0.10046215805E-01  0.20818764429E-01  0.24521994883E-01  0.00000000000E+00 0. -1.
     999901    1    3    3    0    0 -0.41832344501E-01 -0.95675599773E-02  0.10400341245E+00  0.88716300253E+00  0.88000000000E+00 0. -1.
        -11    1    4    4    0    0  0.18157532515E-01  0.20987526670E-01 -0.87893639327E-01  0.92172258396E-01  0.51100000000E-03 0. -1.
         11    1    4    4    0    0  0.15490630372E-01 -0.13737508869E-02 -0.36928537548E-01  0.40072744195E-01  0.51100000000E-03 0.  1.
</event>
<event>
 8    1  0.1208168E+005  0.1043930E+01  0.7957747E-01            NaN
         13   -1    0    0    0    0  0.00000000000E+00  0.00000000000E+00  0.74505805969E-08  0.10566000000E+00  0.10566000000E+00 0.  1.
     999900   -1    0    0    0    0 -0.00000000000E+00 -0.00000000000E+00 -0.74505805969E-08  0.93827000000E+00  0.93827000000E+00 0. -1.
     999902    2    1    2    0    0  0.20238547674E-01 -0.83962205085E-02  0.87375328672E-02  0.10203410235E+01  0.10200683136E+01 0.  0.
     999903    2    3    3    0    0 -0.62779985849E-01 -0.10818885370E+00  0.31634296645E-01  0.13052367803E+00  0.19736947942E-01 0.  0.
         14    1    1    2    0    0 -0.20238547674E-01  0.83962205085E-02 -0.87375328672E-02  0.23588976480E-01  0.00000000000E+00 0.  1.
     999901    1    3    3    0    0  0.83018533522E-01  0.99792633190E-01 -0.22896763777E-01  0.88981734549E+00  0.88000000000E+00 0. -1.
        -11    1    4    4    0    0 -0.35247102380E-01 -0.43130637463E-01  0.96286218413E-02  0.56529475442E-01  0.51100000000E-03 0. -1.
         11    1    4    4    0    0 -0.27532883468E-01 -0.65058216235E-01  0.22005674803E-01  0.73994202586E-01  0.51100000000E-03 0.  1.
</event>
<event>
 8    1  0.1208168E+005  0.1043930E+01  0.7957747E-01            NaN
         13   -1    0    0    0    0  0.00000000000E+00  0.00000000000E+00  0.74505805969E-08  0.10566000000E+00  0.10566000000E+00 0.  1.
     999900   -1    0    0    0    0 -0.00000000000E+00 -0.00000000000E+00 -0.74505805969E-08  0.93827000000E+00  0.93827000000E+00 0.  1.
     999902    2    1    2    0    0  0.22002642552E-01 -0.10002033943E-02 -0.91358864308E-02  0.10200850612E+01  0.10198063301E+01 0.  0.
     999903    2    3    3    0    0  0.33888097455E-01 -0.12737819536E-01  0.12331449343E+00  0.13001644653E+00  0.19676302608E-01 0.  0.
         14    1    1    2    0    0 -0.22002642552E-01  0.10002033943E-02  0.91358864308E-02  0.23844938812E-01  0.00000000000E+00 0.  1.
     999901    1    3    3    0    0 -0.11885454904E-01  0.11737616142E-01 -0.13245037986E+00  0.89006861466E+00  0.88000000000E+00 0.  1.
        -11    1    4    4    0    0  0.28342704855E-01 -0.12590208941E-02  0.81457781856E-01  0.86258480151E-01  0.51100000000E-03 0. -1.
         11    1    4    4    0    0  0.55453926000E-02 -0.11478798642E-01  0.41856711570E-01  0.43757966381E-01  0.51100000000E-03 0.  1.
</event>
<event>
 8    1  0.1208168E+005  0.1043930E+01  0.7957747E-01            NaN
         13   -1    0    0    0    0  0.00000000000E+00  0.00000000000E+00  0.74505805969E-08  0.10566000000E+00  0.10566000000E+00 0.  1.
     999900   -1    0    0    0    0 -0.00000000000E+00 -0.00000000000E+00 -0.74505805969E-08  0.93827000000E+00  0.93827000000E+00 0.  1.
     999902    2    1    2    0    0 -0.63085121003E-02  0.21447386992E-01  0.15717462344E-01  0.10166018761E+01  0.10162344947E+01 0.  0.
     999903    2    3    3    0    0  0.30980615761E-01 -0.11752469772E+00 -0.16682654889E-01  0.12432754217E+00  0.20178544064E-01 0.  0.
         14    1    1    2    0    0  0.63085121003E-02 -0.21447386992E-01 -0.15717462344E-01  0.27328123906E-01  0.00000000000E+00 0.  1.
     999901    1    3    3    0    0 -0.37289127861E-01  0.13897208471E+00  0.32400117233E-01  0.89227433393E+00  0.88000000000E+00 0.  1.
        -11    1    4    4    0    0  0.22133406492E-02 -0.44428756797E-01 -0.29776540315E-02  0.44586330326E-01  0.51100000000E-03 0. -1.
         11    1    4    4    0    0  0.28767275112E-01 -0.73095940922E-01 -0.13705000857E-01  0.79741211842E-01  0.51100000000E-03 0.  1.
</event>
<event>
 8    1  0.1208168E+005  0.1043930E+01  0.7957747E-01            NaN
         13   -1    0    0    0    0  0.00000000000E+00  0.00000000000E+00  0.74505805969E-08  0.10566000000E+00  0.10566000000E+00 0.  1.
     999900   -1    0    0    0    0 -0.00000000000E+00 -0.00000000000E+00 -0.74505805969E-08  0.93827000000E+00  0.93827000000E+00 0.  1.
     999902    2    1    2    0    0  0.16102953367E-01 -0.48406964948E-02  0.15493306153E-01  0.10210656175E+01  0.10208095882E+01 0.  0.
     999903    2    3    3    0    0 -0.95189549643E-01 -0.85956618768E-01 -0.92412795225E-02  0.13001140269E+00  0.19182620033E-01 0.  0.
         14    1    1    2    0    0 -0.16102953367E-01  0.48406964948E-02 -0.15493306153E-01  0.22864382459E-01  0.00000000000E+00 0. -1.
     999901    1    3    3    0    0  0.11129250301E+00  0.81115922273E-01  0.24734585675E-01  0.89105421485E+00  0.88000000000E+00 0.  1.
        -11    1    4    4    0    0 -0.71222025044E-01 -0.58647961256E-01  0.96230939294E-03  0.92267802463E-01  0.51100000000E-03 0. -1.
         11    1    4    4    0    0 -0.23967524599E-01 -0.27308657511E-01 -0.10203588915E-01  0.37743600229E-01  0.51100000000E-03 0.  1.
</event>
<event>
 8    1  0.1208168E+005  0.1043930E+01  0.7957747E-01            NaN
         13   -1    0    0    0    0  0.00000000000E+00  0.00000000000E+00  0.74505805969E-08  0.10566000000E+00  0.10566000000E+00 0. -1.
     999900   -1    0    0    0    0 -0.00000000000E+00 -0.00000000000E+00 -0.74505805969E-08  0.93827000000E+00  0.93827000000E+00 0.  1.
     999902    2    1    2    0    0  0.13254331389E-01 -0.19201594945E-01 -0.24257064772E-02  0.10204723232E+01  0.10202026759E+01 0.  0.
     999903    2    3    3    0    0 -0.92124321967E-01  0.85381367489E-01 -0.13699129135E-01  0.12796498616E+00  0.20260871917E-01 0.  0.
         14    1    1    2    0    0 -0.13254331389E-01  0.19201594945E-01  0.24257064772E-02  0.23457676802E-01  0.00000000000E+00 0.  1.
     999901    1    3    3    0    0  0.10537865336E+00 -0.10458296243E+00  0.11273422658E-01  0.89250733704E+00  0.88000000000E+00 0. -1.
        -11    1    4    4    0    0 -0.58953168722E-01  0.54749616125E-01  0.10490988296E-02  0.80463397254E-01  0.51100000000E-03 0.  1.
         11    1    4    4    0    0 -0.33171153245E-01  0.30631751364E-01 -0.14748227965E-01  0.47501588903E-01  0.51100000000E-03 0. -1.
</event>
<event>
 8    1  0.1208168E+005  0.1043930E+01  0.7957747E-01            NaN
         13   -1    0    0    0    0  0.00000000000E+00  0.00000000000E+00  0.74505805969E-08  0.10566000000E+00  0.10566000000E+00 0. -1.
     999900   -1    0    0    0    0 -0.00000000000E+00 -0.00000000000E+00 -0.74505805969E-08  0.93827000000E+00  0.93827000000E+00 0. -1.
     999902    2    1    2    0    0  0.78279916111E-02  0.18903135931E-01  0.12602986723E-01  0.10198999922E+01  0.10196168657E+01 0.  0.
     999903    2    3    3    0    0  0.81480493100E-01  0.95552179833E-01 -0.35619897566E-01  0.13219214979E+00  0.20897309298E-01 0.  0.
         14    1    1    2    0    0 -0.78279916111E-02 -0.18903135931E-01 -0.12602986723E-01  0.24030007804E-01  0.00000000000E+00 0.  1.
     999901    1    3    3    0    0 -0.73652501489E-01 -0.76649043902E-01  0.48222884289E-01  0.88770784241E+00  0.88000000000E+00 0. -1.
        -11    1    4    4    0    0  0.12451982383E-02  0.28012607584E-02  0.22511684573E-02  0.38375071221E-02  0.51100000000E-03 0. -1.
         11    1    4    4    0    0  0.80235294862E-01  0.92750919075E-01 -0.37871066023E-01  0.12835464266E+00  0.51100000000E-03 0.  1.
</event>
<event>
 8    1  0.1208168E+005  0.1043930E+01  0.7957747E-01            NaN
         13   -1    0    0    0    0  0.00000000000E+00  0.00000000000E+00  0.74505805969E-08  0.10566000000E+00  0.10566000000E+00 0.  1.
     999900   -1    0    0    0    0 -0.00000000000E+00 -0.00000000000E+00 -0.74505805969E-08  0.93827000000E+00  0.93827000000E+00 0.  1.
     999902    2    1    2    0    0  0.17821987959E-01 -0.13334025647E-01 -0.29369470038E-02  0.10214790501E+01  0.10212322971E+01 0.  0.
     999903    2    3    3    0    0 -0.33053950806E-01 -0.71687190560E-01 -0.10434302763E+00  0.13227904660E+00  0.19459234266E-01 0.  0.
         14    1    1    2    0    0 -0.17821987959E-01  0.13334025647E-01  0.29369470038E-02  0.22450949924E-01  0.00000000000E+00 0.  1.
     999901    1    3    3    0    0  0.50875938765E-01  0.58353164913E-01  0.10140608063E+00  0.88920000348E+00  0.88000000000E+00 0. -1.
        -11    1    4    4    0    0  0.77733806038E-03 -0.11457395048E-01 -0.21771761619E-01  0.24620050381E-01  0.51100000000E-03 0.  1.
         11    1    4    4    0    0 -0.33831288866E-01 -0.60229795512E-01 -0.82571266015E-01  0.10765899622E+00  0.51100000000E-03 0. -1.
</event>
<event>
 8    1  0.1208168E+005  0.1043930E+01  0.7957747E-01            NaN
         13   -1    0    0    0    0  0.00000000000E+00  0.00000000000E+00  0.74505805969E-08  0.10566000000E+00  0.10566000000E+00 0. -1.
     999900   -1    0    0    0    0 -0.00000000000E+00 -0.00000000000E+00 -0.74505805969E-08  0.93827000000E+00  0.93827000000E+00 0.  1.
     999902    2    1    2    0    0 -0.80033667555E-02  0.21076708288E-01 -0.49697476366E-02  0.10208436425E+01  0.10205825604E+01 0.  0.
     999903    2    3    3    0    0 -0.34108023439E-01 -0.37261877677E-01  0.11810482399E+00  0.12998327526E+00  0.19877062302E-01 0.  0.
         14    1    1    2    0    0  0.80033667555E-02 -0.21076708288E-01  0.49697476366E-02  0.23086357514E-01  0.00000000000E+00 0. -1.
     999901    1    3    3    0    0  0.26104656683E-01  0.58338585965E-01 -0.12307457163E+00  0.89086036723E+00  0.88000000000E+00 0.  1.
        -11    1    4    4    0    0 -0.28357169891E-01 -0.27289259732E-01  0.10687986004E+00  0.11389643710E+00  0.51100000000E-03 0. -1.
         11    1    4    4    0    0 -0.57508535477E-02 -0.99726179449E-02  0.11224963953E-01  0.16086838159E-01  0.51100000000E-03 0.  1.
</event>
<event>
 8    1  0.1208168E+005  0.1043930E+01  0.7957747E-01            NaN
         13   -1    0    0    0    0  0.00000000000E+00  0.00000000000E+00  0.74505805969E-08  0.10566000000E+00  0.10566000000E+00 0.  1.
     999900   -1    0    0    0    0 -0.00000000000E+00 -0.00000000000E+00 -0.74505805969E-08  0.93827000000E+00  0.93827000000E+00 0.  1.
     999902    2    1    2    0    0  0.89311835378E-02 -0.10387534281E-01 -0.19429427649E-01  0.10201567048E+01  0.10198796658E+01 0.  0.
     999903    2    3    3    0    0 -0.38550941079E-01  0.55691585466E-01  0.10623162997E+00  0.12751360496E+00  0.19668057672E-01 0.  0.
         14    1    1    2    0    0 -0.89311835378E-02  0.10387534281E-01  0.19429427649E-01  0.23773295241E-01  0.00000000000E+00 0.  1.
     999901    1    3    3    0    0  0.47482124616E-01 -0.66079119747E-01 -0.12566105762E+00  0.89264309980E+00  0.88000000000E+00 0.  1.
        -11    1    4    4    0    0 -0.29773645932E-01  0.52210966508E-01  0.83407662564E-01  0.10280833775E+00  0.51100000000E-03 0. -1.
         11    1    4    4    0    0 -0.87772951461E-02  0.34806189584E-02  0.22823967408E-01  0.24705267204E-01  0.51100000000E-03 0.  1.
</event>
<event>
 8    1  0.1208168E+005  0.1043930E+01  0.7957747E-01            NaN
         13   -1    0    0    0    0  0.00000000000E+00  0.00000000000E+00  0.74505805969E-08  0.10566000000E+00  0.10566000000E+00 0. -1.
     999900   -1    0    0    0    0 -0.00000000000E+00 -0.00000000000E+00 -0.74505805969E-08  0.93827000000E+00  0.93827000000E+00 0. -1.
     999902    2    1    2    0    0 -0.23114510164E-01  0.11740926903E-01  0.88252390266E-03  0.10179895144E+01  0.10176589520E+01 0.  0.
     999903    2    3    3    0    0  0.10674174433E+00  0.59561052581E-01 -0.27136071686E-01  0.12673508779E+00  0.19598395939E-01 0.  0.
         14    1    1    2    0    0  0.23114510164E-01 -0.11740926903E-01 -0.88252390266E-03  0.25940485599E-01  0.00000000000E+00 0.  1.
     999901    1    3    3    0    0 -0.12985625450E+00 -0.47820125678E-01  0.28018595589E-01  0.89125442661E+00  0.88000000000E+00 0. -1.
        -11    1    4    4    0    0  0.67257747317E-01  0.44483761835E-01 -0.10536692038E-01  0.81324612764E-01  0.51100000000E-03 0.  1.
         11    1    4    4    0    0  0.39483997015E-01  0.15077290747E-01 -0.16599379648E-01  0.45410475028E-01  0.51100000000E-03 0. -1.
</event>
<event>
 8    1  0.1208168E+005  0.1043930E+01  0.7957747E-01            NaN
         13   -1    0    0    0    0  0.00000000000E+00  0.00000000000E+00  0.74505805969E-08  0.10566000000E+00  0.10566000000E+00 0.  1.
     999900   -1    0    0    0    0 -0.00000000000E+00 -0.00000000000E+00 -0.74505805969E-08  0.93827000000E+00  0.93827000000E+00 0. -1.
     999902    2    1    2    0    0 -0.11049314633E-01 -0.28815569276E-02  0.27481423020E-01  0.10141706429E+01  0.10137339264E+01 0.  0.
     999903    2    3    3    0    0  0.14314742137E-01  0.89065691904E-01 -0.81196369598E-01  0.12236993951E+00  0.15618653701E-01 0.  0.
         14    1    1    2    0    0  0.11049314633E-01  0.28815569276E-02 -0.27481423020E-01  0.29759357106E-01  0.00000000000E+00 0. -1.
     999901    1    3    3    0    0 -0.25364056770E-01 -0.91947248832E-01  0.10867779262E+00  0.89180070338E+00  0.88000000000E+00 0.  1.
        -11    1    4    4    0    0  0.66656705053E-03  0.17316332660E-01 -0.23974324612E-01  0.29585960353E-01  0.51100000000E-03 0. -1.
         11    1    4    4    0    0  0.13648175086E-01  0.71749359244E-01 -0.57222044987E-01  0.92783979159E-01  0.51100000000E-03 0.  1.
</event>
<event>
 8    1  0.1208168E+005  0.1043930E+01  0.7957747E-01            NaN
         13   -1    0    0    0    0  0.00000000000E+00  0.00000000000E+00  0.74505805969E-08  0.10566000000E+00  0.10566000000E+00 0. -1.
     999900   -1    0    0    0    0 -0.00000000000E+00 -0.00000000000E+00 -0.74505805969E-08  0.93827000000E+00  0.93827000000E+00 0.  1.
     999902    2    1    2    0    0 -0.20163604455E-02 -0.11718053196E-01  0.20632457689E-01  0.10201166258E+01  0.10198386409E+01 0.  0.
     999903    2    3    3    0    0 -0.42652554205E-01  0.12019558226E+00  0.66861388794E-02  0.12924794454E+00  0.19852162046E-01 0.  0.
         14    1    1    2    0    0  0.20163604455E-02  0.11718053196E-01 -0.20632457689E-01  0.23813374192E-01  0.00000000000E+00 0.  1.
     999901    1    3    3    0    0  0.40636193759E-01 -0.13191363546E+00  0.13946318810E-01  0.89086868127E+00  0.88000000000E+00 0. -1.
        -11    1    4    4    0    0 -0.29698015648E-02  0.93069153155E-02 -0.48297324902E-02  0.10909896010E-01  0.51100000000E-03 0. -1.
         11    1    4    4    0    0 -0.39682752640E-01  0.11088866695E+00  0.11515871370E-01  0.11833804853E+00  0.51100000000E-03 0.  1.
</event>
<event>
 8    1  0.1208168E+005  0.1043930E+01  0.7957747E-01            NaN
         13   -1    0    0    0    0  0.00000000000E+00  0.00000000000E+00  0.74505805969E-08  0.10566000000E+00  0.10566000000E+00 0. -1.
     999900   -1    0    0    0    0 -0.00000000000E+00 -0.00000000000E+00 -0.74505805969E-08  0.93827000000E+00  0.93827000000E+00 0. -1.
     999902    2    1    2    0    0 -0.54630875828E-02  0.21941684108E-01  0.93270009141E-02  0.10194703235E+01  0.10191768565E+01 0.  0.
     999903    2    3    3    0    0  0.43025431271E-01 -0.31951967095E-01  0.11671132123E+00  0.12998336220E+00  0.20050586242E-01 0.  0.
         14    1    1    2    0    0  0.54630875828E-02 -0.21941684108E-01 -0.93270009141E-02  0.24459676480E-01  0.00000000000E+00 0.  1.
     999901    1    3    3    0    0 -0.48488518853E-01  0.53893651204E-01 -0.10738432032E+00  0.88948696132E+00  0.88000000000E+00 0. -1.
        -11    1    4    4    0    0  0.25240490163E-02  0.10089905143E-02  0.18930549617E-01  0.19131537186E-01  0.51100000000E-03 0. -1.
         11    1    4    4    0    0  0.40501382254E-01 -0.32960957610E-01  0.97780771616E-01  0.11085182502E+00  0.51100000000E-03 0.  1.
</event>
<event>
 8    1  0.1208168E+005  0.1043930E+01  0.7957747E-01            NaN
         13   -1    0    0    0    0  0.00000000000E+00  0.00000000000E+00  0.74505805969E-08  0.10566000000E+00  0.10566000000E+00 0. -1.
     999900   -1    0    0    0    0 -0.00000000000E+00 -0.00000000000E+00 -0.74505805969E-08  0.93827000000E+00  0.93827000000E+00 0.  1.
     999902    2    1    2    0    0 -0.19819563263E-01  0.24369456524E-02 -0.12382977243E-01  0.10204333637E+01  0.10201628095E+01 0.  0.
     999903    2    3    3    0    0  0.66294205360E-01 -0.41826655910E-01 -0.10246812196E+00  0.13055124742E+00  0.19988030831E-01 0.  0.
         14    1    1    2    0    0  0.19819563263E-01 -0.24369456524E-02  0.12382977243E-01  0.23496636301E-01  0.00000000000E+00 0. -1.
     999901    1    3    3    0    0 -0.86113768623E-01  0.44263601563E-01  0.90085144718E-01  0.88988211628E+00  0.88000000000E+00 0. -1.
        -11    1    4    4    0    0  0.14664073516E-01 -0.93917502978E-02 -0.38065828860E-01  0.41862972583E-01  0.51100000000E-03 0. -1.
         11    1    4    4    0    0  0.51630131844E-01 -0.32434905613E-01 -0.64402293101E-01  0.88688274840E-01  0.51100000000E-03 0.  1.
</event>
<event>
 8    1  0.1208168E+005  0.1043930E+01  0.7957747E-01            NaN
         13   -1    0    0    0    0  0.00000000000E+00  0.00000000000E+00  0.74505805969E-08  0.10566000000E+00  0.10566000000E+00 0. -1.
     999900   -1    0    0    0    0 -0.00000000000E+00 -0.00000000000E+00 -0.74505805969E-08  0.93827000000E+00  0.93827000000E+00 0. -1.
     999902    2    1    2    0    0 -0.10434102120E-01  0.13711645801E-01  0.15596669102E-01  0.10206891781E+01  0.10204245501E+01 0.  0.
     999903    2    3    3    0    0  0.10854971887E+00 -0.42446272599E-01  0.54803769393E-01  0.13004443509E+00  0.17982614748E-01 0.  0.
         14    1    1    2    0    0  0.10434102120E-01 -0.13711645801E-01 -0.15596669102E-01  0.23240821945E-01  0.00000000000E+00 0.  1.
     999901    1    3    3    0    0 -0.11898382099E+00  0.56157918400E-01 -0.39207100291E-01  0.89064474296E+00  0.88000000000E+00 0. -1.
        -11    1    4    4    0    0  0.74060922556E-01 -0.21028862142E-01  0.40535002584E-01  0.87009084861E-01  0.51100000000E-03 0. -1.
         11    1    4    4    0    0  0.34488796318E-01 -0.21417410457E-01  0.14268766809E-01  0.43035350230E-01  0.51100000000E-03 0.  1.
</event>
<event>
 8    1  0.1208168E+005  0.1043930E+01  0.7957747E-01            NaN
         13   -1    0    0    0    0  0.00000000000E+00  0.00000000000E+00  0.74505805969E-08  0.10566000000E+00  0.10566000000E+00 0. -1.
     999900   -1    0    0    0    0 -0.00000000000E+00 -0.00000000000E+00 -0.74505805969E-08  0.93827000000E+00  0.93827000000E+00 0.  1.
     999902    2    1    2    0    0 -0.44001297715E-02 -0.17755575251E-01 -0.14626314037E-01  0.10205088417E+01  0.10202400430E+01 0.  0.
     999903    2    3    3    0    0  0.10895969037E+00 -0.60211309276E-01 -0.38192384513E-01  0.13190977695E+00  0.21069293513E-01 0.  0.
         14    1    1    2    0    0  0.44001297715E-02  0.17755575251E-01  0.14626314037E-01  0.23421158315E-01  0.00000000000E+00 0. -1.
     999901    1    3    3    0    0 -0.11335982014E+00  0.42455734025E-01  0.23566070476E-01  0.88859906474E+00  0.88000000000E+00 0. -1.
        -11    1    4    4    0    0  0.26335961631E-01 -0.48484570343E-02 -0.90138218089E-02  0.28259520789E-01  0.51100000000E-03 0.  1.
         11    1    4    4    0    0  0.82623728740E-01 -0.55362852241E-01 -0.29178562704E-01  0.10365025616E+00  0.51100000000E-03 0. -1.
</event>
<event>
 8    1  0.1208168E+005  0.1043930E+01  0.7957747E-01            NaN
         13   -1    0    0    0    0  0.00000000000E+00  0.00000000000E+00  0.74505805969E-08  0.10566000000E+00  0.10566000000E+00 0.  1.
     999900   -1    0    0    0    0 -0.00000000000E+00 -0.00000000000E+00 -0.74505805969E-08  0.93827000000E+00  0.93827000000E+00 0. -1.
     999902    2    1    2    0    0  0.21606152282E-01  0.65753231395E-02 -0.50025716279E-02  0.10207980651E+01  0.10205359392E+01 0.  0.
     999903    2    3    3    0    0  0.65823368484E-01 -0.45793883283E-01  0.10253261430E+00  0.13160657152E+00  0.19430828236E-01 0.  0.
         14    1    1    2    0    0 -0.21606152282E-01 -0.65753231395E-02  0.50025716279E-02  0.23131934933E-01  0.00000000000E+00 0. -1.
     999901    1    3    3    0    0 -0.44217216201E-01  0.52369206423E-01 -0.10753518593E+00  0.88919149355E+00  0.88000000000E+00 0. -1.
        -11    1    4    4    0    0  0.82349618002E-02 -0.84037674084E-02  0.62054416676E-02  0.13311894298E-01  0.51100000000E-03 0. -1.
         11    1    4    4    0    0  0.57588406684E-01 -0.37390115875E-01  0.96327172635E-01  0.11829467722E+00  0.51100000000E-03 0.  1.
</event>
<event>
 8    1  0.1208168E+005  0.1043930E+01  0.7957747E-01            NaN
         13   -1    0    0    0    0  0.00000000000E+00  0.00000000000E+00  0.74505805969E-08  0.10566000000E+00  0.10566000000E+00 0.  1.
     999900   -1    0    0    0    0 -0.00000000000E+00 -0.00000000000E+00 -0.74505805969E-08  0.93827000000E+00  0.93827000000E+00 0. -1.
     999902    2    1    2    0    0 -0.10942744006E-01  0.34881086901E-02  0.20402080996E-01  0.10205172800E+01  0.10202486772E+01 0.  0.
     999903    2    3    3    0    0  0.33596410854E-02 -0.83984877989E-01  0.10074385791E+00  0.13242331947E+00  0.17940560605E-01 0.  0.
         14    1    1    2    0    0  0.10942744006E-01 -0.34881086901E-02 -0.20402080996E-01  0.23412719995E-01  0.00000000000E+00 0. -1.
     999901    1    3    3    0    0 -0.14302385091E-01  0.87472986679E-01 -0.80341776912E-01  0.88809396053E+00  0.88000000000E+00 0. -1.
        -11    1    4    4    0    0  0.18698754186E-02 -0.32499415256E-01  0.52936174873E-01  0.62146666501E-01  0.51100000000E-03 0. -1.
         11    1    4    4    0    0  0.14897656668E-02 -0.51485462734E-01  0.47807683034E-01  0.70276652971E-01  0.51100000000E-03 0.  1.
</event>
<event>
 8    1  0.1208168E+005  0.1043930E+01  0.7957747E-01            NaN
         13   -1    0    0    0    0  0.00000000000E+00  0.00000000000E+00  0.74505805969E-08  0.10566000000E+00  0.10566000000E+00 0.  1.
     999900   -1    0    0    0    0 -0.00000000000E+00 -0.00000000000E+00 -0.74505805969E-08  0.93827000000E+00  0.93827000000E+00 0. -1.
     999902    2    1    2    0    0 -0.15206406154E-01 -0.20958324376E-01 -0.85758043309E-03  0.10180220554E+01  0.10176923325E+01 0.  0.
     999903    2    3    3    0    0  0.65333717454E-01 -0.86282753441E-01 -0.68306629968E-01  0.12936949854E+00  0.18906699273E-01 0.  0.
         14    1    1    2    0    0  0.15206406154E-01  0.20958324376E-01  0.85758043309E-03  0.25907944592E-01  0.00000000000E+00 0.  1.
     999901    1    3    3    0    0 -0.80540123609E-01  0.65324429065E-01  0.67449049535E-01  0.88865255687E+00  0.88000000000E+00 0.  1.
        -11    1    4    4    0    0  0.50537178576E-01 -0.67587135175E-01 -0.43447165271E-01  0.94920727719E-01  0.51100000000E-03 0. -1.
         11    1    4    4    0    0  0.14796538878E-01 -0.18695618266E-01 -0.24859464698E-01  0.34448770822E-01  0.51100000000E-03 0.  1.
</event>
<event>
 8    1  0.1208168E+005  0.1043930E+01  0.7957747E-01            NaN
         13   -1    0    0    0    0  0.00000000000E+00  0.00000000000E+00  0.74505805969E-08  0.10566000000E+00  0.10566000000E+00 0.  1.
     999900   -1    0    0    0    0 -0.00000000000E+00 -0.00000000000E+00 -0.74505805969E-08  0.93827000000E+00  0.93827000000E+00 0. -1.
     999902    2    1    2    0    0  0.49002289577E-04  0.65129327792E-02  0.29616257163E-01  0.10136060263E+01  0.10131523247E+01 0.  0.
     999903    2    3    3    0    0  0.87339195616E-01  0.33388305667E-01 -0.76508352338E-01  0.12253683913E+00  0.20465456773E-01 0.  0.
         14    1    1    2    0    0 -0.49002289577E-04 -0.65129327792E-02 -0.29616257163E-01  0.30323973733E-01  0.00000000000E+00 0. -1.
     999901    1    3    3    0    0 -0.87290193326E-01 -0.26875372888E-01  0.10612460950E+00  0.89106918713E+00  0.88000000000E+00 0.  1.
        -11    1    4    4    0    0  0.18732770071E-01  0.69988668554E-02 -0.28203328047E-01  0.34577299573E-01  0.51100000000E-03 0.  1.
         11    1    4    4    0    0  0.68606425544E-01  0.26389438812E-01 -0.48305024291E-01  0.87959539559E-01  0.51100000000E-03 0. -1.
</event>
<event>
 8    1  0.1208168E+005  0.1043930E+01  0.7957747E-01            NaN
         13   -1    0    0    0    0  0.00000000000E+00  0.00000000000E+00  0.74505805969E-08  0.10566000000E+00  0.10566000000E+00 0.  1.
     999900   -1    0    0    0    0 -0.00000000000E+00 -0.00000000000E+00 -0.74505805969E-08  0.93827000000E+00  0.93827000000E+00 0. -1.
     999902    2    1    2    0    0  0.45270733487E-02 -0.17535142344E-01  0.16929349166E-01  0.10191393067E+01  0.10188377437E+01 0.  0.
     999903    2    3    3    0    0  0.54665461610E-01  0.10693838544E+00 -0.36506435162E-01  0.12736416682E+00  0.21558761718E-01 0.  0.
         14    1    1    2    0    0 -0.45270733487E-02  0.17535142344E-01 -0.16929349166E-01  0.24790693281E-01  0.00000000000E+00 0. -1.
     999901    1    3    3    0    0 -0.50138388261E-01 -0.12447352779E+00  0.53435784328E-01  0.89177513990E+00  0.88000000000E+00 0.  1.
        -11    1    4    4    0    0  0.42897113545E-01  0.93514949962E-01 -0.24252837049E-01  0.10570557905E+00  0.51100000000E-03 0.  1.
         11    1    4    4    0    0  0.11768348065E-01  0.13423435482E-01 -0.12253598113E-01  0.21658587767E-01  0.51100000000E-03 0. -1.
</event>
<event>
 8    1  0.1208168E+005  0.1043930E+01  0.7957747E-01            NaN
         13   -1    0    0    0    0  0.00000000000E+00  0.00000000000E+00  0.74505805969E-08  0.10566000000E+00  0.10566000000E+00 0.  1.
     999900   -1    0    0    0    0 -0.00000000000E+00 -0.00000000000E+00 -0.74505805969E-08  0.93827000000E+00  0.93827000000E+00 0.  1.
     999902    2    1    2    0    0 -0.34009652512E-02 -0.24845218093E-01  0.72319045874E-02  0.10178311136E+01  0.10174964491E+01 0.  0.
     999903    2    3    3    0    0 -0.11930859487E+00 -0.39932193396E-01 -0.23998365808E-01  0.12955327126E+00  0.19468118906E-01 0.  0.
         14    1    1    2    0    0  0.34009652512E-02  0.24845218093E-01 -0.72319045874E-02  0.26098886388E-01  0.00000000000E+00 0. -1.
     999901    1    3    3    0    0  0.11590762962E+00  0.15086975303E-01  0.31230270395E-01  0.88827784235E+00  0.88000000000E+00 0. -1.
        -11    1    4    4    0    0 -0.65615265099E-01 -0.24090640055E-01 -0.22911272129E-01  0.73558884330E-01  0.51100000000E-03 0. -1.
         11    1    4    4    0    0 -0.53693329769E-01 -0.15841553340E-01 -0.10870936789E-02  0.55994386929E-01  0.51100000000E-03 0.  1.
</event>
<event>
 8    1  0.1208168E+005  0.1043930E+01  0.7957747E-01            NaN
         13   -1    0    0    0    0  0.00000000000E+00  0.00000000000E+00  0.74505805969E-08  0.10566000000E+00  0.10566000000E+00 0. -1.
     999900   -1    0    0    0    0 -0.00000000000E+00 -0.00000000000E+00 -0.74505805969E-08  0.93827000000E+00  0.93827000000E+00 0. -1.
     999902    2    1    2    0    0 -0.12714853472E-01 -0.33157383051E-02  0.13724071506E-01  0.10249296906E+01  0.10247535601E+01 0.  0.
     999903    2    3    3    0    0 -0.53047961048E-01  0.40925909771E-01  0.11762127316E+00  0.13679754304E+00  0.19743039738E-01 0.  0.
         14    1    1    2    0    0  0.12714853472E-01  0.33157383051E-02 -0.13724071506E-01  0.19000309420E-01  0.00000000000E+00 0.  1.
     999901    1    3    3    0    0  0.40333107576E-01 -0.44241648076E-01 -0.10389720166E+00  0.88813214755E+00  0.88000000000E+00 0. -1.
        -11    1    4    4    0    0 -0.25986883852E-01  0.79997091789E-02  0.43852980282E-01  0.51600954254E-01  0.51100000000E-03 0.  1.
         11    1    4    4    0    0 -0.27061077196E-01  0.32926200592E-01  0.73768292881E-01  0.85196588781E-01  0.51100000000E-03 0. -1.
</event>
<event>
 8    1  0.1208168E+005  0.1043930E+01  0.7957747E-01            NaN
         13   -1    0    0    0    0  0.00000000000E+00  0.00000000000E+00  0.74505805969E-08  0.10566000000E+00  0.10566000000E+00 0. -1.
     999900   -1    0    0    0    0 -0.00000000000E+00 -0.00000000000E+00 -0.74505805969E-08  0.93827000000E+00  0.93827000000E+00 0. -1.
     999902    2    1    2    0    0  0.27424545907E-02  0.17262211715E-01 -0.16641746630E-01  0.10197959423E+01  0.10195103291E+01 0.  0.
     999903    2    3    3    0    0 -0.14185916864E-01  0.12998252632E+00  0.10828857153E-01  0.13201946527E+00  0.14668935830E-01 0.  0.
         14    1    1    2    0    0 -0.27424545907E-02 -0.17262211715E-01  0.16641746630E-01  0.24134057706E-01  0.00000000000E+00 0. -1.
     999901    1    3    3    0    0  0.16928371455E-01 -0.11272031460E+00 -0.27470603783E-01  0.88777647702E+00  0.88000000000E+00 0. -1.
        -11    1    4    4    0    0 -0.45914865859E-02  0.61131613189E-01 -0.19486206489E-02  0.61336890397E-01  0.51100000000E-03 0.  1.
         11    1    4    4    0    0 -0.95944302783E-02  0.68850913126E-01  0.12777477802E-01  0.70682574873E-01  0.51100000000E-03 0. -1.
</event>
<event>
 8    1  0.1208168E+005  0.1043930E+01  0.7957747E-01            NaN
         13   -1    0    0    0    0  0.00000000000E+00  0.00000000000E+00  0.74505805969E-08  0.10566000000E+00  0.10566000000E+00 0.  1.
     999900   -1    0    0    0    0 -0.00000000000E+00 -0.00000000000E+00 -0.74505805969E-08  0.93827000000E+00  0.93827000000E+00 0. -1.
     999902    2    1    2    0    0  0.29169133236E-03 -0.21195357948E-01 -0.12025728740E-01  0.10195589837E+01  0.10192676660E+01 0.  0.
     999903    2    3    3    0    0 -0.56366455729E-01 -0.21755797898E-01  0.11237260132E+00  0.12900555791E+00  0.19087702053E-01 0.  0.
         14    1    1    2    0    0 -0.29169133236E-03  0.21195357948E-01  0.12025728740E-01  0.24371016271E-01  0.00000000000E+00 0.  1.
     999901    1    3    3    0    0  0.56658147062E-01  0.56043995007E-03 -0.12439833006E+00  0.89055342582E+00  0.88000000000E+00 0. -1.
        -11    1    4    4    0    0 -0.51211498619E-01 -0.17205142466E-01  0.10822012939E+00  0.12095657090E+00  0.51100000000E-03 0.  1.
         11    1    4    4    0    0 -0.51549571109E-02 -0.45506554314E-02  0.41524719287E-02  0.80489870039E-02  0.51100000000E-03 0. -1.
</event>
<event>
 8    1  0.1208168E+005  0.1043930E+01  0.7957747E-01            NaN
         13   -1    0    0    0    0  0.00000000000E+00  0.00000000000E+00  0.74505805969E-08  0.10566000000E+00  0.10566000000E+00 0.  1.
     999900   -1    0    0    0    0 -0.00000000000E+00 -0.00000000000E+00 -0.74505805969E-08  0.93827000000E+00  0.93827000000E+00 0. -1.
     999902    2    1    2    0    0 -0.19728964030E-01  0.12143773555E-01 -0.55161987621E-02  0.10201154728E+01  0.10198374606E+01 0.  0.
     999903    2    3    3    0    0 -0.11555389849E+00  0.31851970900E-01  0.53231380497E-01  0.13274739291E+00  0.20519233593E-01 0.  0.
         14    1    1    2    0    0  0.19728964030E-01 -0.12143773555E-01  0.55161987621E-02  0.23814527219E-01  0.00000000000E+00 0.  1.
     999901    1    3    3    0    0  0.95824934463E-01 -0.19708197345E-01 -0.58747579260E-01  0.88736807987E+00  0.88000000000E+00 0. -1.
        -11    1    4    4    0    0 -0.47847320924E-01  0.29547073165E-02  0.19162107370E-01  0.51628905613E-01  0.51100000000E-03 0. -1.
         11    1    4    4    0    0 -0.67706577569E-01  0.28897263584E-01  0.34069273127E-01  0.81118487296E-01  0.51100000000E-03 0.  1.
</event>
<event>
 8    1  0.1208168E+005  0.1043930E+01  0.7957747E-01            NaN
         13   -1    0    0    0    0  0.00000000000E+00  0.00000000000E+00  0.74505805969E-08  0.10566000000E+00  0.10566000000E+00 0. -1.
     999900   -1    0    0    0    0 -0.00000000000E+00 -0.00000000000E+00 -0.74505805969E-08  0.93827000000E+00  0.93827000000E+00 0. -1.
     999902    2    1    2    0    0 -0.11635694172E-01 -0.16860684269E-01 -0.99456929756E-02  0.10211574538E+01  0.10209035001E+01 0.  0.
     999903    2    3    3    0    0  0.95441690097E-01  0.48418677730E-01 -0.71272398739E-01  0.13015356705E+00  0.20167092770E-01 0.  0.
         14    1    1    2    0    0  0.11635694172E-01  0.16860684269E-01  0.99456929756E-02  0.22772546227E-01  0.00000000000E+00 0. -1.
     999901    1    3    3    0    0 -0.10707738427E+00 -0.65279361999E-01  0.61326705764E-01  0.89100388673E+00  0.88000000000E+00 0.  1.
        -11    1    4    4    0    0  0.55073603811E-01  0.17118003071E-01 -0.41148568633E-01  0.70849090943E-01  0.51100000000E-03 0. -1.
         11    1    4    4    0    0  0.40368086286E-01  0.31300674659E-01 -0.30123830106E-01  0.59304476103E-01  0.51100000000E-03 0.  1.
</event>
<event>
 8    1  0.1208168E+005  0.1043930E+01  0.7957747E-01            NaN
         13   -1    0    0    0    0  0.00000000000E+00  0.00000000000E+00  0.74505805969E-08  0.10566000000E+00  0.10566000000E+00 0. -1.
     999900   -1    0    0    0    0 -0.00000000000E+00 -0.00000000000E+00 -0.74505805969E-08  0.93827000000E+00  0.93827000000E+00 0.  1.
     999902    2    1    2    0    0  0.12968581991E-01  0.17876438060E-01 -0.95464552256E-02  0.10198699509E+01  0.10195861076E+01 0.  0.
     999903    2    3    3    0    0  0.58513699813E-02 -0.21380667425E-01 -0.12769599154E+00  0.13107802474E+00  0.19591090913E-01 0.  0.
         14    1    1    2    0    0 -0.12968581991E-01 -0.17876438060E-01  0.95464552256E-02  0.24060049126E-01  0.00000000000E+00 0. -1.
     999901    1    3    3    0    0  0.71172120093E-02  0.39257105485E-01  0.11814953631E+00  0.88879192614E+00  0.88000000000E+00 0. -1.
        -11    1    4    4    0    0  0.10856367046E-01 -0.51746257620E-02 -0.66113919793E-01  0.67200810774E-01  0.51100000000E-03 0. -1.
         11    1    4    4    0    0 -0.50049970646E-02 -0.16206041663E-01 -0.61582071746E-01  0.63877213962E-01  0.51100000000E-03 0.  1.
</event>
<event>
 8    1  0.1208168E+005  0.1043930E+01  0.7957747E-01            NaN
         13   -1    0    0    0    0  0.00000000000E+00  0.00000000000E+00  0.74505805969E-08  0.10566000000E+00  0.10566000000E+00 0.  1.
     999900   -1    0    0    0    0 -0.00000000000E+00 -0.00000000000E+00 -0.74505805969E-08  0.93827000000E+00  0.93827000000E+00 0. -1.
     999902    2    1    2    0    0 -0.17011626704E-02 -0.21492226253E-01  0.56271502774E-02  0.10216482908E+01  0.10214052847E+01 0.  0.
     999903    2    3    3    0    0  0.17908238500E-01  0.10566316797E+00  0.71055002251E-01  0.12988945195E+00  0.18358821042E-01 0.  0.
         14    1    1    2    0    0  0.17011626704E-02  0.21492226253E-01 -0.56271502774E-02  0.22281709180E-01  0.00000000000E+00 0. -1.
     999901    1    3    3    0    0 -0.19609401171E-01 -0.12715539423E+00 -0.65427851973E-01  0.89175883887E+00  0.88000000000E+00 0.  1.
        -11    1    4    4    0    0  0.20523695061E-01  0.70317050988E-01  0.49351825726E-01  0.88326516642E-01  0.51100000000E-03 0. -1.
         11    1    4    4    0    0 -0.26154565609E-02  0.35346116984E-01  0.21703176525E-01  0.41562935305E-01  0.51100000000E-03 0.  1.
</event>
<event>
 8    1  0.1208168E+005  0.1043930E+01  0.7957747E-01            NaN
         13   -1    0    0    0    0  0.00000000000E+00  0.00000000000E+00  0.74505805969E-08  0.10566000000E+00  0.10566000000E+00 0.  1.
     999900   -1    0    0    0    0 -0.00000000000E+00 -0.00000000000E+00 -0.74505805969E-08  0.93827000000E+00  0.93827000000E+00 0.  1.
     999902    2    1    2    0    0  0.63485332050E-02 -0.21331933457E-01  0.71701931327E-02  0.10205469521E+01  0.10202790376E+01 0.  0.
     999903    2    3    3    0    0  0.10002646361E+00 -0.52608086825E-01  0.67119862888E-01  0.13299542385E+00  0.20243580456E-01 0.  0.
         14    1    1    2    0    0 -0.63485332050E-02  0.21331933457E-01 -0.71701931327E-02  0.23383047886E-01  0.00000000000E+00 0.  1.
     999901    1    3    3    0    0 -0.93677930407E-01  0.31276153368E-01 -0.59949669755E-01  0.88755152826E+00  0.88000000000E+00 0.  1.
        -11    1    4    4    0    0  0.89625719694E-01 -0.47886120669E-01  0.52327026822E-01  0.11429885844E+00  0.51100000000E-03 0. -1.
         11    1    4    4    0    0  0.10400743918E-01 -0.47219661566E-02  0.14792836065E-01  0.18696565414E-01  0.51100000000E-03 0.  1.
</event>
<event>
 8    1  0.1208168E+005  0.1043930E+01  0.7957747E-01            NaN
         13   -1    0    0    0    0  0.00000000000E+00  0.00000000000E+00  0.74505805969E-08  0.10566000000E+00  0.10566000000E+00 0.  1.
     999900   -1    0    0    0    0 -0.00000000000E+00 -0.00000000000E+00 -0.74505805969E-08  0.93827000000E+00  0.93827000000E+00 0. -1.
     999902    2    1    2    0    0 -0.40525900880E-03  0.57609247220E-02  0.23410990084E-01  0.10198172037E+01  0.10195320996E+01 0.  0.
     999903    2    3    3    0    0 -0.81109920499E-01 -0.66810704538E-01 -0.71280146391E-01  0.12810744426E+00  0.16975528301E-01 0.  0.
         14    1    1    2    0    0  0.40525900880E-03 -0.57609247220E-02 -0.23410990084E-01  0.24112796296E-01  0.00000000000E+00 0. -1.
     999901    1    3    3    0    0  0.80704661490E-01  0.72571629260E-01  0.94691136475E-01  0.89170975944E+00  0.88000000000E+00 0.  1.
        -11    1    4    4    0    0 -0.50550360968E-01 -0.50137551848E-01 -0.42366368745E-01  0.82850971153E-01  0.51100000000E-03 0.  1.
         11    1    4    4    0    0 -0.30559559531E-01 -0.16673152690E-01 -0.28913777646E-01  0.45256473107E-01  0.51100000000E-03 0. -1.
</event>
<event>
 8    1  0.1208168E+005  0.1043930E+01  0.7957747E-01            NaN
         13   -1    0    0    0    0  0.00000000000E+00  0.00000000000E+00  0.74505805969E-08  0.10566000000E+00  0.10566000000E+00 0. -1.
     999900   -1    0    0    0    0 -0.00000000000E+00 -0.00000000000E+00 -0.74505805969E-08  0.93827000000E+00  0.93827000000E+00 0.  1.
     999902    2    1    2    0    0  0.20841914695E-01 -0.12402813079E-01  0.63327703145E-03  0.10196685858E+01  0.10193799138E+01 0.  0.
     999903    2    3    3    0    0 -0.18108019502E-01  0.54751729634E-01  0.11373634877E+00  0.12904008027E+00  0.19741656885E-01 0.  0.
         14    1    1    2    0    0 -0.20841914695E-01  0.12402813079E-01 -0.63327703145E-03  0.24261414225E-01  0.00000000000E+00 0.  1.
     999901    1    3    3    0    0  0.38949934197E-01 -0.67154542713E-01 -0.11310307174E+00  0.89062850550E+00  0.88000000000E+00 0.  1.
        -11    1    4    4    0    0 -0.21666391354E-02  0.37088350381E-01  0.69251006723E-01  0.78588823074E-01  0.51100000000E-03 0.  1.
         11    1    4    4    0    0 -0.15941380366E-01  0.17663379253E-01  0.44485342046E-01  0.50451257195E-01  0.51100000000E-03 0. -1.
</event>
<event>
 8    1  0.1208168E+005  0.1043930E+01  0.7957747E-01            NaN
         13   -1    0    0    0    0  0.00000000000E+00  0.00000000000E+00  0.74505805969E-08  0.10566000000E+00  0.10566000000E+00 0. -1.
     999900   -1    0    0    0    0 -0.00000000000E+00 -0.00000000000E+00 -0.74505805969E-08  0.93827000000E+00  0.93827000000E+00 0.  1.
     999902    2    1    2    0    0  0.16245745423E-01 -0.14643859300E-02 -0.16201704794E-01  0.10209394822E+01  0.10206805878E+01 0.  0.
     999903    2    3    3    0    0  0.12774750867E+00 -0.55829258994E-02  0.29722370095E-01  0.13270605216E+00  0.19413448002E-01 0.  0.
         14    1    1    2    0    0 -0.16245745423E-01  0.14643859300E-02  0.16201704794E-01  0.22990517800E-01  0.00000000000E+00 0.  1.
     999901    1    3    3    0    0 -0.11150176325E+00  0.41185399694E-02 -0.45924074889E-01  0.88823343004E+00  0.88000000000E+00 0.  1.
        -11    1    4    4    0    0  0.41847863095E-01 -0.10886426428E-01  0.11204513957E-01  0.44671693274E-01  0.51100000000E-03 0. -1.
         11    1    4    4    0    0  0.85899645577E-01  0.53035005288E-02  0.18517856138E-01  0.88034358890E-01  0.51100000000E-03 0.  1.
</event>
<event>
 8    1  0.1208168E+005  0.1043930E+01  0.7957747E-01            NaN
         13   -1    0    0    0    0  0.00000000000E+00  0.00000000000E+00  0.74505805969E-08  0.10566000000E+00  0.10566000000E+00 0. -1.
     999900   -1    0    0    0    0 -0.00000000000E+00 -0.00000000000E+00 -0.74505805969E-08  0.93827000000E+00  0.93827000000E+00 0. -1.
     999902    2    1    2    0    0 -0.88134868910E-02 -0.13456401347E-01 -0.16268975217E-01  0.10210513671E+01  0.10207950149E+01 0.  0.
     999903    2    3    3    0    0  0.76185219810E-01  0.56120966406E-01  0.84499297993E-01  0.12851563386E+00  0.20552036313E-01 0.  0.
         14    1    1    2    0    0  0.88134868910E-02  0.13456401347E-01  0.16268975217E-01  0.22878632892E-01  0.00000000000E+00 0. -1.
     999901    1    3    3    0    0 -0.84998706701E-01 -0.69577367753E-01 -0.10076827321E+00  0.89253573325E+00  0.88000000000E+00 0. -1.
        -11    1    4    4    0    0  0.43247215470E-01  0.22111065454E-01  0.34002083638E-01  0.59292694947E-01  0.51100000000E-03 0. -1.
         11    1    4    4    0    0  0.32938004340E-01  0.34009900952E-01  0.50497214356E-01  0.69222938910E-01  0.51100000000E-03 0.  1.
</event>
<event>
 8    1  0.1208168E+005  0.1043930E+01  0.7957747E-01            NaN
         13   -1    0    0    0    0  0.00000000000E+00  0.00000000000E+00  0.74505805969E-08  0.10566000000E+00  0.10566000000E+00 0. -1.
     999900   -1    0    0    0    0 -0.00000000000E+00 -0.00000000000E+00 -0.74505805969E-08  0.93827000000E+00  0.93827000000E+00 0.  1.
     999902    2    1    2    0    0  0.76021183448E-02  0.18543541896E-01 -0.20349173516E-01  0.10153687673E+01  0.10149669894E+01 0.  0.
     999903    2    3    3    0    0 -0.11921475078E+00  0.13229790700E-01 -0.33894689986E-01  0.12615887350E+00  0.19494286070E-01 0.  0.
         14    1    1    2    0    0 -0.76021183448E-02 -0.18543541896E-01  0.20349173516E-01  0.28561232679E-01  0.00000000000E+00 0. -1.
     999901    1    3    3    0    0  0.12681686912E+00  0.53137511953E-02  0.13545516470E-01  0.88920989382E+00  0.88000000000E+00 0. -1.
        -11    1    4    4    0    0 -0.37938524151E-01 -0.18337333427E-03 -0.19045017701E-01  0.42453964017E-01  0.51100000000E-03 0. -1.
         11    1    4    4    0    0 -0.81276226627E-01  0.13413164035E-01 -0.14849672285E-01  0.83704909486E-01  0.51100000000E-03 0.  1.
</event>
<event>
 8    1  0.1208168E+005  0.1043930E+01  0.7957747E-01            NaN
         13   -1    0    0    0    0  0.00000000000E+00  0.00000000000E+00  0.74505805969E-08  0.10566000000E+00  0.10566000000E+00 0. -1.
     999900   -1    0    0    0    0 -0.00000000000E+00 -0.00000000000E+00 -0.74505805969E-08  0.93827000000E+00  0.93827000000E+00 0.  1.
     999902    2    1    2    0    0 -0.21240819446E-01 -0.92300290590E-02 -0.61018592589E-02  0.10199800828E+01  0.10196988628E+01 0.  0.
     999903    2    3    3    0    0  0.26361814704E-01 -0.37538625562E-01 -0.12096470288E+00  0.13078895585E+00  0.19214524316E-01 0.  0.
         14    1    1    2    0    0  0.21240819446E-01  0.92300290590E-02  0.61018592589E-02  0.23949917193E-01  0.00000000000E+00 0. -1.
     999901    1    3    3    0    0 -0.47602634150E-01  0.28308596503E-01  0.11486284363E+00  0.88919112696E+00  0.88000000000E+00 0. -1.
        -11    1    4    4    0    0  0.14764182230E-01 -0.11595143314E-01 -0.69552950770E-01  0.72043754117E-01  0.51100000000E-03 0. -1.
         11    1    4    4    0    0  0.11597632474E-01 -0.25943482248E-01 -0.51411752114E-01  0.58745201732E-01  0.51100000000E-03 0.  1.
</event>
<event>
 8    1  0.1208168E+005  0.1043930E+01  0.7957747E-01            NaN
         13   -1    0    0    0    0  0.00000000000E+00  0.00000000000E+00  0.74505805969E-08  0.10566000000E+00  0.10566000000E+00 0. -1.
     999900   -1    0    0    0    0 -0.00000000000E+00 -0.00000000000E+00 -0.74505805969E-08  0.93827000000E+00  0.93827000000E+00 0. -1.
     999902    2    1    2    0    0  0.53343724733E-02 -0.33173162366E-03 -0.24956734344E-01  0.10184073794E+01  0.10180875140E+01 0.  0.
     999903    2    3    3    0    0  0.42235667696E-01 -0.95574253734E-01 -0.76413013995E-01  0.13100634694E+00  0.20135159029E-01 0.  0.
         14    1    1    2    0    0 -0.53343724733E-02  0.33173162366E-03  0.24956734344E-01  0.25522620646E-01  0.00000000000E+00 0. -1.
     999901    1    3    3    0    0 -0.36901295223E-01  0.95242522110E-01  0.51456279652E-01  0.88740103241E+00  0.88000000000E+00 0. -1.
        -11    1    4    4    0    0  0.20021880445E-02 -0.24547161682E-01 -0.20672529873E-01  0.32158770436E-01  0.51100000000E-03 0. -1.
         11    1    4    4    0    0  0.40233479651E-01 -0.71027092052E-01 -0.55740484122E-01  0.98847576507E-01  0.51100000000E-03 0.  1.
</event>
<event>
 8    1  0.1208168E+005  0.1043930E+01  0.7957747E-01            NaN
         13   -1    0    0    0    0  0.00000000000E+00  0.00000000000E+00  0.74505805969E-08  0.10566000000E+00  0.10566000000E+00 0. -1.
     999900   -1    0    0    0    0 -0.00000000000E+00 -0.00000000000E+00 -0.74505805969E-08  0.93827000000E+00  0.93827000000E+00 0. -1.
     999902    2    1    2    0    0 -0.18198478046E-01 -0.69201552117E-02  0.12566283788E-01  0.10207570710E+01  0.10204940045E+01 0.  0.
     999903    2    3    3    0    0 -0.70408123619E-01 -0.94688289713E-01 -0.56231007278E-01  0.13218396775E+00  0.19684996043E-01 0.  0.
         14    1    1    2    0    0  0.18198478046E-01  0.69201552117E-02 -0.12566283788E-01  0.23172929025E-01  0.00000000000E+00 0. -1.
     999901    1    3    3    0    0  0.52209645573E-01  0.87768134501E-01  0.68797291066E-01  0.88857310323E+00  0.88000000000E+00 0.  1.
        -11    1    4    4    0    0 -0.23585243108E-01 -0.47897300216E-01 -0.26774616988E-01  0.59729023902E-01  0.51100000000E-03 0.  1.
         11    1    4    4    0    0 -0.46822880511E-01 -0.46790989497E-01 -0.29456390290E-01  0.72454943843E-01  0.51100000000E-03 0. -1.
</event>
<event>
 8    1  0.1208168E+005  0.1043930E+01  0.7957747E-01            NaN
         13   -1    0    0    0    0  0.00000000000E+00  0.00000000000E+00  0.74505805969E-08  0.10566000000E+00  0.10566000000E+00 0. -1.
     999900   -1    0    0    0    0 -0.00000000000E+00 -0.00000000000E+00 -0.74505805969E-08  0.93827000000E+00  0.93827000000E+00 0. -1.
     999902    2    1    2    0    0  0.12653021827E-01  0.20824638597E-02 -0.20144184648E-01  0.10200506409E+01  0.10197710950E+01 0.  0.
     999903    2    3    3    0    0 -0.64136838869E-01  0.99296422759E-01 -0.52423925148E-01  0.13078734007E+00  0.19589454355E-01 0.  0.
         14    1    1    2    0    0 -0.12653021827E-01 -0.20824638597E-02  0.20144184648E-01  0.23879359125E-01  0.00000000000E+00 0. -1.
     999901    1    3    3    0    0  0.76789860696E-01 -0.97213958899E-01  0.32279740500E-01  0.88926330080E+00  0.88000000000E+00 0.  1.
        -11    1    4    4    0    0 -0.41459411673E-01  0.79660674880E-01 -0.38417592234E-01  0.97677420383E-01  0.51100000000E-03 0. -1.
         11    1    4    4    0    0 -0.22677427197E-01  0.19635747878E-01 -0.14006332914E-01  0.33109919687E-01  0.51100000000E-03 0.  1.
</event>
<event>
 8    1  0.1208168E+005  0.1043930E+01  0.7957747E-01            NaN
         13   -1    0    0    0    0  0.00000000000E+00  0.00000000000E+00  0.74505805969E-08  0.10566000000E+00  0.10566000000E+00 0.  1.
     999900   -1    0    0    0    0 -0.00000000000E+00 -0.00000000000E+00 -0.74505805969E-08  0.93827000000E+00  0.93827000000E+00 0.  1.
     999902    2    1    2    0    0  0.31065573030E-02 -0.22863608874E-01  0.51376738586E-02  0.10202912394E+01  0.10200173637E+01 0.  0.
     999903    2    3    3    0    0  0.22574426974E-01 -0.68180288727E-01 -0.10829894064E+00  0.13164031531E+00  0.21032250145E-01 0.  0.
         14    1    1    2    0    0 -0.31065573030E-02  0.22863608874E-01 -0.51376738586E-02  0.23638760579E-01  0.00000000000E+00 0. -1.
     999901    1    3    3    0    0 -0.19467869671E-01  0.45316679853E-01  0.11343661450E+00  0.88865092412E+00  0.88000000000E+00 0. -1.
        -11    1    4    4    0    0  0.14181222735E-01 -0.54367713319E-01 -0.67956911855E-01  0.88177992263E-01  0.51100000000E-03 0. -1.
         11    1    4    4    0    0  0.83932042391E-02 -0.13812575408E-01 -0.40342028784E-01  0.43462323042E-01  0.51100000000E-03 0.  1.
</event>
<event>
 8    1  0.1208168E+005  0.1043930E+01  0.7957747E-01            NaN
         13   -1    0    0    0    0  0.00000000000E+00  0.00000000000E+00  0.74505805969E-08  0.10566000000E+00  0.10566000000E+00 0.  1.
     999900   -1    0    0    0    0 -0.00000000000E+00 -0.00000000000E+00 -0.74505805969E-08  0.93827000000E+00  0.93827000000E+00 0.  1.
     999902    2    1    2    0    0 -0.10026832435E-01  0.76488710129E-02 -0.21727706969E-01  0.10188075828E+01  0.10184977933E+01 0.  0.
     999903    2    3    3    0    0 -0.41936221110E-01  0.90815017633E-01  0.78466331467E-01  0.12865385316E+00  0.19718891720E-01 0.  0.
         14    1    1    2    0    0  0.10026832435E-01 -0.76488710129E-02  0.21727706969E-01  0.25122417212E-01  0.00000000000E+00 0.  1.
     999901    1    3    3    0    0  0.31909388675E-01 -0.83166146620E-01 -0.10019403844E+00  0.89015372963E+00  0.88000000000E+00 0.  1.
        -11    1    4    4    0    0 -0.63711954190E-02  0.22197385427E-01  0.91837721197E-02  0.24857973413E-01  0.51100000000E-03 0. -1.
         11    1    4    4    0    0 -0.35565025691E-01  0.68617632206E-01  0.69282559348E-01  0.10379587975E+00  0.51100000000E-03 0.  1.
</event>
<event>
 8    1  0.1208168E+005  0.1043930E+01  0.7957747E-01            NaN
         13   -1    0    0    0    0  0.00000000000E+00  0.00000000000E+00  0.74505805969E-08  0.10566000000E+00  0.10566000000E+00 0.  1.
     999900   -1    0    0    0    0 -0.00000000000E+00 -0.00000000000E+00 -0.74505805969E-08  0.93827000000E+00  0.93827000000E+00 0.  1.
     999902    2    1    2    0    0  0.21329900710E-01  0.15319662204E-01 -0.69881774254E-02  0.10167548029E+01  0.10163915770E+01 0.  0.
     999903    2    3    3    0    0  0.59263635952E-01 -0.53294854238E-01  0.97027312384E-01  0.12716717805E+00  0.20116455735E-01 0.  0.
         14    1    1    2    0    0 -0.21329900710E-01 -0.15319662204E-01  0.69881774254E-02  0.27175197112E-01  0.00000000000E+00 0. -1.
     999901    1    3    3    0    0 -0.37933735242E-01  0.68614516442E-01 -0.10401548981E+00  0.88958762483E+00  0.88000000000E+00 0.  1.
        -11    1    4    4    0    0  0.33756704306E-01 -0.20522311190E-01  0.36689105080E-01  0.53916898045E-01  0.51100000000E-03 0.  1.
         11    1    4    4    0    0  0.25506931646E-01 -0.32772543049E-01  0.60338207305E-01  0.73250280010E-01  0.51100000000E-03 0. -1.
</event>
<event>
 8    1  0.1208168E+005  0.1043930E+01  0.7957747E-01            NaN
         13   -1    0    0    0    0  0.00000000000E+00  0.00000000000E+00  0.74505805969E-08  0.10566000000E+00  0.10566000000E+00 0. -1.
     999900   -1    0    0    0    0 -0.00000000000E+00 -0.00000000000E+00 -0.74505805969E-08  0.93827000000E+00  0.93827000000E+00 0.  1.
     999902    2    1    2    0    0 -0.10057539484E-01 -0.35192968329E-02 -0.20413246518E-01  0.10209030553E+01  0.10206433305E+01 0.  0.
     999903    2    3    3    0    0 -0.76630510192E-01  0.54128940198E-01 -0.92930200565E-01  0.13353955123E+00  0.19864851021E-01 0.  0.
         14    1    1    2    0    0  0.10057539484E-01  0.35192968329E-02  0.20413246518E-01  0.23026944740E-01  0.00000000000E+00 0. -1.
     999901    1    3    3    0    0  0.66572970708E-01 -0.57648237031E-01  0.72516954047E-01  0.88736350403E+00  0.88000000000E+00 0.  1.
        -11    1    4    4    0    0 -0.54047625890E-01  0.31647669642E-01 -0.50399373058E-01  0.80393275737E-01  0.51100000000E-03 0. -1.
         11    1    4    4    0    0 -0.22582884302E-01  0.22481270556E-01 -0.42530827507E-01  0.53146275492E-01  0.51100000000E-03 0.  1.
</event>
<event>
 7    1  0.1208168E+005  0.1043930E+01  0.7957747E-01            NaN
         13   -1    0    0    0    0  0.00000000000E+00  0.00000000000E+00  0.74505805969E-08  0.10566000000E+00  0.10566000000E+00 0. -1.
     999900   -1    0    0    0    0 -0.00000000000E+00 -0.00000000000E+00 -0.74505805969E-08  0.93827000000E+00  0.93827000000E+00 0.  1.
     999902    2    1    2    0    0 -0.87698340100E-04 -0.26384462713E-01 -0.19805269645E-01  0.10109391487E+01  0.10104006958E+01 0.  0.
         14    1    1    2    0    0  0.87698340100E-04  0.26384462713E-01  0.19805269645E-01  0.32990851298E-01  0.00000000000E+00 0. -1.
     999901    1    3    3    0    0 -0.85576106211E-01 -0.37999907374E-01  0.60856939631E-01  0.88705739950E+00  0.88000000000E+00 0. -1.
        -11    1    3    3    0    0 -0.11298407374E-02  0.56461537334E-02 -0.65987896378E-03  0.58182603344E-02  0.51100000000E-03 0.  1.
         11    1    3    3    0    0  0.86618248609E-01  0.59692909275E-02 -0.80002330312E-01  0.11806348886E+00  0.51100000000E-03 0. -1.
</event>
<event>
 8    1  0.1208168E+005  0.1043930E+01  0.7957747E-01            NaN
         13   -1    0    0    0    0  0.00000000000E+00  0.00000000000E+00  0.74505805969E-08  0.10566000000E+00  0.10566000000E+00 0. -1.
     999900   -1    0    0    0    0 -0.00000000000E+00 -0.00000000000E+00 -0.74505805969E-08  0.93827000000E+00  0.93827000000E+00 0. -1.
     999902    2    1    2    0    0  0.32543960745E-03 -0.17292322180E-01 -0.15786709403E-01  0.10205131148E+01  0.10202444153E+01 0.  0.
     999903    2    3    3    0    0  0.11456766904E+00  0.23568135615E-01  0.52443701901E-01  0.12957189734E+00  0.18903092478E-01 0.  0.
         14    1    1    2    0    0 -0.32543960745E-03  0.17292322180E-01  0.15786709403E-01  0.23416885171E-01  0.00000000000E+00 0. -1.
     999901    1    3    3    0    0 -0.11424222943E+00 -0.40860457795E-01 -0.68230411304E-01  0.89094121749E+00  0.88000000000E+00 0. -1.
        -11    1    4    4    0    0  0.72580203802E-01  0.17862588423E-01  0.42719788208E-01  0.86094131476E-01  0.51100000000E-03 0. -1.
         11    1    4    4    0    0  0.41987465238E-01  0.57055471915E-02  0.97239136928E-02  0.43477765863E-01  0.51100000000E-03 0.  1.
</event>
<event>
 8    1  0.1208168E+005  0.1043930E+01  0.7957747E-01            NaN
         13   -1    0    0    0    0  0.00000000000E+00  0.00000000000E+00  0.74505805969E-08  0.10566000000E+00  0.10566000000E+00 0.  1.
     999900   -1    0    0    0    0 -0.00000000000E+00 -0.00000000000E+00 -0.74505805969E-08  0.93827000000E+00  0.93827000000E+00 0.  1.
     999902    2    1    2    0    0  0.30408087304E-02  0.87925874804E-02 -0.20007518257E-01  0.10218651660E+01  0.10216269185E+01 0.  0.
     999903    2    3    3    0    0 -0.54028045305E-01 -0.38501012559E-01  0.10970078706E+00  0.12927467582E+00  0.16622920268E-01 0.  0.
         14    1    1    2    0    0 -0.30408087304E-02 -0.87925874804E-02  0.20007518257E-01  0.22064833993E-01  0.00000000000E+00 0.  1.
     999901    1    3    3    0    0  0.57068854036E-01  0.47293600040E-01 -0.12970830532E+00  0.89259049019E+00  0.88000000000E+00 0.  1.
        -11    1    4    4    0    0 -0.31672548580E-01 -0.13833111518E-01  0.47805248486E-01  0.58992441987E-01  0.51100000000E-03 0.  1.
         11    1    4    4    0    0 -0.22355496725E-01 -0.24667901042E-01  0.61895538576E-01  0.70282233831E-01  0.51100000000E-03 0. -1.
</event>
<event>
 8    1  0.1208168E+005  0.1043930E+01  0.7957747E-01            NaN
         13   -1    0    0    0    0  0.00000000000E+00  0.00000000000E+00  0.74505805969E-08  0.10566000000E+00  0.10566000000E+00 0. -1.
     999900   -1    0    0    0    0 -0.00000000000E+00 -0.00000000000E+00 -0.74505805969E-08  0.93827000000E+00  0.93827000000E+00 0. -1.
     999902    2    1    2    0    0 -0.21977333248E-01  0.11322362537E-01  0.77746373806E-02  0.10180139035E+01  0.10176839705E+01 0.  0.
     999903    2    3    3    0    0  0.73568949142E-01 -0.27126828627E-01 -0.96362967847E-01  0.12590848756E+00  0.20466327391E-01 0.  0.
         14    1    1    2    0    0  0.21977333248E-01 -0.11322362537E-01 -0.77746373806E-02  0.25916096475E-01  0.00000000000E+00 0.  1.
     999901    1    3    3    0    0 -0.95546282390E-01  0.38449191164E-01  0.10413760523E+00  0.89210541597E+00  0.88000000000E+00 0.  1.
        -11    1    4    4    0    0  0.26496451171E-01 -0.15230191642E-01 -0.51009709127E-01  0.59466563784E-01  0.51100000000E-03 0. -1.
         11    1    4    4    0    0  0.47072497971E-01 -0.11896636985E-01 -0.45353258720E-01  0.66441923771E-01  0.51100000000E-03 0.  1.
</event>
<event>
 8    1  0.1208168E+005  0.1043930E+01  0.7957747E-01            NaN
         13   -1    0    0    0    0  0.00000000000E+00  0.00000000000E+00  0.74505805969E-08  0.10566000000E+00  0.10566000000E+00 0. -1.
     999900   -1    0    0    0    0 -0.00000000000E+00 -0.00000000000E+00 -0.74505805969E-08  0.93827000000E+00  0.93827000000E+00 0. -1.
     999902    2    1    2    0    0  0.15126564101E-02 -0.20621026750E-03 -0.23078967019E-01  0.10208005951E+01  0.10205385272E+01 0.  0.
     999903    2    3    3    0    0  0.43972445696E-01  0.96615584325E-02  0.11872524481E+00  0.12838329302E+00  0.18964822170E-01 0.  0.
         14    1    1    2    0    0 -0.15126564101E-02  0.20621026750E-03  0.23078967019E-01  0.23129404894E-01  0.00000000000E+00 0. -1.
     999901    1    3    3    0    0 -0.42459789286E-01 -0.98677687000E-02 -0.14180421183E+00  0.89241730208E+00  0.88000000000E+00 0. -1.
        -11    1    4    4    0    0  0.27221167687E-01  0.13288235574E-01  0.89624884210E-01  0.94606818811E-01  0.51100000000E-03 0. -1.
         11    1    4    4    0    0  0.16751278008E-01 -0.36266771415E-02  0.29100360602E-01  0.33776474211E-01  0.51100000000E-03 0.  1.
</event>
<event>
 8    1  0.1208168E+005  0.1043930E+01  0.7957747E-01            NaN
         13   -1    0    0    0    0  0.00000000000E+00  0.00000000000E+00  0.74505805969E-08  0.10566000000E+00  0.10566000000E+00 0.  1.
     999900   -1    0    0    0    0 -0.00000000000E+00 -0.00000000000E+00 -0.74505805969E-08  0.93827000000E+00  0.93827000000E+00 0.  1.
     999902    2    1    2    0    0 -0.19114816624E-01 -0.99741798492E-02  0.98556030144E-02  0.10202236003E+01  0.10199481365E+01 0.  0.
     999903    2    3    3    0    0 -0.79383591097E-01  0.65471003463E-01 -0.78112788953E-01  0.13058168417E+00  0.19020031892E-01 0.  0.
         14    1    1    2    0    0  0.19114816624E-01  0.99741798492E-02 -0.98556030144E-02  0.23706399748E-01  0.00000000000E+00 0. -1.
     999901    1    3    3    0    0  0.60268774473E-01 -0.75445183312E-01  0.87968391967E-01  0.88964191608E+00  0.88000000000E+00 0.  1.
        -11    1    4    4    0    0 -0.36618030939E-01  0.41794704075E-01 -0.45451800983E-01  0.71790004960E-01  0.51100000000E-03 0.  1.
         11    1    4    4    0    0 -0.42765560159E-01  0.23676299388E-01 -0.32660987970E-01  0.58791679212E-01  0.51100000000E-03 0. -1.
</event>
<event>
 8    1  0.1208168E+005  0.1043930E+01  0.7957747E-01            NaN
         13   -1    0    0    0    0  0.00000000000E+00  0.00000000000E+00  0.74505805969E-08  0.10566000000E+00  0.10566000000E+00 0. -1.
     999900   -1    0    0    0    0 -0.00000000000E+00 -0.00000000000E+00 -0.74505805969E-08  0.93827000000E+00  0.93827000000E+00 0.  1.
     999902    2    1    2    0    0 -0.21724360868E-01 -0.28756043490E-02  0.71571469539E-02  0.10208769805E+01  0.10206166605E+01 0.  0.
     999903    2    3    3    0    0 -0.12881345892E+00 -0.14044088654E-01  0.29510903863E-01  0.13403285642E+00  0.17428985336E-01 0.  0.
         14    1    1    2    0    0  0.21724360868E-01  0.28756043490E-02 -0.71571469539E-02  0.23053019498E-01  0.00000000000E+00 0.  1.
     999901    1    3    3    0    0  0.10708909805E+00  0.11168484305E-01 -0.22353756909E-01  0.88684412408E+00  0.88000000000E+00 0.  1.
        -11    1    4    4    0    0 -0.10398429777E+00 -0.12145309121E-01  0.16672023231E-01  0.10601160406E+00  0.51100000000E-03 0. -1.
         11    1    4    4    0    0 -0.24829161150E-01 -0.18987795326E-02  0.12838880632E-01  0.28021252364E-01  0.51100000000E-03 0.  1.
</event>
<event>
 8    1  0.1208168E+005  0.1043930E+01  0.7957747E-01            NaN
         13   -1    0    0    0    0  0.00000000000E+00  0.00000000000E+00  0.74505805969E-08  0.10566000000E+00  0.10566000000E+00 0.  1.
     999900   -1    0    0    0    0 -0.00000000000E+00 -0.00000000000E+00 -0.74505805969E-08  0.93827000000E+00  0.93827000000E+00 0. -1.
     999902    2    1    2    0    0 -0.19027135313E-01 -0.15265999365E-01 -0.40904039964E-02  0.10191951254E+01  0.10188949356E+01 0.  0.
     999903    2    3    3    0    0 -0.32447750114E-01  0.11855445729E+00  0.31307273035E-01  0.12827367937E+00  0.19130489870E-01 0.  0.
         14    1    1    2    0    0  0.19027135313E-01  0.15265999365E-01  0.40904039964E-02  0.24734874564E-01  0.00000000000E+00 0. -1.
     999901    1    3    3    0    0  0.13420614801E-01 -0.13382045666E+00 -0.35397677032E-01  0.89092144607E+00  0.88000000000E+00 0. -1.
        -11    1    4    4    0    0 -0.11746470216E-01  0.68609488069E-01  0.10774463787E-01  0.70438566188E-01  0.51100000000E-03 0.  1.
         11    1    4    4    0    0 -0.20701279898E-01  0.49944969224E-01  0.20532809248E-01  0.57835113182E-01  0.51100000000E-03 0. -1.
</event>
<event>
 8    1  0.1208168E+005  0.1043930E+01  0.7957747E-01            NaN
         13   -1    0    0    0    0  0.00000000000E+00  0.00000000000E+00  0.74505805969E-08  0.10566000000E+00  0.10566000000E+00 0.  1.
     999900   -1    0    0    0    0 -0.00000000000E+00 -0.00000000000E+00 -0.74505805969E-08  0.93827000000E+00  0.93827000000E+00 0. -1.
     999902    2    1    2    0    0  0.93808412597E-02 -0.57084513101E-02 -0.21079838785E-01  0.10201614030E+01  0.10198844748E+01 0.  0.
     999903    2    3    3    0    0  0.83095550109E-01 -0.94727029981E-01  0.32591602359E-01  0.13098268688E+00  0.14702756899E-01 0.  0.
         14    1    1    2    0    0 -0.93808412597E-02  0.57084513101E-02  0.21079838785E-01  0.23768596978E-01  0.00000000000E+00 0. -1.
     999901    1    3    3    0    0 -0.73714708849E-01  0.89018578671E-01 -0.53671441144E-01  0.88917871614E+00  0.88000000000E+00 0. -1.
        -11    1    4    4    0    0  0.54153643930E-01 -0.59237606640E-01  0.13610491942E-01  0.81407725697E-01  0.51100000000E-03 0.  1.
         11    1    4    4    0    0  0.28941906179E-01 -0.35489423342E-01  0.18981110417E-01  0.49574961181E-01  0.51100000000E-03 0. -1.
</event>
<event>
 8    1  0.1208168E+005  0.1043930E+01  0.7957747E-01            NaN
         13   -1    0    0    0    0  0.00000000000E+00  0.00000000000E+00  0.74505805969E-08  0.10566000000E+00  0.10566000000E+00 0.  1.
     999900   -1    0    0    0    0 -0.00000000000E+00 -0.00000000000E+00 -0.74505805969E-08  0.93827000000E+00  0.93827000000E+00 0. -1.
     999902    2    1    2    0    0  0.24867627389E-01  0.54561518258E-02 -0.16201088367E-01  0.10137531256E+01  0.10133038813E+01 0.  0.
     999903    2    3    3    0    0 -0.62785371825E-02  0.11688701200E+00 -0.41463442464E-01  0.12582007254E+00  0.20235611905E-01 0.  0.
         14    1    1    2    0    0 -0.24867627389E-01 -0.54561518258E-02  0.16201088367E-01  0.30176874407E-01  0.00000000000E+00 0.  1.
     999901    1    3    3    0    0  0.31146164572E-01 -0.11143086018E+00  0.25262354097E-01  0.88793305305E+00  0.88000000000E+00 0.  1.
        -11    1    4    4    0    0 -0.85929580074E-02  0.30245589534E-01 -0.52354333192E-02  0.31879546682E-01  0.51100000000E-03 0. -1.
         11    1    4    4    0    0  0.23144208249E-02  0.86641422469E-01 -0.36228009145E-01  0.93940525859E-01  0.51100000000E-03 0.  1.
</event>
<event>
 8    1  0.1208168E+005  0.1043930E+01  0.7957747E-01            NaN
         13   -1    0    0    0    0  0.00000000000E+00  0.00000000000E+00  0.74505805969E-08  0.10566000000E+00  0.10566000000E+00 0. -1.
     999900   -1    0    0    0    0 -0.00000000000E+00 -0.00000000000E+00 -0.74505805969E-08  0.93827000000E+00  0.93827000000E+00 0.  1.
     999902    2    1    2    0    0  0.20750000511E-01  0.26195703711E-02 -0.10448454429E-01  0.10205506315E+01  0.10202828023E+01 0.  0.
     999903    2    3    3    0    0 -0.97867391589E-01  0.60916596405E-01 -0.55826907285E-01  0.12952435081E+00  0.19262809275E-01 0.  0.
         14    1    1    2    0    0 -0.20750000511E-01 -0.26195703711E-02  0.10448454429E-01  0.23379368471E-01  0.00000000000E+00 0. -1.
     999901    1    3    3    0    0  0.11861739210E+00 -0.58297026033E-01  0.45378452857E-01  0.89102628072E+00  0.88000000000E+00 0. -1.
        -11    1    4    4    0    0 -0.29909585493E-01  0.10885490562E-01 -0.93258607797E-02  0.33170921142E-01  0.51100000000E-03 0. -1.
         11    1    4    4    0    0 -0.67957806097E-01  0.50031105842E-01 -0.46501046505E-01  0.96353429666E-01  0.51100000000E-03 0.  1.
</event>
<event>
 8    1  0.1208168E+005  0.1043930E+01  0.7957747E-01            NaN
         13   -1    0    0    0    0  0.00000000000E+00  0.00000000000E+00  0.74505805969E-08  0.10566000000E+00  0.10566000000E+00 0.  1.
     999900   -1    0    0    0    0 -0.00000000000E+00 -0.00000000000E+00 -0.74505805969E-08  0.93827000000E+00  0.93827000000E+00 0. -1.
     999902    2    1    2    0    0  0.20331609570E-01 -0.10825544163E-01 -0.98888487787E-02  0.10188629682E+01  0.10185545601E+01 0.  0.
     999903    2    3    3    0    0 -0.23997305283E-01  0.70330135410E-01  0.10116659571E+00  0.12707565678E+00  0.19782412691E-01 0.  0.
         14    1    1    2    0    0 -0.20331609570E-01  0.10825544163E-01  0.98888487787E-02  0.25067031820E-01  0.00000000000E+00 0.  1.
     999901    1    3    3    0    0  0.44328914852E-01 -0.81155679572E-01 -0.11105544449E+00  0.89178731140E+00  0.88000000000E+00 0. -1.
        -11    1    4    4    0    0 -0.21871079585E-01  0.63336001873E-01  0.78270991427E-01  0.10303592808E+00  0.51100000000E-03 0. -1.
         11    1    4    4    0    0 -0.21262256976E-02  0.69941335370E-02  0.22895604282E-01  0.24039728702E-01  0.51100000000E-03 0.  1.
</event>
<event>
 8    1  0.1208168E+005  0.1043930E+01  0.7957747E-01            NaN
         13   -1    0    0    0    0  0.00000000000E+00  0.00000000000E+00  0.74505805969E-08  0.10566000000E+00  0.10566000000E+00 0. -1.
     999900   -1    0    0    0    0 -0.00000000000E+00 -0.00000000000E+00 -0.74505805969E-08  0.93827000000E+00  0.93827000000E+00 0. -1.
     999902    2    1    2    0    0 -0.14891357282E-01  0.16862824539E-01 -0.11179728450E-01  0.10188084216E+01  0.10184986530E+01 0.  0.
     999903    2    3    3    0    0 -0.27893843707E-01 -0.11045953579E-01 -0.12574980698E+00  0.13084768629E+00  0.20199590259E-01 0.  0.
         14    1    1    2    0    0  0.14891357282E-01 -0.16862824539E-01  0.11179728450E-01  0.25121578400E-01  0.00000000000E+00 0.  1.
     999901    1    3    3    0    0  0.13002486425E-01  0.27908778117E-01  0.11457007853E+00  0.88796073530E+00  0.88000000000E+00 0.  1.
        -11    1    4    4    0    0 -0.15555536659E-01 -0.60578476822E-02 -0.10408638565E+00  0.10541778331E+00  0.51100000000E-03 0.  1.
         11    1    4    4    0    0 -0.12338307048E-01 -0.49881058967E-02 -0.21663421332E-01  0.25429902990E-01  0.51100000000E-03 0. -1.
</event>
<event>
 8    1  0.1208168E+005  0.1043930E+01  0.7957747E-01            NaN
         13   -1    0    0    0    0  0.00000000000E+00  0.00000000000E+00  0.74505805969E-08  0.10566000000E+00  0.10566000000E+00 0. -1.
     999900   -1    0    0    0    0 -0.00000000000E+00 -0.00000000000E+00 -0.74505805969E-08  0.93827000000E+00  0.93827000000E+00 0.  1.
     999902    2    1    2    0    0 -0.86500789911E-02  0.39697501702E-02 -0.22071098803E-01  0.10198942727E+01  0.10196110098E+01 0.  0.
     999903    2    3    3    0    0  0.49280075631E-01 -0.59117416274E-02  0.11546813950E+00  0.12727420307E+00  0.20058838064E-01 0.  0.
         14    1    1    2    0    0  0.86500789911E-02 -0.39697501702E-02  0.22071098803E-01  0.24035727269E-01  0.00000000000E+00 0. -1.
     999901    1    3    3    0    0 -0.57930154622E-01  0.98814917976E-02 -0.13753923830E+00  0.89262006966E+00  0.88000000000E+00 0.  1.
        -11    1    4    4    0    0  0.53087625300E-02 -0.50230480833E-02  0.33071423902E-01  0.33873207282E-01  0.51100000000E-03 0.  1.
         11    1    4    4    0    0  0.43971313101E-01 -0.88869354404E-03  0.82396715594E-01  0.93400995786E-01  0.51100000000E-03 0. -1.
</event>
<event>
 8    1  0.1208168E+005  0.1043930E+01  0.7957747E-01            NaN
         13   -1    0    0    0    0  0.00000000000E+00  0.00000000000E+00  0.74505805969E-08  0.10566000000E+00  0.10566000000E+00 0.  1.
     999900   -1    0    0    0    0 -0.00000000000E+00 -0.00000000000E+00 -0.74505805969E-08  0.93827000000E+00  0.93827000000E+00 0.  1.
     999902    2    1    2    0    0 -0.12652512423E-01 -0.36578539897E-02  0.19646053800E-01  0.10202776556E+01  0.10200034613E+01 0.  0.
     999903    2    3    3    0    0 -0.11756256377E+00  0.12246788584E-01  0.58335680718E-01  0.13305955176E+00  0.18189349567E-01 0.  0.
         14    1    1    2    0    0  0.12652512423E-01  0.36578539897E-02 -0.19646053800E-01  0.23652344415E-01  0.00000000000E+00 0. -1.
     999901    1    3    3    0    0  0.10491005135E+00 -0.15904642574E-01 -0.38689626918E-01  0.88721810383E+00  0.88000000000E+00 0.  1.
        -11    1    4    4    0    0 -0.48451879423E-01  0.50161273761E-02  0.34108133747E-01  0.59467403358E-01  0.51100000000E-03 0.  1.
         11    1    4    4    0    0 -0.69110684349E-01  0.72306612079E-02  0.24227546971E-01  0.73592148398E-01  0.51100000000E-03 0. -1.
</event>
<event>
 8    1  0.1208168E+005  0.1043930E+01  0.7957747E-01            NaN
         13   -1    0    0    0    0  0.00000000000E+00  0.00000000000E+00  0.74505805969E-08  0.10566000000E+00  0.10566000000E+00 0. -1.
     999900   -1    0    0    0    0 -0.00000000000E+00 -0.00000000000E+00 -0.74505805969E-08  0.93827000000E+00  0.93827000000E+00 0. -1.
     999902    2    1    2    0    0  0.71835952367E-02  0.17512141618E-01  0.15058320284E-01  0.10197425621E+01  0.10194556688E+01 0.  0.
     999903    2    3    3    0    0 -0.60948461477E-01  0.10569158577E+00 -0.42860003844E-01  0.13082629840E+00  0.19827106778E-01 0.  0.
         14    1    1    2    0    0 -0.71835952367E-02 -0.17512141618E-01 -0.15058320284E-01  0.24187437945E-01  0.00000000000E+00 0.  1.
     999901    1    3    3    0    0  0.68132056714E-01 -0.88179444157E-01  0.57918324128E-01  0.88891626366E+00  0.88000000000E+00 0.  1.
        -11    1    4    4    0    0 -0.25548952658E-01  0.54839573842E-01 -0.12304298129E-01  0.61739652692E-01  0.51100000000E-03 0. -1.
         11    1    4    4    0    0 -0.35399508819E-01  0.50852011933E-01 -0.30555705715E-01  0.69086645706E-01  0.51100000000E-03 0.  1.
</event>
<event>
 8    1  0.1208168E+005  0.1043930E+01  0.7957747E-01            NaN
         13   -1    0    0    0    0  0.00000000000E+00  0.00000000000E+00  0.74505805969E-08  0.10566000000E+00  0.10566000000E+00 0.  1.
     999900   -1    0    0    0    0 -0.00000000000E+00 -0.00000000000E+00 -0.74505805969E-08  0.93827000000E+00  0.93827000000E+00 0.  1.
     999902    2    1    2    0    0 -0.16303554011E-01 -0.11626217978E-01  0.14273311194E-01  0.10193393060E+01  0.10190426481E+01 0.  0.
     999903    2    3    3    0    0  0.74331716976E-01  0.25311865030E-01 -0.97652016510E-01  0.12686720377E+00  0.19836239641E-01 0.  0.
         14    1    1    2    0    0  0.16303554011E-01  0.11626217978E-01 -0.14273311194E-01  0.24590693978E-01  0.00000000000E+00 0. -1.
     999901    1    3    3    0    0 -0.90635270988E-01 -0.36938083008E-01  0.11192532770E+00  0.89247210226E+00  0.88000000000E+00 0. -1.
        -11    1    4    4    0    0  0.67989325570E-01  0.20717416471E-01 -0.94865376141E-01  0.11853885628E+00  0.51100000000E-03 0.  1.
         11    1    4    4    0    0  0.63423914065E-02  0.45944485591E-02 -0.27866403689E-02  0.83283474868E-02  0.51100000000E-03 0. -1.
</event>
<event>
 8    1  0.1208168E+005  0.1043930E+01  0.7957747E-01            NaN
         13   -1    0    0    0    0  0.00000000000E+00  0.00000000000E+00  0.74505805969E-08  0.10566000000E+00  0.10566000000E+00 0. -1.
     999900   -1    0    0    0    0 -0.00000000000E+00 -0.00000000000E+00 -0.74505805969E-08  0.93827000000E+00  0.93827000000E+00 0.  1.
     999902    2    1    2    0    0  0.22836407554E-01  0.53115862741E-02  0.37455987763E-02  0.10201867069E+01  0.10199103749E+01 0.  0.
     999903    2    3    3    0    0  0.15358645579E-01 -0.94964957397E-01 -0.85150974518E-01  0.13001037440E+00  0.19944369207E-01 0.  0.
         14    1    1    2    0    0 -0.22836407554E-01 -0.53115862741E-02 -0.37455987763E-02  0.23743293135E-01  0.00000000000E+00 0. -1.
     999901    1    3    3    0    0  0.74777619747E-02  0.10027654367E+00  0.88896573295E-01  0.89017633246E+00  0.88000000000E+00 0. -1.
        -11    1    4    4    0    0  0.80552014050E-02 -0.86503073878E-01 -0.77799324025E-01  0.11662188474E+00  0.51100000000E-03 0. -1.
         11    1    4    4    0    0  0.73034441741E-02 -0.84618835190E-02 -0.73516504930E-02  0.13388489663E-01  0.51100000000E-03 0.  1.
</event>
<event>
 8    1  0.1208168E+005  0.1043930E+01  0.7957747E-01            NaN
         13   -1    0    0    0    0  0.00000000000E+00  0.00000000000E+00  0.74505805969E-08  0.10566000000E+00  0.10566000000E+00 0.  1.
     999900   -1    0    0    0    0 -0.00000000000E+00 -0.00000000000E+00 -0.74505805969E-08  0.93827000000E+00  0.93827000000E+00 0. -1.
     999902    2    1    2    0    0 -0.15176331311E-02  0.23805012279E-01 -0.88964272476E-02  0.10184716372E+01  0.10181534008E+01 0.  0.
     999903    2    3    3    0    0  0.52144390799E-01 -0.30322180270E-01 -0.11242205560E+00  0.12913091422E+00  0.19939967756E-01 0.  0.
         14    1    1    2    0    0  0.15176331311E-02 -0.23805012279E-01  0.88964272476E-02  0.25458362824E-01  0.00000000000E+00 0.  1.
     999901    1    3    3    0    0 -0.53662023930E-01  0.54127192548E-01  0.10352562835E+00  0.88934072296E+00  0.88000000000E+00 0.  1.
        -11    1    4    4    0    0  0.29658202855E-01 -0.19711083641E-01 -0.84730911744E-01  0.91911502767E-01  0.51100000000E-03 0. -1.
         11    1    4    4    0    0  0.22486187944E-01 -0.10611096628E-01 -0.27691143853E-01  0.37219411451E-01  0.51100000000E-03 0.  1.
</event>
<event>
 8    1  0.1208168E+005  0.1043930E+01  0.7957747E-01            NaN
         13   -1    0    0    0    0  0.00000000000E+00  0.00000000000E+00  0.74505805969E-08  0.10566000000E+00  0.10566000000E+00 0. -1.
     999900   -1    0    0    0    0 -0.00000000000E+00 -0.00000000000E+00 -0.74505805969E-08  0.93827000000E+00  0.93827000000E+00 0.  1.
     999902    2    1    2    0    0 -0.89789253817E-02  0.12532251249E-01  0.18709916236E-01  0.10196866630E+01  0.10193984262E+01 0.  0.
     999903    2    3    3    0    0 -0.69784104937E-01  0.15935309884E-01  0.11014837325E+00  0.13285531373E+00  0.19852326106E-01 0.  0.
         14    1    1    2    0    0  0.89789253817E-02 -0.12532251249E-01 -0.18709916236E-01  0.24243336980E-01  0.00000000000E+00 0.  1.
     999901    1    3    3    0    0  0.60805179555E-01 -0.34030586343E-02 -0.91438457017E-01  0.88683134929E+00  0.88000000000E+00 0.  1.
        -11    1    4    4    0    0 -0.40371340872E-01  0.38113859491E-02  0.46519471971E-01  0.61714619176E-01  0.51100000000E-03 0. -1.
         11    1    4    4    0    0 -0.29412764065E-01  0.12123923934E-01  0.63628901283E-01  0.71140694549E-01  0.51100000000E-03 0.  1.
</event>
<event>
 8    1  0.1208168E+005  0.1043930E+01  0.7957747E-01            NaN
         13   -1    0    0    0    0  0.00000000000E+00  0.00000000000E+00  0.74505805969E-08  0.10566000000E+00  0.10566000000E+00 0. -1.
     999900   -1    0    0    0    0 -0.00000000000E+00 -0.00000000000E+00 -0.74505805969E-08  0.93827000000E+00  0.93827000000E+00 0.  1.
     999902    2    1    2    0    0  0.14784186551E-01  0.13548105603E-01  0.23948990404E-01  0.10126941635E+01  0.10122123253E+01 0.  0.
     999903    2    3    3    0    0  0.72817259129E-01  0.82676863717E-02  0.10209019558E+00  0.12731189115E+00  0.20376499401E-01 0.  0.
         14    1    1    2    0    0 -0.14784186551E-01 -0.13548105603E-01 -0.23948990404E-01  0.31235836451E-01  0.00000000000E+00 0.  1.
     999901    1    3    3    0    0 -0.58033072578E-01  0.52804192318E-02 -0.78141205179E-01  0.88538227240E+00  0.88000000000E+00 0.  1.
        -11    1    4    4    0    0  0.10521267668E-01  0.78155262634E-02  0.24651031038E-01  0.27923358973E-01  0.51100000000E-03 0.  1.
         11    1    4    4    0    0  0.62295991461E-01  0.45216010827E-03  0.77439164545E-01  0.99388532172E-01  0.51100000000E-03 0. -1.
</event>
<event>
 8    1  0.1208168E+005  0.1043930E+01  0.7957747E-01            NaN
         13   -1    0    0    0    0  0.00000000000E+00  0.00000000000E+00  0.74505805969E-08  0.10566000000E+00  0.10566000000E+00 0. -1.
     999900   -1    0    0    0    0 -0.00000000000E+00 -0.00000000000E+00 -0.74505805969E-08  0.93827000000E+00  0.93827000000E+00 0. -1.
     999902    2    1    2    0    0  0.20152794757E-01 -0.10548078049E-01 -0.70683924853E-02  0.10201106957E+01  0.10198325706E+01 0.  0.
     999903    2    3    3    0    0  0.75174172621E-01  0.10305789291E+00  0.20399657996E-01  0.13067932537E+00  0.19719394321E-01 0.  0.
         14    1    1    2    0    0 -0.20152794757E-01  0.10548078049E-01  0.70683924853E-02  0.23819304343E-01  0.00000000000E+00 0. -1.
     999901    1    3    3    0    0 -0.55021377864E-01 -0.11360597096E+00 -0.27468050482E-01  0.88943137029E+00  0.88000000000E+00 0.  1.
        -11    1    4    4    0    0  0.38163413662E-01  0.68262902871E-01  0.14435769764E-01  0.79529382120E-01  0.51100000000E-03 0. -1.
         11    1    4    4    0    0  0.37010758959E-01  0.34794990035E-01  0.59638882321E-02  0.51149943246E-01  0.51100000000E-03 0.  1.
</event>
<event>
 8    1  0.1208168E+005  0.1043930E+01  0.7957747E-01            NaN
         13   -1    0    0    0    0  0.00000000000E+00  0.00000000000E+00  0.74505805969E-08  0.10566000000E+00  0.10566000000E+00 0.  1.
     999900   -1    0    0    0    0 -0.00000000000E+00 -0.00000000000E+00 -0.74505805969E-08  0.93827000000E+00  0.93827000000E+00 0.  1.
     999902    2    1    2    0    0 -0.82090697769E-02  0.32382439712E-02  0.27373803298E-01  0.10151689124E+01  0.10147614107E+01 0.  0.
     999903    2    3    3    0    0  0.14848885673E-01 -0.11127499121E+00  0.55880290356E-01  0.12699237022E+00  0.20046001327E-01 0.  0.
         14    1    1    2    0    0  0.82090697769E-02 -0.32382439712E-02 -0.27373803298E-01  0.28761087560E-01  0.00000000000E+00 0. -1.
     999901    1    3    3    0    0 -0.23057955450E-01  0.11451323518E+00 -0.28506487057E-01  0.88817654222E+00  0.88000000000E+00 0.  1.
        -11    1    4    4    0    0 -0.19521975935E-02 -0.55224099597E-01  0.22867952838E-01  0.59805657255E-01  0.51100000000E-03 0.  1.
         11    1    4    4    0    0  0.16801083267E-01 -0.56050891616E-01  0.33012337518E-01  0.67186712966E-01  0.51100000000E-03 0. -1.
</event>
<event>
 8    1  0.1208168E+005  0.1043930E+01  0.7957747E-01            NaN
         13   -1    0    0    0    0  0.00000000000E+00  0.00000000000E+00  0.74505805969E-08  0.10566000000E+00  0.10566000000E+00 0.  1.
     999900   -1    0    0    0    0 -0.00000000000E+00 -0.00000000000E+00 -0.74505805969E-08  0.93827000000E+00  0.93827000000E+00 0. -1.
     999902    2    1    2    0    0  0.82042176368E-02 -0.74924639559E-02 -0.14867473500E-01  0.10253696128E+01  0.10252016167E+01 0.  0.
     999903    2    3    3    0    0  0.39319759381E-01 -0.67382185043E-01 -0.11123643176E+00  0.13753971261E+00  0.21382854247E-01 0.  0.
         14    1    1    2    0    0 -0.82042176368E-02  0.74924639559E-02  0.14867473500E-01  0.18560387157E-01  0.00000000000E+00 0.  1.
     999901    1    3    3    0    0 -0.31115541744E-01  0.59889721087E-01  0.96368958259E-01  0.88782990023E+00  0.88000000000E+00 0.  1.
        -11    1    4    4    0    0  0.38327211363E-01 -0.49576118048E-01 -0.80707567131E-01  0.10217993504E+00  0.51100000000E-03 0. -1.
         11    1    4    4    0    0  0.99254801753E-03 -0.17806066996E-01 -0.30528864627E-01  0.35359777571E-01  0.51100000000E-03 0.  1.
</event>
<event>
 8    1  0.1208168E+005  0.1043930E+01  0.7957747E-01            NaN
         13   -1    0    0    0    0  0.00000000000E+00  0.00000000000E+00  0.74505805969E-08  0.10566000000E+00  0.10566000000E+00 0.  1.
     999900   -1    0    0    0    0 -0.00000000000E+00 -0.00000000000E+00 -0.74505805969E-08  0.93827000000E+00  0.93827000000E+00 0.  1.
     999902    2    1    2    0    0 -0.16893591430E-01 -0.82011783158E-02  0.14685712634E-01  0.10200904758E+01  0.10198118728E+01 0.  0.
     999903    2    3    3    0    0  0.90145664199E-01  0.53040012760E-01  0.73156558476E-01  0.12956999569E+00  0.22293900690E-01 0.  0.
         14    1    1    2    0    0  0.16893591430E-01  0.82011783158E-02 -0.14685712634E-01  0.23839524172E-01  0.00000000000E+00 0. -1.
     999901    1    3    3    0    0 -0.10703925563E+00 -0.61241191075E-01 -0.58470845842E-01  0.89052048014E+00  0.88000000000E+00 0.  1.
        -11    1    4    4    0    0  0.70717161417E-01  0.49221831270E-01  0.65903989040E-01  0.10847719799E+00  0.51100000000E-03 0. -1.
         11    1    4    4    0    0  0.19428502782E-01  0.38181814899E-02  0.72525694360E-02  0.21092797697E-01  0.51100000000E-03 0.  1.
</event>
<event>
 8    1  0.1208168E+005  0.1043930E+01  0.7957747E-01            NaN
         13   -1    0    0    0    0  0.00000000000E+00  0.00000000000E+00  0.74505805969E-08  0.10566000000E+00  0.10566000000E+00 0.  1.
     999900   -1    0    0    0    0 -0.00000000000E+00 -0.00000000000E+00 -0.74505805969E-08  0.93827000000E+00  0.93827000000E+00 0. -1.
     999902    2    1    2    0    0 -0.19350127627E-01 -0.16463526962E-02 -0.12934998562E-01  0.10205965025E+01  0.10203297354E+01 0.  0.
     999903    2    3    3    0    0 -0.11918078495E+00 -0.33997930005E-01  0.42723178659E-01  0.13261529925E+00  0.20040679938E-01 0.  0.
         14    1    1    2    0    0  0.19350127627E-01  0.16463526962E-02  0.12934998562E-01  0.23333497470E-01  0.00000000000E+00 0.  1.
     999901    1    3    3    0    0  0.99830657327E-01  0.32351577309E-01 -0.55658177221E-01  0.88798120329E+00  0.88000000000E+00 0. -1.
        -11    1    4    4    0    0 -0.51122572340E-01 -0.17825585089E-01  0.28657898826E-01  0.61260143426E-01  0.51100000000E-03 0. -1.
         11    1    4    4    0    0 -0.68058212613E-01 -0.16172344916E-01  0.14065279833E-01  0.71355155819E-01  0.51100000000E-03 0.  1.
</event>
<event>
 8    1  0.1208168E+005  0.1043930E+01  0.7957747E-01            NaN
         13   -1    0    0    0    0  0.00000000000E+00  0.00000000000E+00  0.74505805969E-08  0.10566000000E+00  0.10566000000E+00 0. -1.
     999900   -1    0    0    0    0 -0.00000000000E+00 -0.00000000000E+00 -0.74505805969E-08  0.93827000000E+00  0.93827000000E+00 0. -1.
     999902    2    1    2    0    0 -0.80322616693E-02  0.19184045290E-01 -0.91262249045E-02  0.10212180472E+01  0.10209654583E+01 0.  0.
     999903    2    3    3    0    0 -0.10774167522E+00  0.21881495038E-01 -0.72326128397E-01  0.13333096470E+00  0.21424492879E-01 0.  0.
         14    1    1    2    0    0  0.80322616693E-02 -0.19184045290E-01  0.91262249045E-02  0.22711952849E-01  0.00000000000E+00 0. -1.
     999901    1    3    3    0    0  0.99709413546E-01 -0.26974497478E-02  0.63199903492E-01  0.88788708245E+00  0.88000000000E+00 0. -1.
        -11    1    4    4    0    0 -0.78917120181E-01  0.14920059954E-01 -0.40939807337E-01  0.90149037668E-01  0.51100000000E-03 0. -1.
         11    1    4    4    0    0 -0.28824555035E-01  0.69614350839E-02 -0.31386321060E-01  0.43181927030E-01  0.51100000000E-03 0.  1.
</event>
<event>
 8    1  0.1208168E+005  0.1043930E+01  0.7957747E-01            NaN
         13   -1    0    0    0    0  0.00000000000E+00  0.00000000000E+00  0.74505805969E-08  0.10566000000E+00  0.10566000000E+00 0.  1.
     999900   -1    0    0    0    0 -0.00000000000E+00 -0.00000000000E+00 -0.74505805969E-08  0.93827000000E+00  0.93827000000E+00 0.  1.
     999902    2    1    2    0    0 -0.24768037337E-01  0.13191996433E-02 -0.15260175723E-02  0.10190799559E+01  0.10187769294E+01 0.  0.
     999903    2    3    3    0    0 -0.11240465765E+00  0.88721156822E-02 -0.66415139356E-01  0.13231740490E+00  0.19580689610E-01 0.  0.
         14    1    1    2    0    0  0.24768037337E-01 -0.13191996433E-02  0.15260175723E-02  0.24850044082E-01  0.00000000000E+00 0. -1.
     999901    1    3    3    0    0  0.87636620314E-01 -0.75529160389E-02  0.64889121783E-01  0.88676255102E+00  0.88000000000E+00 0. -1.
        -11    1    4    4    0    0 -0.10377409222E+00  0.33170098593E-02 -0.57351683724E-01  0.11861509818E+00  0.51100000000E-03 0. -1.
         11    1    4    4    0    0 -0.86305654356E-02  0.55551058229E-02 -0.90634556314E-02  0.13702306719E-01  0.51100000000E-03 0.  1.
</event>
<event>
 8    1  0.1208168E+005  0.1043930E+01  0.7957747E-01            NaN
         13   -1    0    0    0    0  0.00000000000E+00  0.00000000000E+00  0.74505805969E-08  0.10566000000E+00  0.10566000000E+00 0.  1.
     999900   -1    0    0    0    0 -0.00000000000E+00 -0.00000000000E+00 -0.74505805969E-08  0.93827000000E+00  0.93827000000E+00 0. -1.
     999902    2    1    2    0    0 -0.96466826652E-02  0.14444658990E-01  0.18058756635E-01  0.10188735567E+01  0.10185654123E+01 0.  0.
     999903    2    3    3    0    0  0.17770791191E-01  0.10465581280E+00 -0.72126888663E-01  0.12925385100E+00  0.15350236389E-01 0.  0.
         14    1    1    2    0    0  0.96466826652E-02 -0.14444658990E-01 -0.18058756635E-01  0.25056443303E-01  0.00000000000E+00 0. -1.
     999901    1    3    3    0    0 -0.27417473856E-01 -0.90211153814E-01  0.90185645298E-01  0.88961970570E+00  0.88000000000E+00 0.  1.
        -11    1    4    4    0    0 -0.13537278393E-02  0.20890379972E-01 -0.98856352981E-02  0.23156585687E-01  0.51100000000E-03 0. -1.
         11    1    4    4    0    0  0.19124519030E-01  0.83765432832E-01 -0.62241253365E-01  0.10609726531E+00  0.51100000000E-03 0.  1.
</event>
<event>
 8    1  0.1208168E+005  0.1043930E+01  0.7957747E-01            NaN
         13   -1    0    0    0    0  0.00000000000E+00  0.00000000000E+00  0.74505805969E-08  0.10566000000E+00  0.10566000000E+00 0.  1.
     999900   -1    0    0    0    0 -0.00000000000E+00 -0.00000000000E+00 -0.74505805969E-08  0.93827000000E+00  0.93827000000E+00 0.  1.
     999902    2    1    2    0    0 -0.74610238449E-02  0.49531795500E-02  0.21020587388E-01  0.10210812373E+01  0.10208255616E+01 0.  0.
     999903    2    3    3    0    0 -0.50929150748E-01  0.57291842974E-01  0.10827621166E+00  0.13415262812E+00  0.19926262893E-01 0.  0.
         14    1    1    2    0    0  0.74610238449E-02 -0.49531795500E-02 -0.21020587388E-01  0.22848762737E-01  0.00000000000E+00 0. -1.
     999901    1    3    3    0    0  0.43468126903E-01 -0.52338663424E-01 -0.87255624274E-01  0.88692860914E+00  0.88000000000E+00 0.  1.
        -11    1    4    4    0    0 -0.22848199799E-01  0.28960465338E-01  0.35712219032E-01  0.51345618078E-01  0.51100000000E-03 0.  1.
         11    1    4    4    0    0 -0.28080950949E-01  0.28331377636E-01  0.72563992630E-01  0.82807010044E-01  0.51100000000E-03 0. -1.
</event>
<event>
 8    1  0.1208168E+005  0.1043930E+01  0.7957747E-01            NaN
         13   -1    0    0    0    0  0.00000000000E+00  0.00000000000E+00  0.74505805969E-08  0.10566000000E+00  0.10566000000E+00 0.  1.
     999900   -1    0    0    0    0 -0.00000000000E+00 -0.00000000000E+00 -0.74505805969E-08  0.93827000000E+00  0.93827000000E+00 0. -1.
     999902    2    1    2    0    0 -0.18860377347E-01  0.48611034694E-02  0.11907110025E-01  0.10211018720E+01  0.10208466631E+01 0.  0.
     999903    2    3    3    0    0 -0.94551036696E-01 -0.90702746876E-01 -0.51640000132E-03  0.13261109035E+00  0.20458440406E-01 0.  0.
         14    1    1    2    0    0  0.18860377347E-01 -0.48611034694E-02 -0.11907110025E-01  0.22828128039E-01  0.00000000000E+00 0. -1.
     999901    1    3    3    0    0  0.75690659349E-01  0.95563850345E-01  0.12423510026E-01  0.88849078161E+00  0.88000000000E+00 0.  1.
        -11    1    4    4    0    0 -0.51975697274E-01 -0.41071846049E-01  0.77495575672E-02  0.66698473809E-01  0.51100000000E-03 0.  1.
         11    1    4    4    0    0 -0.42575339422E-01 -0.49630900827E-01 -0.82659575685E-02  0.65912616541E-01  0.51100000000E-03 0. -1.
</event>
<event>
 8    1  0.1208168E+005  0.1043930E+01  0.7957747E-01            NaN
         13   -1    0    0    0    0  0.00000000000E+00  0.00000000000E+00  0.74505805969E-08  0.10566000000E+00  0.10566000000E+00 0.  1.
     999900   -1    0    0    0    0 -0.00000000000E+00 -0.00000000000E+00 -0.74505805969E-08  0.93827000000E+00  0.93827000000E+00 0. -1.
     999902    2    1    2    0    0 -0.16408404307E-01  0.17809689900E-01 -0.36673046824E-02  0.10194377582E+01  0.10191434996E+01 0.  0.
     999903    2    3    3    0    0 -0.79801621618E-01 -0.92500753356E-01  0.37583261441E-01  0.12933175151E+00  0.19736064015E-01 0.  0.
         14    1    1    2    0    0  0.16408404307E-01 -0.17809689900E-01  0.36673046824E-02  0.24492241830E-01  0.00000000000E+00 0. -1.
     999901    1    3    3    0    0  0.63393217311E-01  0.11031044326E+00 -0.41250566124E-01  0.89010600666E+00  0.88000000000E+00 0.  1.
        -11    1    4    4    0    0 -0.21004657324E-01 -0.15420180637E-01  0.13884695495E-01  0.29530043856E-01  0.51100000000E-03 0.  1.
         11    1    4    4    0    0 -0.58796964294E-01 -0.77080572720E-01  0.23698565946E-01  0.99801707650E-01  0.51100000000E-03 0. -1.
</event>
<event>
 8    1  0.1208168E+005  0.1043930E+01  0.7957747E-01            NaN
         13   -1    0    0    0    0  0.00000000000E+00  0.00000000000E+00  0.74505805969E-08  0.10566000000E+00  0.10566000000E+00 0.  1.
     999900   -1    0    0    0    0 -0.00000000000E+00 -0.00000000000E+00 -0.74505805969E-08  0.93827000000E+00  0.93827000000E+00 0.  1.
     999902    2    1    2    0    0  0.57025828124E-02  0.10096240147E-01 -0.20389578597E-01  0.10204739042E+01  0.10202042936E+01 0.  0.
     999903    2    3    3    0    0 -0.14425116938E-02  0.91517762130E-01 -0.95139466961E-01  0.13353080430E+00  0.20034367904E-01 0.  0.
         14    1    1    2    0    0 -0.57025828124E-02 -0.10096240147E-01  0.20389578597E-01  0.23456095821E-01  0.00000000000E+00 0.  1.
     999901    1    3    3    0    0  0.71450945062E-02 -0.81421521983E-01  0.74749888364E-01  0.88694309988E+00  0.88000000000E+00 0. -1.
        -11    1    4    4    0    0 -0.11597572876E-02  0.57089626231E-01 -0.44986803644E-01  0.72695557521E-01  0.51100000000E-03 0.  1.
         11    1    4    4    0    0 -0.28275440619E-03  0.34428135899E-01 -0.50152663316E-01  0.60835246776E-01  0.51100000000E-03 0. -1.
</event>
<event>
 8    1  0.1208168E+005  0.1043930E+01  0.7957747E-01            NaN
         13   -1    0    0    0    0  0.00000000000E+00  0.00000000000E+00  0.74505805969E-08  0.10566000000E+00  0.10566000000E+00 0. -1.
     999900   -1    0    0    0    0 -0.00000000000E+00 -0.00000000000E+00 -0.74505805969E-08  0.93827000000E+00  0.93827000000E+00 0. -1.
     999902    2    1    2    0    0 -0.42079079237E-02  0.14553211610E-01  0.17969169947E-01  0.10204269465E+01  0.10201562427E+01 0.  0.
     999903    2    3    3    0    0 -0.55615772304E-02 -0.74867623312E-01  0.10620256178E+00  0.13150453726E+00  0.19451658762E-01 0.  0.
         14    1    1    2    0    0  0.42079079237E-02 -0.14553211610E-01 -0.17969169947E-01  0.23503053543E-01  0.00000000000E+00 0.  1.
     999901    1    3    3    0    0  0.13536693067E-02  0.89420834921E-01 -0.88233391837E-01  0.88892240920E+00  0.88000000000E+00 0.  1.
        -11    1    4    4    0    0  0.53996227848E-02 -0.46679940984E-01  0.58779761986E-01  0.75256191483E-01  0.51100000000E-03 0.  1.
         11    1    4    4    0    0 -0.10961200015E-01 -0.28187682327E-01  0.47422799799E-01  0.56248345776E-01  0.51100000000E-03 0. -1.
</event>
<event>
 8    1  0.1208168E+005  0.1043930E+01  0.7957747E-01            NaN
         13   -1    0    0    0    0  0.00000000000E+00  0.00000000000E+00  0.74505805969E-08  0.10566000000E+00  0.10566000000E+00 0.  1.
     999900   -1    0    0    0    0 -0.00000000000E+00 -0.00000000000E+00 -0.74505805969E-08  0.93827000000E+00  0.93827000000E+00 0. -1.
     999902    2    1    2    0    0 -0.19902113186E-01 -0.11377867635E-01 -0.82463839709E-02  0.10195670603E+01  0.10192759379E+01 0.  0.
     999903    2    3    3    0    0  0.61942090045E-01 -0.11025159381E+00 -0.22986172229E-01  0.13013367401E+00  0.20351229435E-01 0.  0.
         14    1    1    2    0    0  0.19902113186E-01  0.11377867635E-01  0.82463839709E-02  0.24362939678E-01  0.00000000000E+00 0.  1.
     999901    1    3    3    0    0 -0.81844203231E-01  0.98873726179E-01  0.14739788258E-01  0.88943338631E+00  0.88000000000E+00 0.  1.
        -11    1    4    4    0    0  0.92685508106E-02 -0.31018422261E-01 -0.56700620768E-03  0.32382575110E-01  0.51100000000E-03 0.  1.
         11    1    4    4    0    0  0.52673539235E-01 -0.79233171552E-01 -0.22419166021E-01  0.97751098898E-01  0.51100000000E-03 0. -1.
</event>
<event>
 7    1  0.1208168E+005  0.1043930E+01  0.7957747E-01            NaN
         13   -1    0    0    0    0  0.00000000000E+00  0.00000000000E+00  0.74505805969E-08  0.10566000000E+00  0.10566000000E+00 0.  1.
     999900   -1    0    0    0    0 -0.00000000000E+00 -0.00000000000E+00 -0.74505805969E-08  0.93827000000E+00  0.93827000000E+00 0.  1.
     999903    2    1    2    0    0 -0.50236174896E-01 -0.81161562478E-01  0.59679491538E-03  0.97371327773E-01  0.19234001562E-01 0.  0.
         14    1    1    2    0    0 -0.55219333241E-02  0.57687745395E-01 -0.27338725929E-01  0.64076311159E-01  0.00000000000E+00 0. -1.
     999901    1    1    2    0    0  0.55758108220E-01  0.23473817084E-01  0.26741931013E-01  0.88248236107E+00  0.88000000000E+00 0. -1.
        -11    1    3    3    0    0 -0.44766793849E-01 -0.79852986720E-01 -0.81550063309E-03  0.91550485973E-01  0.51100000000E-03 0. -1.
         11    1    3    3    0    0 -0.54693810465E-02 -0.13085757585E-02  0.14122955485E-02  0.58208418003E-02  0.51100000000E-03 0.  1.
</event>
<event>
 8    1  0.1208168E+005  0.1043930E+01  0.7957747E-01            NaN
         13   -1    0    0    0    0  0.00000000000E+00  0.00000000000E+00  0.74505805969E-08  0.10566000000E+00  0.10566000000E+00 0.  1.
     999900   -1    0    0    0    0 -0.00000000000E+00 -0.00000000000E+00 -0.74505805969E-08  0.93827000000E+00  0.93827000000E+00 0. -1.
     999902    2    1    2    0    0  0.88092685533E-03 -0.12261439120E-02 -0.20872025849E-01  0.10230034397E+01  0.10227893805E+01 0.  0.
     999903    2    3    3    0    0  0.25235158189E-01 -0.12658816010E+00 -0.28490103789E-01  0.13375274461E+00  0.20414092913E-01 0.  0.
         14    1    1    2    0    0 -0.88092685533E-03  0.12261439120E-02  0.20872025849E-01  0.20926560253E-01  0.00000000000E+00 0.  1.
     999901    1    3    3    0    0 -0.24354231334E-01  0.12536201619E+00  0.76180779404E-02  0.88925069514E+00  0.88000000000E+00 0.  1.
        -11    1    4    4    0    0  0.81802713606E-02 -0.32864458401E-01 -0.16692118131E-01  0.37760791759E-01  0.51100000000E-03 0. -1.
         11    1    4    4    0    0  0.17054886829E-01 -0.93723701704E-01 -0.11797985658E-01  0.95991952852E-01  0.51100000000E-03 0.  1.
</event>
<event>
 8    1  0.1208168E+005  0.1043930E+01  0.7957747E-01            NaN
         13   -1    0    0    0    0  0.00000000000E+00  0.00000000000E+00  0.74505805969E-08  0.10566000000E+00  0.10566000000E+00 0.  1.
     999900   -1    0    0    0    0 -0.00000000000E+00 -0.00000000000E+00 -0.74505805969E-08  0.93827000000E+00  0.93827000000E+00 0. -1.
     999902    2    1    2    0    0 -0.99759215261E-02  0.20411686992E-01  0.76700076564E-02  0.10199511553E+01  0.10196692474E+01 0.  0.
     999903    2    3    3    0    0  0.11787986790E+00  0.50832705525E-01 -0.48412142423E-02  0.13010337509E+00  0.20586977593E-01 0.  0.
         14    1    1    2    0    0  0.99759215261E-02 -0.20411686992E-01 -0.76700076564E-02  0.23978844710E-01  0.00000000000E+00 0.  1.
     999901    1    3    3    0    0 -0.12785578943E+00 -0.30421018533E-01  0.12511221899E-01  0.88984778020E+00  0.88000000000E+00 0.  1.
        -11    1    4    4    0    0  0.84222815792E-01  0.26281645367E-01 -0.59016399443E-02  0.88426794910E-01  0.51100000000E-03 0. -1.
         11    1    4    4    0    0  0.33657052109E-01  0.24551060159E-01  0.10604257020E-02  0.41676580177E-01  0.51100000000E-03 0.  1.
</event>
<event>
 8    1  0.1208168E+005  0.1043930E+01  0.7957747E-01            NaN
         13   -1    0    0    0    0  0.00000000000E+00  0.00000000000E+00  0.74505805969E-08  0.10566000000E+00  0.10566000000E+00 0.  1.
     999900   -1    0    0    0    0 -0.00000000000E+00 -0.00000000000E+00 -0.74505805969E-08  0.93827000000E+00  0.93827000000E+00 0. -1.
     999902    2    1    2    0    0  0.61426005760E-02  0.32728727053E-02  0.13487776563E-01  0.10287522744E+01  0.10286403058E+01 0.  0.
     999903    2    3    3    0    0  0.10206962350E+00  0.87537414520E-01  0.30875469454E-01  0.13936774643E+00  0.19724785143E-01 0.  0.
         14    1    1    2    0    0 -0.61426005760E-02 -0.32728727053E-02 -0.13487776563E-01  0.15177725594E-01  0.00000000000E+00 0. -1.
     999901    1    3    3    0    0 -0.95927022927E-01 -0.84264541815E-01 -0.17387692891E-01  0.88938452797E+00  0.88000000000E+00 0.  1.
        -11    1    4    4    0    0  0.38967086322E-01  0.33390200421E-01  0.21678322935E-01  0.55709515407E-01  0.51100000000E-03 0.  1.
         11    1    4    4    0    0  0.63102537180E-01  0.54147214099E-01  0.91971465191E-02  0.83658231026E-01  0.51100000000E-03 0. -1.
</event>
<event>
 8    1  0.1208168E+005  0.1043930E+01  0.7957747E-01            NaN
         13   -1    0    0    0    0  0.00000000000E+00  0.00000000000E+00  0.74505805969E-08  0.10566000000E+00  0.10566000000E+00 0. -1.
     999900   -1    0    0    0    0 -0.00000000000E+00 -0.00000000000E+00 -0.74505805969E-08  0.93827000000E+00  0.93827000000E+00 0.  1.
     999902    2    1    2    0    0 -0.47306422386E-02  0.70751367451E-03  0.22832909401E-01  0.10206014488E+01  0.10203347960E+01 0.  0.
     999903    2    3    3    0    0  0.34828036520E-01  0.34908794291E-01  0.12249626405E+00  0.13343325674E+00  0.19169852696E-01 0.  0.
         14    1    1    2    0    0  0.47306422386E-02 -0.70751367451E-03 -0.22832909401E-01  0.23328551247E-01  0.00000000000E+00 0.  1.
     999901    1    3    3    0    0 -0.39558678759E-01 -0.34201280616E-01 -0.99663354645E-01  0.88716819201E+00  0.88000000000E+00 0.  1.
        -11    1    4    4    0    0  0.75189330443E-02  0.20884395237E-01  0.51461329913E-01  0.56046604857E-01  0.51100000000E-03 0.  1.
         11    1    4    4    0    0  0.27309103476E-01  0.14024399054E-01  0.71034934132E-01  0.77386651883E-01  0.51100000000E-03 0. -1.
</event>
<event>
 8    1  0.1208168E+005  0.1043930E+01  0.7957747E-01            NaN
         13   -1    0    0    0    0  0.00000000000E+00  0.00000000000E+00  0.74505805969E-08  0.10566000000E+00  0.10566000000E+00 0.  1.
     999900   -1    0    0    0    0 -0.00000000000E+00 -0.00000000000E+00 -0.74505805969E-08  0.93827000000E+00  0.93827000000E+00 0.  1.
     999902    2    1    2    0    0  0.17018362341E-01  0.63759780217E-02  0.36236768343E-02  0.10253987079E+01  0.10252312429E+01 0.  0.
     999903    2    3    3    0    0 -0.64126469176E-01 -0.11198137734E+00 -0.26058272851E-01  0.13328102208E+00  0.20802988773E-01 0.  0.
         14    1    1    2    0    0 -0.17018362341E-01 -0.63759780217E-02 -0.36236768343E-02  0.18531292084E-01  0.00000000000E+00 0.  1.
     999901    1    3    3    0    0  0.81144831517E-01  0.11835735536E+00  0.29681949685E-01  0.89211768584E+00  0.88000000000E+00 0. -1.
        -11    1    4    4    0    0 -0.22454991244E-01 -0.52424199667E-01 -0.33704392116E-02  0.57132690501E-01  0.51100000000E-03 0.  1.
         11    1    4    4    0    0 -0.41671477932E-01 -0.59557177673E-01 -0.22687833639E-01  0.76148331575E-01  0.51100000000E-03 0. -1.
</event>
<event>
 8    1  0.1208168E+005  0.1043930E+01  0.7957747E-01            NaN
         13   -1    0    0    0    0  0.00000000000E+00  0.00000000000E+00  0.74505805969E-08  0.10566000000E+00  0.10566000000E+00 0.  1.
     999900   -1    0    0    0    0 -0.00000000000E+00 -0.00000000000E+00 -0.74505805969E-08  0.93827000000E+00  0.93827000000E+00 0.  1.
     999902    2    1    2    0    0  0.71503502061E-02 -0.19527569546E-01 -0.10903569837E-01  0.10204493417E+01  0.10201791596E+01 0.  0.
     999903    2    3    3    0    0 -0.51978062175E-02 -0.48403731934E-01 -0.12234734999E+00  0.13286496492E+00  0.17728124521E-01 0.  0.
         14    1    1    2    0    0 -0.71503502061E-02  0.19527569546E-01  0.10903569837E-01  0.23480658330E-01  0.00000000000E+00 0.  1.
     999901    1    3    3    0    0  0.12348156424E-01  0.28876162388E-01  0.11144378015E+00  0.88758437675E+00  0.88000000000E+00 0. -1.
        -11    1    4    4    0    0 -0.17486532684E-02 -0.34387475616E-01 -0.63124820919E-01  0.71906608907E-01  0.51100000000E-03 0. -1.
         11    1    4    4    0    0 -0.34491529490E-02 -0.14016256318E-01 -0.59222529068E-01  0.60958356010E-01  0.51100000000E-03 0.  1.
</event>
<event>
 8    1  0.1208168E+005  0.1043930E+01  0.7957747E-01            NaN
         13   -1    0    0    0    0  0.00000000000E+00  0.00000000000E+00  0.74505805969E-08  0.10566000000E+00  0.10566000000E+00 0. -1.
     999900   -1    0    0    0    0 -0.00000000000E+00 -0.00000000000E+00 -0.74505805969E-08  0.93827000000E+00  0.93827000000E+00 0. -1.
     999902    2    1    2    0    0 -0.16404695655E-01 -0.14196964105E-01 -0.81994843222E-02  0.10207373423E+01  0.10204738226E+01 0.  0.
     999903    2    3    3    0    0 -0.22541565431E-01 -0.48534126763E-01 -0.12011707785E+00  0.13296358187E+00  0.19685478937E-01 0.  0.
         14    1    1    2    0    0  0.16404695655E-01  0.14196964105E-01  0.81994843222E-02  0.23192657727E-01  0.00000000000E+00 0. -1.
     999901    1    3    3    0    0  0.61368697763E-02  0.34337162659E-01  0.11191759353E+00  0.88777376040E+00  0.88000000000E+00 0.  1.
        -11    1    4    4    0    0 -0.22519308959E-01 -0.27761762947E-01 -0.84086202670E-01  0.91370593510E-01  0.51100000000E-03 0. -1.
         11    1    4    4    0    0 -0.22256472476E-04 -0.20772363816E-01 -0.36030875179E-01  0.41592988364E-01  0.51100000000E-03 0.  1.
</event>
<event>
 8    1  0.1208168E+005  0.1043930E+01  0.7957747E-01            NaN
         13   -1    0    0    0    0  0.00000000000E+00  0.00000000000E+00  0.74505805969E-08  0.10566000000E+00  0.10566000000E+00 0. -1.
     999900   -1    0    0    0    0 -0.00000000000E+00 -0.00000000000E+00 -0.74505805969E-08  0.93827000000E+00  0.93827000000E+00 0.  1.
     999902    2    1    2    0    0  0.12717579518E-01  0.16163298786E-01 -0.12396728290E-01  0.10199160888E+01  0.10196333460E+01 0.  0.
     999903    2    3    3    0    0  0.94462629973E-01  0.59269245080E-02 -0.90766902053E-01  0.13260051885E+00  0.19645615156E-01 0.  0.
         14    1    1    2    0    0 -0.12717579518E-01 -0.16163298786E-01  0.12396728290E-01  0.24013911151E-01  0.00000000000E+00 0.  1.
     999901    1    3    3    0    0 -0.81745050455E-01  0.10236374278E-01  0.78370173763E-01  0.88731557000E+00  0.88000000000E+00 0.  1.
        -11    1    4    4    0    0  0.87160944327E-01  0.73821512657E-02 -0.75272268964E-01  0.11540234820E+00  0.51100000000E-03 0.  1.
         11    1    4    4    0    0  0.73016856462E-02 -0.14552267577E-02 -0.15494633089E-01  0.17198170651E-01  0.51100000000E-03 0. -1.
</event>
<event>
 8    1  0.1208168E+005  0.1043930E+01  0.7957747E-01            NaN
         13   -1    0    0    0    0  0.00000000000E+00  0.00000000000E+00  0.74505805969E-08  0.10566000000E+00  0.10566000000E+00 0.  1.
     999900   -1    0    0    0    0 -0.00000000000E+00 -0.00000000000E+00 -0.74505805969E-08  0.93827000000E+00  0.93827000000E+00 0.  1.
     999902    2    1    2    0    0  0.96304588350E-02 -0.81861649739E-02  0.20781042521E-01  0.10196069500E+01  0.10193167916E+01 0.  0.
     999903    2    3    3    0    0 -0.11760380350E+00 -0.48185546232E-01  0.15037733130E-01  0.12953869775E+00  0.20040941409E-01 0.  0.
         14    1    1    2    0    0 -0.96304588350E-02  0.81861649739E-02 -0.20781042521E-01  0.24323050027E-01  0.00000000000E+00 0. -1.
     999901    1    3    3    0    0  0.12723426234E+00  0.39999381258E-01  0.57433093915E-02  0.89006825222E+00  0.88000000000E+00 0.  1.
        -11    1    4    4    0    0 -0.69933349369E-01 -0.35815109101E-01  0.16408336766E-01  0.80267615078E-01  0.51100000000E-03 0.  1.
         11    1    4    4    0    0 -0.47670454135E-01 -0.12370437131E-01 -0.13706036364E-02  0.49271082671E-01  0.51100000000E-03 0. -1.
</event>
<event>
 8    1  0.1208168E+005  0.1043930E+01  0.7957747E-01            NaN
         13   -1    0    0    0    0  0.00000000000E+00  0.00000000000E+00  0.74505805969E-08  0.10566000000E+00  0.10566000000E+00 0. -1.
     999900   -1    0    0    0    0 -0.00000000000E+00 -0.00000000000E+00 -0.74505805969E-08  0.93827000000E+00  0.93827000000E+00 0. -1.
     999902    2    1    2    0    0 -0.19258848067E-01 -0.85219788884E-02  0.10005126941E-01  0.10206141273E+01  0.10203477677E+01 0.  0.
     999903    2    3    3    0    0 -0.12267648068E+00  0.44527830323E-01 -0.12449727101E-01  0.13268749215E+00  0.20462851328E-01 0.  0.
         14    1    1    2    0    0  0.19258848067E-01  0.85219788884E-02 -0.10005126941E-01  0.23315872665E-01  0.00000000000E+00 0.  1.
     999901    1    3    3    0    0  0.10341763261E+00 -0.53049809212E-01  0.22454854042E-01  0.88792663518E+00  0.88000000000E+00 0.  1.
        -11    1    4    4    0    0 -0.30848949263E-01  0.13766089671E-01  0.53942216347E-02  0.34212887097E-01  0.51100000000E-03 0.  1.
         11    1    4    4    0    0 -0.91827531415E-01  0.30761740652E-01 -0.17843948735E-01  0.98474605057E-01  0.51100000000E-03 0. -1.
</event>
<event>
 8    1  0.1208168E+005  0.1043930E+01  0.7957747E-01            NaN
         13   -1    0    0    0    0  0.00000000000E+00  0.00000000000E+00  0.74505805969E-08  0.10566000000E+00  0.10566000000E+00 0.  1.
     999900   -1    0    0    0    0 -0.00000000000E+00 -0.00000000000E+00 -0.74505805969E-08  0.93827000000E+00  0.93827000000E+00 0. -1.
     999902    2    1    2    0    0  0.22520268606E-01  0.42556763802E-02 -0.15741392672E-02  0.10209571640E+01  0.10206986722E+01 0.  0.
     999903    2    3    3    0    0 -0.14687951965E-01  0.65261942789E-01  0.11060723848E+00  0.13096228888E+00  0.21030996036E-01 0.  0.
         14    1    1    2    0    0 -0.22520268606E-01 -0.42556763802E-02  0.15741392672E-02  0.22972836002E-01  0.00000000000E+00 0.  1.
     999901    1    3    3    0    0  0.37208220571E-01 -0.61006266409E-01 -0.11218137775E+00  0.88999487512E+00  0.88000000000E+00 0. -1.
        -11    1    4    4    0    0 -0.42044002697E-02  0.53748103414E-01  0.77945955010E-01  0.94775358747E-01  0.51100000000E-03 0.  1.
         11    1    4    4    0    0 -0.10483551695E-01  0.11513839375E-01  0.32661283475E-01  0.36186930134E-01  0.51100000000E-03 0. -1.
</event>
<event>
 7    1  0.1208168E+005  0.1043930E+01  0.7957747E-01            NaN
         13   -1    0    0    0    0  0.00000000000E+00  0.00000000000E+00  0.74505805969E-08  0.10566000000E+00  0.10566000000E+00 0.  1.
     999900   -1    0    0    0    0 -0.00000000000E+00 -0.00000000000E+00 -0.74505805969E-08  0.93827000000E+00  0.93827000000E+00 0.  1.
     999903    2    1    2    0    0  0.85677865977E-01 -0.53045575287E-01  0.56869418519E-01  0.11748628419E+00  0.20355992562E-01 0.  0.
         14    1    1    2    0    0 -0.14771259059E-01  0.19857477340E-01  0.29788667182E-01  0.38728209266E-01  0.00000000000E+00 0.  1.
     999901    1    1    2    0    0 -0.70906606918E-01  0.33188097947E-01 -0.86658085700E-01  0.88771550655E+00  0.88000000000E+00 0.  1.
        -11    1    3    3    0    0  0.34879191361E-01 -0.33206297830E-01  0.24005266268E-01  0.53811988769E-01  0.51100000000E-03 0.  1.
         11    1    3    3    0    0  0.50798674616E-01 -0.19839277456E-01  0.32864152250E-01  0.63674295417E-01  0.51100000000E-03 0. -1.
</event>
<event>
 8    1  0.1208168E+005  0.1043930E+01  0.7957747E-01            NaN
         13   -1    0    0    0    0  0.00000000000E+00  0.00000000000E+00  0.74505805969E-08  0.10566000000E+00  0.10566000000E+00 0.  1.
     999900   -1    0    0    0    0 -0.00000000000E+00 -0.00000000000E+00 -0.74505805969E-08  0.93827000000E+00  0.93827000000E+00 0.  1.
     999902    2    1    2    0    0  0.31293882208E-02 -0.19295221171E-01 -0.13429727429E-01  0.10202138408E+01  0.10199381475E+01 0.  0.
     999903    2    3    3    0    0  0.13803345706E-01  0.23214389320E-01 -0.12748502121E+00  0.13177160268E+00  0.19541863174E-01 0.  0.
         14    1    1    2    0    0 -0.31293882208E-02  0.19295221171E-01  0.13429727429E-01  0.23716159248E-01  0.00000000000E+00 0.  1.
     999901    1    3    3    0    0 -0.10673957486E-01 -0.42509610492E-01  0.11405529378E+00  0.88844223807E+00  0.88000000000E+00 0. -1.
        -11    1    4    4    0    0  0.27614119718E-02  0.21567731765E-01 -0.93493317744E-01  0.95989864222E-01  0.51100000000E-03 0. -1.
         11    1    4    4    0    0  0.11041933735E-01  0.16466575547E-02 -0.33991703463E-01  0.35781738457E-01  0.51100000000E-03 0.  1.
</event>
<event>
 8    1  0.1208168E+005  0.1043930E+01  0.7957747E-01            NaN
         13   -1    0    0    0    0  0.00000000000E+00  0.00000000000E+00  0.74505805969E-08  0.10566000000E+00  0.10566000000E+00 0. -1.
     999900   -1    0    0    0    0 -0.00000000000E+00 -0.00000000000E+00 -0.74505805969E-08  0.93827000000E+00  0.93827000000E+00 0.  1.
     999902    2    1    2    0    0 -0.35822271491E-02  0.19262144624E-01 -0.13836572140E-01  0.10199443106E+01  0.10196622399E+01 0.  0.
     999903    2    3    3    0    0 -0.85048878359E-01  0.29698836811E-01  0.90526199891E-01  0.12997952030E+00  0.24173336828E-01 0.  0.
         14    1    1    2    0    0  0.35822271491E-02 -0.19262144624E-01  0.13836572140E-01  0.23985689389E-01  0.00000000000E+00 0.  1.
     999901    1    3    3    0    0  0.81466651210E-01 -0.10436692186E-01 -0.10436277203E+00  0.88996479031E+00  0.88000000000E+00 0.  1.
        -11    1    4    4    0    0 -0.56299224919E-01  0.74868878099E-02  0.51696639178E-01  0.76801431229E-01  0.51100000000E-03 0.  1.
         11    1    4    4    0    0 -0.28749653439E-01  0.22211949001E-01  0.38829560713E-01  0.53178089073E-01  0.51100000000E-03 0. -1.
</event>
<event>
 8    1  0.1208168E+005  0.1043930E+01  0.7957747E-01            NaN
         13   -1    0    0    0    0  0.00000000000E+00  0.00000000000E+00  0.74505805969E-08  0.10566000000E+00  0.10566000000E+00 0. -1.
     999900   -1    0    0    0    0 -0.00000000000E+00 -0.00000000000E+00 -0.74505805969E-08  0.93827000000E+00  0.93827000000E+00 0. -1.
     999902    2    1    2    0    0 -0.10425922843E-01 -0.22151405177E-01  0.25166745747E-02  0.10193186557E+01  0.10190214932E+01 0.  0.
     999903    2    3    3    0    0 -0.54596981168E-01  0.85490297162E-01  0.76434342275E-01  0.12858769738E+00  0.20078993406E-01 0.  0.
         14    1    1    2    0    0  0.10425922843E-01  0.22151405177E-01 -0.25166745747E-02  0.24611344323E-01  0.00000000000E+00 0.  1.
     999901    1    3    3    0    0  0.44171058325E-01 -0.10764170234E+00 -0.73917667701E-01  0.89073095830E+00  0.88000000000E+00 0. -1.
        -11    1    4    4    0    0 -0.16652832696E-01  0.42536173616E-01  0.39595493679E-01  0.60454173911E-01  0.51100000000E-03 0. -1.
         11    1    4    4    0    0 -0.37944148472E-01  0.42954123546E-01  0.36838848596E-01  0.68133523466E-01  0.51100000000E-03 0.  1.
</event>
<event>
 8    1  0.1208168E+005  0.1043930E+01  0.7957747E-01            NaN
         13   -1    0    0    0    0  0.00000000000E+00  0.00000000000E+00  0.74505805969E-08  0.10566000000E+00  0.10566000000E+00 0. -1.
     999900   -1    0    0    0    0 -0.00000000000E+00 -0.00000000000E+00 -0.74505805969E-08  0.93827000000E+00  0.93827000000E+00 0.  1.
     999902    2    1    2    0    0  0.17429841849E-01 -0.87489495126E-02 -0.11290702459E-01  0.10213950612E+01  0.10211464379E+01 0.  0.
     999903    2    3    3    0    0 -0.95207721471E-01 -0.84628608541E-01  0.17925263355E-01  0.13049747114E+00  0.21949106964E-01 0.  0.
         14    1    1    2    0    0 -0.17429841849E-01  0.87489495126E-02  0.11290702459E-01  0.22534938795E-01  0.00000000000E+00 0.  1.
     999901    1    3    3    0    0  0.11263756332E+00  0.75879659028E-01 -0.29215965814E-01  0.89089759006E+00  0.88000000000E+00 0.  1.
        -11    1    4    4    0    0 -0.81162697349E-01 -0.67698540694E-01  0.22410604175E-01  0.10804152976E+00  0.51100000000E-03 0.  1.
         11    1    4    4    0    0 -0.14045024122E-01 -0.16930067846E-01 -0.44853408197E-02  0.22455941377E-01  0.51100000000E-03 0. -1.
</event>
<event>
 8    1  0.1208168E+005  0.1043930E+01  0.7957747E-01            NaN
         13   -1    0    0    0    0  0.00000000000E+00  0.00000000000E+00  0.74505805969E-08  0.10566000000E+00  0.10566000000E+00 0.  1.
     999900   -1    0    0    0    0 -0.00000000000E+00 -0.00000000000E+00 -0.74505805969E-08  0.93827000000E+00  0.93827000000E+00 0.  1.
     999902    2    1    2    0    0  0.22072002719E-01 -0.15386665517E-02 -0.88195001248E-02  0.10201114278E+01  0.10198333201E+01 0.  0.
     999903    2    3    3    0    0 -0.17914860632E-01  0.45948980474E-01 -0.11968821662E+00  0.13098494740E+00  0.19988401882E-01 0.  0.
         14    1    1    2    0    0 -0.22072002719E-01  0.15386665517E-02  0.88195001248E-02  0.23818572191E-01  0.00000000000E+00 0.  1.
     999901    1    3    3    0    0  0.39986863351E-01 -0.47487647026E-01  0.11086871650E+00  0.88912648041E+00  0.88000000000E+00 0. -1.
        -11    1    4    4    0    0 -0.95900191744E-02  0.35424656385E-01 -0.10425676576E+00  0.11052877035E+00  0.51100000000E-03 0. -1.
         11    1    4    4    0    0 -0.83248414571E-02  0.10524324089E-01 -0.15431450862E-01  0.20456177050E-01  0.51100000000E-03 0.  1.
</event>
<event>
 8    1  0.1208168E+005  0.1043930E+01  0.7957747E-01            NaN
         13   -1    0    0    0    0  0.00000000000E+00  0.00000000000E+00  0.74505805969E-08  0.10566000000E+00  0.10566000000E+00 0. -1.
     999900   -1    0    0    0    0 -0.00000000000E+00 -0.00000000000E+00 -0.74505805969E-08  0.93827000000E+00  0.93827000000E+00 0.  1.
     999902    2    1    2    0    0  0.26960440853E-03 -0.23513788692E-01 -0.14191263517E-02  0.10203718832E+01  0.10200998947E+01 0.  0.
     999903    2    3    3    0    0 -0.55100474489E-01 -0.10841062018E+00 -0.50443140045E-01  0.13319846641E+00  0.20208815355E-01 0.  0.
         14    1    1    2    0    0 -0.26960440853E-03  0.23513788692E-01  0.14191263517E-02  0.23558116750E-01  0.00000000000E+00 0.  1.
     999901    1    3    3    0    0  0.55370078897E-01  0.84896831491E-01  0.49024013694E-01  0.88717341684E+00  0.88000000000E+00 0.  1.
        -11    1    4    4    0    0 -0.32406731060E-01 -0.41879482111E-01 -0.22985736679E-01  0.57729476454E-01  0.51100000000E-03 0.  1.
         11    1    4    4    0    0 -0.22693743429E-01 -0.66531138072E-01 -0.27457403366E-01  0.75468989953E-01  0.51100000000E-03 0. -1.
</event>
<event>
 8    1  0.1208168E+005  0.1043930E+01  0.7957747E-01            NaN
         13   -1    0    0    0    0  0.00000000000E+00  0.00000000000E+00  0.74505805969E-08  0.10566000000E+00  0.10566000000E+00 0. -1.
     999900   -1    0    0    0    0 -0.00000000000E+00 -0.00000000000E+00 -0.74505805969E-08  0.93827000000E+00  0.93827000000E+00 0. -1.
     999902    2    1    2    0    0 -0.11549201286E-01  0.69577639635E-02  0.56641803332E-02  0.10293054498E+01  0.10292015505E+01 0.  0.
     999903    2    3    3    0    0  0.32912629862E-01  0.12222160036E+00  0.54739340385E-01  0.13932175459E+00  0.19819059429E-01 0.  0.
         14    1    1    2    0    0  0.11549201286E-01 -0.69577639635E-02 -0.56641803332E-02  0.14624550201E-01  0.00000000000E+00 0.  1.
     999901    1    3    3    0    0 -0.44461831149E-01 -0.11526383640E+00 -0.49075160052E-01  0.88998369521E+00  0.88000000000E+00 0.  1.
        -11    1    4    4    0    0  0.11016337490E-01  0.73092951361E-01  0.26171778338E-01  0.78416594753E-01  0.51100000000E-03 0.  1.
         11    1    4    4    0    0  0.21896292373E-01  0.49128648998E-01  0.28567562047E-01  0.60905159834E-01  0.51100000000E-03 0. -1.
</event>
<event>
 8    1  0.1208168E+005  0.1043930E+01  0.7957747E-01            NaN
         13   -1    0    0    0    0  0.00000000000E+00  0.00000000000E+00  0.74505805969E-08  0.10566000000E+00  0.10566000000E+00 0.  1.
     999900   -1    0    0    0    0 -0.00000000000E+00 -0.00000000000E+00 -0.74505805969E-08  0.93827000000E+00  0.93827000000E+00 0.  1.
     999902    2    1    2    0    0 -0.90664333214E-03 -0.15157841219E-01 -0.18727427953E-01  0.10198198629E+01  0.10195348224E+01 0.  0.
     999903    2    3    3    0    0 -0.10207573611E-01 -0.98081880870E-01  0.82193112157E-01  0.13013010852E+00  0.21304636669E-01 0.  0.
         14    1    1    2    0    0  0.90664333214E-03  0.15157841219E-01  0.18727427953E-01  0.24110137086E-01  0.00000000000E+00 0.  1.
     999901    1    3    3    0    0  0.93009302793E-02  0.82924039652E-01 -0.10092054011E+00  0.88968975439E+00  0.88000000000E+00 0.  1.
        -11    1    4    4    0    0 -0.19171180921E-02 -0.87049347822E-01  0.71385657464E-01  0.11259412734E+00  0.51100000000E-03 0. -1.
         11    1    4    4    0    0 -0.82904555193E-02 -0.11032533048E-01  0.10807454693E-01  0.17535981185E-01  0.51100000000E-03 0.  1.
</event>
<event>
 8    1  0.1208168E+005  0.1043930E+01  0.7957747E-01            NaN
         13   -1    0    0    0    0  0.00000000000E+00  0.00000000000E+00  0.74505805969E-08  0.10566000000E+00  0.10566000000E+00 0.  1.
     999900   -1    0    0    0    0 -0.00000000000E+00 -0.00000000000E+00 -0.74505805969E-08  0.93827000000E+00  0.93827000000E+00 0. -1.
     999902    2    1    2    0    0  0.10098185664E-01  0.49582125521E-02  0.17590419401E-01  0.10230498640E+01  0.10228367632E+01 0.  0.
     999903    2    3    3    0    0 -0.26338028897E-01 -0.21893219187E-02 -0.12676103611E+00  0.13051637571E+00  0.16360903323E-01 0.  0.
         14    1    1    2    0    0 -0.10098185664E-01 -0.49582125521E-02 -0.17590419401E-01  0.20880136017E-01  0.00000000000E+00 0. -1.
     999901    1    3    3    0    0  0.36436214560E-01  0.71475344709E-02  0.14435145551E+00  0.89253348827E+00  0.88000000000E+00 0.  1.
        -11    1    4    4    0    0 -0.25043124143E-01  0.29469735646E-02 -0.11255933535E+00  0.11535036981E+00  0.51100000000E-03 0.  1.
         11    1    4    4    0    0 -0.12949047531E-02 -0.51362954834E-02 -0.14201700755E-01  0.15166005900E-01  0.51100000000E-03 0. -1.
</event>
<event>
 8    1  0.1208168E+005  0.1043930E+01  0.7957747E-01            NaN
         13   -1    0    0    0    0  0.00000000000E+00  0.00000000000E+00  0.74505805969E-08  0.10566000000E+00  0.10566000000E+00 0. -1.
     999900   -1    0    0    0    0 -0.00000000000E+00 -0.00000000000E+00 -0.74505805969E-08  0.93827000000E+00  0.93827000000E+00 0. -1.
     999902    2    1    2    0    0  0.12924711106E-01  0.19442335445E-01  0.27595696343E-02  0.10204211125E+01  0.10201502728E+01 0.  0.
     999903    2    3    3    0    0  0.78342891644E-01  0.74853770907E-01 -0.74565990212E-01  0.13288001055E+00  0.18876297773E-01 0.  0.
         14    1    1    2    0    0 -0.12924711106E-01 -0.19442335445E-01 -0.27595696343E-02  0.23508887454E-01  0.00000000000E+00 0.  1.
     999901    1    3    3    0    0 -0.65418180538E-01 -0.55411435462E-01  0.77325559847E-01  0.88754110199E+00  0.88000000000E+00 0.  1.
        -11    1    4    4    0    0  0.21169999110E-01  0.31592087324E-01 -0.30209703621E-01  0.48570733551E-01  0.51100000000E-03 0. -1.
         11    1    4    4    0    0  0.57172892534E-01  0.43261683583E-01 -0.44356286591E-01  0.84309277000E-01  0.51100000000E-03 0.  1.
</event>
<event>
 8    1  0.1208168E+005  0.1043930E+01  0.7957747E-01            NaN
         13   -1    0    0    0    0  0.00000000000E+00  0.00000000000E+00  0.74505805969E-08  0.10566000000E+00  0.10566000000E+00 0.  1.
     999900   -1    0    0    0    0 -0.00000000000E+00 -0.00000000000E+00 -0.74505805969E-08  0.93827000000E+00  0.93827000000E+00 0. -1.
     999902    2    1    2    0    0 -0.21941016463E-01 -0.76005590009E-02  0.48167360833E-02  0.10202154971E+01  0.10199398428E+01 0.  0.
     999903    2    3    3    0    0  0.42289191176E-01 -0.10268797388E+00 -0.64489663017E-01  0.13006353649E+00  0.20601243162E-01 0.  0.
         14    1    1    2    0    0  0.21941016463E-01  0.76005590009E-02 -0.48167360833E-02  0.23714502885E-01  0.00000000000E+00 0.  1.
     999901    1    3    3    0    0 -0.64230207640E-01  0.95087414877E-01  0.69306399101E-01  0.89015196062E+00  0.88000000000E+00 0.  1.
        -11    1    4    4    0    0  0.37413134254E-01 -0.70244264847E-01 -0.51364950761E-01  0.94723907470E-01  0.51100000000E-03 0.  1.
         11    1    4    4    0    0  0.48760569219E-02 -0.32443709031E-01 -0.13124712256E-01  0.35339629024E-01  0.51100000000E-03 0. -1.
</event>
<event>
 8    1  0.1208168E+005  0.1043930E+01  0.7957747E-01            NaN
         13   -1    0    0    0    0  0.00000000000E+00  0.00000000000E+00  0.74505805969E-08  0.10566000000E+00  0.10566000000E+00 0. -1.
     999900   -1    0    0    0    0 -0.00000000000E+00 -0.00000000000E+00 -0.74505805969E-08  0.93827000000E+00  0.93827000000E+00 0.  1.
     999902    2    1    2    0    0 -0.10523899912E-01 -0.25816168608E-02  0.21428627304E-01  0.10199174349E+01  0.10196347242E+01 0.  0.
     999903    2    3    3    0    0 -0.10740251581E+00 -0.41612931984E-02  0.75859359139E-01  0.13292776970E+00  0.19040294774E-01 0.  0.
         14    1    1    2    0    0  0.10523899912E-01  0.25816168608E-02 -0.21428627304E-01  0.24012565109E-01  0.00000000000E+00 0.  1.
     999901    1    3    3    0    0  0.96878615893E-01  0.15796763376E-02 -0.54430731835E-01  0.88698966520E+00  0.88000000000E+00 0.  1.
        -11    1    4    4    0    0 -0.98196148069E-01  0.82868449448E-03  0.64605517253E-01  0.11754702971E+00  0.51100000000E-03 0. -1.
         11    1    4    4    0    0 -0.92063677362E-02 -0.49899776929E-02  0.11253841886E-01  0.15380739984E-01  0.51100000000E-03 0.  1.
</event>
<event>
 8    1  0.1208168E+005  0.1043930E+01  0.7957747E-01            NaN
         13   -1    0    0    0    0  0.00000000000E+00  0.00000000000E+00  0.74505805969E-08  0.10566000000E+00  0.10566000000E+00 0.  1.
     999900   -1    0    0    0    0 -0.00000000000E+00 -0.00000000000E+00 -0.74505805969E-08  0.93827000000E+00  0.93827000000E+00 0.  1.
     999902    2    1    2    0    0 -0.93789425608E-02 -0.15003625728E-01 -0.15916662054E-01  0.10201305572E+01  0.10198529012E+01 0.  0.
     999903    2    3    3    0    0 -0.38855273902E-01  0.10822098326E+00 -0.57407157524E-01  0.13008863703E+00  0.20148404955E-01 0.  0.
         14    1    1    2    0    0  0.93789425608E-02  0.15003625728E-01  0.15916662054E-01  0.23799442840E-01  0.00000000000E+00 0.  1.
     999901    1    3    3    0    0  0.29476331341E-01 -0.12322460899E+00  0.41490495471E-01  0.89004192013E+00  0.88000000000E+00 0. -1.
        -11    1    4    4    0    0 -0.83555676348E-02  0.40854127352E-01 -0.29341582065E-01  0.50990830463E-01  0.51100000000E-03 0.  1.
         11    1    4    4    0    0 -0.30499706267E-01  0.67366855908E-01 -0.28065575459E-01  0.79097806570E-01  0.51100000000E-03 0. -1.
</event>
<event>
 8    1  0.1208168E+005  0.1043930E+01  0.7957747E-01            NaN
         13   -1    0    0    0    0  0.00000000000E+00  0.00000000000E+00  0.74505805969E-08  0.10566000000E+00  0.10566000000E+00 0.  1.
     999900   -1    0    0    0    0 -0.00000000000E+00 -0.00000000000E+00 -0.74505805969E-08  0.93827000000E+00  0.93827000000E+00 0. -1.
     999902    2    1    2    0    0 -0.55653545419E-02  0.15480014554E-01  0.17654683761E-01  0.10197992752E+01  0.10195137418E+01 0.  0.
     999903    2    3    3    0    0 -0.10982142738E+00  0.43293285850E-01  0.56446467029E-01  0.13236042701E+00  0.19950551066E-01 0.  0.
         14    1    1    2    0    0  0.55653545419E-02 -0.15480014554E-01 -0.17654683761E-01  0.24130724823E-01  0.00000000000E+00 0. -1.
     999901    1    3    3    0    0  0.10425607284E+00 -0.27813271295E-01 -0.38791783268E-01  0.88743884816E+00  0.88000000000E+00 0. -1.
        -11    1    4    4    0    0 -0.10946180853E+00  0.40400739166E-01  0.54253419223E-01  0.12867712256E+00  0.51100000000E-03 0. -1.
         11    1    4    4    0    0 -0.35961885165E-03  0.28925466835E-02  0.21930478064E-02  0.36833044560E-02  0.51100000000E-03 0.  1.
</event>
<event>
 7    1  0.1208168E+005  0.1043930E+01  0.7957747E-01            NaN
         13   -1    0    0    0    0  0.00000000000E+00  0.00000000000E+00  0.74505805969E-08  0.10566000000E+00  0.10566000000E+00 0.  1.
     999900   -1    0    0    0    0 -0.00000000000E+00 -0.00000000000E+00 -0.74505805969E-08  0.93827000000E+00  0.93827000000E+00 0.  1.
     999903    2    1    2    0    0  0.56139538212E-01  0.62360788543E-01  0.75799009375E-01  0.11484714258E+00  0.20096284166E-01 0.  0.
         14    1    1    2    0    0  0.31197591042E-01 -0.26213215741E-01  0.36522999188E-03  0.40749917292E-01  0.00000000000E+00 0.  1.
     999901    1    1    2    0    0 -0.87337129254E-01 -0.36147572802E-01 -0.76164239367E-01  0.88833294013E+00  0.88000000000E+00 0.  1.
        -11    1    3    3    0    0  0.50432459161E-01  0.47571524175E-01  0.53950273948E-01  0.87848597196E-01  0.51100000000E-03 0.  1.
         11    1    3    3    0    0  0.57070790512E-02  0.14789264368E-01  0.21848735428E-01  0.26998545380E-01  0.51100000000E-03 0. -1.
</event>
<event>
 8    1  0.1208168E+005  0.1043930E+01  0.7957747E-01            NaN
         13   -1    0    0    0    0  0.00000000000E+00  0.00000000000E+00  0.74505805969E-08  0.10566000000E+00  0.10566000000E+00 0. -1.
     999900   -1    0    0    0    0 -0.00000000000E+00 -0.00000000000E+00 -0.74505805969E-08  0.93827000000E+00  0.93827000000E+00 0.  1.
     999902    2    1    2    0    0  0.19218743572E-02  0.16931056569E-01  0.16466201737E-01  0.10202342182E+01  0.10199590040E+01 0.  0.
     999903    2    3    3    0    0 -0.22757862383E-02  0.92514742231E-01 -0.90184552717E-01  0.13056860832E+00  0.18728352776E-01 0.  0.
         14    1    1    2    0    0 -0.19218743572E-02 -0.16931056569E-01 -0.16466201737E-01  0.23695781844E-01  0.00000000000E+00 0.  1.
     999901    1    3    3    0    0  0.41976605955E-02 -0.75583685662E-01  0.10665075445E+00  0.88966560983E+00  0.88000000000E+00 0. -1.
        -11    1    4    4    0    0 -0.69398965688E-02  0.84116758057E-01 -0.84299145037E-01  0.11929123239E+00  0.51100000000E-03 0. -1.
         11    1    4    4    0    0  0.46641103305E-02  0.83979841739E-02 -0.58854076801E-02  0.11277375932E-01  0.51100000000E-03 0.  1.
</event>
<event>
 8    1  0.1208168E+005  0.1043930E+01  0.7957747E-01            NaN
         13   -1    0    0    0    0  0.00000000000E+00  0.00000000000E+00  0.74505805969E-08  0.10566000000E+00  0.10566000000E+00 0. -1.
     999900   -1    0    0    0    0 -0.00000000000E+00 -0.00000000000E+00 -0.74505805969E-08  0.93827000000E+00  0.93827000000E+00 0.  1.
     999902    2    1    2    0    0  0.14847696911E-01  0.18645382026E-01 -0.19833823953E-02  0.10200126803E+01  0.10197322344E+01 0.  0.
     999903    2    3    3    0    0  0.38288068757E-01 -0.96214615833E-01 -0.74743822219E-01  0.12926223731E+00  0.19971442740E-01 0.  0.
         14    1    1    2    0    0 -0.14847696911E-01 -0.18645382026E-01  0.19833823953E-02  0.23917319669E-01  0.00000000000E+00 0.  1.
     999901    1    3    3    0    0 -0.23440371846E-01  0.11485999786E+00  0.72760439824E-01  0.89075044302E+00  0.88000000000E+00 0. -1.
        -11    1    4    4    0    0  0.30426854263E-01 -0.49906176762E-01 -0.43097832091E-01  0.72623027968E-01  0.51100000000E-03 0. -1.
         11    1    4    4    0    0  0.78612144936E-02 -0.46308439071E-01 -0.31645990129E-01  0.56639209341E-01  0.51100000000E-03 0.  1.
</event>
<event>
 8    1  0.1208168E+005  0.1043930E+01  0.7957747E-01            NaN
         13   -1    0    0    0    0  0.00000000000E+00  0.00000000000E+00  0.74505805969E-08  0.10566000000E+00  0.10566000000E+00 0.  1.
     999900   -1    0    0    0    0 -0.00000000000E+00 -0.00000000000E+00 -0.74505805969E-08  0.93827000000E+00  0.93827000000E+00 0. -1.
     999902    2    1    2    0    0  0.49037470854E-02 -0.12312227113E-01  0.19686449228E-01  0.10201982922E+01  0.10199222330E+01 0.  0.
     999903    2    3    3    0    0 -0.97624279566E-01 -0.61636941974E-01  0.59585035029E-01  0.13197713680E+00  0.23194302369E-01 0.  0.
         14    1    1    2    0    0 -0.49037470854E-02  0.12312227113E-01 -0.19686449228E-01  0.23731707801E-01  0.00000000000E+00 0. -1.
     999901    1    3    3    0    0  0.10252802665E+00  0.49324714861E-01 -0.39898585801E-01  0.88822115540E+00  0.88000000000E+00 0. -1.
        -11    1    4    4    0    0 -0.54294111516E-01 -0.27247704181E-01  0.42274234826E-01  0.74011215228E-01  0.51100000000E-03 0. -1.
         11    1    4    4    0    0 -0.43330168050E-01 -0.34389237793E-01  0.17310800203E-01  0.57965921574E-01  0.51100000000E-03 0.  1.
</event>
<event>
 8    1  0.1208168E+005  0.1043930E+01  0.7957747E-01            NaN
         13   -1    0    0    0    0  0.00000000000E+00  0.00000000000E+00  0.74505805969E-08  0.10566000000E+00  0.10566000000E+00 0. -1.
     999900   -1    0    0    0    0 -0.00000000000E+00 -0.00000000000E+00 -0.74505805969E-08  0.93827000000E+00  0.93827000000E+00 0. -1.
     999902    2    1    2    0    0 -0.21067016432E-02  0.22552778551E-01  0.79674467917E-02  0.10199186231E+01  0.10196359407E+01 0.  0.
     999903    2    3    3    0    0 -0.21006014803E-01 -0.12203061554E+00 -0.22582065899E-01  0.12739701854E+00  0.19680621078E-01 0.  0.
         14    1    1    2    0    0  0.21067016432E-02 -0.22552778551E-01 -0.79674467917E-02  0.24011376898E-01  0.00000000000E+00 0. -1.
     999901    1    3    3    0    0  0.18899313160E-01  0.14458339409E+00  0.30549512691E-01  0.89252160456E+00  0.88000000000E+00 0.  1.
        -11    1    4    4    0    0 -0.12489930360E-01 -0.10333894314E+00 -0.13614891779E-01  0.10497886420E+00  0.51100000000E-03 0.  1.
         11    1    4    4    0    0 -0.85160844431E-02 -0.18691672400E-01 -0.89671741203E-02  0.22418154341E-01  0.51100000000E-03 0. -1.
</event>
<event>
 8    1  0.1208168E+005  0.1043930E+01  0.7957747E-01            NaN
         13   -1    0    0    0    0  0.00000000000E+00  0.00000000000E+00  0.74505805969E-08  0.10566000000E+00  0.10566000000E+00 0. -1.
     999900   -1    0    0    0    0 -0.00000000000E+00 -0.00000000000E+00 -0.74505805969E-08  0.93827000000E+00  0.93827000000E+00 0.  1.
     999902    2    1    2    0    0 -0.30724930203E-02  0.22070550797E-01  0.65857309496E-02  0.10206937938E+01  0.10204292721E+01 0.  0.
     999903    2    3    3    0    0  0.77066619505E-01  0.10166511889E+00 -0.30696740240E-01  0.13269179197E+00  0.19742379624E-01 0.  0.
         14    1    1    2    0    0  0.30724930203E-02 -0.22070550797E-01 -0.65857309496E-02  0.23236206187E-01  0.00000000000E+00 0.  1.
     999901    1    3    3    0    0 -0.80139112526E-01 -0.79594568092E-01  0.37282471190E-01  0.88800200185E+00  0.88000000000E+00 0. -1.
        -11    1    4    4    0    0  0.68051694803E-01  0.76670741931E-01 -0.24297460221E-01  0.10535683902E+00  0.51100000000E-03 0.  1.
         11    1    4    4    0    0  0.90149247021E-02  0.24994376957E-01 -0.63992800194E-02  0.27334952947E-01  0.51100000000E-03 0. -1.
</event>
<event>
 8    1  0.1208168E+005  0.1043930E+01  0.7957747E-01            NaN
         13   -1    0    0    0    0  0.00000000000E+00  0.00000000000E+00  0.74505805969E-08  0.10566000000E+00  0.10566000000E+00 0. -1.
     999900   -1    0    0    0    0 -0.00000000000E+00 -0.00000000000E+00 -0.74505805969E-08  0.93827000000E+00  0.93827000000E+00 0. -1.
     999902    2    1    2    0    0  0.32027697957E-02 -0.20120182614E-01  0.39198785894E-02  0.10231828332E+01  0.10229724655E+01 0.  0.
     999903    2    3    3    0    0  0.49085771180E-01 -0.33749486501E-01  0.11954138042E+00  0.13433001104E+00  0.14351636282E-01 0.  0.
         14    1    1    2    0    0 -0.32027697957E-02  0.20120182614E-01 -0.39198785894E-02  0.20747166817E-01  0.00000000000E+00 0.  1.
     999901    1    3    3    0    0 -0.45883001384E-01  0.13629303887E-01 -0.11562150183E+00  0.88885282214E+00  0.88000000000E+00 0. -1.
        -11    1    4    4    0    0  0.16883713501E-01 -0.70483118023E-02  0.49121695069E-01  0.52420802438E-01  0.51100000000E-03 0.  1.
         11    1    4    4    0    0  0.32202057679E-01 -0.26701174698E-01  0.70419685347E-01  0.81909208606E-01  0.51100000000E-03 0. -1.
</event>
<event>
 8    1  0.1208168E+005  0.1043930E+01  0.7957747E-01            NaN
         13   -1    0    0    0    0  0.00000000000E+00  0.00000000000E+00  0.74505805969E-08  0.10566000000E+00  0.10566000000E+00 0.  1.
     999900   -1    0    0    0    0 -0.00000000000E+00 -0.00000000000E+00 -0.74505805969E-08  0.93827000000E+00  0.93827000000E+00 0.  1.
     999902    2    1    2    0    0 -0.11805536037E-01  0.24731156699E-01 -0.27228767281E-02  0.10163906672E+01  0.10160175065E+01 0.  0.
     999903    2    3    3    0    0  0.70889504986E-01 -0.13828025854E-01 -0.10027115578E+00  0.12631148696E+00  0.26148629818E-01 0.  0.
         14    1    1    2    0    0  0.11805536037E-01 -0.24731156699E-01  0.27228767281E-02  0.27539332789E-01  0.00000000000E+00 0.  1.
     999901    1    3    3    0    0 -0.82695041023E-01  0.38559182553E-01  0.97548279049E-01  0.89007918025E+00  0.88000000000E+00 0. -1.
        -11    1    4    4    0    0  0.16959064273E-01  0.15592591354E-02 -0.42528968610E-01  0.45815013283E-01  0.51100000000E-03 0. -1.
         11    1    4    4    0    0  0.53930440713E-01 -0.15387284990E-01 -0.57742187167E-01  0.80496473679E-01  0.51100000000E-03 0.  1.
</event>
<event>
 8    1  0.1208168E+005  0.1043930E+01  0.7957747E-01            NaN
         13   -1    0    0    0    0  0.00000000000E+00  0.00000000000E+00  0.74505805969E-08  0.10566000000E+00  0.10566000000E+00 0. -1.
     999900   -1    0    0    0    0 -0.00000000000E+00 -0.00000000000E+00 -0.74505805969E-08  0.93827000000E+00  0.93827000000E+00 0.  1.
     999902    2    1    2    0    0 -0.91909317536E-02  0.90031981394E-02 -0.20465639049E-01  0.10197561880E+01  0.10194696218E+01 0.  0.
     999903    2    3    3    0    0 -0.60825010724E-01 -0.11665373502E-01  0.11058974442E+00  0.12831422049E+00  0.19967091442E-01 0.  0.
         14    1    1    2    0    0  0.91909317536E-02 -0.90031981394E-02  0.20465639049E-01  0.24173811965E-01  0.00000000000E+00 0.  1.
     999901    1    3    3    0    0  0.51634078971E-01  0.20668571642E-01 -0.13105538347E+00  0.89144196755E+00  0.88000000000E+00 0.  1.
        -11    1    4    4    0    0 -0.44754398828E-01  0.73979825771E-03  0.75710385642E-01  0.87953550985E-01  0.51100000000E-03 0. -1.
         11    1    4    4    0    0 -0.16070611897E-01 -0.12405171760E-01  0.34879358777E-01  0.40360669505E-01  0.51100000000E-03 0.  1.
</event>
<event>
 8    1  0.1208168E+005  0.1043930E+01  0.7957747E-01            NaN
         13   -1    0    0    0    0  0.00000000000E+00  0.00000000000E+00  0.74505805969E-08  0.10566000000E+00  0.10566000000E+00 0. -1.
     999900   -1    0    0    0    0 -0.00000000000E+00 -0.00000000000E+00 -0.74505805969E-08  0.93827000000E+00  0.93827000000E+00 0.  1.
     999902    2    1    2    0    0  0.14310500875E-01  0.27239810685E-02  0.19094204391E-01  0.10199133568E+01  0.10196305489E+01 0.  0.
     999903    2    3    3    0    0 -0.11085329170E+00  0.45466929766E-01  0.45315099392E-01  0.12964347079E+00  0.19956886128E-01 0.  0.
         14    1    1    2    0    0 -0.14310500875E-01 -0.27239810685E-02 -0.19094204391E-01  0.24016643177E-01  0.00000000000E+00 0. -1.
     999901    1    3    3    0    0  0.12516379257E+00 -0.42742948698E-01 -0.26220895001E-01  0.89026988603E+00  0.88000000000E+00 0.  1.
        -11    1    4    4    0    0 -0.78308420461E-01  0.23939592364E-01  0.24827506381E-01  0.85568563104E-01  0.51100000000E-03 0.  1.
         11    1    4    4    0    0 -0.32544871238E-01  0.21527337402E-01  0.20487593011E-01  0.44074907690E-01  0.51100000000E-03 0. -1.
</event>
<event>
 8    1  0.1208168E+005  0.1043930E+01  0.7957747E-01            NaN
         13   -1    0    0    0    0  0.00000000000E+00  0.00000000000E+00  0.74505805969E-08  0.10566000000E+00  0.10566000000E+00 0. -1.
     999900   -1    0    0    0    0 -0.00000000000E+00 -0.00000000000E+00 -0.74505805969E-08  0.93827000000E+00  0.93827000000E+00 0.  1.
     999902    2    1    2    0    0 -0.69647984940E-02  0.19698431062E-01  0.11564642670E-01  0.10200495150E+01  0.10197699424E+01 0.  0.
     999903    2    3    3    0    0 -0.11927310459E+00  0.27851007800E-01  0.45856089697E-01  0.13221196033E+00  0.19377032232E-01 0.  0.
         14    1    1    2    0    0  0.69647984940E-02 -0.19698431062E-01 -0.11564642670E-01  0.23880485012E-01  0.00000000000E+00 0.  1.
     999901    1    3    3    0    0  0.11230830609E+00 -0.81525767381E-02 -0.34291447028E-01  0.88783755466E+00  0.88000000000E+00 0.  1.
        -11    1    4    4    0    0 -0.26995591108E-01  0.28265366229E-02  0.18187474639E-01  0.32677157210E-01  0.51100000000E-03 0. -1.
         11    1    4    4    0    0 -0.92277513479E-01  0.25024471177E-01  0.27668615058E-01  0.99534803118E-01  0.51100000000E-03 0.  1.
</event>
<event>
 8    1  0.1208168E+005  0.1043930E+01  0.7957747E-01            NaN
         13   -1    0    0    0    0  0.00000000000E+00  0.00000000000E+00  0.74505805969E-08  0.10566000000E+00  0.10566000000E+00 0.  1.
     999900   -1    0    0    0    0 -0.00000000000E+00 -0.00000000000E+00 -0.74505805969E-08  0.93827000000E+00  0.93827000000E+00 0.  1.
     999902    2    1    2    0    0  0.16048257940E-01 -0.56435915186E-02 -0.16953146540E-01  0.10199132166E+01  0.10196304053E+01 0.  0.
     999903    2    3    3    0    0 -0.35718483315E-01 -0.12288763732E+00 -0.17543713049E-01  0.13062906034E+00  0.19467616246E-01 0.  0.
         14    1    1    2    0    0 -0.16048257940E-01  0.56435915186E-02  0.16953146540E-01  0.24016783418E-01  0.00000000000E+00 0.  1.
     999901    1    3    3    0    0  0.51766741255E-01  0.11724404580E+00  0.59056650863E-03  0.88928415624E+00  0.88000000000E+00 0.  1.
        -11    1    4    4    0    0 -0.20699234848E-01 -0.42881152558E-01 -0.14052221134E-02  0.47639136623E-01  0.51100000000E-03 0.  1.
         11    1    4    4    0    0 -0.15019248467E-01 -0.80006484758E-01 -0.16138490936E-01  0.82989923716E-01  0.51100000000E-03 0. -1.
</event>
<event>
 8    1  0.1208168E+005  0.1043930E+01  0.7957747E-01            NaN
         13   -1    0    0    0    0  0.00000000000E+00  0.00000000000E+00  0.74505805969E-08  0.10566000000E+00  0.10566000000E+00 0. -1.
     999900   -1    0    0    0    0 -0.00000000000E+00 -0.00000000000E+00 -0.74505805969E-08  0.93827000000E+00  0.93827000000E+00 0.  1.
     999902    2    1    2    0    0  0.71378042870E-02  0.10873180668E-01 -0.19441324084E-01  0.10205389891E+01  0.10202708900E+01 0.  0.
     999903    2    3    3    0    0  0.49685077348E-01  0.61800065485E-01 -0.10577900983E+00  0.13382707760E+00  0.20799826299E-01 0.  0.
         14    1    1    2    0    0 -0.71378042870E-02 -0.10873180668E-01  0.19441324084E-01  0.23391010880E-01  0.00000000000E+00 0. -1.
     999901    1    3    3    0    0 -0.42547273061E-01 -0.50926884817E-01  0.86337685749E-01  0.88671191151E+00  0.88000000000E+00 0. -1.
        -11    1    4    4    0    0  0.17841240470E-01  0.82443698726E-02 -0.24568132509E-01  0.31466390833E-01  0.51100000000E-03 0.  1.
         11    1    4    4    0    0  0.31843836878E-01  0.53555695612E-01 -0.81210877324E-01  0.10236068677E+00  0.51100000000E-03 0. -1.
</event>
<event>
 8    1  0.1208168E+005  0.1043930E+01  0.7957747E-01            NaN
         13   -1    0    0    0    0  0.00000000000E+00  0.00000000000E+00  0.74505805969E-08  0.10566000000E+00  0.10566000000E+00 0. -1.
     999900   -1    0    0    0    0 -0.00000000000E+00 -0.00000000000E+00 -0.74505805969E-08  0.93827000000E+00  0.93827000000E+00 0. -1.
     999902    2    1    2    0    0  0.10400617531E-01  0.49681687783E-03  0.18209418590E-01  0.10229537611E+01  0.10227386738E+01 0.  0.
     999903    2    3    3    0    0  0.10047868947E+00  0.42441646663E-03  0.88849487431E-01  0.13553949281E+00  0.19508345060E-01 0.  0.
         14    1    1    2    0    0 -0.10400617531E-01 -0.49681687783E-03 -0.18209418590E-01  0.20976238877E-01  0.00000000000E+00 0.  1.
     999901    1    3    3    0    0 -0.90078071938E-01  0.72400411200E-04 -0.70640068840E-01  0.88741426832E+00  0.88000000000E+00 0. -1.
        -11    1    4    4    0    0  0.42879098390E-01  0.81890754498E-02  0.31074385897E-01  0.53586907126E-01  0.51100000000E-03 0.  1.
         11    1    4    4    0    0  0.57599591079E-01 -0.77646589832E-02  0.57775101534E-01  0.81952585681E-01  0.51100000000E-03 0. -1.
</event>
<event>
 8    1  0.1208168E+005  0.1043930E+01  0.7957747E-01            NaN
         13   -1    0    0    0    0  0.00000000000E+00  0.00000000000E+00  0.74505805969E-08  0.10566000000E+00  0.10566000000E+00 0. -1.
     999900   -1    0    0    0    0 -0.00000000000E+00 -0.00000000000E+00 -0.74505805969E-08  0.93827000000E+00  0.93827000000E+00 0.  1.
     999902    2    1    2    0    0  0.10448473452E-01  0.23964500998E-01 -0.97027450654E-02  0.10160443197E+01  0.10156615816E+01 0.  0.
     999903    2    3    3    0    0 -0.52129163608E-01 -0.91324980341E-01  0.61974038181E-01  0.12343847921E+00  0.18400407838E-01 0.  0.
         14    1    1    2    0    0 -0.10448473452E-01 -0.23964500998E-01  0.97027450654E-02  0.27885680329E-01  0.00000000000E+00 0. -1.
     999901    1    3    3    0    0  0.62577637060E-01  0.11528948134E+00 -0.71676783247E-01  0.89260584046E+00  0.88000000000E+00 0. -1.
        -11    1    4    4    0    0 -0.29945278725E-02 -0.14429384052E-01  0.38322026377E-02  0.15235524912E-01  0.51100000000E-03 0.  1.
         11    1    4    4    0    0 -0.49134635735E-01 -0.76895596289E-01  0.58141835544E-01  0.10820295430E+00  0.51100000000E-03 0. -1.
</event>
<event>
 8    1  0.1208168E+005  0.1043930E+01  0.7957747E-01            NaN
         13   -1    0    0    0    0  0.00000000000E+00  0.00000000000E+00  0.74505805969E-08  0.10566000000E+00  0.10566000000E+00 0. -1.
     999900   -1    0    0    0    0 -0.00000000000E+00 -0.00000000000E+00 -0.74505805969E-08  0.93827000000E+00  0.93827000000E+00 0.  1.
     999902    2    1    2    0    0  0.19873146412E-02 -0.18269815157E-01  0.15397269467E-01  0.10199547738E+01  0.10196729520E+01 0.  0.
     999903    2    3    3    0    0  0.41957240658E-01  0.89054881884E-01 -0.79086629545E-01  0.12751800137E+00  0.17747215801E-01 0.  0.
         14    1    1    2    0    0 -0.19873146412E-02  0.18269815157E-01 -0.15397269467E-01  0.23975226222E-01  0.00000000000E+00 0.  1.
     999901    1    3    3    0    0 -0.39969926017E-01 -0.10732469704E+00  0.94483899012E-01  0.89243677241E+00  0.88000000000E+00 0. -1.
        -11    1    4    4    0    0  0.15534298627E-01  0.47505550773E-01 -0.31760997394E-01  0.59220890440E-01  0.51100000000E-03 0.  1.
         11    1    4    4    0    0  0.26422942031E-01  0.41549331111E-01 -0.47325632151E-01  0.68297110926E-01  0.51100000000E-03 0. -1.
</event>
<event>
 8    1  0.1208168E+005  0.1043930E+01  0.7957747E-01            NaN
         13   -1    0    0    0    0  0.00000000000E+00  0.00000000000E+00  0.74505805969E-08  0.10566000000E+00  0.10566000000E+00 0.  1.
     999900   -1    0    0    0    0 -0.00000000000E+00 -0.00000000000E+00 -0.74505805969E-08  0.93827000000E+00  0.93827000000E+00 0.  1.
     999902    2    1    2    0    0  0.26792199451E-01  0.10083851737E-01  0.10671451735E-01  0.10133786351E+01  0.10129179987E+01 0.  0.
     999903    2    3    3    0    0  0.10143547532E+00  0.10802131541E-01 -0.72038628437E-01  0.12635378089E+00  0.19232063296E-01 0.  0.
         14    1    1    2    0    0 -0.26792199451E-01 -0.10083851737E-01 -0.10671451735E-01  0.30551364935E-01  0.00000000000E+00 0.  1.
     999901    1    3    3    0    0 -0.74643275872E-01 -0.71827980386E-03  0.82710080172E-01  0.88702485417E+00  0.88000000000E+00 0. -1.
        -11    1    4    4    0    0  0.57188352999E-01  0.34401041352E-02 -0.29114178397E-01  0.64266931931E-01  0.51100000000E-03 0.  1.
         11    1    4    4    0    0  0.44247122325E-01  0.73620274055E-02 -0.42924450040E-01  0.62086848960E-01  0.51100000000E-03 0. -1.
</event>
<event>
 8    1  0.1208168E+005  0.1043930E+01  0.7957747E-01            NaN
         13   -1    0    0    0    0  0.00000000000E+00  0.00000000000E+00  0.74505805969E-08  0.10566000000E+00  0.10566000000E+00 0. -1.
     999900   -1    0    0    0    0 -0.00000000000E+00 -0.00000000000E+00 -0.74505805969E-08  0.93827000000E+00  0.93827000000E+00 0.  1.
     999902    2    1    2    0    0 -0.37234398468E-03 -0.77806855527E-02 -0.24681316312E-01  0.10180486345E+01  0.10177195965E+01 0.  0.
     999903    2    3    3    0    0 -0.10697740907E+00  0.66480705380E-01  0.86098827127E-02  0.12788702103E+00  0.20423266816E-01 0.  0.
         14    1    1    2    0    0  0.37234398468E-03  0.77806855527E-02  0.24681316312E-01  0.25881365548E-01  0.00000000000E+00 0. -1.
     999901    1    3    3    0    0  0.10660506509E+00 -0.74261390932E-01 -0.33291199025E-01  0.89016161343E+00  0.88000000000E+00 0.  1.
        -11    1    4    4    0    0 -0.57142430709E-01  0.28434791763E-01  0.12600740602E-01  0.65060237893E-01  0.51100000000E-03 0. -1.
         11    1    4    4    0    0 -0.49834978361E-01  0.38045913616E-01 -0.39908578895E-02  0.62826783133E-01  0.51100000000E-03 0.  1.
</event>
<event>
 8    1  0.1208168E+005  0.1043930E+01  0.7957747E-01            NaN
         13   -1    0    0    0    0  0.00000000000E+00  0.00000000000E+00  0.74505805969E-08  0.10566000000E+00  0.10566000000E+00 0.  1.
     999900   -1    0    0    0    0 -0.00000000000E+00 -0.00000000000E+00 -0.74505805969E-08  0.93827000000E+00  0.93827000000E+00 0.  1.
     999902    2    1    2    0    0 -0.17027283914E-01 -0.17090959787E-02 -0.17238757137E-01  0.10196395872E+01  0.10193502164E+01 0.  0.
     999903    2    3    3    0    0 -0.11992015334E+00  0.14867074701E-01  0.46632402125E-01  0.13119080589E+00  0.20846427431E-01 0.  0.
         14    1    1    2    0    0  0.17027283914E-01  0.17090959787E-02  0.17238757137E-01  0.24290412804E-01  0.00000000000E+00 0.  1.
     999901    1    3    3    0    0  0.10289286942E+00 -0.16576170679E-01 -0.63871159262E-01  0.88844878130E+00  0.88000000000E+00 0.  1.
        -11    1    4    4    0    0 -0.84785236670E-01  0.10929343389E-01  0.22557532713E-01  0.88414310534E-01  0.51100000000E-03 0. -1.
         11    1    4    4    0    0 -0.35134916667E-01  0.39377313118E-02  0.24074869412E-01  0.42776495360E-01  0.51100000000E-03 0.  1.
</event>
<event>
 8    1  0.1208168E+005  0.1043930E+01  0.7957747E-01            NaN
         13   -1    0    0    0    0  0.00000000000E+00  0.00000000000E+00  0.74505805969E-08  0.10566000000E+00  0.10566000000E+00 0.  1.
     999900   -1    0    0    0    0 -0.00000000000E+00 -0.00000000000E+00 -0.74505805969E-08  0.93827000000E+00  0.93827000000E+00 0.  1.
     999902    2    1    2    0    0 -0.12282458079E-01 -0.12484448305E-01  0.15063057455E-01  0.10208298717E+01  0.10205684745E+01 0.  0.
     999903    2    3    3    0    0  0.72470281071E-01 -0.86163686414E-01  0.67075339509E-01  0.13216968111E+00  0.17134787393E-01 0.  0.
         14    1    1    2    0    0  0.12282458079E-01  0.12484448305E-01 -0.15063057455E-01  0.23100128264E-01  0.00000000000E+00 0. -1.
     999901    1    3    3    0    0 -0.84752739150E-01  0.73679238109E-01 -0.52012282054E-01  0.88866019063E+00  0.88000000000E+00 0.  1.
        -11    1    4    4    0    0  0.26087474785E-01 -0.20583390772E-01  0.15173761684E-01  0.36534045505E-01  0.51100000000E-03 0. -1.
         11    1    4    4    0    0  0.46382806286E-01 -0.65580295642E-01  0.51901577825E-01  0.95635635603E-01  0.51100000000E-03 0.  1.
</event>
<event>
 8    1  0.1208168E+005  0.1043930E+01  0.7957747E-01            NaN
         13   -1    0    0    0    0  0.00000000000E+00  0.00000000000E+00  0.74505805969E-08  0.10566000000E+00  0.10566000000E+00 0. -1.
     999900   -1    0    0    0    0 -0.00000000000E+00 -0.00000000000E+00 -0.74505805969E-08  0.93827000000E+00  0.93827000000E+00 0.  1.
     999902    2    1    2    0    0  0.17292360304E-01  0.72991064243E-02  0.14600721694E-01  0.10201500977E+01  0.10198729029E+01 0.  0.
     999903    2    3    3    0    0 -0.12518545761E+00  0.15103565600E-01  0.16408791221E-01  0.12865466457E+00  0.19576971048E-01 0.  0.
         14    1    1    2    0    0 -0.17292360304E-01 -0.72991064243E-02 -0.14600721694E-01  0.23779902301E-01  0.00000000000E+00 0. -1.
     999901    1    3    3    0    0  0.14247781791E+00 -0.78044591753E-02 -0.18080695260E-02  0.89149543313E+00  0.88000000000E+00 0. -1.
        -11    1    4    4    0    0 -0.52344583994E-01  0.10748799871E-01 -0.17084497975E-02  0.53466551168E-01  0.51100000000E-03 0. -1.
         11    1    4    4    0    0 -0.72840873613E-01  0.43547657284E-02  0.18117241018E-01  0.75188113398E-01  0.51100000000E-03 0.  1.
</event>
<event>
 8    1  0.1208168E+005  0.1043930E+01  0.7957747E-01            NaN
         13   -1    0    0    0    0  0.00000000000E+00  0.00000000000E+00  0.74505805969E-08  0.10566000000E+00  0.10566000000E+00 0. -1.
     999900   -1    0    0    0    0 -0.00000000000E+00 -0.00000000000E+00 -0.74505805969E-08  0.93827000000E+00  0.93827000000E+00 0. -1.
     999902    2    1    2    0    0  0.51380139423E-02  0.17580725883E-01  0.14675690781E-01  0.10204596568E+01  0.10201897148E+01 0.  0.
     999903    2    3    3    0    0 -0.34659474449E-01  0.97966825938E-01 -0.77558798727E-01  0.13110429126E+00  0.19343985466E-01 0.  0.
         14    1    1    2    0    0 -0.51380139423E-02 -0.17580725883E-01 -0.14675690781E-01  0.23470343197E-01  0.00000000000E+00 0.  1.
     999901    1    3    3    0    0  0.39797488392E-01 -0.80386100054E-01  0.92234489508E-01  0.88935536554E+00  0.88000000000E+00 0.  1.
        -11    1    4    4    0    0 -0.68482690500E-02  0.48685750769E-02 -0.45652619248E-02  0.95762492502E-02  0.51100000000E-03 0. -1.
         11    1    4    4    0    0 -0.27811205399E-01  0.93098250861E-01 -0.72993536802E-01  0.12152804201E+00  0.51100000000E-03 0.  1.
</event>
<event>
 8    1  0.1208168E+005  0.1043930E+01  0.7957747E-01            NaN
         13   -1    0    0    0    0  0.00000000000E+00  0.00000000000E+00  0.74505805969E-08  0.10566000000E+00  0.10566000000E+00 0. -1.
     999900   -1    0    0    0    0 -0.00000000000E+00 -0.00000000000E+00 -0.74505805969E-08  0.93827000000E+00  0.93827000000E+00 0. -1.
     999902    2    1    2    0    0 -0.88083696922E-02  0.19316086962E-01 -0.10577148170E-01  0.10202113437E+01  0.10199355917E+01 0.  0.
     999903    2    3    3    0    0  0.99230947430E-01  0.64362322154E-01  0.51582728500E-01  0.13028690445E+00  0.18016940653E-01 0.  0.
         14    1    1    2    0    0  0.88083696922E-02 -0.19316086962E-01  0.10577148170E-01  0.23718656277E-01  0.00000000000E+00 0. -1.
     999901    1    3    3    0    0 -0.10803931712E+00 -0.45046235191E-01 -0.62159876670E-01  0.88992443927E+00  0.88000000000E+00 0. -1.
        -11    1    4    4    0    0  0.53802679690E-01  0.45338276306E-01  0.31705537919E-01  0.77173764299E-01  0.51100000000E-03 0. -1.
         11    1    4    4    0    0  0.45428267740E-01  0.19024045848E-01  0.19877190581E-01  0.53113140151E-01  0.51100000000E-03 0.  1.
</event>
<event>
 8    1  0.1208168E+005  0.1043930E+01  0.7957747E-01            NaN
         13   -1    0    0    0    0  0.00000000000E+00  0.00000000000E+00  0.74505805969E-08  0.10566000000E+00  0.10566000000E+00 0. -1.
     999900   -1    0    0    0    0 -0.00000000000E+00 -0.00000000000E+00 -0.74505805969E-08  0.93827000000E+00  0.93827000000E+00 0. -1.
     999902    2    1    2    0    0 -0.68835604925E-02  0.16695670330E-01 -0.16033579826E-01  0.10197803728E+01  0.10194943866E+01 0.  0.
     999903    2    3    3    0    0 -0.21173417045E-01  0.12913686227E+00 -0.31924068248E-02  0.13241792295E+00  0.19991800103E-01 0.  0.
         14    1    1    2    0    0  0.68835604925E-02 -0.16695670330E-01  0.16033579826E-01  0.24149627220E-01  0.00000000000E+00 0. -1.
     999901    1    3    3    0    0  0.14289856552E-01 -0.11244119194E+00 -0.12841173001E-01  0.88736244983E+00  0.88000000000E+00 0. -1.
        -11    1    4    4    0    0 -0.28495842359E-02  0.70619937233E-02  0.42762828513E-02  0.87486914273E-02  0.51100000000E-03 0. -1.
         11    1    4    4    0    0 -0.18323832809E-01  0.12207486854E+00 -0.74686896762E-02  0.12366923152E+00  0.51100000000E-03 0.  1.
</event>
<event>
 8    1  0.1208168E+005  0.1043930E+01  0.7957747E-01            NaN
         13   -1    0    0    0    0  0.00000000000E+00  0.00000000000E+00  0.74505805969E-08  0.10566000000E+00  0.10566000000E+00 0. -1.
     999900   -1    0    0    0    0 -0.00000000000E+00 -0.00000000000E+00 -0.74505805969E-08  0.93827000000E+00  0.93827000000E+00 0.  1.
     999902    2    1    2    0    0 -0.12752185416E-01  0.12085392619E-01  0.15965390278E-01  0.10201903994E+01  0.10199141545E+01 0.  0.
     999903    2    3    3    0    0  0.15914603384E-02 -0.44981172248E-02  0.13071845690E+00  0.13246914856E+00  0.20928319150E-01 0.  0.
         14    1    1    2    0    0  0.12752185416E-01 -0.12085392619E-01 -0.15965390278E-01  0.23739600552E-01  0.00000000000E+00 0.  1.
     999901    1    3    3    0    0 -0.14343645754E-01  0.16583509844E-01 -0.11475306662E+00  0.88772125088E+00  0.88000000000E+00 0.  1.
        -11    1    4    4    0    0 -0.80608649281E-02  0.76227150218E-03  0.87362937290E-01  0.87738831393E-01  0.51100000000E-03 0.  1.
         11    1    4    4    0    0  0.96523252665E-02 -0.52603887270E-02  0.43355519609E-01  0.44730317171E-01  0.51100000000E-03 0. -1.
</event>
<event>
 7    1  0.1208168E+005  0.1043930E+01  0.7957747E-01            NaN
         13   -1    0    0    0    0  0.00000000000E+00  0.00000000000E+00  0.74505805969E-08  0.10566000000E+00  0.10566000000E+00 0. -1.
     999900   -1    0    0    0    0 -0.00000000000E+00 -0.00000000000E+00 -0.74505805969E-08  0.93827000000E+00  0.93827000000E+00 0. -1.
     999903    2    1    2    0    0  0.59449330826E-01 -0.44638953018E-01 -0.64743392859E-01  0.99970525425E-01  0.16599396757E-01 0.  0.
         14    1    1    2    0    0 -0.42079165627E-01  0.25215675508E-01  0.39882828167E-01  0.63222831744E-01  0.00000000000E+00 0. -1.
     999901    1    1    2    0    0 -0.17370165199E-01  0.19423277510E-01  0.24860564692E-01  0.88073664283E+00  0.88000000000E+00 0.  1.
        -11    1    3    3    0    0  0.36655524197E-01 -0.24039654019E-01 -0.27761560379E-01  0.51889283818E-01  0.51100000000E-03 0. -1.
         11    1    3    3    0    0  0.22793806629E-01 -0.20599298999E-01 -0.36981832479E-01  0.48081241607E-01  0.51100000000E-03 0.  1.
</event>
<event>
 8    1  0.1208168E+005  0.1043930E+01  0.7957747E-01            NaN
         13   -1    0    0    0    0  0.00000000000E+00  0.00000000000E+00  0.74505805969E-08  0.10566000000E+00  0.10566000000E+00 0.  1.
     999900   -1    0    0    0    0 -0.00000000000E+00 -0.00000000000E+00 -0.74505805969E-08  0.93827000000E+00  0.93827000000E+00 0. -1.
     999902    2    1    2    0    0 -0.29754563481E-03  0.20954633628E-01 -0.10076762347E-01  0.10206764768E+01  0.10204115561E+01 0.  0.
     999903    2    3    3    0    0  0.16266855121E-01  0.50108064532E-01  0.11794330819E+00  0.13078129171E+00  0.20437553880E-01 0.  0.
         14    1    1    2    0    0  0.29754563481E-03 -0.20954633628E-01  0.10076762347E-01  0.23253523245E-01  0.00000000000E+00 0.  1.
     999901    1    3    3    0    0 -0.16564400756E-01 -0.29153430904E-01 -0.12802007053E+00  0.88989518504E+00  0.88000000000E+00 0. -1.
        -11    1    4    4    0    0  0.45977242761E-02  0.52809230132E-02  0.47518164069E-02  0.84775053262E-02  0.51100000000E-03 0. -1.
         11    1    4    4    0    0  0.11669130845E-01  0.44827141519E-01  0.11319149178E+00  0.12230378638E+00  0.51100000000E-03 0.  1.
</event>
<event>
 8    1  0.1208168E+005  0.1043930E+01  0.7957747E-01            NaN
         13   -1    0    0    0    0  0.00000000000E+00  0.00000000000E+00  0.74505805969E-08  0.10566000000E+00  0.10566000000E+00 0.  1.
     999900   -1    0    0    0    0 -0.00000000000E+00 -0.00000000000E+00 -0.74505805969E-08  0.93827000000E+00  0.93827000000E+00 0. -1.
     999902    2    1    2    0    0 -0.12727464020E-01 -0.37752534381E-02  0.20173862344E-01  0.10197799358E+01  0.10194939391E+01 0.  0.
     999903    2    3    3    0    0 -0.11599332359E+00  0.25785335439E-01  0.55442763265E-01  0.13254740622E+00  0.19379893100E-01 0.  0.
         14    1    1    2    0    0  0.12727464020E-01  0.37752534381E-02 -0.20173862344E-01  0.24150064198E-01  0.00000000000E+00 0.  1.
     999901    1    3    3    0    0  0.10326585957E+00 -0.29560588877E-01 -0.35268900921E-01  0.88723252958E+00  0.88000000000E+00 0.  1.
        -11    1    4    4    0    0 -0.90435359202E-01  0.14280015598E-01  0.35752328563E-01  0.98290198688E-01  0.51100000000E-03 0. -1.
         11    1    4    4    0    0 -0.25557964391E-01  0.11505319841E-01  0.19690434701E-01  0.34257207536E-01  0.51100000000E-03 0.  1.
</event>
<event>
 8    1  0.1208168E+005  0.1043930E+01  0.7957747E-01            NaN
         13   -1    0    0    0    0  0.00000000000E+00  0.00000000000E+00  0.74505805969E-08  0.10566000000E+00  0.10566000000E+00 0. -1.
     999900   -1    0    0    0    0 -0.00000000000E+00 -0.00000000000E+00 -0.74505805969E-08  0.93827000000E+00  0.93827000000E+00 0. -1.
     999902    2    1    2    0    0 -0.10029197625E-01  0.30304177931E-02  0.21094572596E-01  0.10203768849E+01  0.10201050132E+01 0.  0.
     999903    2    3    3    0    0  0.48424016815E-01 -0.11143925008E+00  0.43902046411E-01  0.13074760033E+00  0.20098593228E-01 0.  0.
         14    1    1    2    0    0  0.10029197625E-01 -0.30304177931E-02 -0.21094572596E-01  0.23553115080E-01  0.00000000000E+00 0.  1.
     999901    1    3    3    0    0 -0.58453214440E-01  0.11446966787E+00 -0.22807473815E-01  0.88962928459E+00  0.88000000000E+00 0. -1.
        -11    1    4    4    0    0  0.18052770553E-01 -0.49600969482E-01  0.29111957292E-01  0.60282052690E-01  0.51100000000E-03 0. -1.
         11    1    4    4    0    0  0.30371246262E-01 -0.61838280598E-01  0.14790089119E-01  0.70465547638E-01  0.51100000000E-03 0.  1.
</event>
<event>
 8    1  0.1208168E+005  0.1043930E+01  0.7957747E-01            NaN
         13   -1    0    0    0    0  0.00000000000E+00  0.00000000000E+00  0.74505805969E-08  0.10566000000E+00  0.10566000000E+00 0. -1.
     999900   -1    0    0    0    0 -0.00000000000E+00 -0.00000000000E+00 -0.74505805969E-08  0.93827000000E+00  0.93827000000E+00 0. -1.
     999902    2    1    2    0    0 -0.13810243574E-01  0.17059093474E-01  0.91263599330E-02  0.10201597256E+01  0.10198827579E+01 0.  0.
     999903    2    3    3    0    0 -0.85186192582E-01 -0.91978409295E-01 -0.27267387029E-01  0.12981810136E+00  0.19811962578E-01 0.  0.
         14    1    1    2    0    0  0.13810243574E-01 -0.17059093474E-01 -0.91263599330E-02  0.23770274364E-01  0.00000000000E+00 0.  1.
     999901    1    3    3    0    0  0.71375949008E-01  0.10903750277E+00  0.36393746962E-01  0.89034162428E+00  0.88000000000E+00 0. -1.
        -11    1    4    4    0    0 -0.33986272400E-01 -0.28739345812E-01 -0.17650548087E-02  0.44546529032E-01  0.51100000000E-03 0. -1.
         11    1    4    4    0    0 -0.51199920182E-01 -0.63239063483E-01 -0.25502332220E-01  0.85271572324E-01  0.51100000000E-03 0.  1.
</event>
<event>
 8    1  0.1208168E+005  0.1043930E+01  0.7957747E-01            NaN
         13   -1    0    0    0    0  0.00000000000E+00  0.00000000000E+00  0.74505805969E-08  0.10566000000E+00  0.10566000000E+00 0.  1.
     999900   -1    0    0    0    0 -0.00000000000E+00 -0.00000000000E+00 -0.74505805969E-08  0.93827000000E+00  0.93827000000E+00 0. -1.
     999902    2    1    2    0    0 -0.11989941696E-01  0.87695918181E-02 -0.18838831211E-01  0.10199390433E+01  0.10196568472E+01 0.  0.
     999903    2    3    3    0    0  0.89755898393E-01  0.91609087921E-01 -0.10544297302E-01  0.13017312048E+00  0.19634480004E-01 0.  0.
         14    1    1    2    0    0  0.11989941696E-01 -0.87695918181E-02  0.18838831211E-01  0.23990956712E-01  0.00000000000E+00 0.  1.
     999901    1    3    3    0    0 -0.10174584009E+00 -0.82839496103E-01 -0.82945339091E-02  0.88976592280E+00  0.88000000000E+00 0. -1.
        -11    1    4    4    0    0  0.20568432822E-01  0.13174385876E-01 -0.74308121822E-02  0.25536306754E-01  0.51100000000E-03 0.  1.
         11    1    4    4    0    0  0.69187465571E-01  0.78434702044E-01 -0.31134851200E-02  0.10463681373E+00  0.51100000000E-03 0. -1.
</event>
<event>
 8    1  0.1208168E+005  0.1043930E+01  0.7957747E-01            NaN
         13   -1    0    0    0    0  0.00000000000E+00  0.00000000000E+00  0.74505805969E-08  0.10566000000E+00  0.10566000000E+00 0.  1.
     999900   -1    0    0    0    0 -0.00000000000E+00 -0.00000000000E+00 -0.74505805969E-08  0.93827000000E+00  0.93827000000E+00 0. -1.
     999902    2    1    2    0    0  0.23948012644E-01 -0.21017453875E-02  0.59945246110E-02  0.10191538226E+01  0.10188526170E+01 0.  0.
     999903    2    3    3    0    0 -0.30015565811E-01  0.41614444905E-01 -0.11561782102E+00  0.12807989987E+00  0.20106814685E-01 0.  0.
         14    1    1    2    0    0 -0.23948012644E-01  0.21017453875E-02 -0.59945246110E-02  0.24776177441E-01  0.00000000000E+00 0. -1.
     999901    1    3    3    0    0  0.53963578455E-01 -0.43716190292E-01  0.12161234563E+00  0.89107392269E+00  0.88000000000E+00 0.  1.
        -11    1    4    4    0    0 -0.12570479016E-01  0.32932352730E-01 -0.67207850371E-01  0.75892773513E-01  0.51100000000E-03 0.  1.
         11    1    4    4    0    0 -0.17445086795E-01  0.86820921751E-02 -0.48409970649E-01  0.52187126353E-01  0.51100000000E-03 0. -1.
</event>
<event>
 8    1  0.1208168E+005  0.1043930E+01  0.7957747E-01            NaN
         13   -1    0    0    0    0  0.00000000000E+00  0.00000000000E+00  0.74505805969E-08  0.10566000000E+00  0.10566000000E+00 0.  1.
     999900   -1    0    0    0    0 -0.00000000000E+00 -0.00000000000E+00 -0.74505805969E-08  0.93827000000E+00  0.93827000000E+00 0. -1.
     999902    2    1    2    0    0 -0.80842778156E-02 -0.18673572555E-01  0.13928058473E-01  0.10192713570E+01  0.10189730372E+01 0.  0.
     999903    2    3    3    0    0  0.68244812912E-01 -0.10384480509E+00  0.37613001468E-01  0.13155448468E+00  0.21230791954E-01 0.  0.
         14    1    1    2    0    0  0.80842778156E-02  0.18673572555E-01 -0.13928058473E-01  0.24658642959E-01  0.00000000000E+00 0. -1.
     999901    1    3    3    0    0 -0.76329090727E-01  0.85171232537E-01 -0.23684942996E-01  0.88771687236E+00  0.88000000000E+00 0. -1.
        -11    1    4    4    0    0  0.41007137189E-01 -0.62055814162E-01  0.11557387455E-01  0.75275120043E-01  0.51100000000E-03 0.  1.
         11    1    4    4    0    0  0.27237675722E-01 -0.41788990930E-01  0.26055614013E-01  0.56279364640E-01  0.51100000000E-03 0. -1.
</event>
<event>
 8    1  0.1208168E+005  0.1043930E+01  0.7957747E-01            NaN
         13   -1    0    0    0    0  0.00000000000E+00  0.00000000000E+00  0.74505805969E-08  0.10566000000E+00  0.10566000000E+00 0.  1.
     999900   -1    0    0    0    0 -0.00000000000E+00 -0.00000000000E+00 -0.74505805969E-08  0.93827000000E+00  0.93827000000E+00 0.  1.
     999902    2    1    2    0    0 -0.87752752236E-02  0.93398411611E-02  0.19965921951E-01  0.10202049894E+01  0.10199290879E+01 0.  0.
     999903    2    3    3    0    0  0.11565585580E+00  0.54160232987E-01  0.16177330937E-01  0.13031380094E+00  0.20257661770E-01 0.  0.
         14    1    1    2    0    0  0.87752752236E-02 -0.93398411611E-02 -0.19965921951E-01  0.23725010591E-01  0.00000000000E+00 0. -1.
     999901    1    3    3    0    0 -0.12443113103E+00 -0.44820391826E-01  0.37885910140E-02  0.88989118847E+00  0.88000000000E+00 0. -1.
        -11    1    4    4    0    0  0.51427520350E-01  0.23254489546E-01 -0.29270472483E-02  0.56518933642E-01  0.51100000000E-03 0. -1.
         11    1    4    4    0    0  0.64228335454E-01  0.30905743441E-01  0.19104378185E-01  0.73794867299E-01  0.51100000000E-03 0.  1.
</event>
<event>
 8    1  0.1208168E+005  0.1043930E+01  0.7957747E-01            NaN
         13   -1    0    0    0    0  0.00000000000E+00  0.00000000000E+00  0.74505805969E-08  0.10566000000E+00  0.10566000000E+00 0. -1.
     999900   -1    0    0    0    0 -0.00000000000E+00 -0.00000000000E+00 -0.74505805969E-08  0.93827000000E+00  0.93827000000E+00 0.  1.
     999902    2    1    2    0    0 -0.14682903763E-01 -0.94772960421E-02 -0.15928621327E-01  0.10202841170E+01  0.10200100743E+01 0.  0.
     999903    2    3    3    0    0  0.12270922397E+00 -0.32816623172E-01 -0.14288604142E-01  0.12931609820E+00  0.19596036405E-01 0.  0.
         14    1    1    2    0    0  0.14682903763E-01  0.94772960421E-02  0.15928621327E-01  0.23645882951E-01  0.00000000000E+00 0.  1.
     999901    1    3    3    0    0 -0.13739212773E+00  0.23339327130E-01 -0.16400171848E-02  0.89096801885E+00  0.88000000000E+00 0. -1.
        -11    1    4    4    0    0  0.31507368819E-01 -0.17362164139E-01 -0.25044481941E-02  0.36065113548E-01  0.51100000000E-03 0. -1.
         11    1    4    4    0    0  0.91201855148E-01 -0.15454459033E-01 -0.11784155948E-01  0.93250984653E-01  0.51100000000E-03 0.  1.
</event>
<event>
 8    1  0.1208168E+005  0.1043930E+01  0.7957747E-01            NaN
         13   -1    0    0    0    0  0.00000000000E+00  0.00000000000E+00  0.74505805969E-08  0.10566000000E+00  0.10566000000E+00 0.  1.
     999900   -1    0    0    0    0 -0.00000000000E+00 -0.00000000000E+00 -0.74505805969E-08  0.93827000000E+00  0.93827000000E+00 0.  1.
     999902    2    1    2    0    0 -0.80022240845E-02 -0.17647538726E-01  0.14955931277E-01  0.10194524369E+01  0.10191585353E+01 0.  0.
     999903    2    3    3    0    0  0.11618457614E+00  0.32144727255E-01 -0.37463923513E-01  0.12779696968E+00  0.19909311167E-01 0.  0.
         14    1    1    2    0    0  0.80022240845E-02  0.17647538726E-01 -0.14955931277E-01  0.24477563068E-01  0.00000000000E+00 0.  1.
     999901    1    3    3    0    0 -0.12418680023E+00 -0.49792265981E-01  0.52419854790E-01  0.89165546725E+00  0.88000000000E+00 0. -1.
        -11    1    4    4    0    0  0.10098461791E+00  0.22454154943E-01 -0.36625076838E-01  0.10974397251E+00  0.51100000000E-03 0. -1.
         11    1    4    4    0    0  0.15199958231E-01  0.96905723122E-02 -0.83884667467E-03  0.18052997167E-01  0.51100000000E-03 0.  1.
</event>
<event>
 8    1  0.1208168E+005  0.1043930E+01  0.7957747E-01            NaN
         13   -1    0    0    0    0  0.00000000000E+00  0.00000000000E+00  0.74505805969E-08  0.10566000000E+00  0.10566000000E+00 0. -1.
     999900   -1    0    0    0    0 -0.00000000000E+00 -0.00000000000E+00 -0.74505805969E-08  0.93827000000E+00  0.93827000000E+00 0. -1.
     999902    2    1    2    0    0 -0.37309337951E-02  0.11688230092E-01 -0.19828564752E-01  0.10206124836E+01  0.10203460860E+01 0.  0.
     999903    2    3    3    0    0  0.10413283508E+00 -0.19414079155E-01  0.70695002552E-01  0.12887459472E+00  0.19756618339E-01 0.  0.
         14    1    1    2    0    0  0.37309337951E-02 -0.11688230092E-01  0.19828564752E-01  0.23317516372E-01  0.00000000000E+00 0. -1.
     999901    1    3    3    0    0 -0.10786376887E+00  0.31102309247E-01 -0.90523567303E-01  0.89173788891E+00  0.88000000000E+00 0. -1.
        -11    1    4    4    0    0  0.15764747999E-01 -0.84357092937E-02  0.62309135264E-02  0.18941327174E-01  0.51100000000E-03 0.  1.
         11    1    4    4    0    0  0.88368087077E-01 -0.10978369861E-01  0.64464089025E-01  0.10993326755E+00  0.51100000000E-03 0. -1.
</event>
<event>
 8    1  0.1208168E+005  0.1043930E+01  0.7957747E-01            NaN
         13   -1    0    0    0    0  0.00000000000E+00  0.00000000000E+00  0.74505805969E-08  0.10566000000E+00  0.10566000000E+00 0. -1.
     999900   -1    0    0    0    0 -0.00000000000E+00 -0.00000000000E+00 -0.74505805969E-08  0.93827000000E+00  0.93827000000E+00 0. -1.
     999902    2    1    2    0    0 -0.20043738969E-01  0.11270626813E-01 -0.64007627205E-02  0.10200605998E+01  0.10197812898E+01 0.  0.
     999903    2    3    3    0    0  0.94956838866E-01 -0.13682397254E-01  0.82041346782E-01  0.12783316636E+00  0.20162504775E-01 0.  0.
         14    1    1    2    0    0  0.20043738969E-01 -0.11270626813E-01  0.64007627205E-02  0.23869400160E-01  0.00000000000E+00 0. -1.
     999901    1    3    3    0    0 -0.11500057784E+00  0.24953024067E-01 -0.88442109503E-01  0.89222743348E+00  0.88000000000E+00 0. -1.
        -11    1    4    4    0    0  0.64721647096E-01 -0.91855033709E-02  0.67542040665E-01  0.93997092791E-01  0.51100000000E-03 0. -1.
         11    1    4    4    0    0  0.30235191770E-01 -0.44968938831E-02  0.14499306117E-01  0.33836073573E-01  0.51100000000E-03 0.  1.
</event>
<event>
 8    1  0.1208168E+005  0.1043930E+01  0.7957747E-01            NaN
         13   -1    0    0    0    0  0.00000000000E+00  0.00000000000E+00  0.74505805969E-08  0.10566000000E+00  0.10566000000E+00 0. -1.
     999900   -1    0    0    0    0 -0.00000000000E+00 -0.00000000000E+00 -0.74505805969E-08  0.93827000000E+00  0.93827000000E+00 0.  1.
     999902    2    1    2    0    0 -0.33459918194E-02  0.12495295047E-01  0.20760416871E-01  0.10194693588E+01  0.10191758683E+01 0.  0.
     999903    2    3    3    0    0  0.32232614091E-01  0.11427324318E+00  0.56560469357E-01  0.13216657412E+00  0.13099660406E-01 0.  0.
         14    1    1    2    0    0  0.33459918194E-02 -0.12495295047E-01 -0.20760416871E-01  0.24460641206E-01  0.00000000000E+00 0.  1.
     999901    1    3    3    0    0 -0.35578605910E-01 -0.10177794814E+00 -0.35800052486E-01  0.88730278467E+00  0.88000000000E+00 0.  1.
        -11    1    4    4    0    0  0.14687250427E-01  0.62845883704E-01  0.37113290321E-01  0.74451177715E-01  0.51100000000E-03 0. -1.
         11    1    4    4    0    0  0.17545363663E-01  0.51427359480E-01  0.19447179035E-01  0.57715396409E-01  0.51100000000E-03 0.  1.
</event>
<event>
 8    1  0.1208168E+005  0.1043930E+01  0.7957747E-01            NaN
         13   -1    0    0    0    0  0.00000000000E+00  0.00000000000E+00  0.74505805969E-08  0.10566000000E+00  0.10566000000E+00 0.  1.
     999900   -1    0    0    0    0 -0.00000000000E+00 -0.00000000000E+00 -0.74505805969E-08  0.93827000000E+00  0.93827000000E+00 0.  1.
     999902    2    1    2    0    0 -0.13741116483E-01  0.16699365682E-01  0.38294308625E-02  0.10219674947E+01  0.10217314758E+01 0.  0.
     999903    2    3    3    0    0  0.23794164073E-01  0.49504584005E-01 -0.11840109243E+00  0.13212178876E+00  0.20505664915E-01 0.  0.
         14    1    1    2    0    0  0.13741116483E-01 -0.16699365682E-01 -0.38294308625E-02  0.21962505256E-01  0.00000000000E+00 0. -1.
     999901    1    3    3    0    0 -0.37535280557E-01 -0.32805218323E-01  0.12223052330E+00  0.88984570599E+00  0.88000000000E+00 0. -1.
        -11    1    4    4    0    0  0.14537672812E-01  0.25112380229E-01 -0.39483047839E-01  0.49001507724E-01  0.51100000000E-03 0. -1.
         11    1    4    4    0    0  0.92564912615E-02  0.24392203776E-01 -0.78918044595E-01  0.83120281034E-01  0.51100000000E-03 0.  1.
</event>
<event>
 8    1  0.1208168E+005  0.1043930E+01  0.7957747E-01            NaN
         13   -1    0    0    0    0  0.00000000000E+00  0.00000000000E+00  0.74505805969E-08  0.10566000000E+00  0.10566000000E+00 0.  1.
     999900   -1    0    0    0    0 -0.00000000000E+00 -0.00000000000E+00 -0.74505805969E-08  0.93827000000E+00  0.93827000000E+00 0. -1.
     999902    2    1    2    0    0 -0.21116299612E-01  0.99880837319E-02 -0.13219149125E-02  0.10205332612E+01  0.10202650292E+01 0.  0.
     999903    2    3    3    0    0  0.10540262440E-01  0.90311633912E-01  0.92270457075E-01  0.13136874174E+00  0.21831644573E-01 0.  0.
         14    1    1    2    0    0  0.21116299612E-01 -0.99880837319E-02  0.13219149125E-02  0.23396738768E-01  0.00000000000E+00 0.  1.
     999901    1    3    3    0    0 -0.31656562051E-01 -0.80323550180E-01 -0.93592371987E-01  0.88916451949E+00  0.88000000000E+00 0. -1.
        -11    1    4    4    0    0  0.20507257895E-03  0.75150007161E-01  0.74342135242E-01  0.10570988518E+00  0.51100000000E-03 0.  1.
         11    1    4    4    0    0  0.10335189861E-01  0.15161626751E-01  0.17928321833E-01  0.25658856560E-01  0.51100000000E-03 0. -1.
</event>
<event>
 8    1  0.1208168E+005  0.1043930E+01  0.7957747E-01            NaN
         13   -1    0    0    0    0  0.00000000000E+00  0.00000000000E+00  0.74505805969E-08  0.10566000000E+00  0.10566000000E+00 0.  1.
     999900   -1    0    0    0    0 -0.00000000000E+00 -0.00000000000E+00 -0.74505805969E-08  0.93827000000E+00  0.93827000000E+00 0. -1.
     999902    2    1    2    0    0 -0.14123231433E-01  0.17022256383E-01  0.71221057977E-02  0.10206932345E+01  0.10204287000E+01 0.  0.
     999903    2    3    3    0    0 -0.42502891596E-01  0.92672812939E-01 -0.82172386011E-01  0.13249172694E+00  0.20174504529E-01 0.  0.
         14    1    1    2    0    0  0.14123231433E-01 -0.17022256383E-01 -0.71221057977E-02  0.23236765469E-01  0.00000000000E+00 0.  1.
     999901    1    3    3    0    0  0.28379660163E-01 -0.75650556556E-01  0.89294491809E-01  0.88820150759E+00  0.88000000000E+00 0. -1.
        -11    1    4    4    0    0 -0.19652346220E-01  0.40582310827E-01 -0.49215070940E-01  0.66749704064E-01  0.51100000000E-03 0.  1.
         11    1    4    4    0    0 -0.22850545375E-01  0.52090502112E-01 -0.32957315071E-01  0.65742022877E-01  0.51100000000E-03 0. -1.
</event>
<event>
 8    1  0.1208168E+005  0.1043930E+01  0.7957747E-01            NaN
         13   -1    0    0    0    0  0.00000000000E+00  0.00000000000E+00  0.74505805969E-08  0.10566000000E+00  0.10566000000E+00 0.  1.
     999900   -1    0    0    0    0 -0.00000000000E+00 -0.00000000000E+00 -0.74505805969E-08  0.93827000000E+00  0.93827000000E+00 0. -1.
     999902    2    1    2    0    0 -0.14424394183E-01 -0.85536118234E-02 -0.18810388192E-01  0.10187296403E+01  0.10184179014E+01 0.  0.
     999903    2    3    3    0    0 -0.12271917186E+00 -0.30271216233E-01  0.26138029504E-01  0.13068697613E+00  0.20482857960E-01 0.  0.
         14    1    1    2    0    0  0.14424394183E-01  0.85536118234E-02  0.18810388192E-01  0.25200359655E-01  0.00000000000E+00 0.  1.
     999901    1    3    3    0    0  0.10829477767E+00  0.21717604410E-01 -0.44948417696E-01  0.88804266422E+00  0.88000000000E+00 0. -1.
        -11    1    4    4    0    0 -0.24807394863E-01 -0.38620237689E-02 -0.26950643421E-02  0.25255624330E-01  0.51100000000E-03 0.  1.
         11    1    4    4    0    0 -0.97911776994E-01 -0.26409192464E-01  0.28833093846E-01  0.10543135180E+00  0.51100000000E-03 0. -1.
</event>
<event>
 8    1  0.1208168E+005  0.1043930E+01  0.7957747E-01            NaN
         13   -1    0    0    0    0  0.00000000000E+00  0.00000000000E+00  0.74505805969E-08  0.10566000000E+00  0.10566000000E+00 0. -1.
     999900   -1    0    0    0    0 -0.00000000000E+00 -0.00000000000E+00 -0.74505805969E-08  0.93827000000E+00  0.93827000000E+00 0. -1.
     999902    2    1    2    0    0  0.23417814544E-01  0.71891207256E-02  0.21320937557E-02  0.10193409106E+01  0.10190442918E+01 0.  0.
     999903    2    3    3    0    0  0.11252003586E+00 -0.61060685869E-01 -0.24624984392E-01  0.13180883613E+00  0.19442571751E-01 0.  0.
         14    1    1    2    0    0 -0.23417814544E-01 -0.71891207256E-02 -0.21320937557E-02  0.24589089422E-01  0.00000000000E+00 0.  1.
     999901    1    3    3    0    0 -0.89102221317E-01  0.68249806595E-01  0.26757078148E-01  0.88753207445E+00  0.88000000000E+00 0. -1.
        -11    1    4    4    0    0  0.31033795732E-01 -0.15767598861E-01 -0.15583084702E-01  0.38141936255E-01  0.51100000000E-03 0. -1.
         11    1    4    4    0    0  0.81486240129E-01 -0.45293087008E-01 -0.90418996899E-02  0.93666899874E-01  0.51100000000E-03 0.  1.
</event>
<event>
 8    1  0.1208168E+005  0.1043930E+01  0.7957747E-01            NaN
         13   -1    0    0    0    0  0.00000000000E+00  0.00000000000E+00  0.74505805969E-08  0.10566000000E+00  0.10566000000E+00 0.  1.
     999900   -1    0    0    0    0 -0.00000000000E+00 -0.00000000000E+00 -0.74505805969E-08  0.93827000000E+00  0.93827000000E+00 0.  1.
     999902    2    1    2    0    0 -0.24356213995E-01  0.21344786280E-01  0.16055932411E-01  0.10077828282E+01  0.10071343559E+01 0.  0.
     999903    2    3    3    0    0  0.20776151565E-02  0.12008844085E+00 -0.37342048919E-02  0.12164474295E+00  0.18919542580E-01 0.  0.
         14    1    1    2    0    0  0.24356213995E-01 -0.21344786280E-01 -0.16055932411E-01  0.36147171772E-01  0.00000000000E+00 0. -1.
     999901    1    3    3    0    0 -0.26433829152E-01 -0.98743654569E-01  0.19790137303E-01  0.88613808528E+00  0.88000000000E+00 0. -1.
        -11    1    4    4    0    0  0.28567468943E-02  0.75266364292E-01  0.66843454371E-02  0.75618305929E-01  0.51100000000E-03 0.  1.
         11    1    4    4    0    0 -0.77913173778E-03  0.44822076557E-01 -0.10418550329E-01  0.46026437024E-01  0.51100000000E-03 0. -1.
</event>
<event>
 8    1  0.1208168E+005  0.1043930E+01  0.7957747E-01            NaN
         13   -1    0    0    0    0  0.00000000000E+00  0.00000000000E+00  0.74505805969E-08  0.10566000000E+00  0.10566000000E+00 0. -1.
     999900   -1    0    0    0    0 -0.00000000000E+00 -0.00000000000E+00 -0.74505805969E-08  0.93827000000E+00  0.93827000000E+00 0. -1.
     999902    2    1    2    0    0 -0.73643554715E-02 -0.17638153981E-01 -0.14120056059E-01  0.10201662842E+01  0.10198894710E+01 0.  0.
     999903    2    3    3    0    0 -0.89852068740E-01 -0.21324618974E-01 -0.93334682512E-01  0.13275839040E+00  0.19628897855E-01 0.  0.
         14    1    1    2    0    0  0.73643554715E-02  0.17638153981E-01  0.14120056059E-01  0.23763715839E-01  0.00000000000E+00 0. -1.
     999901    1    3    3    0    0  0.82487713268E-01  0.36864649934E-02  0.79214626452E-01  0.88740789376E+00  0.88000000000E+00 0.  1.
        -11    1    4    4    0    0 -0.89332009472E-01 -0.23215423839E-01 -0.92068526250E-01  0.13036885543E+00  0.51100000000E-03 0.  1.
         11    1    4    4    0    0 -0.52005926807E-03  0.18908048646E-02 -0.12661562612E-02  0.23895349665E-02  0.51100000000E-03 0. -1.
</event>
<event>
 8    1  0.1208168E+005  0.1043930E+01  0.7957747E-01            NaN
         13   -1    0    0    0    0  0.00000000000E+00  0.00000000000E+00  0.74505805969E-08  0.10566000000E+00  0.10566000000E+00 0.  1.
     999900   -1    0    0    0    0 -0.00000000000E+00 -0.00000000000E+00 -0.74505805969E-08  0.93827000000E+00  0.93827000000E+00 0.  1.
     999902    2    1    2    0    0 -0.22411113361E-01  0.66389079187E-02  0.45029056590E-02  0.10201264444E+01  0.10198486914E+01 0.  0.
     999903    2    3    3    0    0 -0.61896405197E-01  0.10607398026E+00 -0.45846324330E-01  0.13221796552E+00  0.17229355390E-01 0.  0.
         14    1    1    2    0    0  0.22411113361E-01 -0.66389079187E-02 -0.45029056590E-02  0.23803555613E-01  0.00000000000E+00 0.  1.
     999901    1    3    3    0    0  0.39485291836E-01 -0.99435072341E-01  0.50349229989E-01  0.88790847887E+00  0.88000000000E+00 0. -1.
        -11    1    4    4    0    0 -0.47870664540E-01  0.90316236175E-01 -0.32553223703E-01  0.10727812701E+00  0.51100000000E-03 0. -1.
         11    1    4    4    0    0 -0.14025740657E-01  0.15757744085E-01 -0.13293100627E-01  0.24939838510E-01  0.51100000000E-03 0.  1.
</event>
<event>
 8    1  0.1208168E+005  0.1043930E+01  0.7957747E-01            NaN
         13   -1    0    0    0    0  0.00000000000E+00  0.00000000000E+00  0.74505805969E-08  0.10566000000E+00  0.10566000000E+00 0. -1.
     999900   -1    0    0    0    0 -0.00000000000E+00 -0.00000000000E+00 -0.74505805969E-08  0.93827000000E+00  0.93827000000E+00 0. -1.
     999902    2    1    2    0    0 -0.65553301662E-02 -0.18218630608E-01 -0.11713699479E-01  0.10213003378E+01  0.10210495965E+01 0.  0.
     999903    2    3    3    0    0 -0.10449589079E+00 -0.75711937077E-01 -0.28818959208E-01  0.13383742388E+00  0.20742107289E-01 0.  0.
         14    1    1    2    0    0  0.65553301662E-02  0.18218630608E-01  0.11713699479E-01  0.22629662179E-01  0.00000000000E+00 0. -1.
     999901    1    3    3    0    0  0.97940560621E-01  0.57493306469E-01  0.17105259728E-01  0.88746291394E+00  0.88000000000E+00 0.  1.
        -11    1    4    4    0    0 -0.30906355424E-01 -0.24609073236E-01 -0.18575726560E-01  0.43659226165E-01  0.51100000000E-03 0.  1.
         11    1    4    4    0    0 -0.73589535363E-01 -0.51102863842E-01 -0.10243232647E-01  0.90178197719E-01  0.51100000000E-03 0. -1.
</event>
<event>
 8    1  0.1208168E+005  0.1043930E+01  0.7957747E-01            NaN
         13   -1    0    0    0    0  0.00000000000E+00  0.00000000000E+00  0.74505805969E-08  0.10566000000E+00  0.10566000000E+00 0.  1.
     999900   -1    0    0    0    0 -0.00000000000E+00 -0.00000000000E+00 -0.74505805969E-08  0.93827000000E+00  0.93827000000E+00 0. -1.
     999902    2    1    2    0    0  0.15557280171E-01  0.79809259709E-02 -0.16232065840E-01  0.10200720012E+01  0.10197929611E+01 0.  0.
     999903    2    3    3    0    0  0.11640243165E+00 -0.28126678347E-01 -0.53476639921E-01  0.13279489568E+00  0.20834998764E-01 0.  0.
         14    1    1    2    0    0 -0.15557280171E-01 -0.79809259709E-02  0.16232065840E-01  0.23857998808E-01  0.00000000000E+00 0.  1.
     999901    1    3    3    0    0 -0.10084515148E+00  0.36107604318E-01  0.37244574081E-01  0.88727710551E+00  0.88000000000E+00 0. -1.
        -11    1    4    4    0    0  0.99075347303E-01 -0.31346135130E-01 -0.45379185043E-01  0.11339328105E+00  0.51100000000E-03 0. -1.
         11    1    4    4    0    0  0.17327084345E-01  0.32194567830E-02 -0.80974548777E-02  0.19401614633E-01  0.51100000000E-03 0.  1.
</event>
<event>
 8    1  0.1208168E+005  0.1043930E+01  0.7957747E-01            NaN
         13   -1    0    0    0    0  0.00000000000E+00  0.00000000000E+00  0.74505805969E-08  0.10566000000E+00  0.10566000000E+00 0. -1.
     999900   -1    0    0    0    0 -0.00000000000E+00 -0.00000000000E+00 -0.74505805969E-08  0.93827000000E+00  0.93827000000E+00 0.  1.
     999902    2    1    2    0    0  0.16053949938E-02  0.13719323446E-01  0.19172742783E-01  0.10202996975E+01  0.10200260201E+01 0.  0.
     999903    2    3    3    0    0  0.66780120458E-01 -0.74233889091E-01  0.83251889672E-01  0.13120484910E+00  0.17708204790E-01 0.  0.
         14    1    1    2    0    0 -0.16053949938E-02 -0.13719323446E-01 -0.19172742783E-01  0.23630302467E-01  0.00000000000E+00 0.  1.
     999901    1    3    3    0    0 -0.65174725464E-01  0.87953212536E-01 -0.64079146889E-01  0.88909484843E+00  0.88000000000E+00 0.  1.
        -11    1    4    4    0    0  0.20577812987E-01 -0.33729026469E-01  0.26638306332E-01  0.47654528631E-01  0.51100000000E-03 0. -1.
         11    1    4    4    0    0  0.46202307471E-01 -0.40504862622E-01  0.56613583340E-01  0.83550320474E-01  0.51100000000E-03 0.  1.
</event>
<event>
 8    1  0.1208168E+005  0.1043930E+01  0.7957747E-01            NaN
         13   -1    0    0    0    0  0.00000000000E+00  0.00000000000E+00  0.74505805969E-08  0.10566000000E+00  0.10566000000E+00 0.  1.
     999900   -1    0    0    0    0 -0.00000000000E+00 -0.00000000000E+00 -0.74505805969E-08  0.93827000000E+00  0.93827000000E+00 0. -1.
     999902    2    1    2    0    0 -0.88553911441E-02 -0.12216017175E-01 -0.18344000424E-01  0.10201781289E+01  0.10199015949E+01 0.  0.
     999903    2    3    3    0    0 -0.63850838013E-01  0.87927804433E-01 -0.71001143596E-01  0.13123152822E+00  0.19295680849E-01 0.  0.
         14    1    1    2    0    0  0.88553911441E-02  0.12216017175E-01  0.18344000424E-01  0.23751871073E-01  0.00000000000E+00 0.  1.
     999901    1    3    3    0    0  0.54995446869E-01 -0.10014382161E+00  0.52657143172E-01  0.88894660071E+00  0.88000000000E+00 0.  1.
        -11    1    4    4    0    0 -0.59370757859E-01  0.70572834798E-01 -0.56374846840E-01  0.10809161104E+00  0.51100000000E-03 0. -1.
         11    1    4    4    0    0 -0.44800801539E-02  0.17354969636E-01 -0.14626296756E-01  0.23139917178E-01  0.51100000000E-03 0.  1.
</event>
<event>
 8    1  0.1208168E+005  0.1043930E+01  0.7957747E-01            NaN
         13   -1    0    0    0    0  0.00000000000E+00  0.00000000000E+00  0.74505805969E-08  0.10566000000E+00  0.10566000000E+00 0.  1.
     999900   -1    0    0    0    0 -0.00000000000E+00 -0.00000000000E+00 -0.74505805969E-08  0.93827000000E+00  0.93827000000E+00 0. -1.
     999902    2    1    2    0    0 -0.92950481340E-02 -0.18133057608E-01  0.11343798138E-01  0.10206086052E+01  0.10203421179E+01 0.  0.
     999903    2    3    3    0    0  0.15357327090E-01 -0.27787832744E-01 -0.12433539864E+00  0.12981693557E+00  0.19624837876E-01 0.  0.
         14    1    1    2    0    0  0.92950481340E-02  0.18133057608E-01 -0.11343798138E-01  0.23321394775E-01  0.00000000000E+00 0. -1.
     999901    1    3    3    0    0 -0.24652375224E-01  0.96547751359E-02  0.13567919678E+00  0.89079166965E+00  0.88000000000E+00 0.  1.
        -11    1    4    4    0    0 -0.24379116175E-02 -0.38868881073E-02 -0.42015469553E-01  0.42268334660E-01  0.51100000000E-03 0.  1.
         11    1    4    4    0    0  0.17795238707E-01 -0.23900944637E-01 -0.82319929089E-01  0.87548600910E-01  0.51100000000E-03 0. -1.
</event>
<event>
 8    1  0.1208168E+005  0.1043930E+01  0.7957747E-01            NaN
         13   -1    0    0    0    0  0.00000000000E+00  0.00000000000E+00  0.74505805969E-08  0.10566000000E+00  0.10566000000E+00 0. -1.
     999900   -1    0    0    0    0 -0.00000000000E+00 -0.00000000000E+00 -0.74505805969E-08  0.93827000000E+00  0.93827000000E+00 0. -1.
     999902    2    1    2    0    0 -0.11182059101E-01 -0.74215259541E-02  0.20014183684E-01  0.10198325926E+01  0.10195478566E+01 0.  0.
     999903    2    3    3    0    0  0.50469770953E-01 -0.98490338635E-01  0.68028360268E-01  0.13168855142E+00  0.21597967259E-01 0.  0.
         14    1    1    2    0    0  0.11182059101E-01  0.74215259541E-02 -0.20014183684E-01  0.24097407366E-01  0.00000000000E+00 0.  1.
     999901    1    3    3    0    0 -0.61651830054E-01  0.91068812681E-01 -0.48014176583E-01  0.88814404121E+00  0.88000000000E+00 0. -1.
        -11    1    4    4    0    0  0.18641741677E-01 -0.59169742241E-01  0.40572233541E-01  0.74127863756E-01  0.51100000000E-03 0. -1.
         11    1    4    4    0    0  0.31828029276E-01 -0.39320596394E-01  0.27456126727E-01  0.57560687663E-01  0.51100000000E-03 0.  1.
</event>
<event>
 8    1  0.1208168E+005  0.1043930E+01  0.7957747E-01            NaN
         13   -1    0    0    0    0  0.00000000000E+00  0.00000000000E+00  0.74505805969E-08  0.10566000000E+00  0.10566000000E+00 0.  1.
     999900   -1    0    0    0    0 -0.00000000000E+00 -0.00000000000E+00 -0.74505805969E-08  0.93827000000E+00  0.93827000000E+00 0.  1.
     999902    2    1    2    0    0 -0.18125512081E-01  0.43947665863E-02  0.16047919662E-01  0.10193254499E+01  0.10190284534E+01 0.  0.
     999903    2    3    3    0    0  0.65437240997E-01  0.10908816444E+00  0.85447602884E-02  0.12915707330E+00  0.20646465171E-01 0.  0.
         14    1    1    2    0    0  0.18125512081E-01 -0.43947665863E-02 -0.16047919662E-01  0.24604550128E-01  0.00000000000E+00 0. -1.
     999901    1    3    3    0    0 -0.83562753078E-01 -0.10469339785E+00  0.75031593733E-02  0.89016837658E+00  0.88000000000E+00 0. -1.
        -11    1    4    4    0    0  0.41786654601E-01  0.83942321883E-01  0.79057981084E-03  0.93772725477E-01  0.51100000000E-03 0.  1.
         11    1    4    4    0    0  0.23650586396E-01  0.25145842555E-01  0.77541804776E-02  0.35384347819E-01  0.51100000000E-03 0. -1.
</event>
<event>
 8    1  0.1208168E+005  0.1043930E+01  0.7957747E-01            NaN
         13   -1    0    0    0    0  0.00000000000E+00  0.00000000000E+00  0.74505805969E-08  0.10566000000E+00  0.10566000000E+00 0.  1.
     999900   -1    0    0    0    0 -0.00000000000E+00 -0.00000000000E+00 -0.74505805969E-08  0.93827000000E+00  0.93827000000E+00 0.  1.
     999902    2    1    2    0    0  0.59872069250E-02  0.47475367998E-02  0.21800896931E-01  0.10208288126E+01  0.10205673911E+01 0.  0.
     999903    2    3    3    0    0  0.85532957265E-01  0.69663014077E-01 -0.66687871205E-01  0.13045147255E+00  0.20037270655E-01 0.  0.
         14    1    1    2    0    0 -0.59872069250E-02 -0.47475367998E-02 -0.21800896931E-01  0.23101187403E-01  0.00000000000E+00 0. -1.
     999901    1    3    3    0    0 -0.79545750340E-01 -0.64915477278E-01  0.88488768135E-01  0.89037734005E+00  0.88000000000E+00 0. -1.
        -11    1    4    4    0    0  0.45326741106E-01  0.27641559779E-01 -0.23771990350E-01  0.58171624805E-01  0.51100000000E-03 0. -1.
         11    1    4    4    0    0  0.40206216159E-01  0.42021454298E-01 -0.42915880855E-01  0.72279847743E-01  0.51100000000E-03 0.  1.
</event>
<event>
 8    1  0.1208168E+005  0.1043930E+01  0.7957747E-01            NaN
         13   -1    0    0    0    0  0.00000000000E+00  0.00000000000E+00  0.74505805969E-08  0.10566000000E+00  0.10566000000E+00 0.  1.
     999900   -1    0    0    0    0 -0.00000000000E+00 -0.00000000000E+00 -0.74505805969E-08  0.93827000000E+00  0.93827000000E+00 0.  1.
     999902    2    1    2    0    0  0.99904052908E-02 -0.11270246767E-01  0.13698573605E-01  0.10235712776E+01  0.10233687911E+01 0.  0.
     999903    2    3    3    0    0 -0.52442203135E-01 -0.11214904828E+00  0.49814006017E-01  0.13487634249E+00  0.19560134651E-01 0.  0.
         14    1    1    2    0    0 -0.99904052908E-02  0.11270246767E-01 -0.13698573605E-01  0.20358722427E-01  0.00000000000E+00 0. -1.
     999901    1    3    3    0    0  0.62432608426E-01  0.10087880151E+00 -0.36115432412E-01  0.88869493509E+00  0.88000000000E+00 0. -1.
        -11    1    4    4    0    0 -0.12632265029E-01 -0.12077244301E-01  0.46713737138E-02  0.18097425315E-01  0.51100000000E-03 0.  1.
         11    1    4    4    0    0 -0.39809938106E-01 -0.10007180398E+00  0.45142632303E-01  0.11677891717E+00  0.51100000000E-03 0. -1.
</event>
<event>
 8    1  0.1208168E+005  0.1043930E+01  0.7957747E-01            NaN
         13   -1    0    0    0    0  0.00000000000E+00  0.00000000000E+00  0.74505805969E-08  0.10566000000E+00  0.10566000000E+00 0. -1.
     999900   -1    0    0    0    0 -0.00000000000E+00 -0.00000000000E+00 -0.74505805969E-08  0.93827000000E+00  0.93827000000E+00 0. -1.
     999902    2    1    2    0    0  0.66080194122E-02 -0.22644402476E-01  0.52559192970E-02  0.10197626755E+01  0.10194762650E+01 0.  0.
     999903    2    3    3    0    0 -0.12070671374E+00  0.15255619790E-01 -0.36894455714E-01  0.12879572493E+00  0.20598379046E-01 0.  0.
         14    1    1    2    0    0 -0.66080194122E-02  0.22644402476E-01 -0.52559192970E-02  0.24167324463E-01  0.00000000000E+00 0. -1.
     999901    1    3    3    0    0  0.12731473315E+00 -0.37900022266E-01  0.42150375011E-01  0.89096695061E+00  0.88000000000E+00 0.  1.
        -11    1    4    4    0    0 -0.10511416330E+00  0.11492466225E-01 -0.38798015856E-01  0.11263485811E+00  0.51100000000E-03 0.  1.
         11    1    4    4    0    0 -0.15592550443E-01  0.37631535654E-02  0.19035601411E-02  0.16160866817E-01  0.51100000000E-03 0. -1.
</event>
<event>
 8    1  0.1208168E+005  0.1043930E+01  0.7957747E-01            NaN
         13   -1    0    0    0    0  0.00000000000E+00  0.00000000000E+00  0.74505805969E-08  0.10566000000E+00  0.10566000000E+00 0. -1.
     999900   -1    0    0    0    0 -0.00000000000E+00 -0.00000000000E+00 -0.74505805969E-08  0.93827000000E+00  0.93827000000E+00 0. -1.
     999902    2    1    2    0    0 -0.21059829618E-02 -0.77797999121E-02  0.21729972590E-01  0.10207534567E+01  0.10204903072E+01 0.  0.
     999903    2    3    3    0    0 -0.42897459911E-01 -0.41806544921E-01  0.11825704993E+00  0.13388298102E+00  0.18760156791E-01 0.  0.
         14    1    1    2    0    0  0.21059829618E-02  0.77797999121E-02 -0.21729972590E-01  0.23176543307E-01  0.00000000000E+00 0.  1.
     999901    1    3    3    0    0  0.40791476949E-01  0.34026745009E-01 -0.96527077338E-01  0.88687047568E+00  0.88000000000E+00 0. -1.
        -11    1    4    4    0    0 -0.27211041112E-01 -0.14100932865E-01  0.51757168540E-01  0.60152661473E-01  0.51100000000E-03 0.  1.
         11    1    4    4    0    0 -0.15686418799E-01 -0.27705612056E-01  0.66499881389E-01  0.73730319543E-01  0.51100000000E-03 0. -1.
</event>
<event>
 8    1  0.1208168E+005  0.1043930E+01  0.7957747E-01            NaN
         13   -1    0    0    0    0  0.00000000000E+00  0.00000000000E+00  0.74505805969E-08  0.10566000000E+00  0.10566000000E+00 0. -1.
     999900   -1    0    0    0    0 -0.00000000000E+00 -0.00000000000E+00 -0.74505805969E-08  0.93827000000E+00  0.93827000000E+00 0.  1.
     999902    2    1    2    0    0  0.22081416624E-01  0.51915375724E-02  0.76028098771E-02  0.10200062933E+01  0.10197256958E+01 0.  0.
     999903    2    3    3    0    0  0.12526726519E+00 -0.88235891751E-02 -0.37725094197E-01  0.13270794328E+00  0.20456588754E-01 0.  0.
         14    1    1    2    0    0 -0.22081416624E-01 -0.51915375724E-02 -0.76028098771E-02  0.23923706664E-01  0.00000000000E+00 0. -1.
     999901    1    3    3    0    0 -0.10318584857E+00  0.14015126747E-01  0.45327904074E-01  0.88729835005E+00  0.88000000000E+00 0. -1.
        -11    1    4    4    0    0  0.54242218323E-01  0.39191088531E-02 -0.23055248658E-01  0.59071001977E-01  0.51100000000E-03 0. -1.
         11    1    4    4    0    0  0.71025046868E-01 -0.12742698028E-01 -0.14669845539E-01  0.73636941305E-01  0.51100000000E-03 0.  1.
</event>
<event>
 8    1  0.1208168E+005  0.1043930E+01  0.7957747E-01            NaN
         13   -1    0    0    0    0  0.00000000000E+00  0.00000000000E+00  0.74505805969E-08  0.10566000000E+00  0.10566000000E+00 0.  1.
     999900   -1    0    0    0    0 -0.00000000000E+00 -0.00000000000E+00 -0.74505805969E-08  0.93827000000E+00  0.93827000000E+00 0. -1.
     999902    2    1    2    0    0  0.76592753355E-02 -0.56066037984E-02  0.21677752493E-01  0.10202651852E+01  0.10199906984E+01 0.  0.
     999903    2    3    3    0    0 -0.12582072858E+00  0.30802653308E-02  0.26230784948E-01  0.13014547236E+00  0.20234775073E-01 0.  0.
         14    1    1    2    0    0 -0.76592753355E-02  0.56066037984E-02 -0.21677752493E-01  0.23664814767E-01  0.00000000000E+00 0. -1.
     999901    1    3    3    0    0  0.13348000391E+00 -0.86868691292E-02 -0.45530324550E-02  0.89011971287E+00  0.88000000000E+00 0.  1.
        -11    1    4    4    0    0 -0.95357141140E-01 -0.52789628991E-02  0.23994789818E-01  0.98472650391E-01  0.51100000000E-03 0.  1.
         11    1    4    4    0    0 -0.30463587439E-01  0.83592282299E-02  0.22359951296E-02  0.31672821969E-01  0.51100000000E-03 0. -1.
</event>
<event>
 8    1  0.1208168E+005  0.1043930E+01  0.7957747E-01            NaN
         13   -1    0    0    0    0  0.00000000000E+00  0.00000000000E+00  0.74505805969E-08  0.10566000000E+00  0.10566000000E+00 0.  1.
     999900   -1    0    0    0    0 -0.00000000000E+00 -0.00000000000E+00 -0.74505805969E-08  0.93827000000E+00  0.93827000000E+00 0.  1.
     999902    2    1    2    0    0 -0.41738135707E-02  0.29849391802E-01 -0.12462130946E-01  0.10113154079E+01  0.10107893661E+01 0.  0.
     999903    2    3    3    0    0 -0.56658244138E-01  0.97470267427E-01 -0.52960365134E-01  0.12623501310E+00  0.20490695358E-01 0.  0.
         14    1    1    2    0    0  0.41738135707E-02 -0.29849391802E-01  0.12462130946E-01  0.32614592108E-01  0.00000000000E+00 0.  1.
     999901    1    3    3    0    0  0.52484430567E-01 -0.67620875625E-01  0.40498234189E-01  0.88508039479E+00  0.88000000000E+00 0. -1.
        -11    1    4    4    0    0 -0.36878576814E-01  0.58760599468E-01 -0.43044439727E-01  0.81645100221E-01  0.51100000000E-03 0. -1.
         11    1    4    4    0    0 -0.19779667323E-01  0.38709667959E-01 -0.99159254078E-02  0.44589912880E-01  0.51100000000E-03 0.  1.
</event>
<event>
 8    1  0.1208168E+005  0.1043930E+01  0.7957747E-01            NaN
         13   -1    0    0    0    0  0.00000000000E+00  0.00000000000E+00  0.74505805969E-08  0.10566000000E+00  0.10566000000E+00 0.  1.
     999900   -1    0    0    0    0 -0.00000000000E+00 -0.00000000000E+00 -0.74505805969E-08  0.93827000000E+00  0.93827000000E+00 0.  1.
     999902    2    1    2    0    0  0.35266746968E-03  0.25061005673E-01 -0.21313515202E-02  0.10187760532E+01  0.10184654759E+01 0.  0.
     999903    2    3    3    0    0 -0.97746747089E-02 -0.13117482204E-01 -0.12576527515E+00  0.12925623496E+00  0.24953100755E-01 0.  0.
         14    1    1    2    0    0 -0.35266746968E-03 -0.25061005673E-01  0.21313515202E-02  0.25153946787E-01  0.00000000000E+00 0.  1.
     999901    1    3    3    0    0  0.10127342179E-01  0.38178487877E-01  0.12363392363E+00  0.88951981825E+00  0.88000000000E+00 0. -1.
        -11    1    4    4    0    0 -0.63197577476E-02  0.69219104837E-02 -0.34744856046E-01  0.35990531052E-01  0.51100000000E-03 0.  1.
         11    1    4    4    0    0 -0.34549169613E-02 -0.20039392688E-01 -0.91020419103E-01  0.93265703906E-01  0.51100000000E-03 0. -1.
</event>
<event>
 8    1  0.1208168E+005  0.1043930E+01  0.7957747E-01            NaN
         13   -1    0    0    0    0  0.00000000000E+00  0.00000000000E+00  0.74505805969E-08  0.10566000000E+00  0.10566000000E+00 0. -1.
     999900   -1    0    0    0    0 -0.00000000000E+00 -0.00000000000E+00 -0.74505805969E-08  0.93827000000E+00  0.93827000000E+00 0. -1.
     999902    2    1    2    0    0  0.10627355065E-01  0.11665013166E-01  0.16396369958E-01  0.10211735909E+01  0.10209200011E+01 0.  0.
     999903    2    3    3    0    0  0.12340039339E+00  0.57346054047E-02 -0.41774535695E-01  0.13205223687E+00  0.20787944594E-01 0.  0.
         14    1    1    2    0    0 -0.10627355065E-01 -0.11665013166E-01 -0.16396369958E-01  0.22756409111E-01  0.00000000000E+00 0.  1.
     999901    1    3    3    0    0 -0.11277303833E+00  0.59304077609E-02  0.58170905653E-01  0.88912135402E+00  0.88000000000E+00 0.  1.
        -11    1    4    4    0    0  0.50646258818E-01  0.37251500916E-02 -0.65935706869E-02  0.51211879196E-01  0.51100000000E-03 0. -1.
         11    1    4    4    0    0  0.72754134577E-01  0.20094553131E-02 -0.35180965008E-01  0.80840357672E-01  0.51100000000E-03 0.  1.
</event>
<event>
 8    1  0.1208168E+005  0.1043930E+01  0.7957747E-01            NaN
         13   -1    0    0    0    0  0.00000000000E+00  0.00000000000E+00  0.74505805969E-08  0.10566000000E+00  0.10566000000E+00 0. -1.
     999900   -1    0    0    0    0 -0.00000000000E+00 -0.00000000000E+00 -0.74505805969E-08  0.93827000000E+00  0.93827000000E+00 0. -1.
     999902    2    1    2    0    0 -0.45777602666E-02 -0.22463106828E-01  0.81871548793E-02  0.10195871045E+01  0.10192964667E+01 0.  0.
     999903    2    3    3    0    0  0.62022761430E-01 -0.66748248885E-01  0.93394024058E-01  0.13186135074E+00  0.19047845648E-01 0.  0.
         14    1    1    2    0    0  0.45777602666E-02  0.22463106828E-01 -0.81871548793E-02  0.24342895523E-01  0.00000000000E+00 0.  1.
     999901    1    3    3    0    0 -0.66600521697E-01  0.44285142057E-01 -0.85206869178E-01  0.88772575374E+00  0.88000000000E+00 0.  1.
        -11    1    4    4    0    0  0.36252190136E-01 -0.28307316732E-01  0.37900890277E-01  0.59600873106E-01  0.51100000000E-03 0.  1.
         11    1    4    4    0    0  0.25770571294E-01 -0.38440932153E-01  0.55493133781E-01  0.72260477631E-01  0.51100000000E-03 0. -1.
</event>
<event>
 8    1  0.1208168E+005  0.1043930E+01  0.7957747E-01            NaN
         13   -1    0    0    0    0  0.00000000000E+00  0.00000000000E+00  0.74505805969E-08  0.10566000000E+00  0.10566000000E+00 0. -1.
     999900   -1    0    0    0    0 -0.00000000000E+00 -0.00000000000E+00 -0.74505805969E-08  0.93827000000E+00  0.93827000000E+00 0.  1.
     999902    2    1    2    0    0  0.13476508696E-01  0.41028811715E-02  0.17845905271E-01  0.10211939877E+01  0.10209408574E+01 0.  0.
     999903    2    3    3    0    0 -0.12677857022E+00 -0.15706330622E-01 -0.89648245903E-02  0.12946381143E+00  0.19000413181E-01 0.  0.
         14    1    1    2    0    0 -0.13476508696E-01 -0.41028811715E-02 -0.17845905271E-01  0.22736012304E-01  0.00000000000E+00 0.  1.
     999901    1    3    3    0    0  0.14025507891E+00  0.19809211793E-01  0.26810729861E-01  0.89173017627E+00  0.88000000000E+00 0.  1.
        -11    1    4    4    0    0 -0.57659050843E-01 -0.12651829505E-01  0.36026203712E-02  0.59142834972E-01  0.51100000000E-03 0.  1.
         11    1    4    4    0    0 -0.69119519375E-01 -0.30545011161E-02 -0.12567444962E-01  0.70320976455E-01  0.51100000000E-03 0. -1.
</event>
<event>
 8    1  0.1208168E+005  0.1043930E+01  0.7957747E-01            NaN
         13   -1    0    0    0    0  0.00000000000E+00  0.00000000000E+00  0.74505805969E-08  0.10566000000E+00  0.10566000000E+00 0.  1.
     999900   -1    0    0    0    0 -0.00000000000E+00 -0.00000000000E+00 -0.74505805969E-08  0.93827000000E+00  0.93827000000E+00 0.  1.
     999902    2    1    2    0    0 -0.11525469055E-02 -0.23805686973E-01  0.46647339815E-03  0.10200918647E+01  0.10198132946E+01 0.  0.
     999903    2    3    3    0    0  0.65924255075E-01  0.77508913724E-01 -0.75495222958E-01  0.12850108134E+00  0.21432687704E-01 0.  0.
         14    1    1    2    0    0  0.11525469055E-02  0.23805686973E-01 -0.46647339815E-03  0.23838135289E-01  0.00000000000E+00 0. -1.
     999901    1    3    3    0    0 -0.67076801981E-01 -0.10131460070E+00  0.75961696357E-01  0.89159078337E+00  0.88000000000E+00 0. -1.
        -11    1    4    4    0    0  0.40720107841E-01  0.36546514071E-01 -0.30533293950E-01  0.62660338603E-01  0.51100000000E-03 0.  1.
         11    1    4    4    0    0  0.25204147234E-01  0.40962399652E-01 -0.44961929009E-01  0.65840742738E-01  0.51100000000E-03 0. -1.
</event>
<event>
 8    1  0.1208168E+005  0.1043930E+01  0.7957747E-01            NaN
         13   -1    0    0    0    0  0.00000000000E+00  0.00000000000E+00  0.74505805969E-08  0.10566000000E+00  0.10566000000E+00 0. -1.
     999900   -1    0    0    0    0 -0.00000000000E+00 -0.00000000000E+00 -0.74505805969E-08  0.93827000000E+00  0.93827000000E+00 0. -1.
     999902    2    1    2    0    0  0.61299403695E-02  0.16547817588E-01  0.17032342376E-01  0.10194043579E+01  0.10191092864E+01 0.  0.
     999903    2    3    3    0    0 -0.14227654097E-01  0.30111526053E-01 -0.12207341843E+00  0.12814187209E+00  0.20230910830E-01 0.  0.
         14    1    1    2    0    0 -0.61299403695E-02 -0.16547817588E-01 -0.17032342376E-01  0.24525642146E-01  0.00000000000E+00 0.  1.
     999901    1    3    3    0    0  0.20357594466E-01 -0.13563708465E-01  0.13910576081E+00  0.89126248576E+00  0.88000000000E+00 0.  1.
        -11    1    4    4    0    0 -0.40159537845E-02  0.32853229649E-02 -0.38458893060E-02  0.64786740416E-02  0.51100000000E-03 0. -1.
         11    1    4    4    0    0 -0.10211700312E-01  0.26826203088E-01 -0.11822752913E+00  0.12166319805E+00  0.51100000000E-03 0.  1.
</event>
<event>
 8    1  0.1208168E+005  0.1043930E+01  0.7957747E-01            NaN
         13   -1    0    0    0    0  0.00000000000E+00  0.00000000000E+00  0.74505805969E-08  0.10566000000E+00  0.10566000000E+00 0.  1.
     999900   -1    0    0    0    0 -0.00000000000E+00 -0.00000000000E+00 -0.74505805969E-08  0.93827000000E+00  0.93827000000E+00 0.  1.
     999902    2    1    2    0    0 -0.10135643666E-01 -0.12658260177E-01  0.17507151780E-01  0.10200665722E+01  0.10197874036E+01 0.  0.
     999903    2    3    3    0    0 -0.78153310236E-02 -0.64640100607E-01 -0.10996637169E+00  0.12936067529E+00  0.20053912442E-01 0.  0.
         14    1    1    2    0    0  0.10135643666E-01  0.12658260177E-01 -0.17507151780E-01  0.23863427807E-01  0.00000000000E+00 0. -1.
     999901    1    3    3    0    0 -0.23203126427E-02  0.51981840431E-01  0.12747352347E+00  0.89070589690E+00  0.88000000000E+00 0. -1.
        -11    1    4    4    0    0 -0.40012680662E-03 -0.58218901210E-01 -0.91732067997E-01  0.10864913244E+00  0.51100000000E-03 0.  1.
         11    1    4    4    0    0 -0.74152042170E-02 -0.64211993969E-02 -0.18234303693E-01  0.20711542856E-01  0.51100000000E-03 0. -1.
</event>
<event>
 8    1  0.1208168E+005  0.1043930E+01  0.7957747E-01            NaN
         13   -1    0    0    0    0  0.00000000000E+00  0.00000000000E+00  0.74505805969E-08  0.10566000000E+00  0.10566000000E+00 0. -1.
     999900   -1    0    0    0    0 -0.00000000000E+00 -0.00000000000E+00 -0.74505805969E-08  0.93827000000E+00  0.93827000000E+00 0. -1.
     999902    2    1    2    0    0 -0.61694376575E-02  0.92974004729E-02 -0.21146330179E-01  0.10200203598E+01  0.10197400960E+01 0.  0.
     999903    2    3    3    0    0  0.62167085416E-01  0.11276272540E+00  0.11737887195E-01  0.13071932771E+00  0.19224616858E-01 0.  0.
         14    1    1    2    0    0  0.61694376575E-02 -0.92974004729E-02  0.21146330179E-01  0.23909640244E-01  0.00000000000E+00 0. -1.
     999901    1    3    3    0    0 -0.68336523074E-01 -0.10346532492E+00 -0.32884217374E-01  0.88930103205E+00  0.88000000000E+00 0.  1.
        -11    1    4    4    0    0  0.28678661377E-01  0.71104483359E-01  0.89801768435E-02  0.77195970550E-01  0.51100000000E-03 0. -1.
         11    1    4    4    0    0  0.33488424039E-01  0.41658242037E-01  0.27577103517E-02  0.53523357159E-01  0.51100000000E-03 0.  1.
</event>
<event>
 8    1  0.1208168E+005  0.1043930E+01  0.7957747E-01            NaN
         13   -1    0    0    0    0  0.00000000000E+00  0.00000000000E+00  0.74505805969E-08  0.10566000000E+00  0.10566000000E+00 0.  1.
     999900   -1    0    0    0    0 -0.00000000000E+00 -0.00000000000E+00 -0.74505805969E-08  0.93827000000E+00  0.93827000000E+00 0. -1.
     999902    2    1    2    0    0  0.11737021832E-01 -0.91201547575E-02 -0.17625401824E-01  0.10208737710E+01  0.10206133777E+01 0.  0.
     999903    2    3    3    0    0  0.51053963989E-01  0.56218714619E-01  0.10280636695E+00  0.12940374871E+00  0.20226961768E-01 0.  0.
         14    1    1    2    0    0 -0.11737021832E-01  0.91201547575E-02  0.17625401824E-01  0.23056228958E-01  0.00000000000E+00 0.  1.
     999901    1    3    3    0    0 -0.39316942157E-01 -0.65338869377E-01 -0.12043176877E+00  0.89147002233E+00  0.88000000000E+00 0. -1.
        -11    1    4    4    0    0  0.21983506511E-01  0.10500064431E-01  0.33828746567E-01  0.41691379527E-01  0.51100000000E-03 0. -1.
         11    1    4    4    0    0  0.29070457477E-01  0.45718650188E-01  0.68977620380E-01  0.87712369180E-01  0.51100000000E-03 0.  1.
</event>
<event>
 8    1  0.1208168E+005  0.1043930E+01  0.7957747E-01            NaN
         13   -1    0    0    0    0  0.00000000000E+00  0.00000000000E+00  0.74505805969E-08  0.10566000000E+00  0.10566000000E+00 0.  1.
     999900   -1    0    0    0    0 -0.00000000000E+00 -0.00000000000E+00 -0.74505805969E-08  0.93827000000E+00  0.93827000000E+00 0. -1.
     999902    2    1    2    0    0  0.15593844501E-01 -0.15759863125E-01 -0.11478772917E-01  0.10189639531E+01  0.10186580556E+01 0.  0.
     999903    2    3    3    0    0  0.11835208992E+00 -0.55100112127E-01 -0.68595203250E-03  0.13204603286E+00  0.19810217544E-01 0.  0.
         14    1    1    2    0    0 -0.15593844501E-01  0.15759863125E-01  0.11478772917E-01  0.24966046938E-01  0.00000000000E+00 0. -1.
     999901    1    3    3    0    0 -0.10275824542E+00  0.39340249003E-01 -0.10792820884E-01  0.88691792020E+00  0.88000000000E+00 0. -1.
        -11    1    4    4    0    0  0.64782056247E-01 -0.20206000377E-01  0.36878957987E-02  0.67962187717E-01  0.51100000000E-03 0. -1.
         11    1    4    4    0    0  0.53570033673E-01 -0.34894111750E-01 -0.43738478312E-02  0.64083845144E-01  0.51100000000E-03 0.  1.
</event>
<event>
 8    1  0.1208168E+005  0.1043930E+01  0.7957747E-01            NaN
         13   -1    0    0    0    0  0.00000000000E+00  0.00000000000E+00  0.74505805969E-08  0.10566000000E+00  0.10566000000E+00 0.  1.
     999900   -1    0    0    0    0 -0.00000000000E+00 -0.00000000000E+00 -0.74505805969E-08  0.93827000000E+00  0.93827000000E+00 0.  1.
     999902    2    1    2    0    0 -0.19197398074E-01 -0.19080862524E-01  0.13100650860E-01  0.10138593089E+01  0.10134132681E+01 0.  0.
     999903    2    3    3    0    0 -0.97212423330E-01  0.28040776985E-01  0.73843019645E-01  0.12706935161E+00  0.21384296657E-01 0.  0.
         14    1    1    2    0    0  0.19197398074E-01  0.19080862524E-01 -0.13100650860E-01  0.30070691053E-01  0.00000000000E+00 0. -1.
     999901    1    3    3    0    0  0.78015025256E-01 -0.47121639509E-01 -0.60742368784E-01  0.88678995734E+00  0.88000000000E+00 0.  1.
        -11    1    4    4    0    0 -0.64635431724E-02 -0.17223724189E-03  0.12130122014E-01  0.13755291239E-01  0.51100000000E-03 0.  1.
         11    1    4    4    0    0 -0.90748880158E-01  0.28213014227E-01  0.61712897631E-01  0.11331406037E+00  0.51100000000E-03 0. -1.
</event>
<event>
 8    1  0.1208168E+005  0.1043930E+01  0.7957747E-01            NaN
         13   -1    0    0    0    0  0.00000000000E+00  0.00000000000E+00  0.74505805969E-08  0.10566000000E+00  0.10566000000E+00 0. -1.
     999900   -1    0    0    0    0 -0.00000000000E+00 -0.00000000000E+00 -0.74505805969E-08  0.93827000000E+00  0.93827000000E+00 0. -1.
     999902    2    1    2    0    0  0.52448832422E-02 -0.21499205948E-01 -0.10723462990E-02  0.10217743104E+01  0.10215340752E+01 0.  0.
     999903    2    3    3    0    0 -0.93239894941E-01 -0.78909697548E-01 -0.48881897744E-01  0.13313435555E+00  0.20369053134E-01 0.  0.
         14    1    1    2    0    0 -0.52448832422E-02  0.21499205948E-01  0.10723462990E-02  0.22155689635E-01  0.00000000000E+00 0. -1.
     999901    1    3    3    0    0  0.98484778183E-01  0.57410491600E-01  0.47809551445E-01  0.88863995481E+00  0.88000000000E+00 0.  1.
        -11    1    4    4    0    0 -0.19601446473E-01 -0.28429867918E-01 -0.12595883083E-01  0.36761276981E-01  0.51100000000E-03 0. -1.
         11    1    4    4    0    0 -0.73638448468E-01 -0.50479829630E-01 -0.36286014661E-01  0.96373078571E-01  0.51100000000E-03 0.  1.
</event>
<event>
 8    1  0.1208168E+005  0.1043930E+01  0.7957747E-01            NaN
         13   -1    0    0    0    0  0.00000000000E+00  0.00000000000E+00  0.74505805969E-08  0.10566000000E+00  0.10566000000E+00 0. -1.
     999900   -1    0    0    0    0 -0.00000000000E+00 -0.00000000000E+00 -0.74505805969E-08  0.93827000000E+00  0.93827000000E+00 0.  1.
     999902    2    1    2    0    0 -0.17328901403E-01  0.46070900487E-02 -0.15162977665E-01  0.10204474108E+01  0.10201771838E+01 0.  0.
     999903    2    3    3    0    0  0.31802476274E-01 -0.77779567854E-01  0.95075221148E-01  0.12839701194E+00  0.19632532364E-01 0.  0.
         14    1    1    2    0    0  0.17328901403E-01 -0.46070900487E-02  0.15162977665E-01  0.23482589172E-01  0.00000000000E+00 0. -1.
     999901    1    3    3    0    0 -0.49131377677E-01  0.82386657902E-01 -0.11023819881E+00  0.89205039888E+00  0.88000000000E+00 0.  1.
        -11    1    4    4    0    0  0.12635889468E-01 -0.46928173777E-01  0.42928954327E-01  0.64846553010E-01  0.51100000000E-03 0.  1.
         11    1    4    4    0    0  0.19166586806E-01 -0.30851394076E-01  0.52146266821E-01  0.63550458933E-01  0.51100000000E-03 0. -1.
</event>
<event>
 8    1  0.1208168E+005  0.1043930E+01  0.7957747E-01            NaN
         13   -1    0    0    0    0  0.00000000000E+00  0.00000000000E+00  0.74505805969E-08  0.10566000000E+00  0.10566000000E+00 0.  1.
     999900   -1    0    0    0    0 -0.00000000000E+00 -0.00000000000E+00 -0.74505805969E-08  0.93827000000E+00  0.93827000000E+00 0.  1.
     999902    2    1    2    0    0  0.20316748748E-01 -0.12456225668E-01 -0.96175806324E-03  0.10200793645E+01  0.10198004986E+01 0.  0.
     999903    2    3    3    0    0 -0.56933965428E-01 -0.88584366858E-01 -0.73371984311E-01  0.13046910845E+00  0.23453650167E-01 0.  0.
         14    1    1    2    0    0 -0.20316748748E-01  0.12456225668E-01  0.96175806324E-03  0.23850635550E-01  0.00000000000E+00 0.  1.
     999901    1    3    3    0    0  0.77250714175E-01  0.76128141190E-01  0.72410226248E-01  0.88961025600E+00  0.88000000000E+00 0. -1.
        -11    1    4    4    0    0 -0.31451461257E-01 -0.28574633881E-01 -0.32745910804E-01  0.53649416698E-01  0.51100000000E-03 0. -1.
         11    1    4    4    0    0 -0.25482504170E-01 -0.60009732977E-01 -0.40626073507E-01  0.76819691748E-01  0.51100000000E-03 0.  1.
</event>
<event>
 8    1  0.1208168E+005  0.1043930E+01  0.7957747E-01            NaN
         13   -1    0    0    0    0  0.00000000000E+00  0.00000000000E+00  0.74505805969E-08  0.10566000000E+00  0.10566000000E+00 0. -1.
     999900   -1    0    0    0    0 -0.00000000000E+00 -0.00000000000E+00 -0.74505805969E-08  0.93827000000E+00  0.93827000000E+00 0.  1.
     999902    2    1    2    0    0 -0.50816847945E-02 -0.21250472644E-01  0.59880475407E-02  0.10212746955E+01  0.10210233792E+01 0.  0.
     999903    2    3    3    0    0 -0.10390091504E+00 -0.41411383025E-01 -0.68103951268E-01  0.13242075540E+00  0.19667371272E-01 0.  0.
         14    1    1    2    0    0  0.50816847945E-02  0.21250472644E-01 -0.59880475407E-02  0.22655304484E-01  0.00000000000E+00 0.  1.
     999901    1    3    3    0    0  0.98819230242E-01  0.20160910381E-01  0.74091998809E-01  0.88885394012E+00  0.88000000000E+00 0. -1.
        -11    1    4    4    0    0 -0.31521319021E-01 -0.31880267480E-02 -0.20261545555E-01  0.37610482803E-01  0.51100000000E-03 0. -1.
         11    1    4    4    0    0 -0.72379596015E-01 -0.38223356277E-01 -0.47842405713E-01  0.94810272596E-01  0.51100000000E-03 0.  1.
</event>
<event>
 8    1  0.1208168E+005  0.1043930E+01  0.7957747E-01            NaN
         13   -1    0    0    0    0  0.00000000000E+00  0.00000000000E+00  0.74505805969E-08  0.10566000000E+00  0.10566000000E+00 0.  1.
     999900   -1    0    0    0    0 -0.00000000000E+00 -0.00000000000E+00 -0.74505805969E-08  0.93827000000E+00  0.93827000000E+00 0.  1.
     999902    2    1    2    0    0 -0.13827743890E-01 -0.15404285734E-01  0.49646852622E-03  0.10232238415E+01  0.10230143131E+01 0.  0.
     999903    2    3    3    0    0 -0.13279360903E+00  0.11158674633E-01 -0.41615146165E-02  0.13480943100E+00  0.19940056765E-01 0.  0.
         14    1    1    2    0    0  0.13827743890E-01  0.15404285734E-01 -0.49646852622E-03  0.20706158530E-01  0.00000000000E+00 0.  1.
     999901    1    3    3    0    0  0.11896586514E+00 -0.26562960368E-01  0.46579831428E-02  0.88841441047E+00  0.88000000000E+00 0.  1.
        -11    1    4    4    0    0 -0.81273338355E-01  0.48639091895E-02 -0.12051013151E-01  0.82307357987E-01  0.51100000000E-03 0.  1.
         11    1    4    4    0    0 -0.51520270672E-01  0.62947654438E-02  0.78894985346E-02  0.52502073008E-01  0.51100000000E-03 0. -1.
</event>
<event>
 8    1  0.1208168E+005  0.1043930E+01  0.7957747E-01            NaN
         13   -1    0    0    0    0  0.00000000000E+00  0.00000000000E+00  0.74505805969E-08  0.10566000000E+00  0.10566000000E+00 0.  1.
     999900   -1    0    0    0    0 -0.00000000000E+00 -0.00000000000E+00 -0.74505805969E-08  0.93827000000E+00  0.93827000000E+00 0.  1.
     999902    2    1    2    0    0 -0.17457695193E-01  0.87744739874E-02  0.11970874825E-01  0.10210157171E+01  0.10207585563E+01 0.  0.
     999903    2    3    3    0    0  0.29531196181E-01 -0.12058216391E+00 -0.30201608160E-01  0.12932091845E+00  0.19990322923E-01 0.  0.
         14    1    1    2    0    0  0.17457695193E-01 -0.87744739874E-02 -0.11970874825E-01  0.22914282866E-01  0.00000000000E+00 0.  1.
     999901    1    3    3    0    0 -0.46988891374E-01  0.12935663790E+00  0.42172482985E-01  0.89169479869E+00  0.88000000000E+00 0. -1.
        -11    1    4    4    0    0  0.39436001228E-02 -0.25285663667E-01 -0.14464342340E-01  0.29400596751E-01  0.51100000000E-03 0.  1.
         11    1    4    4    0    0  0.25587596058E-01 -0.95296500248E-01 -0.15737265820E-01  0.99920321697E-01  0.51100000000E-03 0. -1.
</event>
<event>
 8    1  0.1208168E+005  0.1043930E+01  0.7957747E-01            NaN
         13   -1    0    0    0    0  0.00000000000E+00  0.00000000000E+00  0.74505805969E-08  0.10566000000E+00  0.10566000000E+00 0. -1.
     999900   -1    0    0    0    0 -0.00000000000E+00 -0.00000000000E+00 -0.74505805969E-08  0.93827000000E+00  0.93827000000E+00 0. -1.
     999902    2    1    2    0    0 -0.23343696427E-02 -0.49589677300E-02  0.23299719995E-01  0.10199943029E+01  0.10197134207E+01 0.  0.
     999903    2    3    3    0    0 -0.11861691701E+00  0.16416723909E-01 -0.44055962925E-01  0.12953636510E+00  0.22344130970E-01 0.  0.
         14    1    1    2    0    0  0.23343696427E-02  0.49589677300E-02 -0.23299719995E-01  0.23935697074E-01  0.00000000000E+00 0.  1.
     999901    1    3    3    0    0  0.11628254737E+00 -0.21375691639E-01  0.67355682919E-01  0.89045793783E+00  0.88000000000E+00 0.  1.
        -11    1    4    4    0    0 -0.16473301139E-01  0.23596922419E-02 -0.15007893274E-01  0.22415079287E-01  0.51100000000E-03 0.  1.
         11    1    4    4    0    0 -0.10214361587E+00  0.14057031667E-01 -0.29048069650E-01  0.10712128581E+00  0.51100000000E-03 0. -1.
</event>
<event>
 8    1  0.1208168E+005  0.1043930E+01  0.7957747E-01            NaN
         13   -1    0    0    0    0  0.00000000000E+00  0.00000000000E+00  0.74505805969E-08  0.10566000000E+00  0.10566000000E+00 0.  1.
     999900   -1    0    0    0    0 -0.00000000000E+00 -0.00000000000E+00 -0.74505805969E-08  0.93827000000E+00  0.93827000000E+00 0. -1.
     999902    2    1    2    0    0 -0.21214722456E-01  0.18960989733E-01  0.11777553423E-01  0.10131356118E+01  0.10126675039E+01 0.  0.
     999903    2    3    3    0    0  0.27556736129E-01 -0.10463211005E+00 -0.50504924420E-01  0.12098483051E+00  0.19476387363E-01 0.  0.
         14    1    1    2    0    0  0.21214722456E-01 -0.18960989733E-01 -0.11777553423E-01  0.30794388209E-01  0.00000000000E+00 0. -1.
     999901    1    3    3    0    0 -0.48771458585E-01  0.12359309978E+00  0.62282477842E-01  0.89215078128E+00  0.88000000000E+00 0.  1.
        -11    1    4    4    0    0  0.17126434927E-01 -0.37481448388E-01 -0.26080362963E-01  0.48771100048E-01  0.51100000000E-03 0. -1.
         11    1    4    4    0    0  0.10430301202E-01 -0.67150661660E-01 -0.24424561456E-01  0.72213730467E-01  0.51100000000E-03 0.  1.
</event>
<event>
 8    1  0.1208168E+005  0.1043930E+01  0.7957747E-01            NaN
         13   -1    0    0    0    0  0.00000000000E+00  0.00000000000E+00  0.74505805969E-08  0.10566000000E+00  0.10566000000E+00 0.  1.
     999900   -1    0    0    0    0 -0.00000000000E+00 -0.00000000000E+00 -0.74505805969E-08  0.93827000000E+00  0.93827000000E+00 0.  1.
     999902    2    1    2    0    0 -0.17797494753E-01  0.60947819299E-02 -0.14142250416E-01  0.10203949106E+01  0.10201234598E+01 0.  0.
     999903    2    3    3    0    0 -0.12710812208E+00  0.24799805175E-01 -0.25480282071E-01  0.13336208026E+00  0.19096979856E-01 0.  0.
         14    1    1    2    0    0  0.17797494753E-01 -0.60947819299E-02  0.14142250416E-01  0.23535089401E-01  0.00000000000E+00 0.  1.
     999901    1    3    3    0    0  0.10931062733E+00 -0.18705023245E-01  0.11338031654E-01  0.88703283034E+00  0.88000000000E+00 0.  1.
        -11    1    4    4    0    0 -0.51879841274E-01  0.17760065983E-01 -0.49325786524E-02  0.55059325527E-01  0.51100000000E-03 0. -1.
         11    1    4    4    0    0 -0.75228280811E-01  0.70397391925E-02 -0.20547703418E-01  0.78302754731E-01  0.51100000000E-03 0.  1.
</event>
<event>
 8    1  0.1208168E+005  0.1043930E+01  0.7957747E-01            NaN
         13   -1    0    0    0    0  0.00000000000E+00  0.00000000000E+00  0.74505805969E-08  0.10566000000E+00  0.10566000000E+00 0.  1.
     999900   -1    0    0    0    0 -0.00000000000E+00 -0.00000000000E+00 -0.74505805969E-08  0.93827000000E+00  0.93827000000E+00 0. -1.
     999902    2    1    2    0    0  0.19428701435E-01 -0.10010410025E-01 -0.42586919627E-02  0.10216630019E+01  0.10214203200E+01 0.  0.
     999903    2    3    3    0    0  0.33128773491E-01  0.12491523767E+00  0.98568402284E-02  0.13116209192E+00  0.20124731589E-01 0.  0.
         14    1    1    2    0    0 -0.19428701435E-01  0.10010410025E-01  0.42586919627E-02  0.22266998126E-01  0.00000000000E+00 0. -1.
     999901    1    3    3    0    0 -0.13700072056E-01 -0.13492564770E+00 -0.14115532191E-01  0.89050090995E+00  0.88000000000E+00 0. -1.
        -11    1    4    4    0    0  0.32009538723E-01  0.10981717007E+00  0.14534976686E-01  0.11530805730E+00  0.51100000000E-03 0. -1.
         11    1    4    4    0    0  0.11192347684E-02  0.15098067607E-01 -0.46781364579E-02  0.15854034617E-01  0.51100000000E-03 0.  1.
</event>
<event>
 8    1  0.1208168E+005  0.1043930E+01  0.7957747E-01            NaN
         13   -1    0    0    0    0  0.00000000000E+00  0.00000000000E+00  0.74505805969E-08  0.10566000000E+00  0.10566000000E+00 0.  1.
     999900   -1    0    0    0    0 -0.00000000000E+00 -0.00000000000E+00 -0.74505805969E-08  0.93827000000E+00  0.93827000000E+00 0. -1.
     999902    2    1    2    0    0  0.10628200643E-01  0.41655841196E-02  0.20739637907E-01  0.10202563159E+01  0.10199816208E+01 0.  0.
     999903    2    3    3    0    0 -0.89430060512E-01  0.18546649538E-01  0.92477659572E-01  0.13156918621E+00  0.20411254427E-01 0.  0.
         14    1    1    2    0    0 -0.10628200643E-01 -0.41655841196E-02 -0.20739637907E-01  0.23673684134E-01  0.00000000000E+00 0. -1.
     999901    1    3    3    0    0  0.10005826115E+00 -0.14381065419E-01 -0.71738021665E-01  0.88868712966E+00  0.88000000000E+00 0. -1.
        -11    1    4    4    0    0 -0.59705813300E-01  0.13199341611E-01  0.47688705649E-01  0.77546634539E-01  0.51100000000E-03 0. -1.
         11    1    4    4    0    0 -0.29724247212E-01  0.53473079271E-02  0.44788953923E-01  0.54022551669E-01  0.51100000000E-03 0.  1.
</event>
<event>
 8    1  0.1208168E+005  0.1043930E+01  0.7957747E-01            NaN
         13   -1    0    0    0    0  0.00000000000E+00  0.00000000000E+00  0.74505805969E-08  0.10566000000E+00  0.10566000000E+00 0. -1.
     999900   -1    0    0    0    0 -0.00000000000E+00 -0.00000000000E+00 -0.74505805969E-08  0.93827000000E+00  0.93827000000E+00 0. -1.
     999902    2    1    2    0    0 -0.13354340410E-01 -0.18369338736E-01  0.56485736545E-02  0.10205274916E+01  0.10202591258E+01 0.  0.
     999903    2    3    3    0    0  0.79230216996E-01 -0.98481497100E-01 -0.29782039685E-01  0.13134517819E+00  0.19711757637E-01 0.  0.
         14    1    1    2    0    0  0.13354340410E-01  0.18369338736E-01 -0.56485736545E-02  0.23402508364E-01  0.00000000000E+00 0.  1.
     999901    1    3    3    0    0 -0.92584557407E-01  0.80112158364E-01  0.35430613339E-01  0.88918231345E+00  0.88000000000E+00 0.  1.
        -11    1    4    4    0    0  0.62242395129E-01 -0.64241405392E-01 -0.24586837497E-01  0.92767707837E-01  0.51100000000E-03 0. -1.
         11    1    4    4    0    0  0.16987821868E-01 -0.34240091707E-01 -0.51952021880E-02  0.38577470351E-01  0.51100000000E-03 0.  1.
</event>
<event>
 8    1  0.1208168E+005  0.1043930E+01  0.7957747E-01            NaN
         13   -1    0    0    0    0  0.00000000000E+00  0.00000000000E+00  0.74505805969E-08  0.10566000000E+00  0.10566000000E+00 0. -1.
     999900   -1    0    0    0    0 -0.00000000000E+00 -0.00000000000E+00 -0.74505805969E-08  0.93827000000E+00  0.93827000000E+00 0. -1.
     999902    2    1    2    0    0 -0.96607141959E-02  0.23238631290E-01 -0.77008959570E-02  0.10176114290E+01  0.10172710323E+01 0.  0.
     999903    2    3    3    0    0 -0.11514505171E+00  0.44952134511E-01 -0.36715022495E-01  0.13057127135E+00  0.20537446158E-01 0.  0.
         14    1    1    2    0    0  0.96607141959E-02 -0.23238631290E-01  0.77008959570E-02  0.26318571039E-01  0.00000000000E+00 0.  1.
     999901    1    3    3    0    0  0.10548433751E+00 -0.21713503221E-01  0.29014126538E-01  0.88704015761E+00  0.88000000000E+00 0.  1.
        -11    1    4    4    0    0 -0.10286710231E+00  0.33139594573E-01 -0.34098266592E-01  0.11332619455E+00  0.51100000000E-03 0. -1.
         11    1    4    4    0    0 -0.12277949394E-01  0.11812539938E-01 -0.26167559033E-02  0.17245076792E-01  0.51100000000E-03 0.  1.
</event>
<event>
 8    1  0.1208168E+005  0.1043930E+01  0.7957747E-01            NaN
         13   -1    0    0    0    0  0.00000000000E+00  0.00000000000E+00  0.74505805969E-08  0.10566000000E+00  0.10566000000E+00 0. -1.
     999900   -1    0    0    0    0 -0.00000000000E+00 -0.00000000000E+00 -0.74505805969E-08  0.93827000000E+00  0.93827000000E+00 0.  1.
     999902    2    1    2    0    0  0.17090073156E-01  0.12999123113E-01 -0.13476667581E-01  0.10185790953E+01  0.10182635734E+01 0.  0.
     999903    2    3    3    0    0  0.12499802945E+00  0.15566278061E-01 -0.32614688107E-01  0.13177754973E+00  0.20851579180E-01 0.  0.
         14    1    1    2    0    0 -0.17090073156E-01 -0.12999123113E-01  0.13476667581E-01  0.25350904743E-01  0.00000000000E+00 0. -1.
     999901    1    3    3    0    0 -0.10790795629E+00 -0.25671549477E-02  0.19138020526E-01  0.88680154552E+00  0.88000000000E+00 0. -1.
        -11    1    4    4    0    0  0.43787365047E-01  0.14831188681E-01 -0.80587703050E-02  0.46930825640E-01  0.51100000000E-03 0. -1.
         11    1    4    4    0    0  0.81210664402E-01  0.73508937980E-03 -0.24555917802E-01  0.84846724092E-01  0.51100000000E-03 0.  1.
</event>
<event>
 8    1  0.1208168E+005  0.1043930E+01  0.7957747E-01            NaN
         13   -1    0    0    0    0  0.00000000000E+00  0.00000000000E+00  0.74505805969E-08  0.10566000000E+00  0.10566000000E+00 0. -1.
     999900   -1    0    0    0    0 -0.00000000000E+00 -0.00000000000E+00 -0.74505805969E-08  0.93827000000E+00  0.93827000000E+00 0. -1.
     999902    2    1    2    0    0  0.18855462747E-01 -0.67885245637E-02 -0.88132264444E-02  0.10220374099E+01  0.10218029075E+01 0.  0.
     999903    2    3    3    0    0 -0.35310566901E-01 -0.41466637522E-01  0.11706917137E+00  0.13075579987E+00  0.20629351714E-01 0.  0.
         14    1    1    2    0    0 -0.18855462747E-01  0.67885245637E-02  0.88132264444E-02  0.21892590105E-01  0.00000000000E+00 0. -1.
     999901    1    3    3    0    0  0.54166029648E-01  0.34678112958E-01 -0.12588239782E+00  0.89128161002E+00  0.88000000000E+00 0. -1.
        -11    1    4    4    0    0 -0.26783522122E-01 -0.30195320539E-01  0.10376144341E+00  0.11133648414E+00  0.51100000000E-03 0.  1.
         11    1    4    4    0    0 -0.85270447787E-02 -0.11271316983E-01  0.13307727958E-01  0.19419315734E-01  0.51100000000E-03 0. -1.
</event>
<event>
 8    1  0.1208168E+005  0.1043930E+01  0.7957747E-01            NaN
         13   -1    0    0    0    0  0.00000000000E+00  0.00000000000E+00  0.74505805969E-08  0.10566000000E+00  0.10566000000E+00 0. -1.
     999900   -1    0    0    0    0 -0.00000000000E+00 -0.00000000000E+00 -0.74505805969E-08  0.93827000000E+00  0.93827000000E+00 0.  1.
     999902    2    1    2    0    0  0.17784054388E-01  0.17941338069E-01  0.48978170006E-02  0.10181976699E+01  0.10178724587E+01 0.  0.
     999903    2    3    3    0    0 -0.12214398775E+00 -0.10176874423E-02  0.26222337475E-01  0.12668545078E+00  0.21009593625E-01 0.  0.
         14    1    1    2    0    0 -0.17784054388E-01 -0.17941338069E-01 -0.48978170006E-02  0.25732330123E-01  0.00000000000E+00 0.  1.
     999901    1    3    3    0    0  0.13992804214E+00  0.18959025512E-01 -0.21324520474E-01  0.89151221910E+00  0.88000000000E+00 0.  1.
        -11    1    4    4    0    0 -0.51786304186E-01 -0.10286732604E-01  0.14509883311E-01  0.54757976620E-01  0.51100000000E-03 0.  1.
         11    1    4    4    0    0 -0.70357683569E-01  0.92690451616E-02  0.11712454164E-01  0.71927474159E-01  0.51100000000E-03 0. -1.
</event>
<event>
 8    1  0.1208168E+005  0.1043930E+01  0.7957747E-01            NaN
         13   -1    0    0    0    0  0.00000000000E+00  0.00000000000E+00  0.74505805969E-08  0.10566000000E+00  0.10566000000E+00 0. -1.
     999900   -1    0    0    0    0 -0.00000000000E+00 -0.00000000000E+00 -0.74505805969E-08  0.93827000000E+00  0.93827000000E+00 0.  1.
     999902    2    1    2    0    0  0.23500011087E-01 -0.21584278240E-02  0.93174619517E-03  0.10203126868E+01  0.10200393136E+01 0.  0.
     999903    2    3    3    0    0  0.30132329094E-03  0.12471721834E+00  0.32135279245E-01  0.13036366063E+00  0.20187434069E-01 0.  0.
         14    1    1    2    0    0 -0.23500011087E-01  0.21584278240E-02 -0.93174619517E-03  0.23617313199E-01  0.00000000000E+00 0.  1.
     999901    1    3    3    0    0  0.23198687796E-01 -0.12687564617E+00 -0.31203533050E-01  0.88994902617E+00  0.88000000000E+00 0. -1.
        -11    1    4    4    0    0  0.62896020564E-02  0.57993397790E-01  0.23186265589E-01  0.62774655030E-01  0.51100000000E-03 0.  1.
         11    1    4    4    0    0 -0.59882787655E-02  0.66723820553E-01  0.89490136561E-02  0.67589005601E-01  0.51100000000E-03 0. -1.
</event>
<event>
 8    1  0.1208168E+005  0.1043930E+01  0.7957747E-01            NaN
         13   -1    0    0    0    0  0.00000000000E+00  0.00000000000E+00  0.74505805969E-08  0.10566000000E+00  0.10566000000E+00 0. -1.
     999900   -1    0    0    0    0 -0.00000000000E+00 -0.00000000000E+00 -0.74505805969E-08  0.93827000000E+00  0.93827000000E+00 0. -1.
     999902    2    1    2    0    0  0.21726576274E-02  0.22258190166E-01  0.16130331530E-01  0.10163558261E+01  0.10159817076E+01 0.  0.
     999903    2    3    3    0    0 -0.41753476714E-01 -0.38318637361E-01 -0.10883955598E+00  0.12438243519E+00  0.20329054387E-01 0.  0.
         14    1    1    2    0    0 -0.21726576274E-02 -0.22258190166E-01 -0.16130331530E-01  0.27574173894E-01  0.00000000000E+00 0.  1.
     999901    1    3    3    0    0  0.43926134341E-01  0.60576827527E-01  0.12496988751E+00  0.89197339091E+00  0.88000000000E+00 0.  1.
        -11    1    4    4    0    0 -0.91192900392E-02 -0.12126468729E-01 -0.49463917543E-01  0.51741211373E-01  0.51100000000E-03 0.  1.
         11    1    4    4    0    0 -0.32634186674E-01 -0.26192168632E-01 -0.59375638436E-01  0.72641223821E-01  0.51100000000E-03 0. -1.
</event>
<event>
 8    1  0.1208168E+005  0.1043930E+01  0.7957747E-01            NaN
         13   -1    0    0    0    0  0.00000000000E+00  0.00000000000E+00  0.74505805969E-08  0.10566000000E+00  0.10566000000E+00 0. -1.
     999900   -1    0    0    0    0 -0.00000000000E+00 -0.00000000000E+00 -0.74505805969E-08  0.93827000000E+00  0.93827000000E+00 0. -1.
     999902    2    1    2    0    0 -0.12360484684E-01 -0.17672504030E-01 -0.10023552111E-01  0.10201482722E+01  0.10198710343E+01 0.  0.
     999903    2    3    3    0    0 -0.83021850235E-01  0.88560173517E-01  0.40467892431E-01  0.12951490412E+00  0.20023189603E-01 0.  0.
         14    1    1    2    0    0  0.12360484684E-01  0.17672504030E-01  0.10023552111E-01  0.23781727802E-01  0.00000000000E+00 0. -1.
     999901    1    3    3    0    0  0.70661365551E-01 -0.10623267755E+00 -0.50491444542E-01  0.89063336808E+00  0.88000000000E+00 0.  1.
        -11    1    4    4    0    0 -0.50647336331E-01  0.62414567153E-01  0.34503736184E-01  0.87472851800E-01  0.51100000000E-03 0. -1.
         11    1    4    4    0    0 -0.32374513904E-01  0.26145606364E-01  0.59641562478E-02  0.42042052322E-01  0.51100000000E-03 0.  1.
</event>
<event>
 8    1  0.1208168E+005  0.1043930E+01  0.7957747E-01            NaN
         13   -1    0    0    0    0  0.00000000000E+00  0.00000000000E+00  0.74505805969E-08  0.10566000000E+00  0.10566000000E+00 0.  1.
     999900   -1    0    0    0    0 -0.00000000000E+00 -0.00000000000E+00 -0.74505805969E-08  0.93827000000E+00  0.93827000000E+00 0. -1.
     999902    2    1    2    0    0 -0.25043300693E-01 -0.10838649822E-01 -0.22262927838E-01  0.10087123738E+01  0.10080974020E+01 0.  0.
     999903    2    3    3    0    0  0.12937171836E-01 -0.55703358874E-01 -0.10710720755E+00  0.12267969369E+00  0.17553311107E-01 0.  0.
         14    1    1    2    0    0  0.25043300693E-01  0.10838649822E-01  0.22262927838E-01  0.35217626204E-01  0.00000000000E+00 0.  1.
     999901    1    3    3    0    0 -0.37980472529E-01  0.44864709052E-01  0.84844279710E-01  0.88603268010E+00  0.88000000000E+00 0.  1.
        -11    1    4    4    0    0 -0.18392733860E-02 -0.17966410649E-01 -0.22423219990E-01  0.28796471205E-01  0.51100000000E-03 0.  1.
         11    1    4    4    0    0  0.14776445222E-01 -0.37736948225E-01 -0.84683987558E-01  0.93883222487E-01  0.51100000000E-03 0. -1.
</event>
<event>
 8    1  0.1208168E+005  0.1043930E+01  0.7957747E-01            NaN
         13   -1    0    0    0    0  0.00000000000E+00  0.00000000000E+00  0.74505805969E-08  0.10566000000E+00  0.10566000000E+00 0.  1.
     999900   -1    0    0    0    0 -0.00000000000E+00 -0.00000000000E+00 -0.74505805969E-08  0.93827000000E+00  0.93827000000E+00 0.  1.
     999902    2    1    2    0    0 -0.15603812201E-01  0.16699537147E-01 -0.41162864362E-02  0.10207072243E+01  0.10204430119E+01 0.  0.
     999903    2    3    3    0    0 -0.10068144746E+00 -0.20113290120E-01  0.80329938207E-01  0.13181771874E+00  0.19537494749E-01 0.  0.
         14    1    1    2    0    0  0.15603812201E-01 -0.16699537147E-01  0.41162864362E-02  0.23222775677E-01  0.00000000000E+00 0.  1.
     999901    1    3    3    0    0  0.85077635255E-01  0.36812827267E-01 -0.84446224644E-01  0.88888950558E+00  0.88000000000E+00 0.  1.
        -11    1    4    4    0    0 -0.43263039836E-01 -0.16088972374E-01  0.27771375227E-01  0.53870734643E-01  0.51100000000E-03 0.  1.
         11    1    4    4    0    0 -0.57418407620E-01 -0.40243177461E-02  0.52558562980E-01  0.77946984101E-01  0.51100000000E-03 0. -1.
</event>
<event>
 8    1  0.1208168E+005  0.1043930E+01  0.7957747E-01            NaN
         13   -1    0    0    0    0  0.00000000000E+00  0.00000000000E+00  0.74505805969E-08  0.10566000000E+00  0.10566000000E+00 0.  1.
     999900   -1    0    0    0    0 -0.00000000000E+00 -0.00000000000E+00 -0.74505805969E-08  0.93827000000E+00  0.93827000000E+00 0.  1.
     999902    2    1    2    0    0 -0.21347774439E-01 -0.92231282187E-02  0.38947048919E-02  0.10203511473E+01  0.10200786742E+01 0.  0.
     999903    2    3    3    0    0 -0.91177498131E-01 -0.93436056783E-02  0.94211492258E-01  0.13297674668E+00  0.20158639626E-01 0.  0.
         14    1    1    2    0    0  0.21347774439E-01  0.92231282187E-02 -0.38947048919E-02  0.23578852683E-01  0.00000000000E+00 0. -1.
     999901    1    3    3    0    0  0.69829723692E-01  0.12047745957E-03 -0.90316787367E-01  0.88737440064E+00  0.88000000000E+00 0.  1.
        -11    1    4    4    0    0 -0.34367224655E-01 -0.13393057340E-01  0.37290116983E-01  0.52452779345E-01  0.51100000000E-03 0.  1.
         11    1    4    4    0    0 -0.56810273476E-01  0.40494516614E-02  0.56921375275E-01  0.80523967335E-01  0.51100000000E-03 0. -1.
</event>
<event>
 8    1  0.1208168E+005  0.1043930E+01  0.7957747E-01            NaN
         13   -1    0    0    0    0  0.00000000000E+00  0.00000000000E+00  0.74505805969E-08  0.10566000000E+00  0.10566000000E+00 0. -1.
     999900   -1    0    0    0    0 -0.00000000000E+00 -0.00000000000E+00 -0.74505805969E-08  0.93827000000E+00  0.93827000000E+00 0.  1.
     999902    2    1    2    0    0 -0.21550273285E-01 -0.12839739804E-02 -0.87370772108E-02  0.10206405306E+01  0.10203747808E+01 0.  0.
     999903    2    3    3    0    0 -0.96307232822E-01 -0.88824483934E-01 -0.13063670969E-01  0.13313241045E+00  0.19715658048E-01 0.  0.
         14    1    1    2    0    0  0.21550273285E-01  0.12839739804E-02  0.87370772108E-02  0.23289469424E-01  0.00000000000E+00 0. -1.
     999901    1    3    3    0    0  0.74756959537E-01  0.87540509953E-01  0.43265937581E-02  0.88750812013E+00  0.88000000000E+00 0.  1.
        -11    1    4    4    0    0 -0.36585860926E-01 -0.46005273923E-01 -0.96277468325E-02  0.59564797309E-01  0.51100000000E-03 0. -1.
         11    1    4    4    0    0 -0.59721371896E-01 -0.42819210011E-01 -0.34359241364E-02  0.73567613138E-01  0.51100000000E-03 0.  1.
</event>
<event>
 8    1  0.1208168E+005  0.1043930E+01  0.7957747E-01            NaN
         13   -1    0    0    0    0  0.00000000000E+00  0.00000000000E+00  0.74505805969E-08  0.10566000000E+00  0.10566000000E+00 0.  1.
     999900   -1    0    0    0    0 -0.00000000000E+00 -0.00000000000E+00 -0.74505805969E-08  0.93827000000E+00  0.93827000000E+00 0. -1.
     999902    2    1    2    0    0  0.57344959416E-03  0.20266024428E-01  0.11877744690E-01  0.10204327361E+01  0.10201621673E+01 0.  0.
     999903    2    3    3    0    0  0.30981436591E-01  0.83793804702E-01  0.97036736669E-01  0.13352097138E+00  0.20747780951E-01 0.  0.
         14    1    1    2    0    0 -0.57344959416E-03 -0.20266024428E-01 -0.11877744690E-01  0.23497263872E-01  0.00000000000E+00 0. -1.
     999901    1    3    3    0    0 -0.30407986997E-01 -0.63527780274E-01 -0.85158991979E-01  0.88691176475E+00  0.88000000000E+00 0.  1.
        -11    1    4    4    0    0  0.21293860799E-01  0.51149636234E-01  0.73838713047E-01  0.92315385825E-01  0.51100000000E-03 0. -1.
         11    1    4    4    0    0  0.96875757921E-02  0.32644168468E-01  0.23198023622E-01  0.41205585552E-01  0.51100000000E-03 0.  1.
</event>
<event>
 8    1  0.1208168E+005  0.1043930E+01  0.7957747E-01            NaN
         13   -1    0    0    0    0  0.00000000000E+00  0.00000000000E+00  0.74505805969E-08  0.10566000000E+00  0.10566000000E+00 0.  1.
     999900   -1    0    0    0    0 -0.00000000000E+00 -0.00000000000E+00 -0.74505805969E-08  0.93827000000E+00  0.93827000000E+00 0. -1.
     999902    2    1    2    0    0 -0.71550150844E-02  0.22249574669E-01 -0.62825750705E-02  0.10197285834E+01  0.10194413545E+01 0.  0.
     999903    2    3    3    0    0 -0.12353185380E+00 -0.12536879044E-01  0.35841012543E-01  0.13038721896E+00  0.17290357075E-01 0.  0.
         14    1    1    2    0    0  0.71550150844E-02 -0.22249574669E-01  0.62825750705E-02  0.24201416557E-01  0.00000000000E+00 0.  1.
     999901    1    3    3    0    0  0.11637683872E+00  0.34786453714E-01 -0.42123587614E-01  0.88934136449E+00  0.88000000000E+00 0. -1.
        -11    1    4    4    0    0 -0.43469106268E-01 -0.11931486246E-01  0.16618560048E-01  0.48045407927E-01  0.51100000000E-03 0.  1.
         11    1    4    4    0    0 -0.80062747533E-01 -0.60539279867E-03  0.19222452495E-01  0.82341811031E-01  0.51100000000E-03 0. -1.
</event>
<event>
 8    1  0.1208168E+005  0.1043930E+01  0.7957747E-01            NaN
         13   -1    0    0    0    0  0.00000000000E+00  0.00000000000E+00  0.74505805969E-08  0.10566000000E+00  0.10566000000E+00 0. -1.
     999900   -1    0    0    0    0 -0.00000000000E+00 -0.00000000000E+00 -0.74505805969E-08  0.93827000000E+00  0.93827000000E+00 0. -1.
     999902    2    1    2    0    0 -0.47495153776E-02  0.15367813863E-01  0.18513808389E-01  0.10194047334E+01  0.10191096712E+01 0.  0.
     999903    2    3    3    0    0 -0.26369733562E-01  0.53086742216E-01  0.11699255837E+00  0.13284496918E+00  0.21141477623E-01 0.  0.
         14    1    1    2    0    0  0.47495153776E-02 -0.15367813863E-01 -0.18513808389E-01  0.24525266570E-01  0.00000000000E+00 0.  1.
     999901    1    3    3    0    0  0.21620218185E-01 -0.37718928353E-01 -0.98478749978E-01  0.88655976425E+00  0.88000000000E+00 0. -1.
        -11    1    4    4    0    0 -0.23667829519E-01  0.34484704492E-01  0.62555618565E-01  0.75251760997E-01  0.51100000000E-03 0.  1.
         11    1    4    4    0    0 -0.27019040436E-02  0.18602037725E-01  0.54436939801E-01  0.57593208183E-01  0.51100000000E-03 0. -1.
</event>
<event>
 8    1  0.1208168E+005  0.1043930E+01  0.7957747E-01            NaN
         13   -1    0    0    0    0  0.00000000000E+00  0.00000000000E+00  0.74505805969E-08  0.10566000000E+00  0.10566000000E+00 0. -1.
     999900   -1    0    0    0    0 -0.00000000000E+00 -0.00000000000E+00 -0.74505805969E-08  0.93827000000E+00  0.93827000000E+00 0. -1.
     999902    2    1    2    0    0 -0.18689702642E-01 -0.12875345695E-01  0.72163458113E-02  0.10201149804E+01  0.10198369566E+01 0.  0.
     999903    2    3    3    0    0 -0.48364787864E-01 -0.71682466409E-01 -0.97039251619E-01  0.13151601702E+00  0.20057858362E-01 0.  0.
         14    1    1    2    0    0  0.18689702642E-01  0.12875345695E-01 -0.72163458113E-02  0.23815019599E-01  0.00000000000E+00 0. -1.
     999901    1    3    3    0    0  0.29675085223E-01  0.58807120714E-01  0.10425559743E+00  0.88859896338E+00  0.88000000000E+00 0.  1.
        -11    1    4    4    0    0 -0.20728764536E-01 -0.14747892393E-01 -0.29491528544E-01  0.38951166685E-01  0.51100000000E-03 0.  1.
         11    1    4    4    0    0 -0.27636023328E-01 -0.56934574016E-01 -0.67547723075E-01  0.92564850334E-01  0.51100000000E-03 0. -1.
</event>
<event>
 8    1  0.1208168E+005  0.1043930E+01  0.7957747E-01            NaN
         13   -1    0    0    0    0  0.00000000000E+00  0.00000000000E+00  0.74505805969E-08  0.10566000000E+00  0.10566000000E+00 0. -1.
     999900   -1    0    0    0    0 -0.00000000000E+00 -0.00000000000E+00 -0.74505805969E-08  0.93827000000E+00  0.93827000000E+00 0.  1.
     999902    2    1    2    0    0  0.56118113876E-02 -0.87348632637E-02  0.21248353498E-01  0.10202808396E+01  0.10200067200E+01 0.  0.
     999903    2    3    3    0    0  0.78094573484E-01  0.63343312023E-01  0.83461047225E-01  0.13218206498E+00  0.19879997773E-01 0.  0.
         14    1    1    2    0    0 -0.56118113876E-02  0.87348632637E-02 -0.21248353498E-01  0.23649160443E-01  0.00000000000E+00 0.  1.
     999901    1    3    3    0    0 -0.72482762097E-01 -0.72078175287E-01 -0.62212693727E-01  0.88809877458E+00  0.88000000000E+00 0.  1.
        -11    1    4    4    0    0  0.30348930593E-03  0.49114135204E-02  0.62704641962E-02  0.79871102886E-02  0.51100000000E-03 0. -1.
         11    1    4    4    0    0  0.77791084178E-01  0.58431898503E-01  0.77190583029E-01  0.12419495469E+00  0.51100000000E-03 0.  1.
</event>
<event>
 8    1  0.1208168E+005  0.1043930E+01  0.7957747E-01            NaN
         13   -1    0    0    0    0  0.00000000000E+00  0.00000000000E+00  0.74505805969E-08  0.10566000000E+00  0.10566000000E+00 0. -1.
     999900   -1    0    0    0    0 -0.00000000000E+00 -0.00000000000E+00 -0.74505805969E-08  0.93827000000E+00  0.93827000000E+00 0.  1.
     999902    2    1    2    0    0  0.12817111021E-01 -0.21314776285E-02 -0.19526457684E-01  0.10204757023E+01  0.10202061335E+01 0.  0.
     999903    2    3    3    0    0 -0.33638267138E-01 -0.12443322662E+00 -0.72531606907E-02  0.13071930091E+00  0.20488201181E-01 0.  0.
         14    1    1    2    0    0 -0.12817111021E-01  0.21314776285E-02  0.19526457684E-01  0.23454297719E-01  0.00000000000E+00 0. -1.
     999901    1    3    3    0    0  0.46455378160E-01  0.12230174899E+00 -0.12273296993E-01  0.88975640137E+00  0.88000000000E+00 0.  1.
        -11    1    4    4    0    0 -0.21289886512E-01 -0.87365962985E-01 -0.14184674130E-01  0.91035909712E-01  0.51100000000E-03 0. -1.
         11    1    4    4    0    0 -0.12348380626E-01 -0.37067263631E-01  0.69315134397E-02  0.39683391195E-01  0.51100000000E-03 0.  1.
</event>
<event>
 8    1  0.1208168E+005  0.1043930E+01  0.7957747E-01            NaN
         13   -1    0    0    0    0  0.00000000000E+00  0.00000000000E+00  0.74505805969E-08  0.10566000000E+00  0.10566000000E+00 0.  1.
     999900   -1    0    0    0    0 -0.00000000000E+00 -0.00000000000E+00 -0.74505805969E-08  0.93827000000E+00  0.93827000000E+00 0.  1.
     999902    2    1    2    0    0 -0.16004011718E-01 -0.13062054562E-01  0.10821589198E-01  0.10206093556E+01  0.10203428857E+01 0.  0.
     999903    2    3    3    0    0  0.33151407183E-01  0.55541941232E-02  0.12566516034E+00  0.13159199600E+00  0.19870984253E-01 0.  0.
         14    1    1    2    0    0  0.16004011718E-01  0.13062054562E-01 -0.10821589198E-01  0.23320644356E-01  0.00000000000E+00 0. -1.
     999901    1    3    3    0    0 -0.49155418900E-01 -0.18616248685E-01 -0.11484357115E+00  0.88901735965E+00  0.88000000000E+00 0.  1.
        -11    1    4    4    0    0  0.33857997415E-01  0.62007587016E-02  0.97374738617E-01  0.10328075445E+00  0.51100000000E-03 0.  1.
         11    1    4    4    0    0 -0.70659023219E-03 -0.64656457837E-03  0.28290421727E-01  0.28311241549E-01  0.51100000000E-03 0. -1.
</event>
<event>
 8    1  0.1208168E+005  0.1043930E+01  0.7957747E-01            NaN
         13   -1    0    0    0    0  0.00000000000E+00  0.00000000000E+00  0.74505805969E-08  0.10566000000E+00  0.10566000000E+00 0.  1.
     999900   -1    0    0    0    0 -0.00000000000E+00 -0.00000000000E+00 -0.74505805969E-08  0.93827000000E+00  0.93827000000E+00 0. -1.
     999902    2    1    2    0    0  0.18570087687E-01 -0.30772174148E-02 -0.13490937733E-01  0.10207713553E+01  0.10205086168E+01 0.  0.
     999903    2    3    3    0    0 -0.43864907974E-01  0.87464910922E-01  0.81355308034E-01  0.12886787620E+00  0.20347053258E-01 0.  0.
         14    1    1    2    0    0 -0.18570087687E-01  0.30772174148E-02  0.13490937733E-01  0.23158644707E-01  0.00000000000E+00 0.  1.
     999901    1    3    3    0    0  0.62434995661E-01 -0.90542128336E-01 -0.94846245767E-01  0.89190347910E+00  0.88000000000E+00 0. -1.
        -11    1    4    4    0    0 -0.37728257541E-01  0.65734076713E-01  0.71598720859E-01  0.10426422305E+00  0.51100000000E-03 0. -1.
         11    1    4    4    0    0 -0.61366504328E-02  0.21730834209E-01  0.97565871747E-02  0.24603653148E-01  0.51100000000E-03 0.  1.
</event>
<event>
 8    1  0.1208168E+005  0.1043930E+01  0.7957747E-01            NaN
         13   -1    0    0    0    0  0.00000000000E+00  0.00000000000E+00  0.74505805969E-08  0.10566000000E+00  0.10566000000E+00 0.  1.
     999900   -1    0    0    0    0 -0.00000000000E+00 -0.00000000000E+00 -0.74505805969E-08  0.93827000000E+00  0.93827000000E+00 0.  1.
     999902    2    1    2    0    0  0.65583873351E-02 -0.24061153086E-01 -0.75172973742E-03  0.10189797168E+01  0.10186742103E+01 0.  0.
     999903    2    3    3    0    0 -0.50801737138E-02  0.45645181473E-01  0.11806652362E+00  0.12818669570E+00  0.19566149264E-01 0.  0.
         14    1    1    2    0    0 -0.65583873351E-02  0.24061153086E-01  0.75172973742E-03  0.24950283162E-01  0.00000000000E+00 0.  1.
     999901    1    3    3    0    0  0.11638561049E-01 -0.69706334559E-01 -0.11881825336E+00  0.89079302114E+00  0.88000000000E+00 0.  1.
        -11    1    4    4    0    0  0.49927721497E-02  0.19476309265E-01  0.66654010170E-01  0.69622356963E-01  0.51100000000E-03 0. -1.
         11    1    4    4    0    0 -0.10072945863E-01  0.26168872207E-01  0.51412513452E-01  0.58564338735E-01  0.51100000000E-03 0.  1.
</event>
<event>
 8    1  0.1208168E+005  0.1043930E+01  0.7957747E-01            NaN
         13   -1    0    0    0    0  0.00000000000E+00  0.00000000000E+00  0.74505805969E-08  0.10566000000E+00  0.10566000000E+00 0. -1.
     999900   -1    0    0    0    0 -0.00000000000E+00 -0.00000000000E+00 -0.74505805969E-08  0.93827000000E+00  0.93827000000E+00 0. -1.
     999902    2    1    2    0    0  0.67879616107E-02  0.29801535349E-03  0.26083212450E-01  0.10169763508E+01  0.10166191021E+01 0.  0.
     999903    2    3    3    0    0 -0.89460726200E-01 -0.18745800402E-01 -0.82679116812E-01  0.12486889025E+00  0.20044371530E-01 0.  0.
         14    1    1    2    0    0 -0.67879616107E-02 -0.29801535349E-03 -0.26083212450E-01  0.26953649246E-01  0.00000000000E+00 0.  1.
     999901    1    3    3    0    0  0.96248687811E-01  0.19043815756E-01  0.10876232926E+00  0.89210746051E+00  0.88000000000E+00 0.  1.
        -11    1    4    4    0    0 -0.42158434634E-01 -0.53630181909E-02 -0.50984517021E-01  0.66376032359E-01  0.51100000000E-03 0. -1.
         11    1    4    4    0    0 -0.47302291566E-01 -0.13382782211E-01 -0.31694599792E-01  0.58492857889E-01  0.51100000000E-03 0.  1.
</event>
<event>
 8    1  0.1208168E+005  0.1043930E+01  0.7957747E-01            NaN
         13   -1    0    0    0    0  0.00000000000E+00  0.00000000000E+00  0.74505805969E-08  0.10566000000E+00  0.10566000000E+00 0.  1.
     999900   -1    0    0    0    0 -0.00000000000E+00 -0.00000000000E+00 -0.74505805969E-08  0.93827000000E+00  0.93827000000E+00 0.  1.
     999902    2    1    2    0    0  0.11582507361E-02 -0.18089597881E-01  0.14953211509E-01  0.10204316249E+01  0.10201610302E+01 0.  0.
     999903    2    3    3    0    0 -0.64075435171E-01  0.59956247581E-01 -0.90945579301E-01  0.12826508125E+00  0.21918477548E-01 0.  0.
         14    1    1    2    0    0 -0.11582507361E-02  0.18089597881E-01 -0.14953211509E-01  0.23498375065E-01  0.00000000000E+00 0.  1.
     999901    1    3    3    0    0  0.65233685907E-01 -0.78045845462E-01  0.10589879081E+00  0.89216654368E+00  0.88000000000E+00 0.  1.
        -11    1    4    4    0    0 -0.51500286398E-01  0.57889129113E-01 -0.80992715015E-01  0.11208707229E+00  0.51100000000E-03 0. -1.
         11    1    4    4    0    0 -0.12575148773E-01  0.20671184675E-02 -0.99528642864E-02  0.16178008961E-01  0.51100000000E-03 0.  1.
</event>
<event>
 8    1  0.1208168E+005  0.1043930E+01  0.7957747E-01            NaN
         13   -1    0    0    0    0  0.00000000000E+00  0.00000000000E+00  0.74505805969E-08  0.10566000000E+00  0.10566000000E+00 0. -1.
     999900   -1    0    0    0    0 -0.00000000000E+00 -0.00000000000E+00 -0.74505805969E-08  0.93827000000E+00  0.93827000000E+00 0. -1.
     999902    2    1    2    0    0 -0.16945935115E-01 -0.16484509910E-01 -0.10556049365E-02  0.10202652987E+01  0.10199908145E+01 0.  0.
     999903    2    3    3    0    0  0.11713470153E+00 -0.12434326929E-01  0.47983120348E-01  0.12875039832E+00  0.19978349274E-01 0.  0.
         14    1    1    2    0    0  0.16945935115E-01  0.16484509910E-01  0.10556049365E-02  0.23664701258E-01  0.00000000000E+00 0.  1.
     999901    1    3    3    0    0 -0.13408063664E+00 -0.40501829807E-02 -0.49038725284E-01  0.89151490043E+00  0.88000000000E+00 0.  1.
        -11    1    4    4    0    0  0.43708671453E-01 -0.11601616861E-01  0.11060936534E-01  0.46558038103E-01  0.51100000000E-03 0. -1.
         11    1    4    4    0    0  0.73426030075E-01 -0.83271006755E-03  0.36922183814E-01  0.82192360212E-01  0.51100000000E-03 0.  1.
</event>
<event>
 8    1  0.1208168E+005  0.1043930E+01  0.7957747E-01            NaN
         13   -1    0    0    0    0  0.00000000000E+00  0.00000000000E+00  0.74505805969E-08  0.10566000000E+00  0.10566000000E+00 0.  1.
     999900   -1    0    0    0    0 -0.00000000000E+00 -0.00000000000E+00 -0.74505805969E-08  0.93827000000E+00  0.93827000000E+00 0. -1.
     999902    2    1    2    0    0  0.19127850869E-01 -0.40855674047E-02  0.14515089202E-01  0.10195731867E+01  0.10192822125E+01 0.  0.
     999903    2    3    3    0    0  0.88240963564E-01  0.79538561907E-01  0.54089001252E-01  0.13202842058E+00  0.19825067523E-01 0.  0.
         14    1    1    2    0    0 -0.19127850869E-01  0.40855674047E-02 -0.14515089202E-01  0.24356813306E-01  0.00000000000E+00 0. -1.
     999901    1    3    3    0    0 -0.69113112696E-01 -0.83624129312E-01 -0.39573912049E-01  0.88754476612E+00  0.88000000000E+00 0. -1.
        -11    1    4    4    0    0  0.77397896943E-01  0.67116337398E-01  0.38835837554E-01  0.10956057957E+00  0.51100000000E-03 0. -1.
         11    1    4    4    0    0  0.10843066621E-01  0.12422224509E-01  0.15253163698E-01  0.22467841002E-01  0.51100000000E-03 0.  1.
</event>
<event>
 8    1  0.1208168E+005  0.1043930E+01  0.7957747E-01            NaN
         13   -1    0    0    0    0  0.00000000000E+00  0.00000000000E+00  0.74505805969E-08  0.10566000000E+00  0.10566000000E+00 0.  1.
     999900   -1    0    0    0    0 -0.00000000000E+00 -0.00000000000E+00 -0.74505805969E-08  0.93827000000E+00  0.93827000000E+00 0. -1.
     999902    2    1    2    0    0  0.52086737246E-02  0.22009542050E-01  0.57119085430E-02  0.10206024171E+01  0.10203357868E+01 0.  0.
     999903    2    3    3    0    0  0.91512407205E-02  0.12739208644E+00  0.33463498634E-01  0.13387180683E+00  0.22121619063E-01 0.  0.
         14    1    1    2    0    0 -0.52086737246E-02 -0.22009542050E-01 -0.57119085430E-02  0.23327582867E-01  0.00000000000E+00 0.  1.
     999901    1    3    3    0    0 -0.39425669959E-02 -0.10538254439E+00 -0.27751590091E-01  0.88673061030E+00  0.88000000000E+00 0.  1.
        -11    1    4    4    0    0  0.85247537188E-02  0.71811146891E-01  0.29633597203E-01  0.78153204976E-01  0.51100000000E-03 0. -1.
         11    1    4    4    0    0  0.62648700170E-03  0.55580939545E-01  0.38299014305E-02  0.55718601854E-01  0.51100000000E-03 0.  1.
</event>
<event>
 8    1  0.1208168E+005  0.1043930E+01  0.7957747E-01            NaN
         13   -1    0    0    0    0  0.00000000000E+00  0.00000000000E+00  0.74505805969E-08  0.10566000000E+00  0.10566000000E+00 0. -1.
     999900   -1    0    0    0    0 -0.00000000000E+00 -0.00000000000E+00 -0.74505805969E-08  0.93827000000E+00  0.93827000000E+00 0. -1.
     999902    2    1    2    0    0 -0.97553587287E-02 -0.11974737608E-01  0.18359364104E-01  0.10199377593E+01  0.10196555326E+01 0.  0.
     999903    2    3    3    0    0 -0.12548695736E+00 -0.29277342320E-01 -0.16538725913E-01  0.13150596125E+00  0.20399734029E-01 0.  0.
         14    1    1    2    0    0  0.97553587287E-02  0.11974737608E-01 -0.18359364104E-01  0.23992240725E-01  0.00000000000E+00 0.  1.
     999901    1    3    3    0    0  0.11573159863E+00  0.17302604711E-01  0.34898090016E-01  0.88843179802E+00  0.88000000000E+00 0.  1.
        -11    1    4    4    0    0 -0.72796321663E-01 -0.17281339585E-01  0.56260055633E-03  0.74823303763E-01  0.51100000000E-03 0.  1.
         11    1    4    4    0    0 -0.52690635700E-01 -0.11996002734E-01 -0.17101326469E-01  0.56682657489E-01  0.51100000000E-03 0. -1.
</event>
<event>
 8    1  0.1208168E+005  0.1043930E+01  0.7957747E-01            NaN
         13   -1    0    0    0    0  0.00000000000E+00  0.00000000000E+00  0.74505805969E-08  0.10566000000E+00  0.10566000000E+00 0. -1.
     999900   -1    0    0    0    0 -0.00000000000E+00 -0.00000000000E+00 -0.74505805969E-08  0.93827000000E+00  0.93827000000E+00 0.  1.
     999902    2    1    2    0    0  0.13792299093E-01  0.18565848673E-01  0.52231805270E-02  0.10202192458E+01  0.10199436796E+01 0.  0.
     999903    2    3    3    0    0 -0.34820189293E-01  0.12408786302E+00  0.22994316651E-01  0.13240514202E+00  0.19802517655E-01 0.  0.
         14    1    1    2    0    0 -0.13792299093E-01 -0.18565848673E-01 -0.52231805270E-02  0.23710754227E-01  0.00000000000E+00 0. -1.
     999901    1    3    3    0    0  0.48612488386E-01 -0.10552201434E+00 -0.17771136124E-01  0.88781410375E+00  0.88000000000E+00 0.  1.
        -11    1    4    4    0    0 -0.35311354212E-01  0.11328683268E+00  0.16561865342E-01  0.11981383351E+00  0.51100000000E-03 0.  1.
         11    1    4    4    0    0  0.49116491899E-03  0.10801030335E-01  0.64324513091E-02  0.12591308515E-01  0.51100000000E-03 0. -1.
</event>
<event>
 7    1  0.1208168E+005  0.1043930E+01  0.7957747E-01            NaN
         13   -1    0    0    0    0  0.00000000000E+00  0.00000000000E+00  0.74505805969E-08  0.10566000000E+00  0.10566000000E+00 0. -1.
     999900   -1    0    0    0    0 -0.00000000000E+00 -0.00000000000E+00 -0.74505805969E-08  0.93827000000E+00  0.93827000000E+00 0.  1.
     999902    2    1    2    0    0  0.18110410196E-01 -0.12803503224E-01  0.37062333605E-02  0.10214432746E+01  0.10211957258E+01 0.  0.
         14    1    1    2    0    0 -0.18110410196E-01  0.12803503224E-01 -0.37062333605E-02  0.22486725373E-01  0.00000000000E+00 0.  1.
     999901    1    3    3    0    0  0.11416914983E+00  0.18823156309E-01  0.64575226497E-01  0.88992070763E+00  0.88000000000E+00 0. -1.
        -11    1    3    3    0    0 -0.52821944695E-01  0.76887831427E-02 -0.47762639084E-01  0.71629644987E-01  0.51100000000E-03 0. -1.
         11    1    3    3    0    0 -0.43236794943E-01 -0.39315442675E-01 -0.13106354053E-01  0.59892922013E-01  0.51100000000E-03 0.  1.
</event>
<event>
 8    1  0.1208168E+005  0.1043930E+01  0.7957747E-01            NaN
         13   -1    0    0    0    0  0.00000000000E+00  0.00000000000E+00  0.74505805969E-08  0.10566000000E+00  0.10566000000E+00 0.  1.
     999900   -1    0    0    0    0 -0.00000000000E+00 -0.00000000000E+00 -0.74505805969E-08  0.93827000000E+00  0.93827000000E+00 0. -1.
     999902    2    1    2    0    0 -0.40753722952E-02  0.14023649416E-01 -0.24589755081E-01  0.10153305689E+01  0.10149277003E+01 0.  0.
     999903    2    3    3    0    0  0.36364041210E-01  0.11592822646E+00 -0.35821728834E-01  0.12845625641E+00  0.21356881102E-01 0.  0.
         14    1    1    2    0    0  0.40753722952E-02 -0.14023649416E-01  0.24589755081E-01  0.28599431065E-01  0.00000000000E+00 0.  1.
     999901    1    3    3    0    0 -0.40439413505E-01 -0.10190457704E+00  0.11231973753E-01  0.88687431253E+00  0.88000000000E+00 0. -1.
        -11    1    4    4    0    0  0.30799768797E-01  0.86113605125E-01 -0.17801580770E-01  0.93173688048E-01  0.51100000000E-03 0.  1.
         11    1    4    4    0    0  0.55642724132E-02  0.29814621335E-01 -0.18020148063E-01  0.35282568359E-01  0.51100000000E-03 0. -1.
</event>
<event>
 8    1  0.1208168E+005  0.1043930E+01  0.7957747E-01            NaN
         13   -1    0    0    0    0  0.00000000000E+00  0.00000000000E+00  0.74505805969E-08  0.10566000000E+00  0.10566000000E+00 0.  1.
     999900   -1    0    0    0    0 -0.00000000000E+00 -0.00000000000E+00 -0.74505805969E-08  0.93827000000E+00  0.93827000000E+00 0. -1.
     999902    2    1    2    0    0  0.12154462560E-02  0.24070917920E-01  0.38853111603E-03  0.10198252835E+01  0.10195403727E+01 0.  0.
     999903    2    3    3    0    0 -0.61279073796E-01  0.11568271406E+00 -0.94338604264E-02  0.13281075964E+00  0.20299875271E-01 0.  0.
         14    1    1    2    0    0 -0.12154462560E-02 -0.24070917920E-01 -0.38853111603E-03  0.24104716459E-01  0.00000000000E+00 0. -1.
     999901    1    3    3    0    0  0.62494520051E-01 -0.91611796145E-01  0.98223915424E-02  0.88701452390E+00  0.88000000000E+00 0.  1.
        -11    1    4    4    0    0 -0.38888823030E-01  0.86025693356E-01  0.23898371991E-03  0.94409102888E-01  0.51100000000E-03 0.  1.
         11    1    4    4    0    0 -0.22390250766E-01  0.29657020709E-01 -0.96728441463E-02  0.38401656756E-01  0.51100000000E-03 0. -1.
</event>
<event>
 8    1  0.1208168E+005  0.1043930E+01  0.7957747E-01            NaN
         13   -1    0    0    0    0  0.00000000000E+00  0.00000000000E+00  0.74505805969E-08  0.10566000000E+00  0.10566000000E+00 0.  1.
     999900   -1    0    0    0    0 -0.00000000000E+00 -0.00000000000E+00 -0.74505805969E-08  0.93827000000E+00  0.93827000000E+00 0. -1.
     999902    2    1    2    0    0 -0.16158333129E-01 -0.11336743295E-01  0.12230558359E-01  0.10207093188E+01  0.10204451545E+01 0.  0.
     999903    2    3    3    0    0 -0.88818274107E-01 -0.34229108850E-01 -0.88855807368E-01  0.13165252603E+00  0.19409157591E-01 0.  0.
         14    1    1    2    0    0  0.16158333129E-01  0.11336743295E-01 -0.12230558359E-01  0.23220681209E-01  0.00000000000E+00 0.  1.
     999901    1    3    3    0    0  0.72659940978E-01  0.22892365555E-01  0.10108636573E+00  0.88905679276E+00  0.88000000000E+00 0.  1.
        -11    1    4    4    0    0 -0.54515472789E-01 -0.13883055736E-01 -0.61126313235E-01  0.83074444329E-01  0.51100000000E-03 0. -1.
         11    1    4    4    0    0 -0.34302801318E-01 -0.20346053114E-01 -0.27729494133E-01  0.48578081698E-01  0.51100000000E-03 0.  1.
</event>
<event>
 8    1  0.1208168E+005  0.1043930E+01  0.7957747E-01            NaN
         13   -1    0    0    0    0  0.00000000000E+00  0.00000000000E+00  0.74505805969E-08  0.10566000000E+00  0.10566000000E+00 0.  1.
     999900   -1    0    0    0    0 -0.00000000000E+00 -0.00000000000E+00 -0.74505805969E-08  0.93827000000E+00  0.93827000000E+00 0.  1.
     999902    2    1    2    0    0 -0.24924529730E-02 -0.31309192782E-01  0.46942887501E-02  0.10121728871E+01  0.10116745717E+01 0.  0.
     999903    2    3    3    0    0 -0.10986264975E-01 -0.11958723269E+00 -0.33822806097E-01  0.12687704739E+00  0.23065097045E-01 0.  0.
         14    1    1    2    0    0  0.24924529730E-02  0.31309192782E-01 -0.46942887501E-02  0.31757112925E-01  0.00000000000E+00 0. -1.
     999901    1    3    3    0    0  0.84938120022E-02  0.88278039905E-01  0.38517094847E-01  0.88529583969E+00  0.88000000000E+00 0. -1.
        -11    1    4    4    0    0 -0.10433126676E-02 -0.54950185763E-01 -0.26658751963E-01  0.61086509099E-01  0.51100000000E-03 0. -1.
         11    1    4    4    0    0 -0.99429523076E-02 -0.64637046924E-01 -0.71640541340E-02  0.65790538289E-01  0.51100000000E-03 0.  1.
</event>
<event>
 8    1  0.1208168E+005  0.1043930E+01  0.7957747E-01            NaN
         13   -1    0    0    0    0  0.00000000000E+00  0.00000000000E+00  0.74505805969E-08  0.10566000000E+00  0.10566000000E+00 0. -1.
     999900   -1    0    0    0    0 -0.00000000000E+00 -0.00000000000E+00 -0.74505805969E-08  0.93827000000E+00  0.93827000000E+00 0. -1.
     999902    2    1    2    0    0 -0.10007176917E-01 -0.22496820934E-01 -0.21253549991E-02  0.10192162857E+01  0.10189166155E+01 0.  0.
     999903    2    3    3    0    0 -0.52901882687E-02 -0.11891317385E+00 -0.54466645172E-01  0.13239162784E+00  0.19814102990E-01 0.  0.
         14    1    1    2    0    0  0.10007176917E-01  0.22496820934E-01  0.21253549991E-02  0.24713714327E-01  0.00000000000E+00 0.  1.
     999901    1    3    3    0    0 -0.47169886479E-02  0.96416352917E-01  0.52341290173E-01  0.88682465784E+00  0.88000000000E+00 0.  1.
        -11    1    4    4    0    0  0.56939367098E-02 -0.41886556867E-01 -0.25481315721E-01  0.49360542272E-01  0.51100000000E-03 0. -1.
         11    1    4    4    0    0 -0.10984124978E-01 -0.77026616984E-01 -0.28985329450E-01  0.83031085563E-01  0.51100000000E-03 0.  1.
</event>
<event>
 8    1  0.1208168E+005  0.1043930E+01  0.7957747E-01            NaN
         13   -1    0    0    0    0  0.00000000000E+00  0.00000000000E+00  0.74505805969E-08  0.10566000000E+00  0.10566000000E+00 0.  1.
     999900   -1    0    0    0    0 -0.00000000000E+00 -0.00000000000E+00 -0.74505805969E-08  0.93827000000E+00  0.93827000000E+00 0. -1.
     999902    2    1    2    0    0 -0.20541308015E-01 -0.11293864770E-01 -0.20955518287E-02  0.10203951736E+01  0.10201237289E+01 0.  0.
     999903    2    3    3    0    0 -0.19114812010E-01 -0.99961941688E-01 -0.82184499266E-01  0.13231955617E+00  0.19909977458E-01 0.  0.
         14    1    1    2    0    0  0.20541308015E-01  0.11293864770E-01  0.20955518287E-02  0.23534826405E-01  0.00000000000E+00 0. -1.
     999901    1    3    3    0    0 -0.14264960057E-02  0.88668076919E-01  0.80088947437E-01  0.88807561742E+00  0.88000000000E+00 0.  1.
        -11    1    4    4    0    0 -0.76740757593E-02 -0.12965195267E-01 -0.64035896170E-02  0.16378486134E-01  0.51100000000E-03 0.  1.
         11    1    4    4    0    0 -0.11440736250E-01 -0.86996746422E-01 -0.75780909649E-01  0.11594107004E+00  0.51100000000E-03 0. -1.
</event>
<event>
 8    1  0.1208168E+005  0.1043930E+01  0.7957747E-01            NaN
         13   -1    0    0    0    0  0.00000000000E+00  0.00000000000E+00  0.74505805969E-08  0.10566000000E+00  0.10566000000E+00 0. -1.
     999900   -1    0    0    0    0 -0.00000000000E+00 -0.00000000000E+00 -0.74505805969E-08  0.93827000000E+00  0.93827000000E+00 0.  1.
     999902    2    1    2    0    0  0.15738190181E-01  0.16506851302E-01 -0.64867619219E-02  0.10202182972E+01  0.10199427087E+01 0.  0.
     999903    2    3    3    0    0  0.28057002544E-01 -0.94052564763E-01  0.81105929797E-01  0.12890038686E+00  0.20101182932E-01 0.  0.
         14    1    1    2    0    0 -0.15738190181E-01 -0.16506851302E-01  0.64867619219E-02  0.23711702814E-01  0.00000000000E+00 0.  1.
     999901    1    3    3    0    0 -0.12318812362E-01  0.11055941606E+00 -0.87592691719E-01  0.89131791032E+00  0.88000000000E+00 0.  1.
        -11    1    4    4    0    0  0.13482837338E-01 -0.49673795657E-01  0.55235754666E-01  0.75501805225E-01  0.51100000000E-03 0.  1.
         11    1    4    4    0    0  0.14574165206E-01 -0.44378769106E-01  0.25870175131E-01  0.53398581639E-01  0.51100000000E-03 0. -1.
</event>
<event>
 8    1  0.1208168E+005  0.1043930E+01  0.7957747E-01            NaN
         13   -1    0    0    0    0  0.00000000000E+00  0.00000000000E+00  0.74505805969E-08  0.10566000000E+00  0.10566000000E+00 0. -1.
     999900   -1    0    0    0    0 -0.00000000000E+00 -0.00000000000E+00 -0.74505805969E-08  0.93827000000E+00  0.93827000000E+00 0.  1.
     999902    2    1    2    0    0  0.16096312799E-01 -0.16383280462E-01  0.13355882310E-01  0.10173615458E+01  0.10170145683E+01 0.  0.
     999903    2    3    3    0    0 -0.73333600546E-01  0.98493048593E-01 -0.97923686505E-02  0.12510030500E+00  0.21805922056E-01 0.  0.
         14    1    1    2    0    0 -0.16096312799E-01  0.16383280462E-01 -0.13355882310E-01  0.26568454164E-01  0.00000000000E+00 0.  1.
     999901    1    3    3    0    0  0.89429913345E-01 -0.11487632905E+00  0.23148250960E-01  0.89226124084E+00  0.88000000000E+00 0. -1.
        -11    1    4    4    0    0 -0.45373873632E-01  0.43936981126E-01 -0.10239332610E-02  0.63170849916E-01  0.51100000000E-03 0. -1.
         11    1    4    4    0    0 -0.27959726915E-01  0.54556067467E-01 -0.87684353895E-02  0.61929455082E-01  0.51100000000E-03 0.  1.
</event>
<event>
 8    1  0.1208168E+005  0.1043930E+01  0.7957747E-01            NaN
         13   -1    0    0    0    0  0.00000000000E+00  0.00000000000E+00  0.74505805969E-08  0.10566000000E+00  0.10566000000E+00 0. -1.
     999900   -1    0    0    0    0 -0.00000000000E+00 -0.00000000000E+00 -0.74505805969E-08  0.93827000000E+00  0.93827000000E+00 0. -1.
     999902    2    1    2    0    0  0.25018791961E-01 -0.12433734227E-02  0.52774082737E-02  0.10183304499E+01  0.10180086287E+01 0.  0.
     999903    2    3    3    0    0  0.67891530353E-01 -0.46665184806E-03 -0.10903094413E+00  0.12990202033E+00  0.19424480706E-01 0.  0.
         14    1    1    2    0    0 -0.25018791961E-01  0.12433734227E-02 -0.52774082737E-02  0.25599550128E-01  0.00000000000E+00 0. -1.
     999901    1    3    3    0    0 -0.42872738392E-01 -0.77672157467E-03  0.11430835240E+00  0.88842842954E+00  0.88000000000E+00 0.  1.
        -11    1    4    4    0    0  0.32359548536E-01 -0.85055554771E-02 -0.61494766267E-01  0.70009658295E-01  0.51100000000E-03 0. -1.
         11    1    4    4    0    0  0.35531981817E-01  0.80389036291E-02 -0.47536177859E-01  0.59892362033E-01  0.51100000000E-03 0.  1.
</event>
<event>
 8    1  0.1208168E+005  0.1043930E+01  0.7957747E-01            NaN
         13   -1    0    0    0    0  0.00000000000E+00  0.00000000000E+00  0.74505805969E-08  0.10566000000E+00  0.10566000000E+00 0.  1.
     999900   -1    0    0    0    0 -0.00000000000E+00 -0.00000000000E+00 -0.74505805969E-08  0.93827000000E+00  0.93827000000E+00 0.  1.
     999902    2    1    2    0    0  0.34674953953E-02 -0.17678459601E-01 -0.16520619805E-01  0.10194865482E+01  0.10191934750E+01 0.  0.
     999903    2    3    3    0    0 -0.19362954251E-01  0.10931913828E+00 -0.62368413725E-01  0.12889593544E+00  0.19968604123E-01 0.  0.
         14    1    1    2    0    0 -0.34674953953E-02  0.17678459601E-01  0.16520619805E-01  0.24443451821E-01  0.00000000000E+00 0.  1.
     999901    1    3    3    0    0  0.22830449646E-01 -0.12699759788E+00  0.45847793920E-01  0.89059061274E+00  0.88000000000E+00 0. -1.
        -11    1    4    4    0    0  0.22091986705E-02  0.13982443088E-01 -0.28370174958E-02  0.14446420412E-01  0.51100000000E-03 0. -1.
         11    1    4    4    0    0 -0.21572152922E-01  0.95336695189E-01 -0.59531396229E-01  0.11444951502E+00  0.51100000000E-03 0.  1.
</event>
<event>
 8    1  0.1208168E+005  0.1043930E+01  0.7957747E-01            NaN
         13   -1    0    0    0    0  0.00000000000E+00  0.00000000000E+00  0.74505805969E-08  0.10566000000E+00  0.10566000000E+00 0. -1.
     999900   -1    0    0    0    0 -0.00000000000E+00 -0.00000000000E+00 -0.74505805969E-08  0.93827000000E+00  0.93827000000E+00 0. -1.
     999902    2    1    2    0    0 -0.66478822970E-02  0.20821905356E-01 -0.70559227378E-02  0.10209619324E+01  0.10207035492E+01 0.  0.
     999903    2    3    3    0    0  0.45794492222E-01 -0.11671332101E+00 -0.20344714302E-01  0.12863758944E+00  0.20361414414E-01 0.  0.
         14    1    1    2    0    0  0.66478822970E-02 -0.20821905356E-01  0.70559227378E-02  0.22968067558E-01  0.00000000000E+00 0.  1.
     999901    1    3    3    0    0 -0.52442374519E-01  0.13753522637E+00  0.13288791564E-01  0.89232434300E+00  0.88000000000E+00 0.  1.
        -11    1    4    4    0    0  0.19690071739E-01 -0.63203530222E-01 -0.19785907521E-01  0.69095067950E-01  0.51100000000E-03 0.  1.
         11    1    4    4    0    0  0.26104420483E-01 -0.53509790789E-01 -0.55880678113E-03  0.59542521487E-01  0.51100000000E-03 0. -1.
</event>
<event>
 7    1  0.1391212E+005  0.1043930E+01  0.7957747E-01            NaN
         13   -1    0    0    0    0  0.00000000000E+00  0.00000000000E+00  0.74505805969E-08  0.10566000000E+00  0.10566000000E+00 0. -1.
     999900   -1    0    0    0    0 -0.00000000000E+00 -0.00000000000E+00 -0.74505805969E-08  0.93827000000E+00  0.93827000000E+00 0. -1.
     999903    2    1    2    0    0 -0.73446226296E-01  0.18147638302E-01 -0.13321780269E-02  0.78297652933E-01  0.20126172598E-01 0.  0.
         14    1    1    2    0    0 -0.50446961118E-02  0.76876259838E-01 -0.24135355889E-03  0.77041979057E-01  0.00000000000E+00 0. -1.
     999901    1    1    2    0    0  0.78490922408E-01 -0.95023898140E-01  0.15735315858E-02  0.88859036801E+00  0.88000000000E+00 0.  1.
        -11    1    3    3    0    0 -0.30010768029E-01  0.16370524000E-01  0.43039433459E-02  0.34459038046E-01  0.51100000000E-03 0.  1.
         11    1    3    3    0    0 -0.43435458267E-01  0.17771143027E-02 -0.56361213728E-02  0.43838614888E-01  0.51100000000E-03 0. -1.
</event>
<event>
 8    1  0.1208168E+005  0.1043930E+01  0.7957747E-01            NaN
         13   -1    0    0    0    0  0.00000000000E+00  0.00000000000E+00  0.74505805969E-08  0.10566000000E+00  0.10566000000E+00 0.  1.
     999900   -1    0    0    0    0 -0.00000000000E+00 -0.00000000000E+00 -0.74505805969E-08  0.93827000000E+00  0.93827000000E+00 0.  1.
     999902    2    1    2    0    0 -0.17571745799E-01 -0.13412491207E-01 -0.68629681516E-02  0.10207834775E+01  0.10205210172E+01 0.  0.
     999903    2    3    3    0    0  0.98040880548E-01  0.21424711804E-01  0.77635394911E-01  0.12852797407E+00  0.20522013582E-01 0.  0.
         14    1    1    2    0    0  0.17571745799E-01  0.13412491207E-01  0.68629681516E-02  0.23146522474E-01  0.00000000000E+00 0.  1.
     999901    1    3    3    0    0 -0.11561262635E+00 -0.34837203011E-01 -0.84498363062E-01  0.89225550345E+00  0.88000000000E+00 0.  1.
        -11    1    4    4    0    0  0.25677451447E-01  0.14084966512E-01  0.17257326585E-01  0.33996973928E-01  0.51100000000E-03 0. -1.
         11    1    4    4    0    0  0.72363429101E-01  0.73397452918E-02  0.60378068326E-01  0.94531000143E-01  0.51100000000E-03 0.  1.
</event>
<event>
 8    1  0.1208168E+005  0.1043930E+01  0.7957747E-01            NaN
         13   -1    0    0    0    0  0.00000000000E+00  0.00000000000E+00  0.74505805969E-08  0.10566000000E+00  0.10566000000E+00 0. -1.
     999900   -1    0    0    0    0 -0.00000000000E+00 -0.00000000000E+00 -0.74505805969E-08  0.93827000000E+00  0.93827000000E+00 0. -1.
     999902    2    1    2    0    0 -0.12532989226E-01 -0.18609576186E-02 -0.20138187060E-01  0.10201374474E+01  0.10198599541E+01 0.  0.
     999903    2    3    3    0    0  0.42176855747E-01 -0.10316608581E+00  0.61574271486E-01  0.12888393573E+00  0.19938644886E-01 0.  0.
         14    1    1    2    0    0  0.12532989226E-01  0.18609576186E-02  0.20138187060E-01  0.23792552622E-01  0.00000000000E+00 0. -1.
     999901    1    3    3    0    0 -0.54709844973E-01  0.10130512819E+00 -0.81712458547E-01  0.89125351164E+00  0.88000000000E+00 0.  1.
        -11    1    4    4    0    0  0.59972591352E-02 -0.55676797736E-02  0.53382228750E-03  0.82165845965E-02  0.51100000000E-03 0.  1.
         11    1    4    4    0    0  0.36179596612E-01 -0.97598406034E-01  0.61040449199E-01  0.12066735114E+00  0.51100000000E-03 0. -1.
</event>
<event>
 8    1  0.1208168E+005  0.1043930E+01  0.7957747E-01            NaN
         13   -1    0    0    0    0  0.00000000000E+00  0.00000000000E+00  0.74505805969E-08  0.10566000000E+00  0.10566000000E+00 0. -1.
     999900   -1    0    0    0    0 -0.00000000000E+00 -0.00000000000E+00 -0.74505805969E-08  0.93827000000E+00  0.93827000000E+00 0.  1.
     999902    2    1    2    0    0  0.12948995571E-02 -0.20062188774E-01  0.13212938786E-01  0.10198727779E+01  0.10195890021E+01 0.  0.
     999903    2    3    3    0    0 -0.64007764807E-01 -0.94068718378E-01 -0.62554359293E-01  0.13111966942E+00  0.18259301985E-01 0.  0.
         14    1    1    2    0    0 -0.12948995571E-02  0.20062188774E-01 -0.13212938786E-01  0.24057222089E-01  0.00000000000E+00 0.  1.
     999901    1    3    3    0    0  0.65302664365E-01  0.74006529605E-01  0.75767298079E-01  0.88875310849E+00  0.88000000000E+00 0. -1.
        -11    1    4    4    0    0 -0.40190613747E-01 -0.57826219417E-01 -0.28478138703E-01  0.75963297654E-01  0.51100000000E-03 0. -1.
         11    1    4    4    0    0 -0.23817151060E-01 -0.36242498961E-01 -0.34076220590E-01  0.55156371765E-01  0.51100000000E-03 0.  1.
</event>
<event>
 8    1  0.1208168E+005  0.1043930E+01  0.7957747E-01            NaN
         13   -1    0    0    0    0  0.00000000000E+00  0.00000000000E+00  0.74505805969E-08  0.10566000000E+00  0.10566000000E+00 0.  1.
     999900   -1    0    0    0    0 -0.00000000000E+00 -0.00000000000E+00 -0.74505805969E-08  0.93827000000E+00  0.93827000000E+00 0. -1.
     999902    2    1    2    0    0  0.81622542795E-02  0.22251334900E-01 -0.11696881045E-01  0.10174996893E+01  0.10171563578E+01 0.  0.
     999903    2    3    3    0    0  0.11814629153E+00  0.98010182015E-02  0.45559063985E-01  0.12871977157E+00  0.20941468952E-01 0.  0.
         14    1    1    2    0    0 -0.81622542795E-02 -0.22251334900E-01  0.11696881045E-01  0.26430310743E-01  0.00000000000E+00 0.  1.
     999901    1    3    3    0    0 -0.10998403725E+00  0.12450316699E-01 -0.57255945031E-01  0.88877991768E+00  0.88000000000E+00 0.  1.
        -11    1    4    4    0    0  0.18120870746E-01 -0.59979142105E-02  0.82158906739E-02  0.20787085222E-01  0.51100000000E-03 0.  1.
         11    1    4    4    0    0  0.10002542079E+00  0.15798932412E-01  0.37343173312E-01  0.10793268635E+00  0.51100000000E-03 0. -1.
</event>
<event>
 8    1  0.1208168E+005  0.1043930E+01  0.7957747E-01            NaN
         13   -1    0    0    0    0  0.00000000000E+00  0.00000000000E+00  0.74505805969E-08  0.10566000000E+00  0.10566000000E+00 0.  1.
     999900   -1    0    0    0    0 -0.00000000000E+00 -0.00000000000E+00 -0.74505805969E-08  0.93827000000E+00  0.93827000000E+00 0.  1.
     999902    2    1    2    0    0  0.13712039387E-01 -0.81492946686E-03 -0.20187248851E-01  0.10195126056E+01  0.10192201645E+01 0.  0.
     999903    2    3    3    0    0  0.10225418247E+00 -0.34591082565E-01 -0.74598057191E-01  0.13275385841E+00  0.20155792224E-01 0.  0.
         14    1    1    2    0    0 -0.13712039387E-01  0.81492946686E-03  0.20187248851E-01  0.24417394422E-01  0.00000000000E+00 0.  1.
     999901    1    3    3    0    0 -0.88542143081E-01  0.33776153099E-01  0.54410808340E-01  0.88675874717E+00  0.88000000000E+00 0.  1.
        -11    1    4    4    0    0  0.29134771438E-02 -0.52899524274E-02 -0.24929407873E-02  0.65534586686E-02  0.51100000000E-03 0.  1.
         11    1    4    4    0    0  0.99340705324E-01 -0.29301130138E-01 -0.72105116404E-01  0.12620039974E+00  0.51100000000E-03 0. -1.
</event>
<event>
 8    1  0.1208168E+005  0.1043930E+01  0.7957747E-01            NaN
         13   -1    0    0    0    0  0.00000000000E+00  0.00000000000E+00  0.74505805969E-08  0.10566000000E+00  0.10566000000E+00 0.  1.
     999900   -1    0    0    0    0 -0.00000000000E+00 -0.00000000000E+00 -0.74505805969E-08  0.93827000000E+00  0.93827000000E+00 0.  1.
     999902    2    1    2    0    0 -0.11945326702E-01  0.15352286110E-01 -0.13647931206E-01  0.10201676444E+01  0.10198908633E+01 0.  0.
     999903    2    3    3    0    0  0.45344062287E-01 -0.91572023852E-01 -0.76647864076E-01  0.12961507787E+00  0.21992130597E-01 0.  0.
         14    1    1    2    0    0  0.11945326702E-01 -0.15352286110E-01  0.13647931206E-01  0.23762355629E-01  0.00000000000E+00 0. -1.
     999901    1    3    3    0    0 -0.57289388989E-01  0.10692430996E+00  0.62999932870E-01  0.89055256650E+00  0.88000000000E+00 0.  1.
        -11    1    4    4    0    0  0.29328673036E-01 -0.34703123002E-01 -0.33048109028E-01  0.56186443556E-01  0.51100000000E-03 0. -1.
         11    1    4    4    0    0  0.16015389250E-01 -0.56868900850E-01 -0.43599755047E-01  0.73428634319E-01  0.51100000000E-03 0.  1.
</event>
<event>
 8    1  0.1208168E+005  0.1043930E+01  0.7957747E-01            NaN
         13   -1    0    0    0    0  0.00000000000E+00  0.00000000000E+00  0.74505805969E-08  0.10566000000E+00  0.10566000000E+00 0.  1.
     999900   -1    0    0    0    0 -0.00000000000E+00 -0.00000000000E+00 -0.74505805969E-08  0.93827000000E+00  0.93827000000E+00 0.  1.
     999902    2    1    2    0    0 -0.12328677283E-01  0.14694728857E-01 -0.12839886151E-01  0.10208476687E+01  0.10205866787E+01 0.  0.
     999903    2    3    3    0    0 -0.61056849046E-01  0.21359720246E-01 -0.11506226450E+00  0.13356627512E+00  0.20407074104E-01 0.  0.
         14    1    1    2    0    0  0.12328677283E-01 -0.14694728857E-01  0.12839886151E-01  0.23082331254E-01  0.00000000000E+00 0.  1.
     999901    1    3    3    0    0  0.48728171763E-01 -0.66649913881E-02  0.10222237835E+00  0.88728139362E+00  0.88000000000E+00 0. -1.
        -11    1    4    4    0    0 -0.44203532284E-01  0.16711153809E-01 -0.99507493365E-01  0.11015996226E+00  0.51100000000E-03 0.  1.
         11    1    4    4    0    0 -0.16853316762E-01  0.46485664368E-02 -0.15554771138E-01  0.23406312865E-01  0.51100000000E-03 0. -1.
</event>
<event>
 8    1  0.1208168E+005  0.1043930E+01  0.7957747E-01            NaN
         13   -1    0    0    0    0  0.00000000000E+00  0.00000000000E+00  0.74505805969E-08  0.10566000000E+00  0.10566000000E+00 0.  1.
     999900   -1    0    0    0    0 -0.00000000000E+00 -0.00000000000E+00 -0.74505805969E-08  0.93827000000E+00  0.93827000000E+00 0.  1.
     999902    2    1    2    0    0 -0.97798115200E-02  0.21118668807E-01  0.49595007917E-02  0.10201342119E+01  0.10198566422E+01 0.  0.
     999903    2    3    3    0    0  0.25062996638E-01 -0.11072718417E+00 -0.56423694557E-01  0.12751713443E+00  0.13723088263E-01 0.  0.
         14    1    1    2    0    0  0.97798115200E-02 -0.21118668807E-01 -0.49595007917E-02  0.23795788149E-01  0.00000000000E+00 0. -1.
     999901    1    3    3    0    0 -0.34842808158E-01  0.13184585298E+00  0.61383195349E-01  0.89261707742E+00  0.88000000000E+00 0. -1.
        -11    1    4    4    0    0  0.10691098016E-01 -0.23204313256E-01 -0.10378722173E-01  0.27581129879E-01  0.51100000000E-03 0. -1.
         11    1    4    4    0    0  0.14371898622E-01 -0.87522870915E-01 -0.46044972385E-01  0.99936004554E-01  0.51100000000E-03 0.  1.
</event>
<event>
 8    1  0.1208168E+005  0.1043930E+01  0.7957747E-01            NaN
         13   -1    0    0    0    0  0.00000000000E+00  0.00000000000E+00  0.74505805969E-08  0.10566000000E+00  0.10566000000E+00 0. -1.
     999900   -1    0    0    0    0 -0.00000000000E+00 -0.00000000000E+00 -0.74505805969E-08  0.93827000000E+00  0.93827000000E+00 0.  1.
     999902    2    1    2    0    0  0.14530826331E-01 -0.34577339064E-02 -0.18100599207E-01  0.10204623088E+01  0.10201924285E+01 0.  0.
     999903    2    3    3    0    0  0.61728261396E-01 -0.15121013299E-01  0.11116419951E+00  0.12969128429E+00  0.20574903836E-01 0.  0.
         14    1    1    2    0    0 -0.14530826331E-01  0.34577339064E-02  0.18100599207E-01  0.23467691179E-01  0.00000000000E+00 0. -1.
     999901    1    3    3    0    0 -0.47197435066E-01  0.11663279393E-01 -0.12926479872E+00  0.89077102454E+00  0.88000000000E+00 0.  1.
        -11    1    4    4    0    0  0.53323539881E-01 -0.19717691567E-01  0.89993625327E-01  0.10644858377E+00  0.51100000000E-03 0.  1.
         11    1    4    4    0    0  0.84047215149E-02  0.45966782678E-02  0.21170574187E-01  0.23242700515E-01  0.51100000000E-03 0. -1.
</event>
<event>
 8    1  0.1208168E+005  0.1043930E+01  0.7957747E-01            NaN
         13   -1    0    0    0    0  0.00000000000E+00  0.00000000000E+00  0.74505805969E-08  0.10566000000E+00  0.10566000000E+00 0.  1.
     999900   -1    0    0    0    0 -0.00000000000E+00 -0.00000000000E+00 -0.74505805969E-08  0.93827000000E+00  0.93827000000E+00 0. -1.
     999902    2    1    2    0    0  0.16662881068E-02  0.15625569823E-01  0.16071272233E-01  0.10214528841E+01  0.10212055492E+01 0.  0.
     999903    2    3    3    0    0 -0.24586657904E-01 -0.57896475091E-01 -0.11083289475E+00  0.12892872427E+00  0.19549419652E-01 0.  0.
         14    1    1    2    0    0 -0.16662881068E-02 -0.15625569823E-01 -0.16071272233E-01  0.22477115908E-01  0.00000000000E+00 0. -1.
     999901    1    3    3    0    0  0.26252946011E-01  0.73522044914E-01  0.12690416698E+00  0.89252415982E+00  0.88000000000E+00 0.  1.
        -11    1    4    4    0    0 -0.55900759393E-02 -0.37629753776E-01 -0.66264701186E-01  0.76410202607E-01  0.51100000000E-03 0.  1.
         11    1    4    4    0    0 -0.18996581965E-01 -0.20266721315E-01 -0.44568193566E-01  0.52518521666E-01  0.51100000000E-03 0. -1.
</event>
<event>
 8    1  0.1208168E+005  0.1043930E+01  0.7957747E-01            NaN
         13   -1    0    0    0    0  0.00000000000E+00  0.00000000000E+00  0.74505805969E-08  0.10566000000E+00  0.10566000000E+00 0. -1.
     999900   -1    0    0    0    0 -0.00000000000E+00 -0.00000000000E+00 -0.74505805969E-08  0.93827000000E+00  0.93827000000E+00 0.  1.
     999902    2    1    2    0    0 -0.23162080489E-01 -0.36563782924E-02  0.49785459933E-02  0.10199584128E+01  0.10196766776E+01 0.  0.
     999903    2    3    3    0    0  0.24227707751E-01 -0.33302489019E-02 -0.12475809590E+00  0.12918487552E+00  0.22936372616E-01 0.  0.
         14    1    1    2    0    0  0.23162080489E-01  0.36563782924E-02 -0.49785459933E-02  0.23971587244E-01  0.00000000000E+00 0.  1.
     999901    1    3    3    0    0 -0.47389788240E-01 -0.32612939051E-03  0.12973664190E+00  0.89077353724E+00  0.88000000000E+00 0. -1.
        -11    1    4    4    0    0  0.26017501237E-02 -0.10423580671E-01 -0.41317706721E-01  0.42694661814E-01  0.51100000000E-03 0.  1.
         11    1    4    4    0    0  0.21625957627E-01  0.70933317688E-02 -0.83440389182E-01  0.86490213705E-01  0.51100000000E-03 0. -1.
</event>
<event>
 8    1  0.1208168E+005  0.1043930E+01  0.7957747E-01            NaN
         13   -1    0    0    0    0  0.00000000000E+00  0.00000000000E+00  0.74505805969E-08  0.10566000000E+00  0.10566000000E+00 0.  1.
     999900   -1    0    0    0    0 -0.00000000000E+00 -0.00000000000E+00 -0.74505805969E-08  0.93827000000E+00  0.93827000000E+00 0.  1.
     999902    2    1    2    0    0 -0.23495603695E-01  0.50359295243E-02  0.67957777435E-05  0.10199007673E+01  0.10196176593E+01 0.  0.
     999903    2    3    3    0    0  0.30240579145E-01  0.73983768795E-01 -0.10015738388E+00  0.12991523662E+00  0.21409728823E-01 0.  0.
         14    1    1    2    0    0  0.23495603695E-01 -0.50359295243E-02 -0.67957777435E-05  0.24029232725E-01  0.00000000000E+00 0. -1.
     999901    1    3    3    0    0 -0.53736182840E-01 -0.68947839271E-01  0.10016417966E+00  0.88998553065E+00  0.88000000000E+00 0. -1.
        -11    1    4    4    0    0  0.28942581117E-01  0.67691104208E-01 -0.79850285047E-01  0.10860979575E+00  0.51100000000E-03 0. -1.
         11    1    4    4    0    0  0.12979980283E-02  0.62926645871E-02 -0.20307098835E-01  0.21305440868E-01  0.51100000000E-03 0.  1.
</event>
<event>
 8    1  0.1208168E+005  0.1043930E+01  0.7957747E-01            NaN
         13   -1    0    0    0    0  0.00000000000E+00  0.00000000000E+00  0.74505805969E-08  0.10566000000E+00  0.10566000000E+00 0.  1.
     999900   -1    0    0    0    0 -0.00000000000E+00 -0.00000000000E+00 -0.74505805969E-08  0.93827000000E+00  0.93827000000E+00 0. -1.
     999902    2    1    2    0    0 -0.78415794907E-02  0.97857232883E-02  0.19776494185E-01  0.10205129022E+01  0.10202441977E+01 0.  0.
     999903    2    3    3    0    0  0.38851597552E-01  0.24838017689E-01  0.12318290884E+00  0.13310109756E+00  0.20383802070E-01 0.  0.
         14    1    1    2    0    0  0.78415794907E-02 -0.97857232883E-02 -0.19776494185E-01  0.23417097844E-01  0.00000000000E+00 0. -1.
     999901    1    3    3    0    0 -0.46693177043E-01 -0.15052294401E-01 -0.10340641465E+00  0.88741180460E+00  0.88000000000E+00 0. -1.
        -11    1    4    4    0    0  0.26058602734E-01  0.23541426253E-01  0.10577250659E+00  0.11145103767E+00  0.51100000000E-03 0.  1.
         11    1    4    4    0    0  0.12792994818E-01  0.12965914364E-02  0.17410402244E-01  0.21650059886E-01  0.51100000000E-03 0. -1.
</event>
<event>
 8    1  0.1208168E+005  0.1043930E+01  0.7957747E-01            NaN
         13   -1    0    0    0    0  0.00000000000E+00  0.00000000000E+00  0.74505805969E-08  0.10566000000E+00  0.10566000000E+00 0. -1.
     999900   -1    0    0    0    0 -0.00000000000E+00 -0.00000000000E+00 -0.74505805969E-08  0.93827000000E+00  0.93827000000E+00 0. -1.
     999902    2    1    2    0    0 -0.16666152662E-01  0.14100269839E-01 -0.92902632790E-02  0.10202047551E+01  0.10199288480E+01 0.  0.
     999903    2    3    3    0    0  0.98527260095E-01  0.44051272906E-01 -0.71923948009E-01  0.12998592616E+00  0.86689720027E-02 0.  0.
         14    1    1    2    0    0  0.16666152662E-01 -0.14100269839E-01  0.92902632790E-02  0.23725244907E-01  0.00000000000E+00 0. -1.
     999901    1    3    3    0    0 -0.11519341276E+00 -0.29951003067E-01  0.62633684730E-01  0.89021882893E+00  0.88000000000E+00 0. -1.
        -11    1    4    4    0    0  0.93463808383E-01  0.43493984601E-01 -0.67524047903E-01  0.12323541837E+00  0.51100000000E-03 0. -1.
         11    1    4    4    0    0  0.50634517124E-02  0.55728830463E-03 -0.43999001063E-02  0.67505077916E-02  0.51100000000E-03 0.  1.
</event>
<event>
 8    1  0.1208168E+005  0.1043930E+01  0.7957747E-01            NaN
         13   -1    0    0    0    0  0.00000000000E+00  0.00000000000E+00  0.74505805969E-08  0.10566000000E+00  0.10566000000E+00 0.  1.
     999900   -1    0    0    0    0 -0.00000000000E+00 -0.00000000000E+00 -0.74505805969E-08  0.93827000000E+00  0.93827000000E+00 0.  1.
     999902    2    1    2    0    0 -0.69231849043E-02  0.24681574258E-01 -0.47278164339E-02  0.10178634919E+01  0.10175296680E+01 0.  0.
     999903    2    3    3    0    0 -0.66950178237E-01  0.69699367516E-01 -0.86012576653E-01  0.13093787275E+00  0.20155271743E-01 0.  0.
         14    1    1    2    0    0  0.69231849043E-02 -0.24681574258E-01  0.47278164339E-02  0.26066508115E-01  0.00000000000E+00 0. -1.
     999901    1    3    3    0    0  0.60026993332E-01 -0.45017793258E-01  0.81284760219E-01  0.88692561914E+00  0.88000000000E+00 0.  1.
        -11    1    4    4    0    0 -0.35431395747E-01  0.30974114757E-01 -0.29591044514E-01  0.55593800248E-01  0.51100000000E-03 0.  1.
         11    1    4    4    0    0 -0.31518782489E-01  0.38725252759E-01 -0.56421532139E-01  0.75344072499E-01  0.51100000000E-03 0. -1.
</event>
<event>
 8    1  0.1208168E+005  0.1043930E+01  0.7957747E-01            NaN
         13   -1    0    0    0    0  0.00000000000E+00  0.00000000000E+00  0.74505805969E-08  0.10566000000E+00  0.10566000000E+00 0.  1.
     999900   -1    0    0    0    0 -0.00000000000E+00 -0.00000000000E+00 -0.74505805969E-08  0.93827000000E+00  0.93827000000E+00 0. -1.
     999902    2    1    2    0    0  0.50379938272E-02  0.22521932598E-01 -0.18045552835E-02  0.10207810206E+01  0.10205185038E+01 0.  0.
     999903    2    3    3    0    0  0.19336466095E-01  0.12253773715E+00 -0.46528325769E-01  0.13387188027E+00  0.19167662382E-01 0.  0.
         14    1    1    2    0    0 -0.50379938272E-02 -0.22521932598E-01  0.18045552835E-02  0.23148979449E-01  0.00000000000E+00 0. -1.
     999901    1    3    3    0    0 -0.14298472268E-01 -0.10001580455E+00  0.44723770486E-01  0.88690914028E+00  0.88000000000E+00 0. -1.
        -11    1    4    4    0    0  0.21115788765E-01  0.74655244186E-01 -0.27541357822E-01  0.82329032129E-01  0.51100000000E-03 0.  1.
         11    1    4    4    0    0 -0.17793226704E-02  0.47882492964E-01 -0.18986967948E-01  0.51542848141E-01  0.51100000000E-03 0. -1.
</event>
<event>
 8    1  0.1208168E+005  0.1043930E+01  0.7957747E-01            NaN
         13   -1    0    0    0    0  0.00000000000E+00  0.00000000000E+00  0.74505805969E-08  0.10566000000E+00  0.10566000000E+00 0. -1.
     999900   -1    0    0    0    0 -0.00000000000E+00 -0.00000000000E+00 -0.74505805969E-08  0.93827000000E+00  0.93827000000E+00 0.  1.
     999902    2    1    2    0    0 -0.73073086786E-02  0.20278570671E-01  0.48081730098E-02  0.10218452606E+01  0.10216065783E+01 0.  0.
     999903    2    3    3    0    0  0.96813795428E-01 -0.68944096340E-02  0.87360165874E-01  0.13145522989E+00  0.15107449004E-01 0.  0.
         14    1    1    2    0    0  0.73073086786E-02 -0.20278570671E-01 -0.48081730098E-02  0.22084739444E-01  0.00000000000E+00 0.  1.
     999901    1    3    3    0    0 -0.10412110411E+00  0.27172980305E-01 -0.82551992864E-01  0.89039003066E+00  0.88000000000E+00 0.  1.
        -11    1    4    4    0    0  0.39834969745E-01 -0.86915588744E-02  0.42642408175E-01  0.59000034798E-01  0.51100000000E-03 0.  1.
         11    1    4    4    0    0  0.56978825683E-01  0.17971492404E-02  0.44717757699E-01  0.72455195095E-01  0.51100000000E-03 0. -1.
</event>
<event>
 8    1  0.1208168E+005  0.1043930E+01  0.7957747E-01            NaN
         13   -1    0    0    0    0  0.00000000000E+00  0.00000000000E+00  0.74505805969E-08  0.10566000000E+00  0.10566000000E+00 0. -1.
     999900   -1    0    0    0    0 -0.00000000000E+00 -0.00000000000E+00 -0.74505805969E-08  0.93827000000E+00  0.93827000000E+00 0. -1.
     999902    2    1    2    0    0 -0.35279902295E-02  0.22384175979E-01 -0.35955424280E-02  0.10209860253E+01  0.10207281900E+01 0.  0.
     999903    2    3    3    0    0 -0.12869851448E+00  0.76976857310E-02 -0.19162968083E-01  0.13187090460E+00  0.20003853106E-01 0.  0.
         14    1    1    2    0    0  0.35279902295E-02 -0.22384175979E-01  0.35955424280E-02  0.22943974692E-01  0.00000000000E+00 0. -1.
     999901    1    3    3    0    0  0.12517052425E+00  0.14686490248E-01  0.15567425655E-01  0.88911512071E+00  0.88000000000E+00 0. -1.
        -11    1    4    4    0    0 -0.40208646466E-01  0.11620999012E-01 -0.47166396918E-02  0.42122329941E-01  0.51100000000E-03 0. -1.
         11    1    4    4    0    0 -0.88489868011E-01 -0.39233132806E-02 -0.14446328392E-01  0.89748574656E-01  0.51100000000E-03 0.  1.
</event>
<event>
 8    1  0.1208168E+005  0.1043930E+01  0.7957747E-01            NaN
         13   -1    0    0    0    0  0.00000000000E+00  0.00000000000E+00  0.74505805969E-08  0.10566000000E+00  0.10566000000E+00 0. -1.
     999900   -1    0    0    0    0 -0.00000000000E+00 -0.00000000000E+00 -0.74505805969E-08  0.93827000000E+00  0.93827000000E+00 0. -1.
     999902    2    1    2    0    0  0.71520328202E-02 -0.98515151021E-03 -0.20790114035E-01  0.10219220256E+01  0.10216850177E+01 0.  0.
     999903    2    3    3    0    0  0.11918762713E+00  0.50270567975E-01 -0.25282722411E-01  0.13332802002E+00  0.20107819469E-01 0.  0.
         14    1    1    2    0    0 -0.71520328202E-02  0.98515151021E-03  0.20790114035E-01  0.22007974431E-01  0.00000000000E+00 0. -1.
     999901    1    3    3    0    0 -0.11203559431E+00 -0.51255719486E-01  0.44926083756E-02  0.88859400555E+00  0.88000000000E+00 0.  1.
        -11    1    4    4    0    0  0.21414998302E-01  0.14406750639E-01  0.12906047151E-02  0.25847309295E-01  0.51100000000E-03 0.  1.
         11    1    4    4    0    0  0.97772628828E-01  0.35863817336E-01 -0.26573327126E-01  0.10748071072E+00  0.51100000000E-03 0. -1.
</event>
<event>
 8    1  0.1208168E+005  0.1043930E+01  0.7957747E-01            NaN
         13   -1    0    0    0    0  0.00000000000E+00  0.00000000000E+00  0.74505805969E-08  0.10566000000E+00  0.10566000000E+00 0.  1.
     999900   -1    0    0    0    0 -0.00000000000E+00 -0.00000000000E+00 -0.74505805969E-08  0.93827000000E+00  0.93827000000E+00 0.  1.
     999902    2    1    2    0    0 -0.16997104498E-01  0.15456369193E-01 -0.21757776159E-02  0.10208532819E+01  0.10205924202E+01 0.  0.
     999903    2    3    3    0    0 -0.12800105735E+00 -0.29138585647E-01 -0.23457262389E-02  0.13275947130E+00  0.19653165994E-01 0.  0.
         14    1    1    2    0    0  0.16997104498E-01 -0.15456369193E-01  0.21757776159E-02  0.23076718098E-01  0.00000000000E+00 0. -1.
     999901    1    3    3    0    0  0.11100395285E+00  0.44594954840E-01  0.16994862300E-03  0.88809381060E+00  0.88000000000E+00 0.  1.
        -11    1    4    4    0    0 -0.41273883694E-01 -0.15289151642E-01  0.64701313952E-02  0.44490620971E-01  0.51100000000E-03 0.  1.
         11    1    4    4    0    0 -0.86727173652E-01 -0.13849434005E-01 -0.88158576342E-02  0.88268850331E-01  0.51100000000E-03 0. -1.
</event>
<event>
 8    1  0.1208168E+005  0.1043930E+01  0.7957747E-01            NaN
         13   -1    0    0    0    0  0.00000000000E+00  0.00000000000E+00  0.74505805969E-08  0.10566000000E+00  0.10566000000E+00 0.  1.
     999900   -1    0    0    0    0 -0.00000000000E+00 -0.00000000000E+00 -0.74505805969E-08  0.93827000000E+00  0.93827000000E+00 0.  1.
     999902    2    1    2    0    0  0.89608475941E-02 -0.94719828927E-02 -0.16528305601E-01  0.10228776810E+01  0.10226610143E+01 0.  0.
     999903    2    3    3    0    0 -0.20362849220E-01  0.12259134962E+00  0.36415414887E-01  0.13096757312E+00  0.19573914730E-01 0.  0.
         14    1    1    2    0    0 -0.89608475941E-02  0.94719828927E-02  0.16528305601E-01  0.21052319007E-01  0.00000000000E+00 0.  1.
     999901    1    3    3    0    0  0.29323696814E-01 -0.13206333251E+00 -0.52943720488E-01  0.89191010787E+00  0.88000000000E+00 0. -1.
        -11    1    4    4    0    0 -0.12672610032E-01  0.10983321286E+00  0.28915477814E-01  0.11428165062E+00  0.51100000000E-03 0.  1.
         11    1    4    4    0    0 -0.76902391876E-02  0.12758136763E-01  0.74999370733E-02  0.16685922495E-01  0.51100000000E-03 0. -1.
</event>
<event>
 8    1  0.1208168E+005  0.1043930E+01  0.7957747E-01            NaN
         13   -1    0    0    0    0  0.00000000000E+00  0.00000000000E+00  0.74505805969E-08  0.10566000000E+00  0.10566000000E+00 0. -1.
     999900   -1    0    0    0    0 -0.00000000000E+00 -0.00000000000E+00 -0.74505805969E-08  0.93827000000E+00  0.93827000000E+00 0.  1.
     999902    2    1    2    0    0 -0.22663688030E-01 -0.52794437773E-02 -0.39183659273E-02  0.10203319307E+01  0.10200590081E+01 0.  0.
     999903    2    3    3    0    0 -0.84434282017E-01 -0.80722370230E-01  0.59768224430E-01  0.13265900492E+00  0.19517220559E-01 0.  0.
         14    1    1    2    0    0  0.22663688030E-01  0.52794437773E-02  0.39183659273E-02  0.23598069270E-01  0.00000000000E+00 0.  1.
     999901    1    3    3    0    0  0.61770593987E-01  0.75442926453E-01 -0.63686590357E-01  0.88767292581E+00  0.88000000000E+00 0. -1.
        -11    1    4    4    0    0 -0.41882184800E-01 -0.27101188902E-01  0.22676149635E-01  0.54800189113E-01  0.51100000000E-03 0.  1.
         11    1    4    4    0    0 -0.42552097217E-01 -0.53621181329E-01  0.37092074794E-01  0.77858815802E-01  0.51100000000E-03 0. -1.
</event>
<event>
 8    1  0.1208168E+005  0.1043930E+01  0.7957747E-01            NaN
         13   -1    0    0    0    0  0.00000000000E+00  0.00000000000E+00  0.74505805969E-08  0.10566000000E+00  0.10566000000E+00 0.  1.
     999900   -1    0    0    0    0 -0.00000000000E+00 -0.00000000000E+00 -0.74505805969E-08  0.93827000000E+00  0.93827000000E+00 0.  1.
     999902    2    1    2    0    0  0.13650031778E-01 -0.16038516631E-01 -0.95047365649E-02  0.10208237800E+01  0.10205622433E+01 0.  0.
     999903    2    3    3    0    0  0.64594142038E-01 -0.85082860243E-01 -0.78478656492E-01  0.13396425037E+00  0.19391352691E-01 0.  0.
         14    1    1    2    0    0 -0.13650031778E-01  0.16038516631E-01  0.95047365649E-02  0.23106219952E-01  0.00000000000E+00 0. -1.
     999901    1    3    3    0    0 -0.50944110260E-01  0.69044343611E-01  0.68973919927E-01  0.88685952968E+00  0.88000000000E+00 0. -1.
        -11    1    4    4    0    0  0.94702567112E-02 -0.17967975517E-01 -0.70276395262E-02  0.21498435866E-01  0.51100000000E-03 0. -1.
         11    1    4    4    0    0  0.55123885327E-01 -0.67114884725E-01 -0.71451016966E-01  0.11246581450E+00  0.51100000000E-03 0.  1.
</event>
<event>
 8    1  0.1208168E+005  0.1043930E+01  0.7957747E-01            NaN
         13   -1    0    0    0    0  0.00000000000E+00  0.00000000000E+00  0.74505805969E-08  0.10566000000E+00  0.10566000000E+00 0. -1.
     999900   -1    0    0    0    0 -0.00000000000E+00 -0.00000000000E+00 -0.74505805969E-08  0.93827000000E+00  0.93827000000E+00 0.  1.
     999902    2    1    2    0    0 -0.14224555287E-01  0.90335965836E-02  0.18231219079E-01  0.10191041830E+01  0.10188017543E+01 0.  0.
     999903    2    3    3    0    0 -0.12525998404E+00  0.12832541317E-01 -0.28424663549E-01  0.13089245723E+00  0.21682623063E-01 0.  0.
         14    1    1    2    0    0  0.14224555287E-01 -0.90335965836E-02 -0.18231219079E-01  0.24825816995E-01  0.00000000000E+00 0.  1.
     999901    1    3    3    0    0  0.11103542875E+00 -0.37989447339E-02  0.46655882629E-01  0.88821172577E+00  0.88000000000E+00 0.  1.
        -11    1    4    4    0    0 -0.29230117497E-01  0.12339469808E-01 -0.75231065267E-02  0.32611662589E-01  0.51100000000E-03 0. -1.
         11    1    4    4    0    0 -0.96029866545E-01  0.49307150913E-03 -0.20901557023E-01  0.98280794641E-01  0.51100000000E-03 0.  1.
</event>
<event>
 8    1  0.1208168E+005  0.1043930E+01  0.7957747E-01            NaN
         13   -1    0    0    0    0  0.00000000000E+00  0.00000000000E+00  0.74505805969E-08  0.10566000000E+00  0.10566000000E+00 0.  1.
     999900   -1    0    0    0    0 -0.00000000000E+00 -0.00000000000E+00 -0.74505805969E-08  0.93827000000E+00  0.93827000000E+00 0.  1.
     999902    2    1    2    0    0 -0.22597344348E-01 -0.15430850926E-01 -0.11435025882E-01  0.10142734502E+01  0.10138397905E+01 0.  0.
     999903    2    3    3    0    0 -0.45172402337E-01  0.35911827851E-01 -0.11212737798E+00  0.12675744823E+00  0.12833412481E-01 0.  0.
         14    1    1    2    0    0  0.22597344348E-01  0.15430850926E-01  0.11435025882E-01  0.29656549847E-01  0.00000000000E+00 0.  1.
     999901    1    3    3    0    0  0.22575057988E-01 -0.51342678777E-01  0.10069235210E+00  0.88751600193E+00  0.88000000000E+00 0. -1.
        -11    1    4    4    0    0 -0.82137530544E-02  0.90975522836E-02 -0.35450992113E-01  0.37513533019E-01  0.51100000000E-03 0.  1.
         11    1    4    4    0    0 -0.36958649282E-01  0.26814275568E-01 -0.76676385865E-01  0.89243915206E-01  0.51100000000E-03 0. -1.
</event>
<event>
 8    1  0.1208168E+005  0.1043930E+01  0.7957747E-01            NaN
         13   -1    0    0    0    0  0.00000000000E+00  0.00000000000E+00  0.74505805969E-08  0.10566000000E+00  0.10566000000E+00 0. -1.
     999900   -1    0    0    0    0 -0.00000000000E+00 -0.00000000000E+00 -0.74505805969E-08  0.93827000000E+00  0.93827000000E+00 0.  1.
     999902    2    1    2    0    0  0.17722296477E-01 -0.35165954195E-02 -0.13326873717E-01  0.10214789021E+01  0.10212321458E+01 0.  0.
     999903    2    3    3    0    0  0.91400788904E-01 -0.26355192413E-01 -0.92955908573E-01  0.13452292516E+00  0.20172160915E-01 0.  0.
         14    1    1    2    0    0 -0.17722296477E-01  0.35165954195E-02  0.13326873717E-01  0.22451097943E-01  0.00000000000E+00 0. -1.
     999901    1    3    3    0    0 -0.73678492427E-01  0.22838596993E-01  0.79629034856E-01  0.88695597690E+00  0.88000000000E+00 0. -1.
        -11    1    4    4    0    0  0.80307467560E-01 -0.29292695028E-01 -0.78509104405E-01  0.11606589475E+00  0.51100000000E-03 0. -1.
         11    1    4    4    0    0  0.11093321344E-01  0.29375026155E-02 -0.14446804168E-01  0.18457030414E-01  0.51100000000E-03 0.  1.
</event>
<event>
 8    1  0.1208168E+005  0.1043930E+01  0.7957747E-01            NaN
         13   -1    0    0    0    0  0.00000000000E+00  0.00000000000E+00  0.74505805969E-08  0.10566000000E+00  0.10566000000E+00 0.  1.
     999900   -1    0    0    0    0 -0.00000000000E+00 -0.00000000000E+00 -0.74505805969E-08  0.93827000000E+00  0.93827000000E+00 0. -1.
     999902    2    1    2    0    0 -0.12000148235E-01 -0.13301982644E-02  0.19582119057E-01  0.10209249490E+01  0.10206657235E+01 0.  0.
     999903    2    3    3    0    0  0.88751950187E-01  0.90858878464E-01  0.21657454969E-01  0.13038908884E+00  0.20000616845E-01 0.  0.
         14    1    1    2    0    0  0.12000148235E-01  0.13301982644E-02 -0.19582119057E-01  0.23005051007E-01  0.00000000000E+00 0. -1.
     999901    1    3    3    0    0 -0.10075209842E+00 -0.92189076728E-01 -0.20753359122E-02  0.89053586016E+00  0.88000000000E+00 0.  1.
        -11    1    4    4    0    0  0.16860500556E-01  0.12378813657E-01  0.10394775709E-01  0.23362876312E-01  0.51100000000E-03 0.  1.
         11    1    4    4    0    0  0.71891449632E-01  0.78480064807E-01  0.11262679260E-01  0.10702621252E+00  0.51100000000E-03 0. -1.
</event>
<event>
 8    1  0.1208168E+005  0.1043930E+01  0.7957747E-01            NaN
         13   -1    0    0    0    0  0.00000000000E+00  0.00000000000E+00  0.74505805969E-08  0.10566000000E+00  0.10566000000E+00 0. -1.
     999900   -1    0    0    0    0 -0.00000000000E+00 -0.00000000000E+00 -0.74505805969E-08  0.93827000000E+00  0.93827000000E+00 0. -1.
     999902    2    1    2    0    0  0.24351271801E-01  0.50211374670E-03 -0.66906578540E-02  0.10186713092E+01  0.10183581073E+01 0.  0.
     999903    2    3    3    0    0 -0.51550552604E-01  0.77991445901E-01  0.84235645666E-01  0.12736144380E+00  0.19625704058E-01 0.  0.
         14    1    1    2    0    0 -0.24351271801E-01 -0.50211374670E-03  0.66906578540E-02  0.25258690763E-01  0.00000000000E+00 0. -1.
     999901    1    3    3    0    0  0.75901824404E-01 -0.77489332154E-01 -0.90926303520E-01  0.89130986543E+00  0.88000000000E+00 0. -1.
        -11    1    4    4    0    0 -0.78637184195E-02  0.21420967912E-01  0.29688182222E-01  0.37447900052E-01  0.51100000000E-03 0.  1.
         11    1    4    4    0    0 -0.43686834184E-01  0.56570477989E-01  0.54547463444E-01  0.89913543752E-01  0.51100000000E-03 0. -1.
</event>
<event>
 8    1  0.1208168E+005  0.1043930E+01  0.7957747E-01            NaN
         13   -1    0    0    0    0  0.00000000000E+00  0.00000000000E+00  0.74505805969E-08  0.10566000000E+00  0.10566000000E+00 0. -1.
     999900   -1    0    0    0    0 -0.00000000000E+00 -0.00000000000E+00 -0.74505805969E-08  0.93827000000E+00  0.93827000000E+00 0.  1.
     999902    2    1    2    0    0  0.12561868258E-01 -0.40303595780E-02  0.19430036047E-01  0.10204444591E+01  0.10201741633E+01 0.  0.
     999903    2    3    3    0    0 -0.45576484830E-01  0.16119881940E-01  0.12175035566E+00  0.13238165264E+00  0.19096761284E-01 0.  0.
         14    1    1    2    0    0 -0.12561868258E-01  0.40303595780E-02 -0.19430036047E-01  0.23485540940E-01  0.00000000000E+00 0.  1.
     999901    1    3    3    0    0  0.58138353088E-01 -0.20150241518E-01 -0.10232031961E+00  0.88806280642E+00  0.88000000000E+00 0.  1.
        -11    1    4    4    0    0 -0.19365054940E-01  0.14933078879E-01  0.44271306848E-01  0.50578769545E-01  0.51100000000E-03 0.  1.
         11    1    4    4    0    0 -0.26211429891E-01  0.11868030611E-02  0.77479048808E-01  0.81802883100E-01  0.51100000000E-03 0. -1.
</event>
<event>
 8    1  0.1208168E+005  0.1043930E+01  0.7957747E-01            NaN
         13   -1    0    0    0    0  0.00000000000E+00  0.00000000000E+00  0.74505805969E-08  0.10566000000E+00  0.10566000000E+00 0.  1.
     999900   -1    0    0    0    0 -0.00000000000E+00 -0.00000000000E+00 -0.74505805969E-08  0.93827000000E+00  0.93827000000E+00 0. -1.
     999902    2    1    2    0    0 -0.10825846793E-01 -0.40701685669E-02 -0.21254346772E-01  0.10197326347E+01  0.10194455031E+01 0.  0.
     999903    2    3    3    0    0  0.10097264711E+00  0.72233538846E-01  0.24790691208E-01  0.12819390613E+00  0.20147942844E-01 0.  0.
         14    1    1    2    0    0  0.10825846793E-01  0.40701685669E-02  0.21254346772E-01  0.24197365304E-01  0.00000000000E+00 0.  1.
     999901    1    3    3    0    0 -0.11179849390E+00 -0.76303707413E-01 -0.46045037980E-01  0.89153872856E+00  0.88000000000E+00 0.  1.
        -11    1    4    4    0    0  0.46027180059E-01  0.21295604756E-01  0.12874043062E-01  0.52325960974E-01  0.51100000000E-03 0. -1.
         11    1    4    4    0    0  0.54945467050E-01  0.50937934090E-01  0.11916648146E-01  0.75867945160E-01  0.51100000000E-03 0.  1.
</event>
<event>
 8    1  0.1208168E+005  0.1043930E+01  0.7957747E-01            NaN
         13   -1    0    0    0    0  0.00000000000E+00  0.00000000000E+00  0.74505805969E-08  0.10566000000E+00  0.10566000000E+00 0. -1.
     999900   -1    0    0    0    0 -0.00000000000E+00 -0.00000000000E+00 -0.74505805969E-08  0.93827000000E+00  0.93827000000E+00 0. -1.
     999902    2    1    2    0    0 -0.65743150436E-02 -0.13472347454E-01 -0.17687407126E-01  0.10207444412E+01  0.10204810847E+01 0.  0.
     999903    2    3    3    0    0 -0.10723200212E-01 -0.44566464566E-02  0.12672263188E+00  0.12891892272E+00  0.20654648049E-01 0.  0.
         14    1    1    2    0    0  0.65743150436E-02  0.13472347454E-01  0.17687407126E-01  0.23185558761E-01  0.00000000000E+00 0. -1.
     999901    1    3    3    0    0  0.41488851684E-02 -0.90157009974E-02 -0.14441003900E+00  0.89182551852E+00  0.88000000000E+00 0. -1.
        -11    1    4    4    0    0 -0.15813831851E-01  0.14399280774E-02  0.85524700278E-01  0.86987850585E-01  0.51100000000E-03 0. -1.
         11    1    4    4    0    0  0.50906316389E-02 -0.58965745339E-02  0.41197931598E-01  0.41931072138E-01  0.51100000000E-03 0.  1.
</event>
<event>
 8    1  0.1208168E+005  0.1043930E+01  0.7957747E-01            NaN
         13   -1    0    0    0    0  0.00000000000E+00  0.00000000000E+00  0.74505805969E-08  0.10566000000E+00  0.10566000000E+00 0.  1.
     999900   -1    0    0    0    0 -0.00000000000E+00 -0.00000000000E+00 -0.74505805969E-08  0.93827000000E+00  0.93827000000E+00 0. -1.
     999902    2    1    2    0    0 -0.10202244208E-01  0.85020915688E-02  0.20322722424E-01  0.10196527597E+01  0.10193637065E+01 0.  0.
     999903    2    3    3    0    0 -0.76520138382E-01  0.71053564149E-01 -0.74558007040E-01  0.12987014436E+00  0.20085253940E-01 0.  0.
         14    1    1    2    0    0  0.10202244208E-01 -0.85020915688E-02 -0.20322722424E-01  0.24277240260E-01  0.00000000000E+00 0. -1.
     999901    1    3    3    0    0  0.66317894174E-01 -0.62551472580E-01  0.94880729464E-01  0.88978261538E+00  0.88000000000E+00 0. -1.
        -11    1    4    4    0    0 -0.59825482257E-01  0.43683420200E-01 -0.55581465101E-01  0.92611499887E-01  0.51100000000E-03 0.  1.
         11    1    4    4    0    0 -0.16694656126E-01  0.27370143949E-01 -0.18976541940E-01  0.37258644472E-01  0.51100000000E-03 0. -1.
</event>
<event>
 8    1  0.1208168E+005  0.1043930E+01  0.7957747E-01            NaN
         13   -1    0    0    0    0  0.00000000000E+00  0.00000000000E+00  0.74505805969E-08  0.10566000000E+00  0.10566000000E+00 0. -1.
     999900   -1    0    0    0    0 -0.00000000000E+00 -0.00000000000E+00 -0.74505805969E-08  0.93827000000E+00  0.93827000000E+00 0. -1.
     999902    2    1    2    0    0 -0.17909671773E-02 -0.23911824645E-01  0.27737685145E-02  0.10197913026E+01  0.10195055783E+01 0.  0.
     999903    2    3    3    0    0 -0.12243120060E+00  0.20830942557E-02 -0.38675064070E-01  0.13021398304E+00  0.21591262932E-01 0.  0.
         14    1    1    2    0    0  0.17909671773E-02  0.23911824645E-01 -0.27737685145E-02  0.24138697418E-01  0.00000000000E+00 0.  1.
     999901    1    3    3    0    0  0.12064023342E+00 -0.25994918900E-01  0.41448832584E-01  0.88957731955E+00  0.88000000000E+00 0. -1.
        -11    1    4    4    0    0 -0.80076376698E-01  0.11474480967E-01 -0.27022679790E-01  0.85289953468E-01  0.51100000000E-03 0. -1.
         11    1    4    4    0    0 -0.42354823903E-01 -0.93913867115E-02 -0.11652384280E-01  0.44924029568E-01  0.51100000000E-03 0.  1.
</event>
<event>
 8    1  0.1208168E+005  0.1043930E+01  0.7957747E-01            NaN
         13   -1    0    0    0    0  0.00000000000E+00  0.00000000000E+00  0.74505805969E-08  0.10566000000E+00  0.10566000000E+00 0. -1.
     999900   -1    0    0    0    0 -0.00000000000E+00 -0.00000000000E+00 -0.74505805969E-08  0.93827000000E+00  0.93827000000E+00 0. -1.
     999902    2    1    2    0    0  0.55335676974E-02  0.19370121106E-01  0.14974252349E-01  0.10188291993E+01  0.10185199493E+01 0.  0.
     999903    2    3    3    0    0 -0.12254722656E+00 -0.29014339308E-01  0.12536732129E-01  0.12823855967E+00  0.20695504613E-01 0.  0.
         14    1    1    2    0    0 -0.55335676974E-02 -0.19370121106E-01 -0.14974252349E-01  0.25100800715E-01  0.00000000000E+00 0.  1.
     999901    1    3    3    0    0  0.12808079425E+00  0.48384460414E-01  0.24375202197E-02  0.89059063962E+00  0.88000000000E+00 0.  1.
        -11    1    4    4    0    0 -0.34882767758E-01 -0.16637138807E-01 -0.10608656283E-02  0.38665080254E-01  0.51100000000E-03 0.  1.
         11    1    4    4    0    0 -0.87664458799E-01 -0.12377200501E-01  0.13597597758E-01  0.89573479416E-01  0.51100000000E-03 0. -1.
</event>
<event>
 8    1  0.1208168E+005  0.1043930E+01  0.7957747E-01            NaN
         13   -1    0    0    0    0  0.00000000000E+00  0.00000000000E+00  0.74505805969E-08  0.10566000000E+00  0.10566000000E+00 0. -1.
     999900   -1    0    0    0    0 -0.00000000000E+00 -0.00000000000E+00 -0.74505805969E-08  0.93827000000E+00  0.93827000000E+00 0. -1.
     999902    2    1    2    0    0 -0.47098728656E-02 -0.23377037770E-01 -0.22640640428E-02  0.10199759861E+01  0.10196946687E+01 0.  0.
     999903    2    3    3    0    0  0.10980297515E+00  0.59622864943E-01  0.22604641498E-01  0.12833669312E+00  0.18648260241E-01 0.  0.
         14    1    1    2    0    0  0.47098728656E-02  0.23377037770E-01  0.22640640428E-02  0.23954013929E-01  0.00000000000E+00 0.  1.
     999901    1    3    3    0    0 -0.11451284801E+00 -0.82999902713E-01 -0.24868705541E-01  0.89163929295E+00  0.88000000000E+00 0.  1.
        -11    1    4    4    0    0  0.78597962196E-01  0.38615550972E-01  0.23618660570E-01  0.90702274979E-01  0.51100000000E-03 0.  1.
         11    1    4    4    0    0  0.31205012950E-01  0.21007313971E-01 -0.10140190723E-02  0.37634418146E-01  0.51100000000E-03 0. -1.
</event>
<event>
 8    1  0.1208168E+005  0.1043930E+01  0.7957747E-01            NaN
         13   -1    0    0    0    0  0.00000000000E+00  0.00000000000E+00  0.74505805969E-08  0.10566000000E+00  0.10566000000E+00 0. -1.
     999900   -1    0    0    0    0 -0.00000000000E+00 -0.00000000000E+00 -0.74505805969E-08  0.93827000000E+00  0.93827000000E+00 0.  1.
     999902    2    1    2    0    0  0.16979120812E-01 -0.16225052603E-01 -0.20038678131E-02  0.10203597144E+01  0.10200874416E+01 0.  0.
     999903    2    3    3    0    0 -0.41949202620E-01 -0.98459846811E-01 -0.73842350061E-01  0.13165510872E+00  0.20646984174E-01 0.  0.
         14    1    1    2    0    0 -0.16979120812E-01  0.16225052603E-01  0.20038678131E-02  0.23570285567E-01  0.00000000000E+00 0.  1.
     999901    1    3    3    0    0  0.58928323431E-01  0.82234794208E-01  0.71838482248E-01  0.88870460571E+00  0.88000000000E+00 0. -1.
        -11    1    4    4    0    0 -0.39672630545E-01 -0.82870744721E-01 -0.69791412155E-01  0.11538015547E+00  0.51100000000E-03 0.  1.
         11    1    4    4    0    0 -0.22765720748E-02 -0.15589102090E-01 -0.40509379061E-02  0.16274953251E-01  0.51100000000E-03 0. -1.
</event>
<event>
 8    1  0.1208168E+005  0.1043930E+01  0.7957747E-01            NaN
         13   -1    0    0    0    0  0.00000000000E+00  0.00000000000E+00  0.74505805969E-08  0.10566000000E+00  0.10566000000E+00 0. -1.
     999900   -1    0    0    0    0 -0.00000000000E+00 -0.00000000000E+00 -0.74505805969E-08  0.93827000000E+00  0.93827000000E+00 0.  1.
     999902    2    1    2    0    0  0.82798660291E-02  0.22582253064E-01  0.92393473975E-03  0.10198599358E+01  0.10195758533E+01 0.  0.
     999903    2    3    3    0    0  0.94608056231E-01  0.25354566730E-01  0.85730126556E-01  0.13157375877E+00  0.19195338996E-01 0.  0.
         14    1    1    2    0    0 -0.82798660291E-02 -0.22582253064E-01 -0.92393473975E-03  0.24070064194E-01  0.00000000000E+00 0.  1.
     999901    1    3    3    0    0 -0.86328190202E-01 -0.27723136654E-02 -0.84806191816E-01  0.88828617704E+00  0.88000000000E+00 0.  1.
        -11    1    4    4    0    0  0.27688308599E-01 -0.69716571689E-03  0.19447638320E-01  0.33846716684E-01  0.51100000000E-03 0. -1.
         11    1    4    4    0    0  0.66919747632E-01  0.26051732447E-01  0.66282488236E-01  0.97727042083E-01  0.51100000000E-03 0.  1.
</event>
<event>
 8    1  0.1208168E+005  0.1043930E+01  0.7957747E-01            NaN
         13   -1    0    0    0    0  0.00000000000E+00  0.00000000000E+00  0.74505805969E-08  0.10566000000E+00  0.10566000000E+00 0.  1.
     999900   -1    0    0    0    0 -0.00000000000E+00 -0.00000000000E+00 -0.74505805969E-08  0.93827000000E+00  0.93827000000E+00 0. -1.
     999902    2    1    2    0    0 -0.16414822210E-01  0.66180348345E-02  0.14234409487E-01  0.10212173783E+01  0.10209647743E+01 0.  0.
     999903    2    3    3    0    0 -0.16716040344E-01  0.73739740260E-01  0.10822452249E+00  0.13367044686E+00  0.20934798717E-01 0.  0.
         14    1    1    2    0    0  0.16414822210E-01 -0.66180348345E-02 -0.14234409487E-01  0.22712621749E-01  0.00000000000E+00 0. -1.
     999901    1    3    3    0    0  0.30121813400E-03 -0.67121705426E-01 -0.93990113008E-01  0.88754693139E+00  0.88000000000E+00 0. -1.
        -11    1    4    4    0    0 -0.12856567836E-01  0.16432714165E-01  0.32536868800E-01  0.38655328012E-01  0.51100000000E-03 0.  1.
         11    1    4    4    0    0 -0.38594725088E-02  0.57307026095E-01  0.75687653694E-01  0.95015118853E-01  0.51100000000E-03 0. -1.
</event>
<event>
 8    1  0.1208168E+005  0.1043930E+01  0.7957747E-01            NaN
         13   -1    0    0    0    0  0.00000000000E+00  0.00000000000E+00  0.74505805969E-08  0.10566000000E+00  0.10566000000E+00 0. -1.
     999900   -1    0    0    0    0 -0.00000000000E+00 -0.00000000000E+00 -0.74505805969E-08  0.93827000000E+00  0.93827000000E+00 0.  1.
     999902    2    1    2    0    0 -0.85461541211E-02 -0.86907361382E-02  0.19552223749E-01  0.10208897071E+01  0.10206296776E+01 0.  0.
     999903    2    3    3    0    0  0.11720722305E+00  0.26791490794E-01 -0.42536084574E-01  0.12907814719E+00  0.19913123264E-01 0.  0.
         14    1    1    2    0    0  0.85461541211E-02  0.86907361382E-02 -0.19552223749E-01  0.23040292933E-01  0.00000000000E+00 0.  1.
     999901    1    3    3    0    0 -0.12575337717E+00 -0.35482226932E-01  0.62088308323E-01  0.89181155988E+00  0.88000000000E+00 0.  1.
        -11    1    4    4    0    0  0.70710546590E-01  0.13095851170E-01 -0.15472409793E-01  0.73560446591E-01  0.51100000000E-03 0.  1.
         11    1    4    4    0    0  0.46496676457E-01  0.13695639624E-01 -0.27063674781E-01  0.55517700600E-01  0.51100000000E-03 0. -1.
</event>
<event>
 8    1  0.1208168E+005  0.1043930E+01  0.7957747E-01            NaN
         13   -1    0    0    0    0  0.00000000000E+00  0.00000000000E+00  0.74505805969E-08  0.10566000000E+00  0.10566000000E+00 0.  1.
     999900   -1    0    0    0    0 -0.00000000000E+00 -0.00000000000E+00 -0.74505805969E-08  0.93827000000E+00  0.93827000000E+00 0.  1.
     999902    2    1    2    0    0  0.20391253835E-01 -0.10994858978E-01 -0.91857267288E-03  0.10207452220E+01  0.10204818833E+01 0.  0.
     999903    2    3    3    0    0  0.11535524910E-01  0.63807770150E-01  0.11131956734E+00  0.13042434872E+00  0.20346124947E-01 0.  0.
         14    1    1    2    0    0 -0.20391253835E-01  0.10994858978E-01  0.91857267288E-03  0.23184778038E-01  0.00000000000E+00 0. -1.
     999901    1    3    3    0    0  0.88557289253E-02 -0.74802629128E-01 -0.11223814001E+00  0.89032087324E+00  0.88000000000E+00 0.  1.
        -11    1    4    4    0    0  0.16959499353E-01  0.51701713589E-01  0.93835574777E-01  0.10847150788E+00  0.51100000000E-03 0.  1.
         11    1    4    4    0    0 -0.54239744436E-02  0.12106056562E-01  0.17483992560E-01  0.21952840843E-01  0.51100000000E-03 0. -1.
</event>
<event>
 8    1  0.1208168E+005  0.1043930E+01  0.7957747E-01            NaN
         13   -1    0    0    0    0  0.00000000000E+00  0.00000000000E+00  0.74505805969E-08  0.10566000000E+00  0.10566000000E+00 0. -1.
     999900   -1    0    0    0    0 -0.00000000000E+00 -0.00000000000E+00 -0.74505805969E-08  0.93827000000E+00  0.93827000000E+00 0. -1.
     999902    2    1    2    0    0  0.21573755393E-01 -0.63119668071E-03  0.13208639954E-01  0.10186259786E+01  0.10183116373E+01 0.  0.
     999903    2    3    3    0    0 -0.57405963694E-01 -0.10770765249E+00 -0.30817826636E-01  0.12753591961E+00  0.20476554426E-01 0.  0.
         14    1    1    2    0    0 -0.21573755393E-01  0.63119668071E-03 -0.13208639954E-01  0.25304021428E-01  0.00000000000E+00 0.  1.
     999901    1    3    3    0    0  0.78979719086E-01  0.10707645581E+00  0.44026466590E-01  0.89109005896E+00  0.88000000000E+00 0.  1.
        -11    1    4    4    0    0 -0.18612194473E-01 -0.53831657107E-01 -0.91036774058E-02  0.57683612520E-01  0.51100000000E-03 0. -1.
         11    1    4    4    0    0 -0.38793769220E-01 -0.53875995380E-01 -0.21714149230E-01  0.69852307093E-01  0.51100000000E-03 0.  1.
</event>
<event>
 8    1  0.1208168E+005  0.1043930E+01  0.7957747E-01            NaN
         13   -1    0    0    0    0  0.00000000000E+00  0.00000000000E+00  0.74505805969E-08  0.10566000000E+00  0.10566000000E+00 0.  1.
     999900   -1    0    0    0    0 -0.00000000000E+00 -0.00000000000E+00 -0.74505805969E-08  0.93827000000E+00  0.93827000000E+00 0.  1.
     999902    2    1    2    0    0 -0.41313831831E-02 -0.15807443730E-01  0.18065960898E-01  0.10195717869E+01  0.10192807788E+01 0.  0.
     999903    2    3    3    0    0  0.44561272413E-01  0.15239785818E-01  0.12094724612E+00  0.13169822378E+00  0.22321015446E-01 0.  0.
         14    1    1    2    0    0  0.41313831831E-02  0.15807443730E-01 -0.18065960898E-01  0.24358213142E-01  0.00000000000E+00 0. -1.
     999901    1    3    3    0    0 -0.48692655596E-01 -0.31047229548E-01 -0.10288128522E+00  0.88787356308E+00  0.88000000000E+00 0.  1.
        -11    1    4    4    0    0  0.31420526756E-02  0.65447414813E-02  0.36722705397E-01  0.37436938293E-01  0.51100000000E-03 0. -1.
         11    1    4    4    0    0  0.41419219737E-01  0.86950443367E-02  0.84224540724E-01  0.94261285483E-01  0.51100000000E-03 0.  1.
</event>
<event>
 8    1  0.1208168E+005  0.1043930E+01  0.7957747E-01            NaN
         13   -1    0    0    0    0  0.00000000000E+00  0.00000000000E+00  0.74505805969E-08  0.10566000000E+00  0.10566000000E+00 0. -1.
     999900   -1    0    0    0    0 -0.00000000000E+00 -0.00000000000E+00 -0.74505805969E-08  0.93827000000E+00  0.93827000000E+00 0.  1.
     999902    2    1    2    0    0  0.39150378101E-02  0.16787521178E-01  0.16296640643E-01  0.10202080927E+01  0.10199322642E+01 0.  0.
     999903    2    3    3    0    0  0.55661517146E-01 -0.98404926169E-01  0.60972311265E-01  0.13007163488E+00  0.20476168429E-01 0.  0.
         14    1    1    2    0    0 -0.39150378101E-02 -0.16787521178E-01 -0.16296640643E-01  0.23721907271E-01  0.00000000000E+00 0.  1.
     999901    1    3    3    0    0 -0.51746479336E-01  0.11519244735E+00 -0.44675670622E-01  0.89013645785E+00  0.88000000000E+00 0.  1.
        -11    1    4    4    0    0  0.41690301678E-01 -0.69718235794E-01  0.33162602557E-01  0.87742424092E-01  0.51100000000E-03 0. -1.
         11    1    4    4    0    0  0.13971215468E-01 -0.28686690375E-01  0.27809708708E-01  0.42329210786E-01  0.51100000000E-03 0.  1.
</event>
<event>
 8    1  0.1208168E+005  0.1043930E+01  0.7957747E-01            NaN
         13   -1    0    0    0    0  0.00000000000E+00  0.00000000000E+00  0.74505805969E-08  0.10566000000E+00  0.10566000000E+00 0. -1.
     999900   -1    0    0    0    0 -0.00000000000E+00 -0.00000000000E+00 -0.74505805969E-08  0.93827000000E+00  0.93827000000E+00 0.  1.
     999902    2    1    2    0    0 -0.14700484787E-03 -0.20730956375E-01  0.25008672072E-02  0.10230482257E+01  0.10228350911E+01 0.  0.
     999903    2    3    3    0    0  0.50279671195E-01 -0.60484726284E-01 -0.10655927709E+00  0.13399405018E+00  0.20324332694E-01 0.  0.
         14    1    1    2    0    0  0.14700484787E-03  0.20730956375E-01 -0.25008672072E-02  0.20881774336E-01  0.00000000000E+00 0. -1.
     999901    1    3    3    0    0 -0.50426676043E-01  0.39753769910E-01  0.10906014430E+00  0.88905417549E+00  0.88000000000E+00 0. -1.
        -11    1    4    4    0    0  0.56765286623E-02 -0.20617980989E-01 -0.26737558749E-01  0.34241528683E-01  0.51100000000E-03 0. -1.
         11    1    4    4    0    0  0.44603142533E-01 -0.39866745295E-01 -0.79821718341E-01  0.99752521492E-01  0.51100000000E-03 0.  1.
</event>
<event>
 8    1  0.1208168E+005  0.1043930E+01  0.7957747E-01            NaN
         13   -1    0    0    0    0  0.00000000000E+00  0.00000000000E+00  0.74505805969E-08  0.10566000000E+00  0.10566000000E+00 0.  1.
     999900   -1    0    0    0    0 -0.00000000000E+00 -0.00000000000E+00 -0.74505805969E-08  0.93827000000E+00  0.93827000000E+00 0.  1.
     999902    2    1    2    0    0  0.18991540307E-01  0.14967499856E-01 -0.12611194736E-02  0.10197164691E+01  0.10194289491E+01 0.  0.
     999903    2    3    3    0    0 -0.45734146288E-02  0.79990462900E-01  0.10168619354E+00  0.13101998433E+00  0.20168392640E-01 0.  0.
         14    1    1    2    0    0 -0.18991540307E-01 -0.14967499856E-01  0.12611194736E-02  0.24213530876E-01  0.00000000000E+00 0.  1.
     999901    1    3    3    0    0  0.23564954935E-01 -0.65022963045E-01 -0.10294731301E+00  0.88869648479E+00  0.88000000000E+00 0.  1.
        -11    1    4    4    0    0 -0.73648262777E-02  0.70061050057E-01  0.96456927866E-01  0.11944451204E+00  0.51100000000E-03 0.  1.
         11    1    4    4    0    0  0.27914116490E-02  0.99294128431E-02  0.52292656727E-02  0.11575472296E-01  0.51100000000E-03 0. -1.
</event>
<event>
 8    1  0.1208168E+005  0.1043930E+01  0.7957747E-01            NaN
         13   -1    0    0    0    0  0.00000000000E+00  0.00000000000E+00  0.74505805969E-08  0.10566000000E+00  0.10566000000E+00 0. -1.
     999900   -1    0    0    0    0 -0.00000000000E+00 -0.00000000000E+00 -0.74505805969E-08  0.93827000000E+00  0.93827000000E+00 0.  1.
     999902    2    1    2    0    0 -0.81825204590E-02  0.93214029960E-02 -0.21646045843E-01  0.10189821846E+01  0.10186767392E+01 0.  0.
     999903    2    3    3    0    0  0.24193864592E-01  0.10699029126E+00 -0.70052357961E-01  0.13166566093E+00  0.19905976608E-01 0.  0.
         14    1    1    2    0    0  0.81825204590E-02 -0.93214029960E-02  0.21646045843E-01  0.24947815445E-01  0.00000000000E+00 0. -1.
     999901    1    3    3    0    0 -0.32376385051E-01 -0.97668888263E-01  0.48406312118E-01  0.88731652362E+00  0.88000000000E+00 0. -1.
        -11    1    4    4    0    0  0.13015891970E-01  0.78155942322E-01 -0.59125755870E-01  0.98862939934E-01  0.51100000000E-03 0. -1.
         11    1    4    4    0    0  0.11177972622E-01  0.28834348937E-01 -0.10926602091E-01  0.32802720997E-01  0.51100000000E-03 0.  1.
</event>
<event>
 8    1  0.1208168E+005  0.1043930E+01  0.7957747E-01            NaN
         13   -1    0    0    0    0  0.00000000000E+00  0.00000000000E+00  0.74505805969E-08  0.10566000000E+00  0.10566000000E+00 0.  1.
     999900   -1    0    0    0    0 -0.00000000000E+00 -0.00000000000E+00 -0.74505805969E-08  0.93827000000E+00  0.93827000000E+00 0. -1.
     999902    2    1    2    0    0 -0.18836013692E-02 -0.12775607152E-01 -0.17730374780E-01  0.10219953178E+01  0.10217599030E+01 0.  0.
     999903    2    3    3    0    0 -0.10538448873E+00 -0.13054136191E-01  0.74370355727E-01  0.13115579478E+00  0.19864333768E-01 0.  0.
         14    1    1    2    0    0  0.18836013692E-02  0.12775607152E-01  0.17730374780E-01  0.21934682173E-01  0.00000000000E+00 0.  1.
     999901    1    3    3    0    0  0.10350088736E+00  0.27852903936E-03 -0.92100730508E-01  0.89083952305E+00  0.88000000000E+00 0. -1.
        -11    1    4    4    0    0 -0.36857827420E-01 -0.14142875985E-01  0.26194757048E-01  0.47380869568E-01  0.51100000000E-03 0.  1.
         11    1    4    4    0    0 -0.68526661313E-01  0.10887397936E-02  0.48175598680E-01  0.83774925211E-01  0.51100000000E-03 0. -1.
</event>
<event>
 8    1  0.1208168E+005  0.1043930E+01  0.7957747E-01            NaN
         13   -1    0    0    0    0  0.00000000000E+00  0.00000000000E+00  0.74505805969E-08  0.10566000000E+00  0.10566000000E+00 0.  1.
     999900   -1    0    0    0    0 -0.00000000000E+00 -0.00000000000E+00 -0.74505805969E-08  0.93827000000E+00  0.93827000000E+00 0. -1.
     999902    2    1    2    0    0  0.19123598649E-01 -0.84491968274E-02  0.84484525340E-02  0.10213805587E+01  0.10211316117E+01 0.  0.
     999903    2    3    3    0    0  0.73572414095E-01  0.24731101696E-02  0.11004741476E+00  0.13379601658E+00  0.19285335590E-01 0.  0.
         14    1    1    2    0    0 -0.19123598649E-01  0.84491968274E-02 -0.84484525340E-02  0.22549441291E-01  0.00000000000E+00 0. -1.
     999901    1    3    3    0    0 -0.54448815447E-01 -0.10922306997E-01 -0.10159896223E+00  0.88758454212E+00  0.88000000000E+00 0. -1.
        -11    1    4    4    0    0  0.18308887776E-01 -0.59923838451E-02  0.19778425664E-01  0.27614693163E-01  0.51100000000E-03 0. -1.
         11    1    4    4    0    0  0.55263526320E-01  0.84654940147E-02  0.90268989096E-01  0.10618132342E+00  0.51100000000E-03 0.  1.
</event>
<event>
 8    1  0.1208168E+005  0.1043930E+01  0.7957747E-01            NaN
         13   -1    0    0    0    0  0.00000000000E+00  0.00000000000E+00  0.74505805969E-08  0.10566000000E+00  0.10566000000E+00 0. -1.
     999900   -1    0    0    0    0 -0.00000000000E+00 -0.00000000000E+00 -0.74505805969E-08  0.93827000000E+00  0.93827000000E+00 0. -1.
     999902    2    1    2    0    0  0.24288485323E-02  0.42426140335E-02 -0.23581123217E-01  0.10198474658E+01  0.10195630854E+01 0.  0.
     999903    2    3    3    0    0 -0.28407384105E-01 -0.12414944731E+00 -0.19217016358E-01  0.12998543155E+00  0.17517247418E-01 0.  0.
         14    1    1    2    0    0 -0.24288485323E-02 -0.42426140335E-02  0.23581123217E-01  0.24082534153E-01  0.00000000000E+00 0. -1.
     999901    1    3    3    0    0  0.30836232637E-01  0.12839206135E+00 -0.43641068587E-02  0.88986203430E+00  0.88000000000E+00 0.  1.
        -11    1    4    4    0    0 -0.29350434933E-01 -0.10488347145E+00 -0.12865774817E-01  0.10967123550E+00  0.51100000000E-03 0.  1.
         11    1    4    4    0    0  0.94305082813E-03 -0.19265975866E-01 -0.63512415414E-02  0.20314196047E-01  0.51100000000E-03 0. -1.
</event>
